<?xml version="1.0"?>
<VTKFile type="UnstructuredGrid"  version="0.1"  >
<UnstructuredGrid>
<Piece  NumberOfPoints="1250" NumberOfCells="2352">
<Points>
<DataArray  type="Float64"  NumberOfComponents="3"  format="ascii">0 0 0  0.0336 0 0  0.0336 0.07729999999999999 0  0 0.07729999999999999 0  0.001400000000000002 0 0  0.002800000000000005 0 0  0.004200000000000008 0 0  0.005600000000000009 0 0  0.007000000000000011 0 0  0.008400000000000013 0 0  0.009800000000000019 0 0  0.01120000000000002 0 0  0.01260000000000003 0 0  0.01400000000000003 0 0  0.01540000000000004 0 0  0.01680000000000005 0 0  0.01820000000000004 0 0  0.01960000000000004 0 0  0.02100000000000004 0 0  0.02240000000000003 0 0  0.02380000000000003 0 0  0.02520000000000002 0 0  0.02660000000000002 0 0  0.02800000000000001 0 0  0.02940000000000001 0 0  0.03080000000000001 0 0  0.0322 0 0  0.0336 0.001577551020408161 0  0.0336 0.003155102040816321 0  0.0336 0.004732653061224482 0  0.0336 0.006310204081632642 0  0.0336 0.007887755102040803 0  0.0336 0.009465306122448964 0  0.0336 0.01104285714285712 0  0.0336 0.01262040816326528 0  0.0336 0.01419795918367344 0  0.0336 0.0157755102040816 0  0.0336 0.01735306122448976 0  0.0336 0.01893061224489792 0  0.0336 0.02050816326530608 0  0.0336 0.02208571428571425 0  0.0336 0.02366326530612241 0  0.0336 0.02524081632653058 0  0.0336 0.02681836734693874 0  0.0336 0.02839591836734691 0  0.0336 0.02997346938775507 0  0.0336 0.03155102040816323 0  0.0336 0.0331285714285714 0  0.0336 0.03470612244897956 0  0.0336 0.03628367346938772 0  0.0336 0.03786122448979588 0  0.0336 0.03943877551020405 0  0.0336 0.04101632653061221 0  0.0336 0.04259387755102037 0  0.0336 0.04417142857142854 0  0.0336 0.04574897959183671 0  0.0336 0.04732653061224486 0  0.0336 0.04890408163265302 0  0.0336 0.05048163265306119 0  0.0336 0.05205918367346936 0  0.0336 0.05363673469387752 0  0.0336 0.05521428571428568 0  0.0336 0.05679183673469385 0  0.0336 0.05836938775510202 0  0.0336 0.05994693877551018 0  0.0336 0.06152448979591834 0  0.0336 0.0631020408163265 0  0.0336 0.06467959183673468 0  0.0336 0.06625714285714283 0  0.0336 0.06783469387755101 0  0.0336 0.06941224489795916 0  0.0336 0.07098979591836733 0  0.0336 0.07256734693877549 0  0.0336 0.07414489795918365 0  0.0336 0.07572244897959182 0  0.03219999999999999 0.07729999999999999 0  0.03079999999999999 0.07729999999999999 0  0.02939999999999999 0.07729999999999999 0  0.02799999999999999 0.07729999999999999 0  0.02659999999999999 0.07729999999999999 0  0.02519999999999999 0.07729999999999999 0  0.02379999999999998 0.07729999999999999 0  0.02239999999999998 0.07729999999999999 0  0.02099999999999997 0.07729999999999999 0  0.01959999999999996 0.07729999999999999 0  0.01819999999999996 0.07729999999999999 0  0.01679999999999995 0.07729999999999999 0  0.01539999999999996 0.07729999999999999 0  0.01399999999999996 0.07729999999999999 0  0.01259999999999996 0.07729999999999999 0  0.01119999999999997 0.07729999999999999 0  0.009799999999999972 0.07729999999999999 0  0.008399999999999977 0.07729999999999999 0  0.006999999999999978 0.07729999999999999 0  0.005599999999999983 0.07729999999999999 0  0.004199999999999988 0.07729999999999999 0  0.00279999999999999 0.07729999999999999 0  0.001399999999999998 0.07729999999999999 0  0 0.07572244897959184 0  0 0.07414489795918368 0  0 0.07256734693877551 0  0 0.07098979591836735 0  0 0.06941224489795919 0  0 0.06783469387755103 0  0 0.06625714285714288 0  0 0.06467959183673472 0  0 0.06310204081632656 0  0 0.0615244897959184 0  0 0.05994693877551023 0  0 0.05836938775510207 0  0 0.05679183673469392 0  0 0.05521428571428574 0  0 0.05363673469387759 0  0 0.05205918367346941 0  0 0.05048163265306126 0  0 0.04890408163265308 0  0 0.04732653061224493 0  0 0.04574897959183676 0  0 0.0441714285714286 0  0 0.04259387755102043 0  0 0.04101632653061228 0  0 0.03943877551020411 0  0 0.03786122448979595 0  0 0.03628367346938779 0  0 0.03470612244897962 0  0 0.03312857142857146 0  0 0.03155102040816329 0  0 0.02997346938775513 0  0 0.02839591836734697 0  0 0.0268183673469388 0  0 0.02524081632653064 0  0 0.02366326530612247 0  0 0.02208571428571431 0  0 0.02050816326530614 0  0 0.01893061224489798 0  0 0.01735306122448981 0  0 0.01577551020408165 0  0 0.01419795918367349 0  0 0.01262040816326532 0  0 0.01104285714285716 0  0 0.009465306122448988 0  0 0.00788775510204083 0  0 0.006310204081632659 0  0 0.004732653061224501 0  0 0.003155102040816343 0  0 0.001577551020408172 0  0.001400000000000004 0.001577551020408172 0  0.001400000000000004 0.003155102040816329 0  0.001400000000000002 0.004732653061224501 0  0.001400000000000002 0.006310204081632645 0  0.001400000000000005 0.007887755102040823 0  0.001400000000000002 0.009465306122448981 0  0.001400000000000002 0.01104285714285717 0  0.001400000000000004 0.01262040816326531 0  0.0014 0.01419795918367349 0  0.001400000000000002 0.01577551020408166 0  0.001400000000000005 0.0173530612244898 0  0.001400000000000002 0.01893061224489797 0  0.001400000000000002 0.02050816326530613 0  0.001400000000000002 0.02208571428571431 0  0.001400000000000002 0.02366326530612247 0  0.001400000000000002 0.02524081632653063 0  0.001400000000000002 0.0268183673469388 0  0.001400000000000002 0.02839591836734696 0  0.001400000000000002 0.02997346938775513 0  0.001400000000000002 0.03155102040816328 0  0.001400000000000002 0.03312857142857147 0  0.001399999999999997 0.03470612244897962 0  0.001400000000000005 0.03628367346938778 0  0.001400000000000002 0.03786122448979594 0  0.001400000000000002 0.03943877551020411 0  0.001400000000000002 0.04101632653061228 0  0.001400000000000002 0.04259387755102043 0  0.001400000000000002 0.0441714285714286 0  0.0014 0.04574897959183676 0  0.001400000000000002 0.04732653061224492 0  0.001400000000000004 0.04890408163265308 0  0.001400000000000002 0.05048163265306126 0  0.001400000000000002 0.05205918367346941 0  0.0014 0.05363673469387758 0  0.001400000000000004 0.05521428571428574 0  0.001399999999999998 0.05679183673469391 0  0.001400000000000002 0.05836938775510207 0  0.0014 0.05994693877551023 0  0.001400000000000002 0.0615244897959184 0  0.001400000000000002 0.06310204081632656 0  0.001400000000000002 0.06467959183673472 0  0.0014 0.06625714285714286 0  0.001400000000000002 0.06783469387755102 0  0.001399999999999998 0.06941224489795919 0  0.001400000000000002 0.07098979591836735 0  0.0014 0.07256734693877552 0  0.001400000000000002 0.07414489795918368 0  0.001400000000000002 0.07572244897959184 0  0.002800000000000006 0.001577551020408165 0  0.002800000000000004 0.003155102040816343 0  0.002800000000000002 0.004732653061224487 0  0.002800000000000002 0.006310204081632652 0  0.002800000000000002 0.007887755102040813 0  0.0028 0.009465306122448981 0  0.002799999999999997 0.01104285714285715 0  0.0028 0.01262040816326532 0  0.0028 0.01419795918367348 0  0.0028 0.01577551020408165 0  0.002799999999999997 0.0173530612244898 0  0.0028 0.01893061224489797 0  0.002800000000000004 0.02050816326530613 0  0.0028 0.0220857142857143 0  0.0028 0.02366326530612247 0  0.002800000000000004 0.02524081632653064 0  0.0028 0.0268183673469388 0  0.0028 0.02839591836734696 0  0.002799999999999995 0.02997346938775512 0  0.002799999999999997 0.03155102040816328 0  0.002799999999999995 0.03312857142857146 0  0.0028 0.03470612244897962 0  0.002799999999999995 0.03628367346938778 0  0.002799999999999997 0.03786122448979594 0  0.002799999999999997 0.03943877551020411 0  0.002799999999999997 0.04101632653061228 0  0.002799999999999997 0.04259387755102043 0  0.002799999999999995 0.0441714285714286 0  0.002799999999999997 0.04574897959183676 0  0.002799999999999997 0.04732653061224493 0  0.002799999999999995 0.04890408163265308 0  0.002799999999999993 0.05048163265306124 0  0.002799999999999995 0.05205918367346941 0  0.002799999999999995 0.05363673469387757 0  0.002799999999999992 0.05521428571428574 0  0.002799999999999997 0.05679183673469391 0  0.002799999999999993 0.05836938775510207 0  0.002799999999999993 0.05994693877551022 0  0.002799999999999992 0.0615244897959184 0  0.002799999999999988 0.06310204081632655 0  0.002799999999999992 0.0646795918367347 0  0.002799999999999992 0.06625714285714286 0  0.00279999999999999 0.06783469387755103 0  0.00279999999999999 0.06941224489795919 0  0.002799999999999988 0.07098979591836735 0  0.00279999999999999 0.07256734693877552 0  0.002799999999999988 0.07414489795918368 0  0.00279999999999999 0.07572244897959184 0  0.004200000000000006 0.001577551020408172 0  0.004200000000000006 0.003155102040816329 0  0.004200000000000008 0.00473265306122448 0  0.004200000000000009 0.006310204081632652 0  0.004200000000000008 0.00788775510204082 0  0.004200000000000008 0.009465306122448978 0  0.004200000000000006 0.01104285714285716 0  0.004200000000000006 0.01262040816326532 0  0.004200000000000004 0.01419795918367349 0  0.004200000000000002 0.01577551020408165 0  0.004200000000000004 0.0173530612244898 0  0.004200000000000006 0.01893061224489797 0  0.004200000000000006 0.02050816326530613 0  0.004200000000000002 0.0220857142857143 0  0.004200000000000004 0.02366326530612247 0  0.004199999999999999 0.02524081632653062 0  0.004200000000000004 0.0268183673469388 0  0.004200000000000004 0.02839591836734696 0  0.004200000000000002 0.02997346938775512 0  0.004199999999999999 0.03155102040816328 0  0.004200000000000001 0.03312857142857145 0  0.004200000000000001 0.03470612244897962 0  0.004199999999999995 0.03628367346938778 0  0.004199999999999999 0.03786122448979594 0  0.004199999999999999 0.0394387755102041 0  0.004199999999999997 0.04101632653061227 0  0.004199999999999999 0.04259387755102043 0  0.004199999999999999 0.04417142857142859 0  0.004199999999999999 0.04574897959183676 0  0.004199999999999999 0.04732653061224492 0  0.004199999999999997 0.04890408163265308 0  0.004199999999999997 0.05048163265306124 0  0.004199999999999999 0.05205918367346941 0  0.004199999999999992 0.05363673469387757 0  0.0
[...]
<PointData  Vectors="displacement"> 
<DataArray  type="Float64"  Name="displacement"  NumberOfComponents="3" format="ascii">0.0000000000000000e+00 0.0000000000000000e+00 0.0000000000000000e+00  0.0000000000000000e+00 0.0000000000000000e+00 0.0000000000000000e+00  1.4579146679836329e-02 -1.1699627956195519e-01 0.0000000000000000e+00  -1.2994572228784871e-02 -1.1666819688607936e-01 0.0000000000000000e+00  0.0000000000000000e+00 0.0000000000000000e+00 0.0000000000000000e+00  0.0000000000000000e+00 0.0000000000000000e+00 0.0000000000000000e+00  0.0000000000000000e+00 0.0000000000000000e+00 0.0000000000000000e+00  0.0000000000000000e+00 0.0000000000000000e+00 0.0000000000000000e+00  0.0000000000000000e+00 0.0000000000000000e+00 0.0000000000000000e+00  0.0000000000000000e+00 0.0000000000000000e+00 0.0000000000000000e+00  0.0000000000000000e+00 0.0000000000000000e+00 0.0000000000000000e+00  0.0000000000000000e+00 0.0000000000000000e+00 0.0000000000000000e+00  0.0000000000000000e+00 0.0000000000000000e+00 0.0000000000000000e+00  0.0000000000000000e+00 0.0000000000000000e+00 0.0000000000000000e+00  0.0000000000000000e+00 0.0000000000000000e+00 0.0000000000000000e+00  0.0000000000000000e+00 0.0000000000000000e+00 0.0000000000000000e+00  0.0000000000000000e+00 0.0000000000000000e+00 0.0000000000000000e+00  0.0000000000000000e+00 0.0000000000000000e+00 0.0000000000000000e+00  0.0000000000000000e+00 0.0000000000000000e+00 0.0000000000000000e+00  0.0000000000000000e+00 0.0000000000000000e+00 0.0000000000000000e+00  0.0000000000000000e+00 0.0000000000000000e+00 0.0000000000000000e+00  0.0000000000000000e+00 0.0000000000000000e+00 0.0000000000000000e+00  0.0000000000000000e+00 0.0000000000000000e+00 0.0000000000000000e+00  0.0000000000000000e+00 0.0000000000000000e+00 0.0000000000000000e+00  0.0000000000000000e+00 0.0000000000000000e+00 0.0000000000000000e+00  0.0000000000000000e+00 0.0000000000000000e+00 0.0000000000000000e+00  0.0000000000000000e+00 0.0000000000000000e+00 0.0000000000000000e+00  6.3202551591907078e-03 -5.4808420615953569e-03 0.0000000000000000e+00  7.9813389261480013e-03 -7.6377173858843215e-03 0.0000000000000000e+00  9.3638573281292319e-03 -9.7895326901233700e-03 0.0000000000000000e+00  1.0554862366076338e-02 -1.1842976214022667e-02 0.0000000000000000e+00  1.1521135275876095e-02 -1.3861296564282886e-02 0.0000000000000000e+00  1.2290677068140812e-02 -1.5885261150423390e-02 0.0000000000000000e+00  1.2900887254115867e-02 -1.7934478632087972e-02 0.0000000000000000e+00  1.3385053457633371e-02 -2.0015606162110771e-02 0.0000000000000000e+00  1.3768599523419715e-02 -2.2128685982793762e-02 0.0000000000000000e+00  1.4069404761824042e-02 -2.4271311011183860e-02 0.0000000000000000e+00  1.4299774391489117e-02 -2.6441072240282727e-02 0.0000000000000000e+00  1.4468784708003569e-02 -2.8636500984897430e-02 0.0000000000000000e+00  1.4584075906793392e-02 -3.0856999838543477e-02 0.0000000000000000e+00  1.4652835417818049e-02 -3.3102434245361148e-02 0.0000000000000000e+00  1.4682218210835462e-02 -3.5372771634976041e-02 0.0000000000000000e+00  1.4679500976325425e-02 -3.7667837335473270e-02 0.0000000000000000e+00  1.4652119991365621e-02 -3.9987124278777639e-02 0.0000000000000000e+00  1.4607603027064014e-02 -4.2329592905536000e-02 0.0000000000000000e+00  1.4553329986793817e-02 -4.4693459577810367e-02 0.0000000000000000e+00  1.4496074214583318e-02 -4.7076061449436948e-02 0.0000000000000000e+00  1.4441410933573097e-02 -4.9473940240782055e-02 0.0000000000000000e+00  1.4393241469587287e-02 -5.1883216671178775e-02 0.0000000000000000e+00  1.4353685444029445e-02 -5.4300128523014857e-02 0.0000000000000000e+00  1.4323369669010084e-02 -5.6721472560204801e-02 0.0000000000000000e+00  1.4301910116907972e-02 -5.9144801359312382e-02 0.0000000000000000e+00  1.4288369804088773e-02 -6.1568406408508566e-02 0.0000000000000000e+00  1.4281591626877720e-02 -6.3991191198551428e-02 0.0000000000000000e+00  1.4280401535492220e-02 -6.6412518131652457e-02 0.0000000000000000e+00  1.4283715330096586e-02 -6.8832071635334571e-02 0.0000000000000000e+00  1.4290584643721353e-02 -7.1249750749963578e-02 0.0000000000000000e+00  1.4300208396471928e-02 -7.3665590531651420e-02 0.0000000000000000e+00  1.4311926387182325e-02 -7.6079706923126433e-02 0.0000000000000000e+00  1.4325204738065228e-02 -7.8492259222438160e-02 0.0000000000000000e+00  1.4339618534605181e-02 -8.0903425193309911e-02 0.0000000000000000e+00  1.4354834436300314e-02 -8.3313385039920251e-02 0.0000000000000000e+00  1.4370594589422350e-02 -8.5722311505091103e-02 0.0000000000000000e+00  1.4386702386250701e-02 -8.8130364152502833e-02 0.0000000000000000e+00  1.4403010202111197e-02 -9.0537686479733565e-02 0.0000000000000000e+00  1.4419409036884098e-02 -9.2944404926822793e-02 0.0000000000000000e+00  1.4435819898627578e-02 -9.5350629140724619e-02 0.0000000000000000e+00  1.4452186743422026e-02 -9.7756453066175683e-02 0.0000000000000000e+00  1.4468470802787771e-02 -1.0016195658489688e-01 0.0000000000000000e+00  1.4484646180049283e-02 -1.0256720753535870e-01 0.0000000000000000e+00  1.4500696685650514e-02 -1.0497226402298708e-01 0.0000000000000000e+00  1.4516614031419586e-02 -1.0737717697009533e-01 0.0000000000000000e+00  1.4532397769990909e-02 -1.0978199281563863e-01 0.0000000000000000e+00  1.4548057886211217e-02 -1.1218675595710705e-01 0.0000000000000000e+00  1.4563621952906411e-02 -1.1459150883440662e-01 0.0000000000000000e+00  1.3429995787874368e-02 -1.1698250086162738e-01 0.0000000000000000e+00  1.2280830279923938e-02 -1.1696874697364705e-01 0.0000000000000000e+00  1.1131668467649661e-02 -1.1695505916368180e-01 0.0000000000000000e+00  9.9825401793012837e-03 -1.1694145362876070e-01 0.0000000000000000e+00  8.8334727797763184e-03 -1.1692792660296127e-01 0.0000000000000000e+00  7.6844863591492051e-03 -1.1691446104175808e-01 0.0000000000000000e+00  6.5355920570463770e-03 -1.1690103198739379e-01 0.0000000000000000e+00  5.3867917497101179e-03 -1.1688761097015499e-01 0.0000000000000000e+00  4.2380785580383570e-03 -1.1687416967046974e-01 0.0000000000000000e+00  3.0894379470366171e-03 -1.1686068291855461e-01 0.0000000000000000e+00  1.9408492680164134e-03 -1.1684713104492987e-01 0.0000000000000000e+00  7.9228762171290048e-04 -1.1683350157341804e-01 0.0000000000000000e+00  -3.5627406841548547e-04 -1.1681979024375251e-01 0.0000000000000000e+00  -1.5048628784903797e-03 -1.1680600135385565e-01 0.0000000000000000e+00  -2.6535037059951705e-03 -1.1679214741798918e-01 0.0000000000000000e+00  -3.8022171950168621e-03 -1.1677824814401087e-01 0.0000000000000000e+00  -4.9510178710183757e-03 -1.1676432873913162e-01 0.0000000000000000e+00  -6.0999125962557044e-03 -1.1675041755642780e-01 0.0000000000000000e+00  -7.2488994678798638e-03 -1.1673654308922718e-01 0.0000000000000000e+00  -8.3979673064999323e-03 -1.1672273029602501e-01 0.0000000000000000e+00  -9.5470959590407672e-03 -1.1670899616648443e-01 0.0000000000000000e+00  -1.0696257934308548e-02 -1.1669534428051594e-01 0.0000000000000000e+00  -1.1845423119028973e-02 -1.1668175814691538e-01 0.0000000000000000e+00  -1.3009855291679839e-02 -1.1426342488274431e-01 0.0000000000000000e+00  -1.3025098421632885e-02 -1.1185867175126717e-01 0.0000000000000000e+00  -1.3040246137862541e-02 -1.0945390857147036e-01 0.0000000000000000e+00  -1.3055270310014305e-02 -1.0704909275246532e-01 0.0000000000000000e+00  -1.3070160751748128e-02 -1.0464417983548084e-01 0.0000000000000000e+00  -1.3084917858909823e-02 -1.0223912335041217e-01 0.0000000000000000e+00  -1.3099549883614555e-02 -9.9833872334978091e-02 0.0000000000000000e+00  -1.3114072960758432e-02 -9.7428368616341784e-02 0.0000000000000000e+00  -1.3128512905530286e-02 -9.5022544243179699e-02 0.0000000000000000e+00  -1.3142908377158299e-02 -9.2616319151063387e-02 0.0000000000000000e+00  -1.3157315286676191e-02 -9.0209599107829289e-02 0.0000000000000000e+00  -1.3171812481450166e-02 -8.7802274025066504e-02 0.0000000000000000e+00  -1.3186508830976952e-02 -8.5394216798871103e-02 0.0000000000000000e+00  -1.3201551892120890e-02 -8.2985282952785636e-02 0.0000000000000000e+00  -1.3217138354252060e-02 -8.0575311507358249e-02 0.0000000000000000e+00  -1.3233526448334925e-02 -7.8164127712693682e-02 0.0000000000000000e+00  -1.3251050424793725e-02 -7.5751548581300884e-02 0.0000000000000000e+00  -1.3270137013052064e-02 -7.3337392588692055e-02 0.0000000000000000e+00  -1.3291323377336474e-02 -7.0921495521045097e-02 0.0000000000000000e+00  -1.3315275309300101e-02 -6.8503735301683397e-02 0.0000000000000000e+00  -1.3342802950775327e-02 -6.6084069760065575e-02 0.0000000000000000e+00  -1.3374868718209337e-02 -6.3662592655445355e-02 0.0000000000000000e+00  -1.3412577526475291e-02 -6.1239614448334118e-02 0.0000000000000000e+00  -1.3457131902113681e-02 -5.8815774103538283e-02 0.0000000000000000e+00  -1.3509723666956802e-02 -5.6392183535229949e-02 0.0000000000000000e+00  -1.3571322326629717e-02 -5.3970591043088254e-02 0.0000000000000000e+00  -1.3642321049712242e-02 -5.1553516623628282e-02 0.0000000000000000e+00  -1.3722045326774065e-02 -4.9144264752048993e-02 0.0000000000000000e+00  -1.3808243218882570e-02 -4.6746702730588036e-02 0.0000000000000000e+00  -1.3896800376855985e-02 -4.4364777225903727e-02 0.0000000000000000e+00  -1.3981897393876121e-02 -4.2001931388310328e-02 0.0000000000000000e+00  -1.4056566022401032e-02 -3.9660718831284830e-02 0.0000000000000000e+00  -1.4113337565230042e-02 -3.7342752469747206e-02 0.0000000000000000e+00  -1.4144712217879177e-02 -3.5048881092581148e-02 0.0000000000000000e+00  -1.4143387540624042e-02 -3.2779426907405367e-02 0.0000000000000000e+00  -1.4102315005649863e-02 -3.0534403715456002e-02 0.0000000000000000e+00  -1.4014649994103701e-02 -2.8313736641959113e-02 0.0000000000000000e+00  -1.3873559919480487e-02 -2.6117561604218291e-02 0.0000000000000000e+00  -1.3671690805375333e-02 -2.3946650979876777e-02 0.0000000000000000e+00  -1.3399982709007207e-02 -2.1802825339544044e-02 0.0000000000000000e+00  -1.3045710956558411e-02 -1.9688936500003956e-02 0.0000000000000000e+00  -1.2590096312496120e-02 -1.7607924893935225e-02 0.0000000000000000e+00  -1.2006095328382753e-02 -1.5560728404478856e-02 0.0000000000000000e+00  -1.1256726923748076e-02 -1.3542731844176533e-02 0.0000000000000000e+00  -1.0295439221563058e-02 -1.1536584773385422e-02 0.0000000000000000e+00  -9.0829188731346676e-03 -9.4991880403874473e-03 0.0000000000000000e+00  -7.6315312249422710e-03 -7.4127398392148753e-03 0.0000000000000000e+00  -5.5805824318922136e-03 -5.4472559507676467e-03 0.0000000000000000e+00  -3.7088073749167944e-03 -3.0378678964029060e-03 0.0000000000000000e+00  -6.5065892939214342e-03 -6.0719535579418357e-03 0.0000000000000000e+00  -8.0566916288975117e-03 -8.3904587079015984e-03 0.0000000000000000e+00  -9.2933021089142351e-03 -1.0609916560723886e-02 0.0000000000000000e+00  -1.0259096446481908e-02 -1.2789693461947527e-02 0.0000000000000000e+00  -1.1003689619105857e-02 -1.4956905391406795e-02 0.0000000000000000e+00  -1.1578049448112568e-02 -1.7126268409183191e-02 0.0000000000000000e+00  -1.2022202207088200e-02 -1.9306558237566381e-02 0.0000000000000000e+00  -1.2364947348387360e-02 -2.1502069212688518e-02 0.0000000000000000e+00  -1.2625722139110770e-02 -2.3714362373852150e-02 0.0000000000000000e+00  -1.2817193305448480e-02 -2.5943913542808044e-02 0.0000000000000000e+00  -1.2948121350652193e-02 -2.8191026165870652e-02 0.0000000000000000e+00  -1.3025635710445111e-02 -3.0456054191286608e-02 0.0000000000000000e+00  -1.3056493040024294e-02 -3.2739321401613931e-02 0.0000000000000000e+00  -1.3047572881443542e-02 -3.5041004999575312e-02 0.0000000000000000e+00  -1.3006033939964903e-02 -3.7361049070270637e-02 0.0000000000000000e+00  -1.2939356957394314e-02 -3.9699086605119963e-02 0.0000000000000000e+00  -1.2855299406115222e-02 -4.2054346625479563e-02 0.0000000000000000e+00  -1.2761670860705229e-02 -4.4425543920074965e-02 0.0000000000000000e+00  -1.2665819847539511e-02 -4.6810790177935345e-02 0.0000000000000000e+00  -1.2573867757230857e-02 -4.9207627515278379e-02 0.0000000000000000e+00  -1.2490021089288032e-02 -5.1613282343415404e-02 0.0000000000000000e+00  -1.2416388306523442e-02 -5.4025058574251064e-02 0.0000000000000000e+00  -1.2353356195588047e-02 -5.6440642669552100e-02 0.0000000000000000e+00  -1.2300212197659442e-02 -5.8858229031709307e-02 0.0000000000000000e+00  -1.2255704282684006e-02 -6.1276507083964683e-02 0.0000000000000000e+00  -1.2218418472162507e-02 -6.3694584020996023e-02 0.0000000000000000e+00  -1.2186989638520048e-02 -6.6111892581977708e-02 0.0000000000000000e+00  -1.2160199787881526e-02 -6.8528106151081514e-02 0.0000000000000000e+00  -1.2137011260359572e-02 -7.0943068697735520e-02 0.0000000000000000e+00  -1.2116566189628239e-02 -7.3356740373786852e-02 0.0000000000000000e+00  -1.2098170434249326e-02 -7.5769156916134200e-02 0.0000000000000000e+00  -1.2081271778444725e-02 -7.8180400235053696e-02 0.0000000000000000e+00  -1.2065437346132406e-02 -8.0590577639240546e-02 0.0000000000000000e+00  -1.2050332528166105e-02 -8.2999807531236799e-02 0.0000000000000000e+00  -1.2035702339169608e-02 -8.5408209852918748e-02 0.0000000000000000e+00  -1.2021355425106718e-02 -8.7815899966661504e-02 0.0000000000000000e+00  -1.2007150613619883e-02 -9.0222984991403965e-02 0.0000000000000000e+00  -1.1992985761102876e-02 -9.2629561873220800e-02 0.0000000000000000e+00  -1.1978788610872426e-02 -9.5035716667670009e-02 0.0000000000000000e+00  -1.1964509388849865e-02 -9.7441524658776230e-02 0.0000000000000000e+00  -1.1950114906123450e-02 -9.9847051047748145e-02 0.0000000000000000e+00  -1.1935584007785546e-02 -1.0225235202028436e-01 0.0000000000000000e+00  -1.1920904315817658e-02 -1.0465747604576342e-01 0.0000000000000000e+00  -1.1906070393252362e-02 -1.0706246526676090e-01 0.0000000000000000e+00  -1.1891083778024232e-02 -1.0946735678122978e-01 0.0000000000000000e+00  -1.1875955900309655e-02 -1.1187218351174973e-01 0.0000000000000000e+00  -1.1860715566508378e-02 -1.1427697470337947e-01 0.0000000000000000e+00  -2.5647506252908805e-03 -2.1612121264068572e-03 0.0000000000000000e+00  -5.1786719320468131e-03 -4.9259457246506929e-03 0.0000000000000000e+00  -6.9713295122432540e-03 -7.4230437085795430e-03 0.0000000000000000e+00  -8.2376441853622764e-03 -9.7679319074119968e-03 0.0000000000000000e+00  -9.2052443642488720e-03 -1.2071433012906058e-02 0.0000000000000000e+00  -9.9479138338333072e-03 -1.4352951485308477e-02 0.0000000000000000e+00  -1.0518212782637466e-02 -1.6624374526852809e-02 0.0000000000000000e+00  -1.0956938427355931e-02 -1.8894156332485302e-02 0.0000000000000000e+00  -1.1293913476933003e-02 -2.1167436197091459e-02 0.0000000000000000e+00  -1.1548951280197129e-02 -2.3446937847951387e-02 0.0000000000000000e+00  -1.1734436033883310e-02 -2.5734577202461115e-02 0.0000000000000000e+00  -1.1858824506169064e-02 -2.8032129182397572e-02 0.0000000000000000e+00  -1.1929257175039376e-02 -3.0341063015697702e-02 0.0000000000000000e+00  -1.1952671705209706e-02 -3.2662346916386885e-02 0.0000000000000000e+00  -1.1936136854687173e-02 -3.4996462633189750e-02 0.0000000000000000e+00  -1.1886965734190447e-02 -3.7343506854070965e-02 0.0000000000000000e+00  -1.1812783181054505e-02 -3.9703267508806678e-02 0.0000000000000000e+00  -1.1721532692212343e-02 -4.2075241664001999e-02 0.0000000000000000e+00  -1.1621314866339527e-02 -4.4458575226141973e-02 0.0000000000000000e+00  -1.1519884962461247e-02 -4.6851920750522406e-02 0.0000000000000000e+00  -1.1423729997957613e-02 -4.9253349535139018e-02 0.0000000000000000e+00  -1.1337128272750857e-02 -5.1660604459985521e-02 0.0000000000000000e+00  -1.1261943941556522e-02 -5.4071621896659802e-02 0.0000000000000000e+00  -1.1198210258511081e-02 -5.6484815705071169e-02 0.0000000000000000e+00  -1.1144915308561914e-02 -5.8899072767270487e-02 0.0000000000000000e+00  -1.1100598408320402e-02 -6.1313636709753531e-02 0.0000000000000000e+00  -1.1063707445058742e-02 -6.3728000593851752e-02 0.0000000000000000e+00  -1.1032785399339176e-02 -6.6141834239839312e-02 0.0000000000000000e+00  -1.1006552360603026e-02 -6.8554936242965159e-02 0.0000000000000000e+00  -1.0983929020057639e-02 -7.0967199878502446e-02 0.0000000000000000e+00  -1.0964030145646592e-02 -7.3378587123779912e-02 0.0000000000000000e+00  -1.0946144510638718e-02 -7.5789108273252109e-02 0.0000000000000000e+00  -1.0929710224428303e-02 -7.8198805977133634e-02 0.0000000000000000e+00  -1.0914290009305067e-02 -8.0607742970264948e-02 0.0000000000000000e+00  -1.0899548515804167e-02 -8.3015992878558389e-02 0.0000000000000000e+00  -1.0885232466023416e-02 -8.5423633541401131e-02 0.0000000000000000e+00  -1.0871153755930143e-02 -8.7830742342013851e-02 0.0000000000000000e+00  -1.0857175339344875e-02 -9.0237393103316382e-02 0.0000000000000000e+00  -1.0843199592561815e-02 -9.2643654177487891e-02 0.0000000000000000e+00  -1.0829158830071964e-02 -9.5049587425499557e-02 0.0000000000000000e+00  -1.0815007662810976e-02 -9.7455247843565171e-02 0.0000000000000000e+00  -1.0800716940245599e-02 -9.9860683644336715e-02 0.0000000000000000e+00  -1.0786269091896750e-02 -1.0226593664157349e-01 0.0000000000000000e+00  -1.0771654790395756e-02 -1.0467104282109699e-01 0.0000000000000000e+00  -1.0756871015865036e-02 -1.0707603302249664e-01 0.0000000000000000e+00  -1.0741920830689785e-02 -1.0948093376259953e-01 0.0000000000000000e+00  -1.0726815429662541e-02 -1.1188576859236171e-01 0.0000000000000000e+00  -1.0711579007970736e-02 -1.1429056132897344e-01 0.0000000000000000e+00  -2.0240312717789413e-03 -1.9156146093371354e-03 0.0000000000000000e+00  -4.1384762868027719e-03 -4.1934147419551825e-03 0.0000000000000000e+00  -5.8893244594241936e-03 -6.6402549539267318e-03 0.0000000000000000e+00  -7.1631313270011775e-03 -9.0555310807838730e-03 0.0000000000000000e+00  -8.1244096489036712e-03 -1.1433996019077349e-02 0.0000000000000000e+00  -8.8597912892905313e-03 -1.3791921478829612e-02 0.0000000000000000e+00  -9.4236790341513232e-03 -1.6138872482144909e-02 0.0000000000000000e+00  -9.8571657867116864e-03 -1.8481059859311814e-02 0.0000000000000000e+00  -1.0190688191134023e-02 -2.0821790325497216e-02 0.0000000000000000e+00  -1.0443595662800112e-02 -2.3162230903852051e-02 0.0000000000000000e+00  -1.0626757854309965e-02 -2.5504053371819192e-02 0.0000000000000000e+00  -1.0747732249297700e-02 -2.7849700117624252e-02 0.0000000000000000e+00  -1.0813745176798525e-02 -3.0201277775149301e-02 0.0000000000000000e+00  -1.0832101121495699e-02 -3.2560110356549092e-02 0.0000000000000000e+00  -1.0810166551343198e-02 -3.4926854727213234e-02 0.0000000000000000e+00  -1.0755424847609420e-02 -3.7301725460245017e-02 0.0000000000000000e+00  -1.0675597792770728e-02 -3.9684654456422712e-02 0.0000000000000000e+00  -1.0578745195683997e-02 -4.2075379345102068e-02 0.0000000000000000e+00  -1.0473254120331604e-02 -4.4473432488406531e-02 0.0000000000000000e+00  -1.0367469011650240e-02 -4.6877928588241052e-02 0.0000000000000000e+00  -1.0268536742577229e-02 -4.9287232822118034e-02 0.0000000000000000e+00  -1.0180809969384287e-02 -5.1699213893965611e-02 0.0000000000000000e+00  -1.0105628365595941e-02 -5.4112197163118929e-02 0.0000000000000000e+00  -1.0042443220576704e-02 -5.6525248753843432e-02 0.0000000000000000e+00  -9.9898810204390072e-03 -5.8937950360644253e-02 0.0000000000000000e+00  -9.9463104780240300e-03 -6.1350135528005480e-02 0.0000000000000000e+00  -9.9101149501676592e-03 -6.3761739208104601e-02 0.0000000000000000e+00  -9.8798200652737422e-03 -6.6172734868422442e-02 0.0000000000000000e+00  -9.8541459089841205e-03 -6.8583113806948329e-02 0.0000000000000000e+00  -9.8320179982618258e-03 -7.0992880149602436e-02 0.0000000000000000e+00  -9.8125564354018136e-03 -7.3402049867558800e-02 0.0000000000000000e+00  -9.7950548002000027e-03 -7.5810649785964829e-02 0.0000000000000000e+00  -9.7789555130009479e-03 -7.8218715757679150e-02 0.0000000000000000e+00  -9.7638253517051254e-03 -8.0626290243877533e-02 0.0000000000000000e+00  -9.7493329453667860e-03 -8.3033419738307718e-02 0.0000000000000000e+00  -9.7352289894710193e-03 -8.5440152377981984