<?xml version="1.0"?>
<VTKFile type="UnstructuredGrid"  version="0.1"  >
<UnstructuredGrid>
<Piece  NumberOfPoints="3167" NumberOfCells="6038">
<Points>
<DataArray  type="Float64"  NumberOfComponents="3"  format="ascii">2.2 2.9 0  0 2.9 0  2.8 2.9 0  5 2.9 0  5 0 0  0 0 0  2.16271186440678 2.9 0  2.125423728813559 2.9 0  2.088135593220339 2.9 0  2.050847457627119 2.9 0  2.013559322033898 2.9 0  1.976271186440678 2.9 0  1.938983050847457 2.9 0  1.901694915254237 2.9 0  1.864406779661016 2.9 0  1.827118644067796 2.9 0  1.789830508474575 2.9 0  1.752542372881355 2.9 0  1.715254237288134 2.9 0  1.677966101694914 2.9 0  1.640677966101693 2.9 0  1.603389830508473 2.9 0  1.566101694915253 2.9 0  1.528813559322032 2.9 0  1.491525423728812 2.9 0  1.454237288135591 2.9 0  1.416949152542371 2.9 0  1.37966101694915 2.9 0  1.34237288135593 2.9 0  1.305084745762709 2.9 0  1.267796610169489 2.9 0  1.230508474576268 2.9 0  1.193220338983048 2.9 0  1.155932203389827 2.9 0  1.118644067796607 2.9 0  1.081355932203387 2.9 0  1.044067796610166 2.9 0  1.006779661016946 2.9 0  0.9694915254237257 2.9 0  0.9322033898305055 2.9 0  0.8949152542372856 2.9 0  0.8576271186440652 2.9 0  0.820338983050845 2.9 0  0.783050847457625 2.9 0  0.7457627118644048 2.9 0  0.7084745762711844 2.9 0  0.6711864406779642 2.9 0  0.633898305084744 2.9 0  0.5966101694915238 2.9 0  0.5593220338983036 2.9 0  0.5220338983050834 2.9 0  0.4847457627118632 2.9 0  0.447457627118643 2.9 0  0.4101694915254228 2.9 0  0.3728813559322024 2.9 0  0.3355932203389822 2.9 0  0.2983050847457622 2.9 0  0.2610169491525418 2.9 0  0.2237288135593216 2.9 0  0.1864406779661016 2.9 0  0.1491525423728812 2.9 0  0.1118644067796613 2.9 0  0.07457627118644039 2.9 0  0.03728813559321997 2.9 0  2.792405063291139 2.9 0  2.784810126582279 2.9 0  2.777215189873418 2.9 0  2.769620253164557 2.9 0  2.762025316455697 2.9 0  2.754430379746836 2.9 0  2.746835443037975 2.9 0  2.739240506329114 2.9 0  2.731645569620254 2.9 0  2.724050632911393 2.9 0  2.716455696202532 2.9 0  2.708860759493671 2.9 0  2.701265822784811 2.9 0  2.69367088607595 2.9 0  2.686075949367089 2.9 0  2.678481012658228 2.9 0  2.670886075949368 2.9 0  2.663291139240507 2.9 0  2.655696202531646 2.9 0  2.648101265822786 2.9 0  2.640506329113925 2.9 0  2.632911392405064 2.9 0  2.625316455696203 2.9 0  2.617721518987342 2.9 0  2.610126582278482 2.9 0  2.602531645569621 2.9 0  2.59493670886076 2.9 0  2.587341772151899 2.9 0  2.579746835443038 2.9 0  2.572151898734178 2.9 0  2.564556962025317 2.9 0  2.556962025316456 2.9 0  2.549367088607595 2.9 0  2.541772151898734 2.9 0  2.534177215189874 2.9 0  2.526582278481013 2.9 0  2.518987341772152 2.9 0  2.511392405063292 2.9 0  2.503797468354431 2.9 0  2.49620253164557 2.9 0  2.488607594936709 2.9 0  2.481012658227848 2.9 0  2.473417721518988 2.9 0  2.465822784810127 2.9 0  2.458227848101266 2.9 0  2.450632911392406 2.9 0  2.443037974683545 2.9 0  2.435443037974684 2.9 0  2.427848101265823 2.9 0  2.420253164556962 2.9 0  2.412658227848102 2.9 0  2.405063291139241 2.9 0  2.39746835443038 2.9 0  2.389873417721519 2.9 0  2.382278481012658 2.9 0  2.374683544303798 2.9 0  2.367088607594937 2.9 0  2.359493670886076 2.9 0  2.351898734177215 2.9 0  2.344303797468355 2.9 0  2.336708860759494 2.9 0  2.329113924050633 2.9 0  2.321518987341773 2.9 0  2.313924050632912 2.9 0  2.306329113924051 2.9 0  2.29873417721519 2.9 0  2.291139240506329 2.9 0  2.283544303797469 2.9 0  2.275949367088608 2.9 0  2.268354430379747 2.9 0  2.260759493670887 2.9 0  2.253164556962026 2.9 0  2.245569620253165 2.9 0  2.237974683544304 2.9 0  2.230379746835443 2.9 0  2.222784810126583 2.9 0  2.215189873417722 2.9 0  2.207594936708861 2.9 0  4.96271186440678 2.9 0  4.925423728813559 2.9 0  4.888135593220339 2.9 0  4.850847457627118 2.9 0  4.813559322033898 2.9 0  4.776271186440677 2.9 0  4.738983050847457 2.9 0  4.701694915254237 2.9 0  4.664406779661016 2.9 0  4.627118644067796 2.9 0  4.589830508474575 2.9 0  4.552542372881355 2.9 0  4.515254237288135 2.9 0  4.477966101694914 2.9 0  4.440677966101694 2.9 0  4.403389830508473 2.9 0  4.366101694915252 2.9 0  4.328813559322032 2.9 0  4.291525423728811 2.9 0  4.254237288135591 2.9 0  4.21694915254237 2.9 0  4.17966101694915 2.9 0  4.14237288135593 2.9 0  4.105084745762709 2.9 0  4.067796610169489 2.9 0  4.030508474576268 2.9 0  3.993220338983048 2.9 0  3.955932203389827 2.9 0  3.918644067796607 2.9 0  3.881355932203387 2.9 0  3.844067796610166 2.9 0  3.806779661016946 2.9 0  3.769491525423725 2.9 0  3.732203389830505 2.9 0  3.694915254237285 2.9 0  3.657627118644065 2.9 0  3.620338983050845 2.9 0  3.583050847457625 2.9 0  3.545762711864405 2.9 0  3.508474576271184 2.9 0  3.471186440677964 2.9 0  3.433898305084744 2.9 0  3.396610169491524 2.9 0  3.359322033898303 2.9 0  3.322033898305083 2.9 0  3.284745762711863 2.9 0  3.247457627118643 2.9 0  3.210169491525423 2.9 0  3.172881355932202 2.9 0  3.135593220338982 2.9 0  3.098305084745762 2.9 0  3.061016949152542 2.9 0  3.023728813559321 2.9 0  2.986440677966101 2.9 0  2.949152542372881 2.9 0  2.911864406779661 2.9 0  2.87457627118644 2.9 0  2.83728813559322 2.9 0  5 0.1063822624840908 0  5 0.210636879963479 0  5 0.3128064053000104 0  5 0.4129325399736057 0  5 0.5110561519920087 0  5 0.6072172917522097 0  5 0.7014552086337308 0  5 0.7938083672768746 0  5 0.8843144624325437 0  5 0.9730104357533907 0  5 1.059932489779506 0  5 1.145116102681561 0  5 1.228596043237163 0  5 1.310406384819408 0  5 1.39058051967151 0  5 1.46915117219283 0  5 1.546150411689349 0  5 1.621609666350684 0  5 1.695559735780513 0  5 1.76803080351128 0  5 1.839052449831632 0  5 1.908653663284034 0  5 1.976862852540214 0  5 2.043707858250082 0  5 2.109215963970139 0  5 2.173413907547539 0  5 2.236327892447888 0  5 2.29798359737153 0  5 2.358406188061876 0  5 2.417620326899216 0  5 2.475650183036803 0  5 2.532519442044509 0  5 2.588251315695885 0  5 2.642868552136335 0  5 2.696393444001645 0  5 2.748847837883952 0  5 2.800253143882191 0  5 2.85063034388582 0  0.2631578947368421 0 0  0.5263157894736842 0 0  0.7894736842105263 0 0  1.052631578947368 0 0  1.31578947368421 0 0  1.578947368421053 0 0  1.842105263157895 0 0  2.105263157894737 0 0  2.368421052631579 0 0  2.631578947368421 0 0  2.894736842105263 0 0  3.157894736842105 0 0  3.421052631578947 0 0  3.684210526315789 0 0  3.947368421052632 0 0  4.210526315789473 0 0  4.473684210526315 0 0  4.736842105263158 0 0  0 2.850203682350569 0  0 2.799411438503675 0  0 2.747603349778291 0  0 2.694759099502208 0  0 2.640857964382145 0  0 2.58587880633613 0  0 2.52980006535898 0  0 2.472599749459174 0  0 2.414255427218689 0  0 2.35474421880616 0  0 2.294042786119219 0  0 2.232127324764723 0  0 2.1689735539481 0  0 2.104556707683346 0  0 2.038851524813415 0  0 1.971832238155654 0  0 1.903472565412125 0  0 1.83374569926617 0  0 1.762624296208474 0  0 1.690080464918761 0  0 1.616085756774205 0  0 1.540611154706337 0  0 1.463627060685571 0  0 1.385103284916206 0  0 1.305009033716617 0  0 1.223312897337225 0  0 1.139982838163732 0  0 1.054986177579937 0  0 0.9682895835804808 0  0 0.8798590579197967 0  0 0.789659921841535 0  0 0.6976568029903634 0  0 0.6038136217958807 0  0 0.508093576867624 0  0 0.4104591310957497 0  0 0.31087199635222 0  0 0.2092931188294389 0  0 0.1056826638508546 0  1.434832105734982 2.866945754976478 0  1.737156300412976 2.8700394402447 0  2.032203389830508 2.867707527316512 0  2.332911392405064 2.893422591869991 0  2.469810913221006 2.891944186617815 0  2.606221408801046 2.892519154968786 0  2.255455320556353 2.892068684938936 0  2.538247299178607 2.894964578175289 0  2.674683544303798 2.893422591869991 0  2.40126582278481 2.893422591869991 0  3.566125247274844 2.86502933617869 0  3.266101694915253 2.867707527316512 0  2.967796610169491 2.867707527316512 0  1.174288529771947 2.870795313883199 0  3.825423728813556 2.867707527316512 0  2.727766680241741 2.892655387639323 0  0.06601655192030442 1.502119107695954 0  4.933983535518289 1.50765079194109 0  0.9532124728076634 2.868722489784116 0  4.048935912505472 2.870640982963028 0  0.05930163367361851 1.866907161167415 0  4.943402512617702 1.871280731227115 0  4.271733869970415 2.865208656206698 0  0.724942092071192 2.863922936166216 0  0.05494499779911566 2.196469063120751 0  4.947228695435926 2.208030108416282 0  0.5406152149451962 2.866493807374646 0  4.459322033898304 2.868847558171501 0  2.18135593220339 2.875780645487384 0  2.81702715648046 2.876587550622478 0  4.928427208334964 1.186856072959362 0  0.07189226971603357 1.174626666111664 0  4.610299014391064 2.867003104061287 0  0.3897270066746503 2.869433095314649 0  1.5811324999839 2.868247328613121 0  1.887637879307645 2.869235851843492 0  3.413449426409203 2.867372048026557 0  3.116721298784139 2.865731235545648 0  2.644303797468355 2.893422591869991 0  2.370983221771223 2.892719513366117 0  2.302531645569621 2.89333678739629 0  2.758987341772152 2.894242393896969 0  0.04979653335696588 2.443411216910279 0  4.950470983481301 2.446866954190454 0  2.482937483056625 0.2513241088166693 0  1.70712950486069 0.1999998660928157 0  3.285846579639133 0.2292006256069719 0  4.907807122450741 0.8340823629079156 0  4.757627118644067 2.867707527316512 0  0.07734891246767406 0.8347594898806658 0  0.2390604736599493 2.861365431805748 0  0.8363213714273008 2.863896768913622 0  4.16086561018973 2.868916854014843 0  1.28254933196979 2.86761095296154 0  1.065094818264994 2.861284686078544 0  3.938181277358471 2.868651344087338 0  3.711492629398847 2.863574306894209 0  4.913693619806458 0.5579891341027028 0  0.08208328472281323 0.5559535993317524 0  2.696596932509445 2.892010483912606 0  0.04706410140274642 2.613055974506517 0  4.955577063959472 2.616518038416838 0  2.234177215189874 2.893422591869991 0  2.279795840517476 2.894038618939426 0  0.911735788765236 0.2117925286661764 0  4.055948041976698 0.2039101059740411 0  4.872119713756579 2.86763292637659 0  2.78011387899257 2.891535929611774 0  0.1327442468251299 2.85732490707
[...]
<PointData  Vectors="displacement"> 
<DataArray  type="Float64"  Name="displacement"  NumberOfComponents="3" format="ascii">7.6446092683813620e-05 -4.7483785691643585e-04 0.0000000000000000e+00  0.0000000000000000e+00 2.8171473299731644e-06 0.0000000000000000e+00  -7.6582390203519066e-05 -4.7485439438285995e-04 0.0000000000000000e+00  0.0000000000000000e+00 2.8171090145081397e-06 0.0000000000000000e+00  0.0000000000000000e+00 0.0000000000000000e+00 0.0000000000000000e+00  0.0000000000000000e+00 0.0000000000000000e+00 0.0000000000000000e+00  7.5846395054864451e-05 -4.1743142541572018e-04 0.0000000000000000e+00  7.4226108196312739e-05 -3.7950510780002166e-04 0.0000000000000000e+00  7.2646401512983677e-05 -3.4901816861823844e-04 0.0000000000000000e+00  7.1084853404433017e-05 -3.2302339744655459e-04 0.0000000000000000e+00  6.9526751722239874e-05 -3.0021841664656078e-04 0.0000000000000000e+00  6.7972773136312071e-05 -2.7985475816547317e-04 0.0000000000000000e+00  6.6425698810214137e-05 -2.6144196644190210e-04 0.0000000000000000e+00  6.4885091344883385e-05 -2.4463725184011270e-04 0.0000000000000000e+00  6.3353423540262610e-05 -2.2918610026407182e-04 0.0000000000000000e+00  6.1830562252855069e-05 -2.1489855021706160e-04 0.0000000000000000e+00  6.0316567621782290e-05 -2.0162750874577528e-04 0.0000000000000000e+00  5.8811596333704994e-05 -1.8925213440250201e-04 0.0000000000000000e+00  5.7316717685112509e-05 -1.7767364829973171e-04 0.0000000000000000e+00  5.5832107656805620e-05 -1.6681119656567584e-04 0.0000000000000000e+00  5.4357986410636733e-05 -1.5659734338463794e-04 0.0000000000000000e+00  5.2894687795557608e-05 -1.4697434977748472e-04 0.0000000000000000e+00  5.1442565843506328e-05 -1.3789271250548812e-04 0.0000000000000000e+00  5.0001358928219534e-05 -1.2930947376613069e-04 0.0000000000000000e+00  4.8571662625579257e-05 -1.2118713745132780e-04 0.0000000000000000e+00  4.7153709475584490e-05 -1.1349293358212544e-04 0.0000000000000000e+00  4.5747587824516555e-05 -1.0619803656769187e-04 0.0000000000000000e+00  4.4353354506956851e-05 -9.9276847009632465e-05 0.0000000000000000e+00  4.2971256803300507e-05 -9.2706026511846500e-05 0.0000000000000000e+00  4.1601105624665261e-05 -8.6465178963055970e-05 0.0000000000000000e+00  4.0243137198085657e-05 -8.0535949403575085e-05 0.0000000000000000e+00  3.8897381518959068e-05 -7.4901450781629235e-05 0.0000000000000000e+00  3.7563838415730640e-05 -6.9546254754942390e-05 0.0000000000000000e+00  3.6242283633214053e-05 -6.4456816552267460e-05 0.0000000000000000e+00  3.4933070717507099e-05 -5.9620462437217176e-05 0.0000000000000000e+00  3.3635498435108317e-05 -5.5025369553616505e-05 0.0000000000000000e+00  3.2349992909908418e-05 -5.0661078158143018e-05 0.0000000000000000e+00  3.1076305566737432e-05 -4.6518017920408637e-05 0.0000000000000000e+00  2.9814040412742623e-05 -4.2587344281264200e-05 0.0000000000000000e+00  2.8563204902145968e-05 -3.8860438194380165e-05 0.0000000000000000e+00  2.7323529927016357e-05 -3.5329934872165623e-05 0.0000000000000000e+00  2.6094821025271144e-05 -3.1988717235470051e-05 0.0000000000000000e+00  2.4876756642706871e-05 -2.8830232700472603e-05 0.0000000000000000e+00  2.3669091313057277e-05 -2.5848591953308589e-05 0.0000000000000000e+00  2.2471510672638761e-05 -2.3038152518358412e-05 0.0000000000000000e+00  2.1283681762984831e-05 -2.0393783896324967e-05 0.0000000000000000e+00  2.0105259981573238e-05 -1.7910738672911835e-05 0.0000000000000000e+00  1.8935884149934585e-05 -1.5584608595071259e-05 0.0000000000000000e+00  1.7775117652420397e-05 -1.3411316909272042e-05 0.0000000000000000e+00  1.6622605009021876e-05 -1.1387161480723691e-05 0.0000000000000000e+00  1.5477896209459469e-05 -9.5086576726131933e-06 0.0000000000000000e+00  1.4340559580797030e-05 -7.7726676926579018e-06 0.0000000000000000e+00  1.3210129159085076e-05 -6.1762947070652444e-06 0.0000000000000000e+00  1.2086136887694050e-05 -4.7169201011288495e-06 0.0000000000000000e+00  1.0968087540968063e-05 -3.3921419983298179e-06 0.0000000000000000e+00  9.8554824575947062e-06 -2.1998265797206315e-06 0.0000000000000000e+00  8.7478626301894507e-06 -1.1380641740383626e-06 0.0000000000000000e+00  7.6445862230469969e-06 -2.0511560802637007e-07 0.0000000000000000e+00  6.5452130829657788e-06 6.0049673129154409e-07 0.0000000000000000e+00  5.4491999244717165e-06 1.2800114218136889e-06 0.0000000000000000e+00  4.3560280056233834e-06 1.8345248770669331e-06 0.0000000000000000e+00  3.2650192275138945e-06 2.2649234687691179e-06 0.0000000000000000e+00  2.1757285557212199e-06 2.5718757600713626e-06 0.0000000000000000e+00  1.0875757384275520e-06 2.7558538379693512e-06 0.0000000000000000e+00  -7.5618034646918967e-05 -4.9233818562843107e-04 0.0000000000000000e+00  -7.3572648785206582e-05 -5.0493773331533706e-04 0.0000000000000000e+00  -7.1574113095353615e-05 -5.1570063898374180e-04 0.0000000000000000e+00  -6.9586158212223007e-05 -5.2531567076638693e-04 0.0000000000000000e+00  -6.7618273788194822e-05 -5.3408905651503328e-04 0.0000000000000000e+00  -6.5652478673000110e-05 -5.4218408944026316e-04 0.0000000000000000e+00  -6.3688283375593746e-05 -5.4971119147038592e-04 0.0000000000000000e+00  -6.1725618534258869e-05 -5.5674381037001822e-04 0.0000000000000000e+00  -5.9762741175266060e-05 -5.6333812486496259e-04 0.0000000000000000e+00  -5.7800723039313354e-05 -5.6953843697792798e-04 0.0000000000000000e+00  -5.5839516645887793e-05 -5.7537954449048145e-04 0.0000000000000000e+00  -5.3878473859785979e-05 -5.8088955834050546e-04 0.0000000000000000e+00  -5.1917677579894073e-05 -5.8609214374390282e-04 0.0000000000000000e+00  -4.9957219081323750e-05 -5.9100653385229314e-04 0.0000000000000000e+00  -4.7996701308976399e-05 -5.9564919341715638e-04 0.0000000000000000e+00  -4.6036534443853293e-05 -6.0003494282040491e-04 0.0000000000000000e+00  -4.4076535963423643e-05 -6.0417602171444458e-04 0.0000000000000000e+00  -4.2116701171046098e-05 -6.0808315556481519e-04 0.0000000000000000e+00  -4.0156996917139897e-05 -6.1176588725455683e-04 0.0000000000000000e+00  -3.8197407550925035e-05 -6.1523256344826738e-04 0.0000000000000000e+00  -3.6237918704566325e-05 -6.1849061910862458e-04 0.0000000000000000e+00  -3.4278542462246813e-05 -6.2154665299591976e-04 0.0000000000000000e+00  -3.2319258284044373e-05 -6.2440652172538781e-04 0.0000000000000000e+00  -3.0360067507104894e-05 -6.2707551004944641e-04 0.0000000000000000e+00  -2.8400957153567606e-05 -6.2955832871219896e-04 0.0000000000000000e+00  -2.6441924655995041e-05 -6.3185914211674125e-04 0.0000000000000000e+00  -2.4483008185295319e-05 -6.3398170679438131e-04 0.0000000000000000e+00  -2.2524099814088408e-05 -6.3592934844249039e-04 0.0000000000000000e+00  -2.0565258317967091e-05 -6.3770509370176024e-04 0.0000000000000000e+00  -1.8606485666238031e-05 -6.3931157622824312e-04 0.0000000000000000e+00  -1.6647774006452845e-05 -6.4075114883031076e-04 0.0000000000000000e+00  -1.4689094783129221e-05 -6.4202584995192357e-04 0.0000000000000000e+00  -1.2730448238490687e-05 -6.4313747165442602e-04 0.0000000000000000e+00  -1.0771850076247352e-05 -6.4408754162277072e-04 0.0000000000000000e+00  -8.8132540859392767e-06 -6.4487731561739612e-04 0.0000000000000000e+00  -6.8547296556871388e-06 -6.4550790872964440e-04 0.0000000000000000e+00  -4.8961798372651258e-06 -6.4598013060634344e-04 0.0000000000000000e+00  -2.9376480431344402e-06 -6.4629459105827822e-04 0.0000000000000000e+00  -9.7913591552950340e-07 -6.4645172004404276e-04 0.0000000000000000e+00  9.7937634328810486e-07 -6.4645171646888296e-04 0.0000000000000000e+00  2.9378911643383278e-06 -6.4629457821566898e-04 0.0000000000000000e+00  4.8964146397387124e-06 -6.4598010229661898e-04 0.0000000000000000e+00  6.8549502326236376e-06 -6.4550788365614925e-04 0.0000000000000000e+00  8.8134949225867020e-06 -6.4487728716051832e-04 0.0000000000000000e+00  1.0772079591686638e-05 -6.4408747465258113e-04 0.0000000000000000e+00  1.2730681502029380e-05 -6.4313741011730059e-04 0.0000000000000000e+00  1.4689320219668835e-05 -6.4202579316027428e-04 0.0000000000000000e+00  1.6647998582453846e-05 -6.4075108552419607e-04 0.0000000000000000e+00  1.8606729770292337e-05 -6.3931151093471591e-04 0.0000000000000000e+00  2.0565495937224749e-05 -6.3770500768007318e-04 0.0000000000000000e+00  2.2524329116057032e-05 -6.3592926737663594e-04 0.0000000000000000e+00  2.4483245683862888e-05 -6.3398160170712937e-04 0.0000000000000000e+00  2.6442186494593486e-05 -6.3185902851584531e-04 0.0000000000000000e+00  2.8401219253555634e-05 -6.2955823720840830e-04 0.0000000000000000e+00  3.0360330371954512e-05 -6.2707543941943698e-04 0.0000000000000000e+00  3.2319522678876790e-05 -6.2440644958486812e-04 0.0000000000000000e+00  3.4278799736779295e-05 -6.2154656207691306e-04 0.0000000000000000e+00  3.6238225653569141e-05 -6.1849054891450236e-04 0.0000000000000000e+00  3.8197774781636682e-05 -6.1523241102484421e-04 0.0000000000000000e+00  4.0157402184620489e-05 -6.1176571574297629e-04 0.0000000000000000e+00  4.2117133445314359e-05 -6.0808297370443590e-04 0.0000000000000000e+00  4.4077022452869213e-05 -6.0417580373850618e-04 0.0000000000000000e+00  4.6037067523343999e-05 -6.0003471490635107e-04 0.0000000000000000e+00  4.7997293495399338e-05 -5.9564886964745415e-04 0.0000000000000000e+00  4.9957713707863245e-05 -5.9100595417089250e-04 0.0000000000000000e+00  5.1918396936893490e-05 -5.8609154936647328e-04 0.0000000000000000e+00  5.3879182478816946e-05 -5.8088900501001423e-04 0.0000000000000000e+00  5.5840340603923586e-05 -5.7537873641855817e-04 0.0000000000000000e+00  5.7802051105149910e-05 -5.6953787595221642e-04 0.0000000000000000e+00  5.9763772353685568e-05 -5.6333739108668432e-04 0.0000000000000000e+00  6.1725829602730245e-05 -5.5674234924908055e-04 0.0000000000000000e+00  6.3689345651605638e-05 -5.4971009240043867e-04 0.0000000000000000e+00  6.5654420780570020e-05 -5.4218444255675115e-04 0.0000000000000000e+00  6.7619438656183809e-05 -5.3408677814691216e-04 0.0000000000000000e+00  6.9585750173833364e-05 -5.2531027109056880e-04 0.0000000000000000e+00  7.1549440145120589e-05 -5.1569884472214410e-04 0.0000000000000000e+00  7.3585376050772954e-05 -5.0497739158049837e-04 0.0000000000000000e+00  7.5593971384471062e-05 -4.9230433998681371e-04 0.0000000000000000e+00  -1.0875904408369253e-06 2.7558240559573561e-06 0.0000000000000000e+00  -2.1757458708676323e-06 2.5718430172174979e-06 0.0000000000000000e+00  -3.2650242541445269e-06 2.2648991838526579e-06 0.0000000000000000e+00  -4.3559923928549771e-06 1.8345014202619232e-06 0.0000000000000000e+00  -5.4492004259520680e-06 1.2799871311885187e-06 0.0000000000000000e+00  -6.5452438214537209e-06 6.0044913897685203e-07 0.0000000000000000e+00  -7.6445862636759453e-06 -2.0513539103992318e-07 0.0000000000000000e+00  -8.7478336313006603e-06 -1.1380755338211665e-06 0.0000000000000000e+00  -9.8554903091682032e-06 -2.1998527897073395e-06 0.0000000000000000e+00  -1.0968091627412308e-05 -3.3921777185585845e-06 0.0000000000000000e+00  -1.2086135691348542e-05 -4.7169566627477484e-06 0.0000000000000000e+00  -1.3210137198841407e-05 -6.1763385932540762e-06 0.0000000000000000e+00  -1.4340565772819221e-05 -7.7727109988660289e-06 0.0000000000000000e+00  -1.5477898672200811e-05 -9.5087014400954820e-06 0.0000000000000000e+00  -1.6622600900756641e-05 -1.1387197630955271e-05 0.0000000000000000e+00  -1.7775114965927327e-05 -1.3411358948104207e-05 0.0000000000000000e+00  -1.8935863344281801e-05 -1.5584627181754399e-05 0.0000000000000000e+00  -2.0105257192099918e-05 -1.7910781601348126e-05 0.0000000000000000e+00  -2.1283670453875675e-05 -2.0393843399637204e-05 0.0000000000000000e+00  -2.2471493295472313e-05 -2.3038236942054836e-05 0.0000000000000000e+00  -2.3669146966029841e-05 -2.5848690634354207e-05 0.0000000000000000e+00  -2.4876735910366554e-05 -2.8830295877994828e-05 0.0000000000000000e+00  -2.6094792513466837e-05 -3.1988728920824009e-05 0.0000000000000000e+00  -2.7323515092220212e-05 -3.5329966172768445e-05 0.0000000000000000e+00  -2.8563176164331235e-05 -3.8860498257939469e-05 0.0000000000000000e+00  -2.9814002049379068e-05 -4.2587355746167893e-05 0.0000000000000000e+00  -3.1076211842252960e-05 -4.6518157874144615e-05 0.0000000000000000e+00  -3.2349991127502578e-05 -5.0661157026275536e-05 0.0000000000000000e+00  -3.3635525719362926e-05 -5.5025326692500793e-05 0.0000000000000000e+00  -3.4932929041810080e-05 -5.9620352118825608e-05 0.0000000000000000e+00  -3.6242302998972019e-05 -6.4456826383043641e-05 0.0000000000000000e+00  -3.7563727832065036e-05 -6.9546259177709054e-05 0.0000000000000000e+00  -3.8897576243245900e-05 -7.4901422216757115e-05 0.0000000000000000e+00  -4.0243109428696628e-05 -8.0536039643221908e-05 0.0000000000000000e+00  -4.1601051082850905e-05 -8.6465389949717759e-05 0.0000000000000000e+00  -4.2971197496568557e-05 -9.2706108870639761e-05 0.0000000000000000e+00  -4.4353428074839702e-05 -9.9276784928808748e-05 0.0000000000000000e+00  -4.5747572268632039e-05 -1.0619803295428931e-04 0.0000000000000000e+00  -4.7153658633441556e-05 -1.1349289341945799e-04 0.0000000000000000e+00  -4.8571627383119868e-05 -1.2118703702617363e-04 0.0000000000000000e+00  -5.0001263292896157e-05 -1.2930939347344654e-04 0.0000000000000000e+00  -5.1442301870984494e-05 -1.3789283683483198e-04 0.0000000000000000e+00  -5.2894827367460824e-05 -1.4697463177965717e-04 0.0000000000000000e+00  -5.4358276521059336e-05 -1.5659757317469818e-04 0.0000000000000000e+00  -5.5832172047460280e-05 -1.6681108276163603e-04 0.0000000000000000e+00  -5.7316490477543757e-05 -1.7767332728594774e-04 0.0000000000000000e+00  -5.8811368346909557e-05 -1.8925189879021254e-04 0.0000000000000000e+00  -6.0316095444583718e-05 -2.0162813077969098e-04 0.0000000000000000e+00  -6.1830480160059563e-05 -2.1489958296900787e-04 0.0000000000000000e+00  -6.3354055867285790e-05 -2.2918535379485213e-04 0.0000000000000000e+00  -6.4885365136621242e-05 -2.4463741371980529e-04 0.0000000000000000e+00  -6.6426793493161589e-05 -2.6144109602842583e-04 0.0000000000000000e+00  -6.7972330932133672e-05 -2.7985561736360698e-04 0.0000000000000000e+00  -6.9524879466428469e-05 -3.0022088659919930e-04 0.0000000000000000e+00  -7.1082858677579149e-05 -3.2302299500136332e-04 0.0000000000000000e+00  -7.2657485589872937e-05 -3.4901764461760780e-04 0.0000000000000000e+00  -7.4197971592229422e-05 -3.7952498130466904e-04 0.0000000000000000e+00  -7.5868461510311276e-05 -4.1739493056567104e-04 0.0000000000000000e+00  0.0000000000000000e+00 -3.3336065622878405e-06 0.0000000000000000e+00  0.0000000000000000e+00 -6.0492651755069723e-06 0.0000000000000000e+00  0.0000000000000000e+00 -8.2341779683105659e-06 0.0000000000000000e+00  0.0000000000000000e+00 -9.9627873294065680e-06 0.0000000000000000e+00  0.0000000000000000e+00 -1.1290366786803487e-05 0.0000000000000000e+00  0.0000000000000000e+00 -1.2263386812625942e-05 0.0000000000000000e+00  0.0000000000000000e+00 -1.2920280654272159e-05 0.0000000000000000e+00  0.0000000000000000e+00 -1.3293700518345615e-05 0.0000000000000000e+00  0.0000000000000000e+00 -1.3409341653801443e-05 0.0000000000000000e+00  0.0000000000000000e+00 -1.3294366255337692e-05 0.0000000000000000e+00  0.0000000000000000e+00 -1.2970592089389436e-05 0.0000000000000000e+00  0.0000000000000000e+00 -1.2459745754989760e-05 0.0000000000000000e+00  0.0000000000000000e+00 -1.1783723000333760e-05 0.0000000000000000e+00  0.0000000000000000e+00 -1.0963564400921852e-05 0.0000000000000000e+00  0.0000000000000000e+00 -1.0020489483857708e-05 0.0000000000000000e+00  0.0000000000000000e+00 -8.9760248129364482e-06 0.0000000000000000e+00  0.0000000000000000e+00 -7.8521552706333178e-06 0.0000000000000000e+00  0.0000000000000000e+00 -6.6705678034238751e-06 0.0000000000000000e+00  0.0000000000000000e+00 -5.4529718272391484e-06 0.0000000000000000e+00  0.0000000000000000e+00 -4.2208655317777187e-06 0.0000000000000000e+00  0.0000000000000000e+00 -2.9952254077927467e-06 0.0000000000000000e+00  0.0000000000000000e+00 -1.7960720365854216e-06 0.0000000000000000e+00  0.0000000000000000e+00 -6.4271224167629137e-07 0.0000000000000000e+00  0.0000000000000000e+00 4.4762470793070149e-07 0.0000000000000000e+00  0.0000000000000000e+00 1.4584536695255804e-06 0.0000000000000000e+00  0.0000000000000000e+00 2.3750749853805936e-06 0.0000000000000000e+00  0.0000000000000000e+00 3.1854855459504042e-06 0.0000000000000000e+00  0.0000000000000000e+00 3.8788082376339865e-06 0.0000000000000000e+00  0.0000000000000000e+00 4.4467350059877640e-06 0.0000000000000000e+00  0.0000000000000000e+00 4.8830141953770233e-06 0.0000000000000000e+00  0.0000000000000000e+00 5.1834370505099500e-06 0.0000000000000000e+00  0.0000000000000000e+00 5.3459480294388778e-06 0.0000000000000000e+00  0.0000000000000000e+00 5.3703987621649197e-06 0.0000000000000000e+00  0.0000000000000000e+00 5.2584082263349680e-06 0.0000000000000000e+00  0.0000000000000000e+00 5.0133161509087955e-06 0.0000000000000000e+00  0.0000000000000000e+00 4.6399681260083766e-06 0.0000000000000000e+00  0.0000000000000000e+00 4.1445152574042546e-06 0.0000000000000000e+00  0.0000000000000000e+00 3.5341817836754512e-06 0.0000000000000000e+00  0.0000000000000000e+00 0.0000000000000000e+00 0.0000000000000000e+00  0.0000000000000000e+00 0.0000000000000000e+00 0.0000000000000000e+00  0.0000000000000000e+00 0.0000000000000000e+00 0.0000000000000000e+00  0.0000000000000000e+00 0.0000000000000000e+00 0.0000000000000000e+00  0.0000000000000000e+00 0.0000000000000000e+00 0.0000000000000000e+00  0.0000000000000000e+00 0.0000000000000000e+00 0.0000000000000000e+00  0.0000000000000000e+00 0.0000000000000000e+00 0.0000000000000000e+00  0.0000000000000000e+00 0.0000000000000000e+00 0.0000000000000000e+00  0.0000000000000000e+00 0.0000000000000000e+00 0.0000000000000000e+00  0.0000000000000000e+00 0.0000000000000000e+00 0.0000000000000000e+00  0.0000000000000000e+00 0.0000000000000000e+00 0.0000000000000000e+00  0.0000000000000000e+00 0.0000000000000000e+00 0.0000000000000000e+00  0.0000000000000000e+00 0.0000000000000000e+00 0.0000000000000000e+00  0.0000000000000000e+00 0.0000000000000000e+00 0.0000000000000000e+00  0.0000000000000000e+00 0.0000000000000000e+00 0.0000000000000000e+00  0.0000000000000000e+00 0.0000000000000000e+00 0.0000000000000000e+00  0.0000000000000000e+00 0.0000000000000000e+00 0.0000000000000000e+00  0.0000000000000000e+00 0.0000000000000000e+00 0.0000000000000000e+00  0.0000000000000000e+00 3.5398929683263640e-06 0.0000000000000000e+00  0.0000000000000000e+00 4.1536890828969830e-06 0.0000000000000000e+00  0.0000000000000000e+00 4.6503962249069616e-06 0.0000000000000000e+00  0.0000000000000000e+00 5.0228545927887404e-06 0.0000000000000000e+00  0.0000000000000000e+00 5.2650066457295256e-06 0.0000000000000000e+00  0.0000000000000000e+00 5.3721992803492028e-06 0.0000000000000000e+00  0.0000000000000000e+00 5.3413327906756550e-06 0.0000000000000000e+00  0.0000000000000000e+00 5.1710011329722443e-06 0.0000000000000000e+00  0.0000000000000000e+00 4.8616414516450739e-06 0.0000000000000000e+00  0.0000000000000000e+00 4.4157616794284688e-06 0.0000000000000000e+00  0.0000000000000000e+00 3.8377124922756539e-06 0.0000000000000000e+00  0.0000000000000000e+00 3.1345593765116198e-06 0.0000000000000000e+00  0.0000000000000000e+00 2.3145390153150228e-06 0.0000000000000000e+00  0.0000000000000000e+00 1.3888325559908670e-06 0.0000000000000000e+00  0.0000000000000000e+00 3.7013373332297507e-07 0.0000000000000000e+00  0.0000000000000000e+00 -7.2650386479481018e-07 0.0000000000000000e+00  0.0000000000000000e+00 -1.8847699521573209e-06 0.0000000000000000e+00  0.0000000000000000e+00 -3.0870206404037287e-06 0.0000000000000000e+00  0.0000000000000000e+00 -4.3137501445340158e-06 0.0000000000000000e+00  0.0000000000000000e+00 -5.5448487005476965e-06 0.0000000000000000e+00  0.0000000000000000e+00 -6.7593846041254901e-06 0.0000000000000000e+00  0.0000000000000000e+00 -7.9360244653702051e-06 0.0000000000000000e+00  0.0000000000000000e+00 -9.0531190952614216e-06 0.0000000000000000e+00  0.0000000000000000e+00 -1.0089014