<?xml version="1.0"?>
<VTKFile type="UnstructuredGrid"  version="0.1"  >
<UnstructuredGrid>
<Piece  NumberOfPoints="1250" NumberOfCells="2352">
<Points>
<DataArray  type="Float64"  NumberOfComponents="3"  format="ascii">0 0 0  0.0336 0 0  0.0336 0.07729999999999999 0  0 0.07729999999999999 0  0.001400000000000002 0 0  0.002800000000000005 0 0  0.004200000000000008 0 0  0.005600000000000009 0 0  0.007000000000000011 0 0  0.008400000000000013 0 0  0.009800000000000019 0 0  0.01120000000000002 0 0  0.01260000000000003 0 0  0.01400000000000003 0 0  0.01540000000000004 0 0  0.01680000000000005 0 0  0.01820000000000004 0 0  0.01960000000000004 0 0  0.02100000000000004 0 0  0.02240000000000003 0 0  0.02380000000000003 0 0  0.02520000000000002 0 0  0.02660000000000002 0 0  0.02800000000000001 0 0  0.02940000000000001 0 0  0.03080000000000001 0 0  0.0322 0 0  0.0336 0.001577551020408161 0  0.0336 0.003155102040816321 0  0.0336 0.004732653061224482 0  0.0336 0.006310204081632642 0  0.0336 0.007887755102040803 0  0.0336 0.009465306122448964 0  0.0336 0.01104285714285712 0  0.0336 0.01262040816326528 0  0.0336 0.01419795918367344 0  0.0336 0.0157755102040816 0  0.0336 0.01735306122448976 0  0.0336 0.01893061224489792 0  0.0336 0.02050816326530608 0  0.0336 0.02208571428571425 0  0.0336 0.02366326530612241 0  0.0336 0.02524081632653058 0  0.0336 0.02681836734693874 0  0.0336 0.02839591836734691 0  0.0336 0.02997346938775507 0  0.0336 0.03155102040816323 0  0.0336 0.0331285714285714 0  0.0336 0.03470612244897956 0  0.0336 0.03628367346938772 0  0.0336 0.03786122448979588 0  0.0336 0.03943877551020405 0  0.0336 0.04101632653061221 0  0.0336 0.04259387755102037 0  0.0336 0.04417142857142854 0  0.0336 0.04574897959183671 0  0.0336 0.04732653061224486 0  0.0336 0.04890408163265302 0  0.0336 0.05048163265306119 0  0.0336 0.05205918367346936 0  0.0336 0.05363673469387752 0  0.0336 0.05521428571428568 0  0.0336 0.05679183673469385 0  0.0336 0.05836938775510202 0  0.0336 0.05994693877551018 0  0.0336 0.06152448979591834 0  0.0336 0.0631020408163265 0  0.0336 0.06467959183673468 0  0.0336 0.06625714285714283 0  0.0336 0.06783469387755101 0  0.0336 0.06941224489795916 0  0.0336 0.07098979591836733 0  0.0336 0.07256734693877549 0  0.0336 0.07414489795918365 0  0.0336 0.07572244897959182 0  0.03219999999999999 0.07729999999999999 0  0.03079999999999999 0.07729999999999999 0  0.02939999999999999 0.07729999999999999 0  0.02799999999999999 0.07729999999999999 0  0.02659999999999999 0.07729999999999999 0  0.02519999999999999 0.07729999999999999 0  0.02379999999999998 0.07729999999999999 0  0.02239999999999998 0.07729999999999999 0  0.02099999999999997 0.07729999999999999 0  0.01959999999999996 0.07729999999999999 0  0.01819999999999996 0.07729999999999999 0  0.01679999999999995 0.07729999999999999 0  0.01539999999999996 0.07729999999999999 0  0.01399999999999996 0.07729999999999999 0  0.01259999999999996 0.07729999999999999 0  0.01119999999999997 0.07729999999999999 0  0.009799999999999972 0.07729999999999999 0  0.008399999999999977 0.07729999999999999 0  0.006999999999999978 0.07729999999999999 0  0.005599999999999983 0.07729999999999999 0  0.004199999999999988 0.07729999999999999 0  0.00279999999999999 0.07729999999999999 0  0.001399999999999998 0.07729999999999999 0  0 0.07572244897959184 0  0 0.07414489795918368 0  0 0.07256734693877551 0  0 0.07098979591836735 0  0 0.06941224489795919 0  0 0.06783469387755103 0  0 0.06625714285714288 0  0 0.06467959183673472 0  0 0.06310204081632656 0  0 0.0615244897959184 0  0 0.05994693877551023 0  0 0.05836938775510207 0  0 0.05679183673469392 0  0 0.05521428571428574 0  0 0.05363673469387759 0  0 0.05205918367346941 0  0 0.05048163265306126 0  0 0.04890408163265308 0  0 0.04732653061224493 0  0 0.04574897959183676 0  0 0.0441714285714286 0  0 0.04259387755102043 0  0 0.04101632653061228 0  0 0.03943877551020411 0  0 0.03786122448979595 0  0 0.03628367346938779 0  0 0.03470612244897962 0  0 0.03312857142857146 0  0 0.03155102040816329 0  0 0.02997346938775513 0  0 0.02839591836734697 0  0 0.0268183673469388 0  0 0.02524081632653064 0  0 0.02366326530612247 0  0 0.02208571428571431 0  0 0.02050816326530614 0  0 0.01893061224489798 0  0 0.01735306122448981 0  0 0.01577551020408165 0  0 0.01419795918367349 0  0 0.01262040816326532 0  0 0.01104285714285716 0  0 0.009465306122448988 0  0 0.00788775510204083 0  0 0.006310204081632659 0  0 0.004732653061224501 0  0 0.003155102040816343 0  0 0.001577551020408172 0  0.001400000000000004 0.001577551020408172 0  0.001400000000000004 0.003155102040816329 0  0.001400000000000002 0.004732653061224501 0  0.001400000000000002 0.006310204081632645 0  0.001400000000000005 0.007887755102040823 0  0.001400000000000002 0.009465306122448981 0  0.001400000000000002 0.01104285714285717 0  0.001400000000000004 0.01262040816326531 0  0.0014 0.01419795918367349 0  0.001400000000000002 0.01577551020408166 0  0.001400000000000005 0.0173530612244898 0  0.001400000000000002 0.01893061224489797 0  0.001400000000000002 0.02050816326530613 0  0.001400000000000002 0.02208571428571431 0  0.001400000000000002 0.02366326530612247 0  0.001400000000000002 0.02524081632653063 0  0.001400000000000002 0.0268183673469388 0  0.001400000000000002 0.02839591836734696 0  0.001400000000000002 0.02997346938775513 0  0.001400000000000002 0.03155102040816328 0  0.001400000000000002 0.03312857142857147 0  0.001399999999999997 0.03470612244897962 0  0.001400000000000005 0.03628367346938778 0  0.001400000000000002 0.03786122448979594 0  0.001400000000000002 0.03943877551020411 0  0.001400000000000002 0.04101632653061228 0  0.001400000000000002 0.04259387755102043 0  0.001400000000000002 0.0441714285714286 0  0.0014 0.04574897959183676 0  0.001400000000000002 0.04732653061224492 0  0.001400000000000004 0.04890408163265308 0  0.001400000000000002 0.05048163265306126 0  0.001400000000000002 0.05205918367346941 0  0.0014 0.05363673469387758 0  0.001400000000000004 0.05521428571428574 0  0.001399999999999998 0.05679183673469391 0  0.001400000000000002 0.05836938775510207 0  0.0014 0.05994693877551023 0  0.001400000000000002 0.0615244897959184 0  0.001400000000000002 0.06310204081632656 0  0.001400000000000002 0.06467959183673472 0  0.0014 0.06625714285714286 0  0.001400000000000002 0.06783469387755102 0  0.001399999999999998 0.06941224489795919 0  0.001400000000000002 0.07098979591836735 0  0.0014 0.07256734693877552 0  0.001400000000000002 0.07414489795918368 0  0.001400000000000002 0.07572244897959184 0  0.002800000000000006 0.001577551020408165 0  0.002800000000000004 0.003155102040816343 0  0.002800000000000002 0.004732653061224487 0  0.002800000000000002 0.006310204081632652 0  0.002800000000000002 0.007887755102040813 0  0.0028 0.009465306122448981 0  0.002799999999999997 0.01104285714285715 0  0.0028 0.01262040816326532 0  0.0028 0.01419795918367348 0  0.0028 0.01577551020408165 0  0.002799999999999997 0.0173530612244898 0  0.0028 0.01893061224489797 0  0.002800000000000004 0.02050816326530613 0  0.0028 0.0220857142857143 0  0.0028 0.02366326530612247 0  0.002800000000000004 0.02524081632653064 0  0.0028 0.0268183673469388 0  0.0028 0.02839591836734696 0  0.002799999999999995 0.02997346938775512 0  0.002799999999999997 0.03155102040816328 0  0.002799999999999995 0.03312857142857146 0  0.0028 0.03470612244897962 0  0.002799999999999995 0.03628367346938778 0  0.002799999999999997 0.03786122448979594 0  0.002799999999999997 0.03943877551020411 0  0.002799999999999997 0.04101632653061228 0  0.002799999999999997 0.04259387755102043 0  0.002799999999999995 0.0441714285714286 0  0.002799999999999997 0.04574897959183676 0  0.002799999999999997 0.04732653061224493 0  0.002799999999999995 0.04890408163265308 0  0.002799999999999993 0.05048163265306124 0  0.002799999999999995 0.05205918367346941 0  0.002799999999999995 0.05363673469387757 0  0.002799999999999992 0.05521428571428574 0  0.002799999999999997 0.05679183673469391 0  0.002799999999999993 0.05836938775510207 0  0.002799999999999993 0.05994693877551022 0  0.002799999999999992 0.0615244897959184 0  0.002799999999999988 0.06310204081632655 0  0.002799999999999992 0.0646795918367347 0  0.002799999999999992 0.06625714285714286 0  0.00279999999999999 0.06783469387755103 0  0.00279999999999999 0.06941224489795919 0  0.002799999999999988 0.07098979591836735 0  0.00279999999999999 0.07256734693877552 0  0.002799999999999988 0.07414489795918368 0  0.00279999999999999 0.07572244897959184 0  0.004200000000000006 0.001577551020408172 0  0.004200000000000006 0.003155102040816329 0  0.004200000000000008 0.00473265306122448 0  0.004200000000000009 0.006310204081632652 0  0.004200000000000008 0.00788775510204082 0  0.004200000000000008 0.009465306122448978 0  0.004200000000000006 0.01104285714285716 0  0.004200000000000006 0.01262040816326532 0  0.004200000000000004 0.01419795918367349 0  0.004200000000000002 0.01577551020408165 0  0.004200000000000004 0.0173530612244898 0  0.004200000000000006 0.01893061224489797 0  0.004200000000000006 0.02050816326530613 0  0.004200000000000002 0.0220857142857143 0  0.004200000000000004 0.02366326530612247 0  0.004199999999999999 0.02524081632653062 0  0.004200000000000004 0.0268183673469388 0  0.004200000000000004 0.02839591836734696 0  0.004200000000000002 0.02997346938775512 0  0.004199999999999999 0.03155102040816328 0  0.004200000000000001 0.03312857142857145 0  0.004200000000000001 0.03470612244897962 0  0.004199999999999995 0.03628367346938778 0  0.004199999999999999 0.03786122448979594 0  0.004199999999999999 0.0394387755102041 0  0.004199999999999997 0.04101632653061227 0  0.004199999999999999 0.04259387755102043 0  0.004199999999999999 0.04417142857142859 0  0.004199999999999999 0.04574897959183676 0  0.004199999999999999 0.04732653061224492 0  0.004199999999999997 0.04890408163265308 0  0.004199999999999997 0.05048163265306124 0  0.004199999999999999 0.05205918367346941 0  0.004199999999999992 0.05363673469387757 0  0.0
[...]
<PointData  Vectors="displacement"> 
<DataArray  type="Float64"  Name="displacement"  NumberOfComponents="3" format="ascii">0.0000000000000000e+00 0.0000000000000000e+00 0.0000000000000000e+00  0.0000000000000000e+00 0.0000000000000000e+00 0.0000000000000000e+00  1.2612600417259208e-02 -1.0332693749871766e-01 0.0000000000000000e+00  -1.1910365378638432e-02 -1.0318539765868730e-01 0.0000000000000000e+00  0.0000000000000000e+00 0.0000000000000000e+00 0.0000000000000000e+00  0.0000000000000000e+00 0.0000000000000000e+00 0.0000000000000000e+00  0.0000000000000000e+00 0.0000000000000000e+00 0.0000000000000000e+00  0.0000000000000000e+00 0.0000000000000000e+00 0.0000000000000000e+00  0.0000000000000000e+00 0.0000000000000000e+00 0.0000000000000000e+00  0.0000000000000000e+00 0.0000000000000000e+00 0.0000000000000000e+00  0.0000000000000000e+00 0.0000000000000000e+00 0.0000000000000000e+00  0.0000000000000000e+00 0.0000000000000000e+00 0.0000000000000000e+00  0.0000000000000000e+00 0.0000000000000000e+00 0.0000000000000000e+00  0.0000000000000000e+00 0.0000000000000000e+00 0.0000000000000000e+00  0.0000000000000000e+00 0.0000000000000000e+00 0.0000000000000000e+00  0.0000000000000000e+00 0.0000000000000000e+00 0.0000000000000000e+00  0.0000000000000000e+00 0.0000000000000000e+00 0.0000000000000000e+00  0.0000000000000000e+00 0.0000000000000000e+00 0.0000000000000000e+00  0.0000000000000000e+00 0.0000000000000000e+00 0.0000000000000000e+00  0.0000000000000000e+00 0.0000000000000000e+00 0.0000000000000000e+00  0.0000000000000000e+00 0.0000000000000000e+00 0.0000000000000000e+00  0.0000000000000000e+00 0.0000000000000000e+00 0.0000000000000000e+00  0.0000000000000000e+00 0.0000000000000000e+00 0.0000000000000000e+00  0.0000000000000000e+00 0.0000000000000000e+00 0.0000000000000000e+00  0.0000000000000000e+00 0.0000000000000000e+00 0.0000000000000000e+00  0.0000000000000000e+00 0.0000000000000000e+00 0.0000000000000000e+00  0.0000000000000000e+00 0.0000000000000000e+00 0.0000000000000000e+00  4.7070071161239664e-03 -4.2805755527221250e-03 0.0000000000000000e+00  6.5422800872918284e-03 -6.3514210300426709e-03 0.0000000000000000e+00  8.0019636740969926e-03 -8.2421211214330787e-03 0.0000000000000000e+00  9.1410330021229717e-03 -1.0037118946713620e-02 0.0000000000000000e+00  1.0013197391946189e-02 -1.1812895880330588e-02 0.0000000000000000e+00  1.0681668980711944e-02 -1.3599844229319296e-02 0.0000000000000000e+00  1.1193065965253756e-02 -1.5410684427302155e-02 0.0000000000000000e+00  1.1581846824519969e-02 -1.7251337195807969e-02 0.0000000000000000e+00  1.1874473543817359e-02 -1.9124168988681266e-02 0.0000000000000000e+00  1.2091767231175631e-02 -2.1029374158674966e-02 0.0000000000000000e+00  1.2250320610662309e-02 -2.2965772981814209e-02 0.0000000000000000e+00  1.2363428149548017e-02 -2.4931334646265194e-02 0.0000000000000000e+00  1.2441746283322723e-02 -2.6923538675787801e-02 0.0000000000000000e+00  1.2493790376638673e-02 -2.8939630046557582e-02 0.0000000000000000e+00  1.2526325595668911e-02 -3.0976799215019109e-02 0.0000000000000000e+00  1.2544683810987584e-02 -3.3032306792512553e-02 0.0000000000000000e+00  1.2553025419026363e-02 -3.5103566544737522e-02 0.0000000000000000e+00  1.2554557815426279e-02 -3.7188196859040609e-02 0.0000000000000000e+00  1.2551718323616332e-02 -3.9284048530839756e-02 0.0000000000000000e+00  1.2546327190422023e-02 -4.1389215080638843e-02 0.0000000000000000e+00  1.2539715006604488e-02 -4.3502030545193207e-02 0.0000000000000000e+00  1.2532828155214323e-02 -4.5621058657297660e-02 0.0000000000000000e+00  1.2526315394349086e-02 -4.7745076474285573e-02 0.0000000000000000e+00  1.2520598314377606e-02 -4.9873054802919696e-02 0.0000000000000000e+00  1.2515928106494033e-02 -5.2004137178444959e-02 0.0000000000000000e+00  1.2512430807799395e-02 -5.4137618673604226e-02 0.0000000000000000e+00  1.2510142934755171e-02 -5.6272925426377546e-02 0.0000000000000000e+00  1.2509039177930854e-02 -5.8409595470516898e-02 0.0000000000000000e+00  1.2509053606757539e-02 -6.0547261218411273e-02 0.0000000000000000e+00  1.2510095625179083e-02 -6.2685633769864912e-02 0.0000000000000000e+00  1.2512061729336197e-02 -6.4824489092359341e-02 0.0000000000000000e+00  1.2514843947829563e-02 -6.6963656028809881e-02 0.0000000000000000e+00  1.2518335694033553e-02 -6.9103006029479414e-02 0.0000000000000000e+00  1.2522435628032992e-02 -7.1242444468603672e-02 0.0000000000000000e+00  1.2527050012138977e-02 -7.3381903387656711e-02 0.0000000000000000e+00  1.2532093947339821e-02 -7.5521335501392672e-02 0.0000000000000000e+00  1.2537491796978073e-02 -7.7660709306176315e-02 0.0000000000000000e+00  1.2543177036886790e-02 -7.9800005139885902e-02 0.0000000000000000e+00  1.2549091716736150e-02 -8.1939212056790056e-02 0.0000000000000000e+00  1.2555185674283322e-02 -8.4078325397917597e-02 0.0000000000000000e+00  1.2561415611953298e-02 -8.6217344956782391e-02 0.0000000000000000e+00  1.2567744124039855e-02 -8.8356273661696808e-02 0.0000000000000000e+00  1.2574138754973235e-02 -9.0495116719612440e-02 0.0000000000000000e+00  1.2580571180502726e-02 -9.2633881193148998e-02 0.0000000000000000e+00  1.2587016648618426e-02 -9.4772576012739224e-02 0.0000000000000000e+00  1.2593453931962409e-02 -9.6911212458605858e-02 0.0000000000000000e+00  1.2599866343821564e-02 -9.9049805157851153e-02 0.0000000000000000e+00  1.2606245334126959e-02 -1.0118837329324940e-01 0.0000000000000000e+00  1.1590665006757175e-02 -1.0332130192782377e-01 0.0000000000000000e+00  1.0568731152358804e-02 -1.0331568303763076e-01 0.0000000000000000e+00  9.5468128494297835e-03 -1.0331008973339001e-01 0.0000000000000000e+00  8.5249234317868790e-03 -1.0330451681765689e-01 0.0000000000000000e+00  7.5030716010359762e-03 -1.0329895247949154e-01 0.0000000000000000e+00  6.4812615534470923e-03 -1.0329338228032625e-01 0.0000000000000000e+00  5.4594936687621578e-03 -1.0328779134129823e-01 0.0000000000000000e+00  4.4377652211378526e-03 -1.0328216567559628e-01 0.0000000000000000e+00  3.4160710347115246e-03 -1.0327649304010282e-01 0.0000000000000000e+00  2.3944040740911110e-03 -1.0327076348473731e-01 0.0000000000000000e+00  1.3727559726039310e-03 -1.0326496970047198e-01 0.0000000000000000e+00  3.5111750785557326e-04 -1.0325910722908478e-01 0.0000000000000000e+00  -6.7052096076153573e-04 -1.0325317457435476e-01 0.0000000000000000e+00  -1.6921690744601126e-03 -1.0324717323695817e-01 0.0000000000000000e+00  -2.7138360574024386e-03 -1.0324110768028363e-01 0.0000000000000000e+00  -3.7355302790540610e-03 -1.0323498521997058e-01 0.0000000000000000e+00  -4.7572587784056840e-03 -1.0322881581492746e-01 0.0000000000000000e+00  -5.7790267354473753e-03 -1.0322261172010479e-01 0.0000000000000000e+00  -6.8008368804088155e-03 -1.0321638693769593e-01 0.0000000000000000e+00  -7.8226888381002641e-03 -1.0321015636439204e-01 0.0000000000000000e+00  -8.8445784169724293e-03 -1.0320393445040846e-01 0.0000000000000000e+00  -9.8664969120315898e-03 -1.0319773297824633e-01 0.0000000000000000e+00  -1.0888430900959627e-02 -1.0319155706315208e-01 0.0000000000000000e+00  -1.1917301365272312e-02 -1.0104683272922706e-01 0.0000000000000000e+00  -1.1924213433888643e-02 -9.8908264723335151e-02 0.0000000000000000e+00  -1.1931092217764189e-02 -9.6769672116286967e-02 0.0000000000000000e+00  -1.1937946082660073e-02 -9.4631035731521734e-02 0.0000000000000000e+00  -1.1944791702312600e-02 -9.2492340950693169e-02 0.0000000000000000e+00  -1.1951650332819008e-02 -9.0353576502522834e-02 0.0000000000000000e+00  -1.1958546750010398e-02 -8.8214733464666420e-02 0.0000000000000000e+00  -1.1965509293119252e-02 -8.6075804781928167e-02 0.0000000000000000e+00  -1.1972570425858099e-02 -8.3936785254814447e-02 0.0000000000000000e+00  -1.1979767556975248e-02 -8.1797671963326060e-02 0.0000000000000000e+00  -1.1987143982878245e-02 -7.9658465124000252e-02 0.0000000000000000e+00  -1.1994749860604231e-02 -7.7519169408623981e-02 0.0000000000000000e+00  -1.2002643130816358e-02 -7.5379795779794492e-02 0.0000000000000000e+00  -1.2010890302570949e-02 -7.3240363922237095e-02 0.0000000000000000e+00  -1.2019566990359498e-02 -7.1100905370190648e-02 0.0000000000000000e+00  -1.2028758061555334e-02 -6.8961467450562017e-02 0.0000000000000000e+00  -1.2038557209199290e-02 -6.6822118178716527e-02 0.0000000000000000e+00  -1.2049065710394024e-02 -6.4682952257954535e-02 0.0000000000000000e+00  -1.2060390063262276e-02 -6.2544098343545990e-02 0.0000000000000000e+00  -1.2072638113997928e-02 -6.0405727735613694e-02 0.0000000000000000e+00  -1.2085913188429175e-02 -5.8268064659356751e-02 0.0000000000000000e+00  -1.2100305628190033e-02 -5.6131398272378841e-02 0.0000000000000000e+00  -1.2115880998729853e-02 -5.3996096502517972e-02 0.0000000000000000e+00  -1.2132664084011577e-02 -5.1862621759679713e-02 0.0000000000000000e+00  -1.2150617610438277e-02 -4.9731548474609172e-02 0.0000000000000000e+00  -1.2169614450569704e-02 -4.7603582287794183e-02 0.0000000000000000e+00  -1.2189401846571090e-02 -4.5479580532880239e-02 0.0000000000000000e+00  -1.2209555965724138e-02 -4.3360573419888131e-02 0.0000000000000000e+00  -1.2229424857434855e-02 -4.1247785011764584e-02 0.0000000000000000e+00  -1.2248057623459215e-02 -3.9142652689985347e-02 0.0000000000000000e+00  -1.2264117337049766e-02 -3.7046843306847245e-02 0.0000000000000000e+00  -1.2275774939948374e-02 -3.4962263608336798e-02 0.0000000000000000e+00  -1.2280580978141780e-02 -3.2891061764134054e-02 0.0000000000000000e+00  -1.2275311543856728e-02 -3.0835615935993113e-02 0.0000000000000000e+00  -1.2255784047251679e-02 -2.8798504712496294e-02 0.0000000000000000e+00  -1.2216637213278772e-02 -2.6782452862258586e-02 0.0000000000000000e+00  -1.2151067561554757e-02 -2.4790244061045547e-02 0.0000000000000000e+00  -1.2050510806460845e-02 -2.2824589734407694e-02 0.0000000000000000e+00  -1.1904249687294375e-02 -2.0887939335203769e-02 0.0000000000000000e+00  -1.1698917000488425e-02 -1.8982211071806285e-02 0.0000000000000000e+00  -1.1417838668330595e-02 -1.7108410991202742e-02 0.0000000000000000e+00  -1.1040115004056170e-02 -1.5266087780212352e-02 0.0000000000000000e+00  -1.0539241324156751e-02 -1.3452530794112646e-02 0.0000000000000000e+00  -9.8808472919486492e-03 -1.1661526476458729e-02 0.0000000000000000e+00  -9.0186134827791309e-03 -9.8811669430398912e-03 0.0000000000000000e+00  -7.8866861012425234e-03 -8.0891491962664687e-03 0.0000000000000000e+00  -6.3924842992289267e-03 -6.2449069370826612e-03 0.0000000000000000e+00  -4.3251785591511931e-03 -4.3836575210747016e-03 0.0000000000000000e+00  -3.0179696684850660e-03 -2.4891537300279331e-03 0.0000000000000000e+00  -5.3924724182348553e-03 -4.8840809729364864e-03 0.0000000000000000e+00  -6.9625182408105217e-03 -7.0217275943045077e-03 0.0000000000000000e+00  -8.1205025197433629e-03 -9.0395743298081754e-03 0.0000000000000000e+00  -8.9915071959921836e-03 -1.0998736961977278e-02 0.0000000000000000e+00  -9.6488592616322429e-03 -1.2932365156948794e-02 0.0000000000000000e+00  -1.0142985319424935e-02 -1.4860397896274271e-02 0.0000000000000000e+00  -1.0510793565647485e-02 -1.6794821660260008e-02 0.0000000000000000e+00  -1.0780400756729671e-02 -1.8742631430923876e-02 0.0000000000000000e+00  -1.0973752728503525e-02 -2.0707602210986747e-02 0.0000000000000000e+00  -1.1108203842112759e-02 -2.2691392724752509e-02 0.0000000000000000e+00  -1.1197553773603406e-02 -2.4694267450414566e-02 0.0000000000000000e+00  -1.1252779617569845e-02 -2.6715587639445808e-02 0.0000000000000000e+00  -1.1282583779329178e-02 -2.8754153559731759e-02 0.0000000000000000e+00  -1.1293822244112338e-02 -3.0808445767790706e-02 0.0000000000000000e+00  -1.1291849550652228e-02 -3.2876795055348067e-02 0.0000000000000000e+00  -1.1280801898606798e-02 -3.4957500609194253e-02 0.0000000000000000e+00  -1.1263831764927691e-02 -3.7048909975616245e-02 0.0000000000000000e+00  -1.1243302973209093e-02 -3.9149470702974906e-02 0.0000000000000000e+00  -1.1220952675733430e-02 -4.1257761061266808e-02 0.0000000000000000e+00  -1.1198025269643008e-02 -4.3372505488854976e-02 0.0000000000000000e+00  -1.1175382385917214e-02 -4.5492579117727625e-02 0.0000000000000000e+00  -1.1153592496429304e-02 -4.7617004728423493e-02 0.0000000000000000e+00  -1.1133003238769293e-02 -4.9744944698233352e-02 0.0000000000000000e+00  -1.1113799188493088e-02 -5.1875689879783179e-02 0.0000000000000000e+00  -1.1096047479587035e-02 -5.4008646847978757e-02 0.0000000000000000e+00  -1.1079733371737564e-02 -5.6143324557610341e-02 0.0000000000000000e+00  -1.1064787582812399e-02 -5.8279321143205172e-02 0.0000000000000000e+00  -1.1051106946401547e-02 -6.0416311351914276e-02 0.0000000000000000e+00  -1.1038569718308675e-02 -6.2554034916641590e-02 0.0000000000000000e+00  -1.1027046643469278e-02 -6.4692286039442701e-02 0.0000000000000000e+00  -1.1016408706241721e-02 -6.6830904055256796e-02 0.0000000000000000e+00  -1.1006532321991310e-02 -6.8969765275491493e-02 0.0000000000000000e+00  -1.0997302585336441e-02 -7.1108775963381429e-02 0.0000000000000000e+00  -1.0988615068836050e-02 -7.3247866363023884e-02 0.0000000000000000e+00  -1.0980376563454986e-02 -7.5386985687229721e-02 0.0000000000000000e+00  -1.0972505066897623e-02 -7.7526097962338086e-02 0.0000000000000000e+00  -1.0964929255917853e-02 -7.9665178628201758e-02 0.0000000000000000e+00  -1.0957587622233233e-02 -8.1804211796563664e-02 0.0000000000000000e+00  -1.0950427407263576e-02 -8.3943188079386624e-02 0.0000000000000000e+00  -1.0943403437743674e-02 -8.6082102909106034e-02 0.0000000000000000e+00  -1.0936476942549074e-02 -8.8220955284096292e-02 0.0000000000000000e+00  -1.0929614423104568e-02 -9.0359746883466763e-02 0.0000000000000000e+00  -1.0922786662241016e-02 -9.2498481503051969e-02 0.0000000000000000e+00  -1.0915968006823484e-02 -9.4637164763162362e-02 0.0000000000000000e+00  -1.0909136194087262e-02 -9.6775804012605396e-02 0.0000000000000000e+00  -1.0902273327251811e-02 -9.8914408275373233e-02 0.0000000000000000e+00  -1.0895369346861580e-02 -1.0105298812274714e-01 0.0000000000000000e+00  -2.2684759892737209e-03 -1.8328971004755649e-03 0.0000000000000000e+00  -4.3956790417027068e-03 -4.0108919805747273e-03 0.0000000000000000e+00  -5.9856268778482368e-03 -6.1999536747662501e-03 0.0000000000000000e+00  -7.1648238852837238e-03 -8.3214022929822950e-03 0.0000000000000000e+00  -8.0480371198590715e-03 -1.0389563758818589e-02 0.0000000000000000e+00  -8.7102762420823050e-03 -1.2424670470028955e-02 0.0000000000000000e+00  -9.2040356647972738e-03 -1.4442680486023790e-02 0.0000000000000000e+00  -9.5680090329285910e-03 -1.6454923939591460e-02 0.0000000000000000e+00  -9.8316713717491126e-03 -1.8469009066073076e-02 0.0000000000000000e+00  -1.0017947585508764e-02 -2.0489780896517519e-02 0.0000000000000000e+00  -1.0144878515283296e-02 -2.2520096508894170e-02 0.0000000000000000e+00  -1.0226732475685353e-02 -2.4561408869896939e-02 0.0000000000000000e+00  -1.0274794548349189e-02 -2.6614198229768283e-02 0.0000000000000000e+00  -1.0297957414275260e-02 -2.8678289302494903e-02 0.0000000000000000e+00  -1.0303181951085405e-02 -3.0753083639405956e-02 0.0000000000000000e+00  -1.0295866660758327e-02 -3.2837728727983864e-02 0.0000000000000000e+00  -1.0280149302172019e-02 -3.4931239583459756e-02 0.0000000000000000e+00  -1.0259155495686527e-02 -3.7032584546716943e-02 0.0000000000000000e+00  -1.0235204268263373e-02 -3.9140744131454512e-02 0.0000000000000000e+00  -1.0209977776181307e-02 -4.1254749682905621e-02 0.0000000000000000e+00  -1.0184660831715694e-02 -4.3373707060822983e-02 0.0000000000000000e+00  -1.0160054851272806e-02 -4.5496809377074995e-02 0.0000000000000000e+00  -1.0136670152558345e-02 -4.7623341899324365e-02 0.0000000000000000e+00  -1.0114800006328367e-02 -4.9752681509732090e-02 0.0000000000000000e+00  -1.0094579416340356e-02 -5.1884292536203691e-02 0.0000000000000000e+00  -1.0076031221561100e-02 -5.4017720321420513e-02 0.0000000000000000e+00  -1.0059101770861577e-02 -5.6152583538064842e-02 0.0000000000000000e+00  -1.0043688106152476e-02 -5.8288565978903119e-02 0.0000000000000000e+00  -1.0029658303608757e-02 -6.0425408333075387e-02 0.0000000000000000e+00  -1.0016866364287174e-02 -6.2562900293081716e-02 0.0000000000000000e+00  -1.0005162815149302e-02 -6.4700873210695620e-02 0.0000000000000000e+00  -9.9944019788642084e-03 -6.6839193426190227e-02 0.0000000000000000e+00  -9.9844466947498888e-03 -6.8977756327069484e-02 0.0000000000000000e+00  -9.9751711222243414e-03 -7.1116481144391799e-02 0.0000000000000000e+00  -9.9664621301811199e-03 -7.3255306462185588e-02 0.0000000000000000e+00  -9.9582196685477336e-03 -7.5394186394695889e-02 0.0000000000000000e+00  -9.9503564296358343e-03 -7.7533087374279525e-02 0.0000000000000000e+00  -9.9427970345303401e-03 -7.9671985487299368e-02 0.0000000000000000e+00  -9.9354769217042133e-03 -8.1810864294440386e-02 0.0000000000000000e+00  -9.9283410696837347e-03 -8.3949713073915480e-02 0.0000000000000000e+00  -9.9213426519708364e-03 -8.6088525429718524e-02 0.0000000000000000e+00  -9.9144417006814430e-03 -8.8227298211148927e-02 0.0000000000000000e+00  -9.9076038475630537e-03 -9.0366030693038696e-02 0.0000000000000000e+00  -9.9007992229880326e-03 -9.2504723967455724e-02 0.0000000000000000e+00  -9.8940016377996910e-03 -9.4643380498840787e-02 0.0000000000000000e+00  -9.8871882716415772e-03 -9.6782003813925876e-02 0.0000000000000000e+00  -9.8803402545892850e-03 -9.8920598434884668e-02 0.0000000000000000e+00  -9.8734445691154651e-03 -1.0105917076247317e-01 0.0000000000000000e+00  -1.8174459350566202e-03 -1.6339104917899277e-03 0.0000000000000000e+00  -3.5973393894436277e-03 -3.5704155611843802e-03 0.0000000000000000e+00  -5.0721795730513056e-03 -5.6559822043473502e-03 0.0000000000000000e+00  -6.2180993095938717e-03 -7.7719907770964014e-03 0.0000000000000000e+00  -7.0909301236022878e-03 -9.8787599370775622e-03 0.0000000000000000e+00  -7.7487864729178530e-03 -1.1969607340099057e-02 0.0000000000000000e+00  -8.2391112334888172e-03 -1.4047776022647365e-02 0.0000000000000000e+00  -8.5992099276684473e-03 -1.6118532529156276e-02 0.0000000000000000e+00  -8.8583785783991290e-03 -1.8186670532147248e-02 0.0000000000000000e+00  -9.0397326827728625e-03 -2.0255866461089941e-02 0.0000000000000000e+00  -9.1615754700200072e-03 -2.2328665854728386e-02 0.0000000000000000e+00  -9.2384079588880025e-03 -2.4406662817760945e-02 0.0000000000000000e+00  -9.2816901857185434e-03 -2.6490714929432155e-02 0.0000000000000000e+00  -9.3004314021082855e-03 -2.8581139533247191e-02 0.0000000000000000e+00  -9.3016594879122526e-03 -3.0677876120051958e-02 0.0000000000000000e+00  -9.2908014258244638e-03 -3.2780613887168318e-02 0.0000000000000000e+00  -9.2719953656584288e-03 -3.4888888512324176e-02 0.0000000000000000e+00  -9.2483480517744684e-03 -3.7002153454451195e-02 0.0000000000000000e+00  -9.2221473835752740e-03 -3.9119830949275528e-02 0.0000000000000000e+00  -9.1950374771553409e-03 -4.1241347227092127e-02 0.0000000000000000e+00  -9.1681621037749822e-03 -4.3366155722019337e-02 0.0000000000000000e+00  -9.1422813941307753e-03 -4.5493751318423772e-02 0.0000000000000000e+00  -9.1178659878734560e-03 -4.7623678045792588e-02 0.0000000000000000e+00  -9.0951722505222578e-03 -4.9755532100754715e-02 0.0000000000000000e+00  -9.0743017095304499e-03 -5.1888961639273937e-02 0.0000000000000000e+00  -9.0552474456905511e-03 -5.4023664431745382e-02 0.0000000000000000e+00  -9.0379298009229669e-03 -5.6159384195733596e-02 0.0000000000000000e+00  -9.0222234231052429e-03 -5.8295906202896361e-02 0.0000000000000000e+00  -9.0079773611269360e-03 -6.0433052587165963e-02 0.0000000000000000e+00  -8.9950296481937451e-03 -6.2570677651043669e-02 0.0000000000000000e+00  -8.9832175679637194e-03 -6.4708663368020752e-02 0.0000000000000000e+00  -8.9723845853261208e-03 -6.6846915205162130e-02 0.0000000000000000e+00  -8.9623847399158060e-03 -6.8985358335468455e-02 0.0000000000000000e+00  -8.9530851437039077e-03 -7.1123934270457267e-02 0.0000000000000000e+00  -8.9443670918145386e-03 -7.3262597915988839e-02 0.0000000000000000e+00  -8.9361261855229294e-03 -7.5401315035899072