<?xml version="1.0"?>
<VTKFile type="UnstructuredGrid"  version="0.1"  >
<UnstructuredGrid>
<Piece  NumberOfPoints="3167" NumberOfCells="6038">
<Points>
<DataArray  type="Float64"  NumberOfComponents="3"  format="ascii">2.2 2.9 0  0 2.9 0  2.8 2.9 0  5 2.9 0  5 0 0  0 0 0  2.16271186440678 2.9 0  2.125423728813559 2.9 0  2.088135593220339 2.9 0  2.050847457627119 2.9 0  2.013559322033898 2.9 0  1.976271186440678 2.9 0  1.938983050847457 2.9 0  1.901694915254237 2.9 0  1.864406779661016 2.9 0  1.827118644067796 2.9 0  1.789830508474575 2.9 0  1.752542372881355 2.9 0  1.715254237288134 2.9 0  1.677966101694914 2.9 0  1.640677966101693 2.9 0  1.603389830508473 2.9 0  1.566101694915253 2.9 0  1.528813559322032 2.9 0  1.491525423728812 2.9 0  1.454237288135591 2.9 0  1.416949152542371 2.9 0  1.37966101694915 2.9 0  1.34237288135593 2.9 0  1.305084745762709 2.9 0  1.267796610169489 2.9 0  1.230508474576268 2.9 0  1.193220338983048 2.9 0  1.155932203389827 2.9 0  1.118644067796607 2.9 0  1.081355932203387 2.9 0  1.044067796610166 2.9 0  1.006779661016946 2.9 0  0.9694915254237257 2.9 0  0.9322033898305055 2.9 0  0.8949152542372856 2.9 0  0.8576271186440652 2.9 0  0.820338983050845 2.9 0  0.783050847457625 2.9 0  0.7457627118644048 2.9 0  0.7084745762711844 2.9 0  0.6711864406779642 2.9 0  0.633898305084744 2.9 0  0.5966101694915238 2.9 0  0.5593220338983036 2.9 0  0.5220338983050834 2.9 0  0.4847457627118632 2.9 0  0.447457627118643 2.9 0  0.4101694915254228 2.9 0  0.3728813559322024 2.9 0  0.3355932203389822 2.9 0  0.2983050847457622 2.9 0  0.2610169491525418 2.9 0  0.2237288135593216 2.9 0  0.1864406779661016 2.9 0  0.1491525423728812 2.9 0  0.1118644067796613 2.9 0  0.07457627118644039 2.9 0  0.03728813559321997 2.9 0  2.792405063291139 2.9 0  2.784810126582279 2.9 0  2.777215189873418 2.9 0  2.769620253164557 2.9 0  2.762025316455697 2.9 0  2.754430379746836 2.9 0  2.746835443037975 2.9 0  2.739240506329114 2.9 0  2.731645569620254 2.9 0  2.724050632911393 2.9 0  2.716455696202532 2.9 0  2.708860759493671 2.9 0  2.701265822784811 2.9 0  2.69367088607595 2.9 0  2.686075949367089 2.9 0  2.678481012658228 2.9 0  2.670886075949368 2.9 0  2.663291139240507 2.9 0  2.655696202531646 2.9 0  2.648101265822786 2.9 0  2.640506329113925 2.9 0  2.632911392405064 2.9 0  2.625316455696203 2.9 0  2.617721518987342 2.9 0  2.610126582278482 2.9 0  2.602531645569621 2.9 0  2.59493670886076 2.9 0  2.587341772151899 2.9 0  2.579746835443038 2.9 0  2.572151898734178 2.9 0  2.564556962025317 2.9 0  2.556962025316456 2.9 0  2.549367088607595 2.9 0  2.541772151898734 2.9 0  2.534177215189874 2.9 0  2.526582278481013 2.9 0  2.518987341772152 2.9 0  2.511392405063292 2.9 0  2.503797468354431 2.9 0  2.49620253164557 2.9 0  2.488607594936709 2.9 0  2.481012658227848 2.9 0  2.473417721518988 2.9 0  2.465822784810127 2.9 0  2.458227848101266 2.9 0  2.450632911392406 2.9 0  2.443037974683545 2.9 0  2.435443037974684 2.9 0  2.427848101265823 2.9 0  2.420253164556962 2.9 0  2.412658227848102 2.9 0  2.405063291139241 2.9 0  2.39746835443038 2.9 0  2.389873417721519 2.9 0  2.382278481012658 2.9 0  2.374683544303798 2.9 0  2.367088607594937 2.9 0  2.359493670886076 2.9 0  2.351898734177215 2.9 0  2.344303797468355 2.9 0  2.336708860759494 2.9 0  2.329113924050633 2.9 0  2.321518987341773 2.9 0  2.313924050632912 2.9 0  2.306329113924051 2.9 0  2.29873417721519 2.9 0  2.291139240506329 2.9 0  2.283544303797469 2.9 0  2.275949367088608 2.9 0  2.268354430379747 2.9 0  2.260759493670887 2.9 0  2.253164556962026 2.9 0  2.245569620253165 2.9 0  2.237974683544304 2.9 0  2.230379746835443 2.9 0  2.222784810126583 2.9 0  2.215189873417722 2.9 0  2.207594936708861 2.9 0  4.96271186440678 2.9 0  4.925423728813559 2.9 0  4.888135593220339 2.9 0  4.850847457627118 2.9 0  4.813559322033898 2.9 0  4.776271186440677 2.9 0  4.738983050847457 2.9 0  4.701694915254237 2.9 0  4.664406779661016 2.9 0  4.627118644067796 2.9 0  4.589830508474575 2.9 0  4.552542372881355 2.9 0  4.515254237288135 2.9 0  4.477966101694914 2.9 0  4.440677966101694 2.9 0  4.403389830508473 2.9 0  4.366101694915252 2.9 0  4.328813559322032 2.9 0  4.291525423728811 2.9 0  4.254237288135591 2.9 0  4.21694915254237 2.9 0  4.17966101694915 2.9 0  4.14237288135593 2.9 0  4.105084745762709 2.9 0  4.067796610169489 2.9 0  4.030508474576268 2.9 0  3.993220338983048 2.9 0  3.955932203389827 2.9 0  3.918644067796607 2.9 0  3.881355932203387 2.9 0  3.844067796610166 2.9 0  3.806779661016946 2.9 0  3.769491525423725 2.9 0  3.732203389830505 2.9 0  3.694915254237285 2.9 0  3.657627118644065 2.9 0  3.620338983050845 2.9 0  3.583050847457625 2.9 0  3.545762711864405 2.9 0  3.508474576271184 2.9 0  3.471186440677964 2.9 0  3.433898305084744 2.9 0  3.396610169491524 2.9 0  3.359322033898303 2.9 0  3.322033898305083 2.9 0  3.284745762711863 2.9 0  3.247457627118643 2.9 0  3.210169491525423 2.9 0  3.172881355932202 2.9 0  3.135593220338982 2.9 0  3.098305084745762 2.9 0  3.061016949152542 2.9 0  3.023728813559321 2.9 0  2.986440677966101 2.9 0  2.949152542372881 2.9 0  2.911864406779661 2.9 0  2.87457627118644 2.9 0  2.83728813559322 2.9 0  5 0.1063822624840908 0  5 0.210636879963479 0  5 0.3128064053000104 0  5 0.4129325399736057 0  5 0.5110561519920087 0  5 0.6072172917522097 0  5 0.7014552086337308 0  5 0.7938083672768746 0  5 0.8843144624325437 0  5 0.9730104357533907 0  5 1.059932489779506 0  5 1.145116102681561 0  5 1.228596043237163 0  5 1.310406384819408 0  5 1.39058051967151 0  5 1.46915117219283 0  5 1.546150411689349 0  5 1.621609666350684 0  5 1.695559735780513 0  5 1.76803080351128 0  5 1.839052449831632 0  5 1.908653663284034 0  5 1.976862852540214 0  5 2.043707858250082 0  5 2.109215963970139 0  5 2.173413907547539 0  5 2.236327892447888 0  5 2.29798359737153 0  5 2.358406188061876 0  5 2.417620326899216 0  5 2.475650183036803 0  5 2.532519442044509 0  5 2.588251315695885 0  5 2.642868552136335 0  5 2.696393444001645 0  5 2.748847837883952 0  5 2.800253143882191 0  5 2.85063034388582 0  0.2631578947368421 0 0  0.5263157894736842 0 0  0.7894736842105263 0 0  1.052631578947368 0 0  1.31578947368421 0 0  1.578947368421053 0 0  1.842105263157895 0 0  2.105263157894737 0 0  2.368421052631579 0 0  2.631578947368421 0 0  2.894736842105263 0 0  3.157894736842105 0 0  3.421052631578947 0 0  3.684210526315789 0 0  3.947368421052632 0 0  4.210526315789473 0 0  4.473684210526315 0 0  4.736842105263158 0 0  0 2.850203682350569 0  0 2.799411438503675 0  0 2.747603349778291 0  0 2.694759099502208 0  0 2.640857964382145 0  0 2.58587880633613 0  0 2.52980006535898 0  0 2.472599749459174 0  0 2.414255427218689 0  0 2.35474421880616 0  0 2.294042786119219 0  0 2.232127324764723 0  0 2.1689735539481 0  0 2.104556707683346 0  0 2.038851524813415 0  0 1.971832238155654 0  0 1.903472565412125 0  0 1.83374569926617 0  0 1.762624296208474 0  0 1.690080464918761 0  0 1.616085756774205 0  0 1.540611154706337 0  0 1.463627060685571 0  0 1.385103284916206 0  0 1.305009033716617 0  0 1.223312897337225 0  0 1.139982838163732 0  0 1.054986177579937 0  0 0.9682895835804808 0  0 0.8798590579197967 0  0 0.789659921841535 0  0 0.6976568029903634 0  0 0.6038136217958807 0  0 0.508093576867624 0  0 0.4104591310957497 0  0 0.31087199635222 0  0 0.2092931188294389 0  0 0.1056826638508546 0  1.434832105734982 2.866945754976478 0  1.737156300412976 2.8700394402447 0  2.032203389830508 2.867707527316512 0  2.332911392405064 2.893422591869991 0  2.469810913221006 2.891944186617815 0  2.606221408801046 2.892519154968786 0  2.255455320556353 2.892068684938936 0  2.538247299178607 2.894964578175289 0  2.674683544303798 2.893422591869991 0  2.40126582278481 2.893422591869991 0  3.566125247274844 2.86502933617869 0  3.266101694915253 2.867707527316512 0  2.967796610169491 2.867707527316512 0  1.174288529771947 2.870795313883199 0  3.825423728813556 2.867707527316512 0  2.727766680241741 2.892655387639323 0  0.06601655192030442 1.502119107695954 0  4.933983535518289 1.50765079194109 0  0.9532124728076634 2.868722489784116 0  4.048935912505472 2.870640982963028 0  0.05930163367361851 1.866907161167415 0  4.943402512617702 1.871280731227115 0  4.271733869970415 2.865208656206698 0  0.724942092071192 2.863922936166216 0  0.05494499779911566 2.196469063120751 0  4.947228695435926 2.208030108416282 0  0.5406152149451962 2.866493807374646 0  4.459322033898304 2.868847558171501 0  2.18135593220339 2.875780645487384 0  2.81702715648046 2.876587550622478 0  4.928427208334964 1.186856072959362 0  0.07189226971603357 1.174626666111664 0  4.610299014391064 2.867003104061287 0  0.3897270066746503 2.869433095314649 0  1.5811324999839 2.868247328613121 0  1.887637879307645 2.869235851843492 0  3.413449426409203 2.867372048026557 0  3.116721298784139 2.865731235545648 0  2.644303797468355 2.893422591869991 0  2.370983221771223 2.892719513366117 0  2.302531645569621 2.89333678739629 0  2.758987341772152 2.894242393896969 0  0.04979653335696588 2.443411216910279 0  4.950470983481301 2.446866954190454 0  2.482937483056625 0.2513241088166693 0  1.70712950486069 0.1999998660928157 0  3.285846579639133 0.2292006256069719 0  4.907807122450741 0.8340823629079156 0  4.757627118644067 2.867707527316512 0  0.07734891246767406 0.8347594898806658 0  0.2390604736599493 2.861365431805748 0  0.8363213714273008 2.863896768913622 0  4.16086561018973 2.868916854014843 0  1.28254933196979 2.86761095296154 0  1.065094818264994 2.861284686078544 0  3.938181277358471 2.868651344087338 0  3.711492629398847 2.863574306894209 0  4.913693619806458 0.5579891341027028 0  0.08208328472281323 0.5559535993317524 0  2.696596932509445 2.892010483912606 0  0.04706410140274642 2.613055974506517 0  4.955577063959472 2.616518038416838 0  2.234177215189874 2.893422591869991 0  2.279795840517476 2.894038618939426 0  0.911735788765236 0.2117925286661764 0  4.055948041976698 0.2039101059740411 0  4.872119713756579 2.86763292637659 0  2.78011387899257 2.891535929611774 0  0.1327442468251299 2.85732490707
[...]
<PointData  Vectors="displacement"> 
<DataArray  type="Float64"  Name="displacement"  NumberOfComponents="3" format="ascii">4.7845389454597383e-05 -5.4736035914292210e-04 0.0000000000000000e+00  0.0000000000000000e+00 2.7150177917181697e-06 0.0000000000000000e+00  -5.3425330757557232e-05 -5.5530069079690633e-04 0.0000000000000000e+00  0.0000000000000000e+00 2.7504048584805756e-06 0.0000000000000000e+00  0.0000000000000000e+00 0.0000000000000000e+00 0.0000000000000000e+00  0.0000000000000000e+00 0.0000000000000000e+00 0.0000000000000000e+00  4.1653045327532420e-05 -4.7356798634178130e-04 0.0000000000000000e+00  3.8204332387732141e-05 -4.2913930803917803e-04 0.0000000000000000e+00  3.6148276369424877e-05 -3.9429006950583094e-04 0.0000000000000000e+00  3.4720454568981109e-05 -3.6491801187903735e-04 0.0000000000000000e+00  3.3661712267304404e-05 -3.3935109649645449e-04 0.0000000000000000e+00  3.2848195804390234e-05 -3.1663984003536192e-04 0.0000000000000000e+00  3.2200884010658454e-05 -2.9617082212288724e-04 0.0000000000000000e+00  3.1665272443272860e-05 -2.7752284130171941e-04 0.0000000000000000e+00  3.1201731964510150e-05 -2.6038871543977254e-04 0.0000000000000000e+00  3.0783758385673054e-05 -2.4454179278646557e-04 0.0000000000000000e+00  3.0390745925376925e-05 -2.2981042164294527e-04 0.0000000000000000e+00  3.0007550608072817e-05 -2.1605583549308790e-04 0.0000000000000000e+00  2.9623460634721052e-05 -2.0316622448169911e-04 0.0000000000000000e+00  2.9231283721562739e-05 -1.9105118799754778e-04 0.0000000000000000e+00  2.8825641190380432e-05 -1.7963659569179930e-04 0.0000000000000000e+00  2.8402995034920016e-05 -1.6885958684314726e-04 0.0000000000000000e+00  2.7961298518166467e-05 -1.5866686419151562e-04 0.0000000000000000e+00  2.7498814732518189e-05 -1.4901249589580409e-04 0.0000000000000000e+00  2.7015462625415832e-05 -1.3985676257805636e-04 0.0000000000000000e+00  2.6511453611839030e-05 -1.3116510301283406e-04 0.0000000000000000e+00  2.5987205821380305e-05 -1.2290728607080743e-04 0.0000000000000000e+00  2.5443411485516264e-05 -1.1505655994354451e-04 0.0000000000000000e+00  2.4881216462261873e-05 -1.0758857392211661e-04 0.0000000000000000e+00  2.4301484329834098e-05 -1.0048212347909022e-04 0.0000000000000000e+00  2.3705529096820299e-05 -9.3718124138914520e-05 0.0000000000000000e+00  2.3094643738039799e-05 -8.7279021977014300e-05 0.0000000000000000e+00  2.2470078818789941e-05 -8.1148788296448276e-05 0.0000000000000000e+00  2.1832796392212404e-05 -7.5313340959803281e-05 0.0000000000000000e+00  2.1184358625282149e-05 -6.9759505947237862e-05 0.0000000000000000e+00  2.0525507661372640e-05 -6.4474893151463669e-05 0.0000000000000000e+00  1.9857684394422844e-05 -5.9448677914731089e-05 0.0000000000000000e+00  1.9181860709967571e-05 -5.4670850915533147e-05 0.0000000000000000e+00  1.8498637367712632e-05 -5.0132098702295876e-05 0.0000000000000000e+00  1.7809356547536740e-05 -4.5823409428289833e-05 0.0000000000000000e+00  1.7114599496577359e-05 -4.1737053468686581e-05 0.0000000000000000e+00  1.6415251679480890e-05 -3.7865525553081554e-05 0.0000000000000000e+00  1.5712016316037166e-05 -3.4201933451332702e-05 0.0000000000000000e+00  1.5005445564019904e-05 -3.0740028713380557e-05 0.0000000000000000e+00  1.4296208991440398e-05 -2.7473858114816759e-05 0.0000000000000000e+00  1.3584786194813232e-05 -2.4397977901313285e-05 0.0000000000000000e+00  1.2871652028602088e-05 -2.1507339649425826e-05 0.0000000000000000e+00  1.2157186639481589e-05 -1.8797258030900560e-05 0.0000000000000000e+00  1.1441752956145920e-05 -1.6263383463049888e-05 0.0000000000000000e+00  1.0725680020369462e-05 -1.3901764559881356e-05 0.0000000000000000e+00  1.0009224215419884e-05 -1.1708684085819074e-05 0.0000000000000000e+00  9.2925955260478733e-06 -9.6807803460360838e-06 0.0000000000000000e+00  8.5759770705570594e-06 -7.8149438894860586e-06 0.0000000000000000e+00  7.8594970958974907e-06 -6.1083684630348117e-06 0.0000000000000000e+00  7.1432795069420953e-06 -4.5584789066539298e-06 0.0000000000000000e+00  6.4273927491416310e-06 -3.1629812990682430e-06 0.0000000000000000e+00  5.7118879363731373e-06 -1.9198124819860599e-06 0.0000000000000000e+00  4.9967686910693383e-06 -8.2709531386254872e-07 0.0000000000000000e+00  4.2820646270356115e-06 1.1673623716772481e-07 0.0000000000000000e+00  3.5677229361904439e-06 9.1303833095889943e-07 0.0000000000000000e+00  2.8537355428379437e-06 1.5629889077241312e-06 0.0000000000000000e+00  2.1400314108313235e-06 2.0675530237270303e-06 0.0000000000000000e+00  1.4265621007519374e-06 2.4274312431427820e-06 0.0000000000000000e+00  7.1324319345550392e-07 2.6431507371536500e-06 0.0000000000000000e+00  -8.6285571241283501e-05 -6.6318018621338226e-04 0.0000000000000000e+00  -8.1452484960918217e-05 -6.9139417021018082e-04 0.0000000000000000e+00  -7.8040719973283294e-05 -7.0924850722933481e-04 0.0000000000000000e+00  -7.5167319866668831e-05 -7.2316108711286764e-04 0.0000000000000000e+00  -7.2938403743480975e-05 -7.3531715067253335e-04 0.0000000000000000e+00  -7.0816934857727127e-05 -7.4643224760068756e-04 0.0000000000000000e+00  -6.8696673700371918e-05 -7.5667114733184810e-04 0.0000000000000000e+00  -6.6585708493465434e-05 -7.6615030869643934e-04 0.0000000000000000e+00  -6.4483050487675766e-05 -7.7497377371819063e-04 0.0000000000000000e+00  -6.2386268656588264e-05 -7.8322181632981870e-04 0.0000000000000000e+00  -6.0292792940249768e-05 -7.9095426871614912e-04 0.0000000000000000e+00  -5.8200406159790810e-05 -7.9821832599714893e-04 0.0000000000000000e+00  -5.6108536405760446e-05 -8.0505324248943025e-04 0.0000000000000000e+00  -5.4016580535395186e-05 -8.1149039617319061e-04 0.0000000000000000e+00  -5.1923434855205885e-05 -8.1755608821275241e-04 0.0000000000000000e+00  -4.9829266480889581e-05 -8.2327355233058233e-04 0.0000000000000000e+00  -4.7733594069121456e-05 -8.2866162093298446e-04 0.0000000000000000e+00  -4.5636324008046787e-05 -8.3373661935820314e-04 0.0000000000000000e+00  -4.3537405518576143e-05 -8.3851294973957564e-04 0.0000000000000000e+00  -4.1436865530110698e-05 -8.4300312028501637e-04 0.0000000000000000e+00  -3.9334761338527818e-05 -8.4721821807654180e-04 0.0000000000000000e+00  -3.7231200822921236e-05 -8.5116803454398564e-04 0.0000000000000000e+00  -3.5126233552386017e-05 -8.5486121930773728e-04 0.0000000000000000e+00  -3.3019948731980791e-05 -8.5830554353936560e-04 0.0000000000000000e+00  -3.0912411610628927e-05 -8.6150789727092929e-04 0.0000000000000000e+00  -2.8803690874134203e-05 -8.6447433798112481e-04 0.0000000000000000e+00  -2.6693933114743957e-05 -8.6721030448272071e-04 0.0000000000000000e+00  -2.4583047695092774e-05 -8.6972059073601798e-04 0.0000000000000000e+00  -2.2471220537024761e-05 -8.7200953242050079e-04 0.0000000000000000e+00  -2.0358548985776110e-05 -8.7408088834196591e-04 0.0000000000000000e+00  -1.8245119393391819e-05 -8.7593800268176544e-04 0.0000000000000000e+00  -1.6130993328687208e-05 -8.7758376722392906e-04 0.0000000000000000e+00  -1.4016288718338521e-05 -8.7902071712162044e-04 0.0000000000000000e+00  -1.1901164176719549e-05 -8.8025101230154463e-04 0.0000000000000000e+00  -9.7856553216046479e-06 -8.8127643939199106e-04 0.0000000000000000e+00  -7.6700186456617250e-06 -8.8209859554784855e-04 0.0000000000000000e+00  -5.5542361616494493e-06 -8.8271864198893554e-04 0.0000000000000000e+00  -3.4384880536691352e-06 -8.8313748026175613e-04 0.0000000000000000e+00  -1.3229355117811321e-06 -8.8335575853333505e-04 0.0000000000000000e+00  7.9234152585043674e-07 -8.8337380964954480e-04 0.0000000000000000e+00  2.9072141438311473e-06 -8.8319169091587396e-04 0.0000000000000000e+00  5.0215662085664412e-06 -8.8280918159302623e-04 0.0000000000000000e+00  7.1352792401156075e-06 -8.8222578110027424e-04 0.0000000000000000e+00  9.2482152378129771e-06 -8.8144067077876504e-04 0.0000000000000000e+00  1.1360297331694208e-05 -8.8045274492407381e-04 0.0000000000000000e+00  1.3471389552174933e-05 -8.7926062999108988e-04 0.0000000000000000e+00  1.5581365415929224e-05 -8.7786257181046842e-04 0.0000000000000000e+00  1.7690110332515952e-05 -8.7625648932771708e-04 0.0000000000000000e+00  1.9797510924571636e-05 -8.7443996124450920e-04 0.0000000000000000e+00  2.1903393544480062e-05 -8.7241016498752039e-04 0.0000000000000000e+00  2.4007655423799688e-05 -8.7016392084940993e-04 0.0000000000000000e+00  2.6110168086709816e-05 -8.6769752196025872e-04 0.0000000000000000e+00  2.8210659320932800e-05 -8.6500684241220811e-04 0.0000000000000000e+00  3.0309042751777799e-05 -8.6208729317993355e-04 0.0000000000000000e+00  3.2405098759925807e-05 -8.5893360681290189e-04 0.0000000000000000e+00  3.4498614680431596e-05 -8.5553995678967331e-04 0.0000000000000000e+00  3.6589360414517280e-05 -8.5189976128676565e-04 0.0000000000000000e+00  3.8677201564211159e-05 -8.4800568640890854e-04 0.0000000000000000e+00  4.0761783979155606e-05 -8.4384928052291222e-04 0.0000000000000000e+00  4.2842819221465317e-05 -8.3942146150211270e-04 0.0000000000000000e+00  4.4919939940252911e-05 -8.3471158315872283e-04 0.0000000000000000e+00  4.6992876532758085e-05 -8.2970770077361866e-04 0.0000000000000000e+00  4.9061183353766201e-05 -8.2439620747915823e-04 0.0000000000000000e+00  5.1124397847152501e-05 -8.1876149377026598e-04 0.0000000000000000e+00  5.3181932336113618e-05 -8.1278573628022690e-04 0.0000000000000000e+00  5.5233170957220376e-05 -8.0644795091801811e-04 0.0000000000000000e+00  5.7276941256252457e-05 -7.9972376259466495e-04 0.0000000000000000e+00  5.9312393979767515e-05 -7.9258429208224363e-04 0.0000000000000000e+00  6.1338604113322573e-05 -7.8499571487915449e-04 0.0000000000000000e+00  6.3351853072711711e-05 -7.7691505801648429e-04 0.0000000000000000e+00  6.5349618895656011e-05 -7.6829127273508467e-04 0.0000000000000000e+00  6.7330002590021033e-05 -7.5906206703881831e-04 0.0000000000000000e+00  6.9290245105452071e-05 -7.4914740166509011e-04 0.0000000000000000e+00  7.1234204924412809e-05 -7.3842962908064606e-04 0.0000000000000000e+00  7.3171700947922136e-05 -7.2671802008663353e-04 0.0000000000000000e+00  7.5017743283443573e-05 -7.1369437591314985e-04 0.0000000000000000e+00  7.6489818492151015e-05 -6.9958517452712872e-04 0.0000000000000000e+00  8.3338821407565603e-05 -6.7258312339296916e-04 0.0000000000000000e+00  -7.1746136731482738e-07 2.6785015185755318e-06 0.0000000000000000e+00  -1.4350100656952389e-06 2.4626909697823488e-06 0.0000000000000000e+00  -2.1527339814643431e-06 2.1026597094158132e-06 0.0000000000000000e+00  -2.8707086757732950e-06 1.5978901829362496e-06 0.0000000000000000e+00  -3.5890171753643326e-06 9.4764939650313161e-07 0.0000000000000000e+00  -4.3076921928936078e-06 1.5098092186770846e-07 0.0000000000000000e+00  -5.0268137355586236e-06 -7.9323881154338090e-07 0.0000000000000000e+00  -5.7463995187534298e-06 -1.8864177904119610e-06 0.0000000000000000e+00  -6.4664600368500756e-06 -3.1301507019304728e-06 0.0000000000000000e+00  -7.1869787726777988e-06 -4.5262780190990056e-06 0.0000000000000000e+00  -7.9079256472098326e-06 -6.0768668809129604e-06 0.0000000000000000e+00  -8.6292330736089950e-06 -7.7842230702291775e-06 0.0000000000000000e+00  -9.3508157803247452e-06 -9.6509139100130215e-06 0.0000000000000000e+00  -1.0072538162619688e-05 -1.1679762480760269e-05 0.0000000000000000e+00  -1.0794240206525154e-05 -1.3873869727272978e-05 0.0000000000000000e+00  -1.1515716742807279e-05 -1.6236623575327522e-05 0.0000000000000000e+00  -1.2236734768487718e-05 -1.8771699048673091e-05 0.0000000000000000e+00  -1.2956978284108518e-05 -2.1483136054374609e-05 0.0000000000000000e+00  -1.3676129115834693e-05 -2.4375244791188980e-05 0.0000000000000000e+00  -1.4393798130404373e-05 -2.7452719461559428e-05 0.0000000000000000e+00  -1.5109581090673588e-05 -3.0720643083075456e-05 0.0000000000000000e+00  -1.5822907993331163e-05 -3.4184345268033385e-05 0.0000000000000000e+00  -1.6533280216828022e-05 -3.7849897074827890e-05 0.0000000000000000e+00  -1.7240074406706641e-05 -4.1723619521142977e-05 0.0000000000000000e+00  -1.7942637740699444e-05 -4.5812371530462077e-05 0.0000000000000000e+00  -1.8640228783452599e-05 -5.0123570933919588e-05 0.0000000000000000e+00  -1.9332041074260577e-05 -5.4665245667969880e-05 0.0000000000000000e+00  -2.0017205796754361e-05 -5.9446076613325567e-05 0.0000000000000000e+00  -2.0694857967359141e-05 -6.4475471732057180e-05 0.0000000000000000e+00  -2.1364014640287010e-05 -6.9763592783025089e-05 0.0000000000000000e+00  -2.2023608097139130e-05 -7.5321540569032929e-05 0.0000000000000000e+00  -2.2672546471021472e-05 -8.1161334559112745e-05 0.0000000000000000e+00  -2.3310116677206063e-05 -8.7296288458405259e-05 0.0000000000000000e+00  -2.3934368746696445e-05 -9.3740773251520235e-05 0.0000000000000000e+00  -2.4544821990875123e-05 -1.0051069147964294e-04 0.0000000000000000e+00  -2.5140320308027253e-05 -1.0762343245005269e-04 0.0000000000000000e+00  -2.5719701901622164e-05 -1.1509839114769370e-04 0.0000000000000000e+00  -2.6281836417986194e-05 -1.2295714159001446e-04 0.0000000000000000e+00  -2.6826095264315198e-05 -1.3122380324176715e-04 0.0000000000000000e+00  -2.7352000855237693e-05 -1.3992538670400248e-04 0.0000000000000000e+00  -2.7859189674689213e-05 -1.4909241336119188e-04 0.0000000000000000e+00  -2.8347775905902552e-05 -1.5875972033990650e-04 0.0000000000000000e+00  -2.8818908154363868e-05 -1.6896710650571921e-04 0.0000000000000000e+00  -2.9273573718104463e-05 -1.7976065059194121e-04 0.0000000000000000e+00  -2.9714431909826792e-05 -1.9119386663109532e-04 0.0000000000000000e+00  -3.0145954188819565e-05 -2.0333062914965083e-04 0.0000000000000000e+00  -3.0574217806517670e-05 -2.1624600336737847e-04 0.0000000000000000e+00  -3.1007419742662851e-05 -2.3003154499125306e-04 0.0000000000000000e+00  -3.1458116660093284e-05 -2.4479836954494880e-04 0.0000000000000000e+00  -3.1940524156768752e-05 -2.6068543847472813e-04 0.0000000000000000e+00  -3.2479691730228759e-05 -2.7787176653058186e-04 0.0000000000000000e+00  -3.3102991976732767e-05 -2.9658038205447775e-04 0.0000000000000000e+00  -3.3853217810408038e-05 -3.1712954391493889e-04 0.0000000000000000e+00  -3.4792070157882543e-05 -3.3994062578971416e-04 0.0000000000000000e+00  -3.6008117891801490e-05 -3.6563609826079140e-04 0.0000000000000000e+00  -3.7650805392234492e-05 -3.9518815640974555e-04 0.0000000000000000e+00  -3.9940098819571389e-05 -4.3032071642630016e-04 0.0000000000000000e+00  -4.3981186525415662e-05 -4.7524195240521594e-04 0.0000000000000000e+00  0.0000000000000000e+00 -4.2926664892194098e-06 0.0000000000000000e+00  0.0000000000000000e+00 -7.8818022764625535e-06 0.0000000000000000e+00  0.0000000000000000e+00 -1.0862799064048014e-05 0.0000000000000000e+00  0.0000000000000000e+00 -1.3316387687744340e-05 0.0000000000000000e+00  0.0000000000000000e+00 -1.5301828518867877e-05 0.0000000000000000e+00  0.0000000000000000e+00 -1.6868331561542980e-05 0.0000000000000000e+00  0.0000000000000000e+00 -1.8056225698007685e-05 0.0000000000000000e+00  0.0000000000000000e+00 -1.8899451936413277e-05 0.0000000000000000e+00  0.0000000000000000e+00 -1.9423830231606859e-05 0.0000000000000000e+00  0.0000000000000000e+00 -1.9657572412775743e-05 0.0000000000000000e+00  0.0000000000000000e+00 -1.9622550488874533e-05 0.0000000000000000e+00  0.0000000000000000e+00 -1.9340924104144732e-05 0.0000000000000000e+00  0.0000000000000000e+00 -1.8835329427814365e-05 0.0000000000000000e+00  0.0000000000000000e+00 -1.8127648034677600e-05 0.0000000000000000e+00  0.0000000000000000e+00 -1.7240256326465957e-05 0.0000000000000000e+00  0.0000000000000000e+00 -1.6196259656957955e-05 0.0000000000000000e+00  0.0000000000000000e+00 -1.5019766707684608e-05 0.0000000000000000e+00  0.0000000000000000e+00 -1.3734851201926148e-05 0.0000000000000000e+00  0.0000000000000000e+00 -1.2366096004707490e-05 0.0000000000000000e+00  0.0000000000000000e+00 -1.0938238633689744e-05 0.0000000000000000e+00  0.0000000000000000e+00 -9.4759357104240996e-06 0.0000000000000000e+00  0.0000000000000000e+00 -8.0031856656509930e-06 0.0000000000000000e+00  0.0000000000000000e+00 -6.5435144241459064e-06 0.0000000000000000e+00  0.0000000000000000e+00 -5.1185827141103347e-06 0.0000000000000000e+00  0.0000000000000000e+00 -3.7494588578992796e-06 0.0000000000000000e+00  0.0000000000000000e+00 -2.4555375695050365e-06 0.0000000000000000e+00  0.0000000000000000e+00 -1.2533932373343657e-06 0.0000000000000000e+00  0.0000000000000000e+00 -1.5853967465791968e-07 0.0000000000000000e+00  0.0000000000000000e+00 8.1627655055912050e-07 0.0000000000000000e+00  0.0000000000000000e+00 1.6605429648149164e-06 0.0000000000000000e+00  0.0000000000000000e+00 2.3659993798878462e-06 0.0000000000000000e+00  0.0000000000000000e+00 2.9268446502972896e-06 0.0000000000000000e+00  0.0000000000000000e+00 3.3394800451094035e-06 0.0000000000000000e+00  0.0000000000000000e+00 3.6023695981770075e-06 0.0000000000000000e+00  0.0000000000000000e+00 3.7160564151410046e-06 0.0000000000000000e+00  0.0000000000000000e+00 3.6829210766504694e-06 0.0000000000000000e+00  0.0000000000000000e+00 3.5071122235504916e-06 0.0000000000000000e+00  0.0000000000000000e+00 3.1940067631191944e-06 0.0000000000000000e+00  0.0000000000000000e+00 0.0000000000000000e+00 0.0000000000000000e+00  0.0000000000000000e+00 0.0000000000000000e+00 0.0000000000000000e+00  0.0000000000000000e+00 0.0000000000000000e+00 0.0000000000000000e+00  0.0000000000000000e+00 0.0000000000000000e+00 0.0000000000000000e+00  0.0000000000000000e+00 0.0000000000000000e+00 0.0000000000000000e+00  0.0000000000000000e+00 0.0000000000000000e+00 0.0000000000000000e+00  0.0000000000000000e+00 0.0000000000000000e+00 0.0000000000000000e+00  0.0000000000000000e+00 0.0000000000000000e+00 0.0000000000000000e+00  0.0000000000000000e+00 0.0000000000000000e+00 0.0000000000000000e+00  0.0000000000000000e+00 0.0000000000000000e+00 0.0000000000000000e+00  0.0000000000000000e+00 0.0000000000000000e+00 0.0000000000000000e+00  0.0000000000000000e+00 0.0000000000000000e+00 0.0000000000000000e+00  0.0000000000000000e+00 0.0000000000000000e+00 0.0000000000000000e+00  0.0000000000000000e+00 0.0000000000000000e+00 0.0000000000000000e+00  0.0000000000000000e+00 0.0000000000000000e+00 0.0000000000000000e+00  0.0000000000000000e+00 0.0000000000000000e+00 0.0000000000000000e+00  0.0000000000000000e+00 0.0000000000000000e+00 0.0000000000000000e+00  0.0000000000000000e+00 0.0000000000000000e+00 0.0000000000000000e+00  0.0000000000000000e+00 3.1588585592545974e-06 0.0000000000000000e+00  0.0000000000000000e+00 3.4698474033489652e-06 0.0000000000000000e+00  0.0000000000000000e+00 3.6412015303349179e-06 0.0000000000000000e+00  0.0000000000000000e+00 3.6678672662882687e-06 0.0000000000000000e+00  0.0000000000000000e+00 3.5458412398245423e-06 0.0000000000000000e+00  0.0000000000000000e+00 3.2731088365445447e-06 0.0000000000000000e+00  0.0000000000000000e+00 2.8494956889096901e-06 0.0000000000000000e+00  0.0000000000000000e+00 2.2768510488793359e-06 0.0000000000000000e+00  0.0000000000000000e+00 1.5591782875657760e-06 0.0000000000000000e+00  0.0000000000000000e+00 7.0286991920123366e-07 0.0000000000000000e+00  0.0000000000000000e+00 -2.8364577134341938e-07 0.0000000000000000e+00  0.0000000000000000e+00 -1.3888750820340312e-06 0.0000000000000000e+00  0.0000000000000000e+00 -2.6002068319944413e-06 0.0000000000000000e+00  0.0000000000000000e+00 -3.9017949805998032e-06 0.0000000000000000e+00  0.0000000000000000e+00 -5.2763232237971900e-06 0.0000000000000000e+00  0.0000000000000000e+00 -6.7040961944364238e-06 0.0000000000000000e+00  0.0000000000000000e+00 -8.1642835384389114e-06 0.0000000000000000e+00  0.0000000000000000e+00 -9.6349422099993303e-06 0.0000000000000000e+00  0.0000000000000000e+00 -1.1092386558260140e-05 0.0000000000000000e+00  0.0000000000000000e+00 -1.2512660833112703e-05 0.0000000000000000e+00  0.0000000000000000e+00 -1.3871361525495485e-05 0.0000000000000000e+00  0.0000000000000000e+00 -1.5144034411628994e-05 0.0000000000000000e+00  0.0000000000000000e+00 -1.6306300463418160e-05 0.0000000000000000e+00  0.0000000000000000e+00 