<?xml version="1.0"?>
<VTKFile type="UnstructuredGrid"  version="0.1"  >
<UnstructuredGrid>
<Piece  NumberOfPoints="3167" NumberOfCells="6038">
<Points>
<DataArray  type="Float64"  NumberOfComponents="3"  format="ascii">2.2 2.9 0  0 2.9 0  2.8 2.9 0  5 2.9 0  5 0 0  0 0 0  2.16271186440678 2.9 0  2.125423728813559 2.9 0  2.088135593220339 2.9 0  2.050847457627119 2.9 0  2.013559322033898 2.9 0  1.976271186440678 2.9 0  1.938983050847457 2.9 0  1.901694915254237 2.9 0  1.864406779661016 2.9 0  1.827118644067796 2.9 0  1.789830508474575 2.9 0  1.752542372881355 2.9 0  1.715254237288134 2.9 0  1.677966101694914 2.9 0  1.640677966101693 2.9 0  1.603389830508473 2.9 0  1.566101694915253 2.9 0  1.528813559322032 2.9 0  1.491525423728812 2.9 0  1.454237288135591 2.9 0  1.416949152542371 2.9 0  1.37966101694915 2.9 0  1.34237288135593 2.9 0  1.305084745762709 2.9 0  1.267796610169489 2.9 0  1.230508474576268 2.9 0  1.193220338983048 2.9 0  1.155932203389827 2.9 0  1.118644067796607 2.9 0  1.081355932203387 2.9 0  1.044067796610166 2.9 0  1.006779661016946 2.9 0  0.9694915254237257 2.9 0  0.9322033898305055 2.9 0  0.8949152542372856 2.9 0  0.8576271186440652 2.9 0  0.820338983050845 2.9 0  0.783050847457625 2.9 0  0.7457627118644048 2.9 0  0.7084745762711844 2.9 0  0.6711864406779642 2.9 0  0.633898305084744 2.9 0  0.5966101694915238 2.9 0  0.5593220338983036 2.9 0  0.5220338983050834 2.9 0  0.4847457627118632 2.9 0  0.447457627118643 2.9 0  0.4101694915254228 2.9 0  0.3728813559322024 2.9 0  0.3355932203389822 2.9 0  0.2983050847457622 2.9 0  0.2610169491525418 2.9 0  0.2237288135593216 2.9 0  0.1864406779661016 2.9 0  0.1491525423728812 2.9 0  0.1118644067796613 2.9 0  0.07457627118644039 2.9 0  0.03728813559321997 2.9 0  2.792405063291139 2.9 0  2.784810126582279 2.9 0  2.777215189873418 2.9 0  2.769620253164557 2.9 0  2.762025316455697 2.9 0  2.754430379746836 2.9 0  2.746835443037975 2.9 0  2.739240506329114 2.9 0  2.731645569620254 2.9 0  2.724050632911393 2.9 0  2.716455696202532 2.9 0  2.708860759493671 2.9 0  2.701265822784811 2.9 0  2.69367088607595 2.9 0  2.686075949367089 2.9 0  2.678481012658228 2.9 0  2.670886075949368 2.9 0  2.663291139240507 2.9 0  2.655696202531646 2.9 0  2.648101265822786 2.9 0  2.640506329113925 2.9 0  2.632911392405064 2.9 0  2.625316455696203 2.9 0  2.617721518987342 2.9 0  2.610126582278482 2.9 0  2.602531645569621 2.9 0  2.59493670886076 2.9 0  2.587341772151899 2.9 0  2.579746835443038 2.9 0  2.572151898734178 2.9 0  2.564556962025317 2.9 0  2.556962025316456 2.9 0  2.549367088607595 2.9 0  2.541772151898734 2.9 0  2.534177215189874 2.9 0  2.526582278481013 2.9 0  2.518987341772152 2.9 0  2.511392405063292 2.9 0  2.503797468354431 2.9 0  2.49620253164557 2.9 0  2.488607594936709 2.9 0  2.481012658227848 2.9 0  2.473417721518988 2.9 0  2.465822784810127 2.9 0  2.458227848101266 2.9 0  2.450632911392406 2.9 0  2.443037974683545 2.9 0  2.435443037974684 2.9 0  2.427848101265823 2.9 0  2.420253164556962 2.9 0  2.412658227848102 2.9 0  2.405063291139241 2.9 0  2.39746835443038 2.9 0  2.389873417721519 2.9 0  2.382278481012658 2.9 0  2.374683544303798 2.9 0  2.367088607594937 2.9 0  2.359493670886076 2.9 0  2.351898734177215 2.9 0  2.344303797468355 2.9 0  2.336708860759494 2.9 0  2.329113924050633 2.9 0  2.321518987341773 2.9 0  2.313924050632912 2.9 0  2.306329113924051 2.9 0  2.29873417721519 2.9 0  2.291139240506329 2.9 0  2.283544303797469 2.9 0  2.275949367088608 2.9 0  2.268354430379747 2.9 0  2.260759493670887 2.9 0  2.253164556962026 2.9 0  2.245569620253165 2.9 0  2.237974683544304 2.9 0  2.230379746835443 2.9 0  2.222784810126583 2.9 0  2.215189873417722 2.9 0  2.207594936708861 2.9 0  4.96271186440678 2.9 0  4.925423728813559 2.9 0  4.888135593220339 2.9 0  4.850847457627118 2.9 0  4.813559322033898 2.9 0  4.776271186440677 2.9 0  4.738983050847457 2.9 0  4.701694915254237 2.9 0  4.664406779661016 2.9 0  4.627118644067796 2.9 0  4.589830508474575 2.9 0  4.552542372881355 2.9 0  4.515254237288135 2.9 0  4.477966101694914 2.9 0  4.440677966101694 2.9 0  4.403389830508473 2.9 0  4.366101694915252 2.9 0  4.328813559322032 2.9 0  4.291525423728811 2.9 0  4.254237288135591 2.9 0  4.21694915254237 2.9 0  4.17966101694915 2.9 0  4.14237288135593 2.9 0  4.105084745762709 2.9 0  4.067796610169489 2.9 0  4.030508474576268 2.9 0  3.993220338983048 2.9 0  3.955932203389827 2.9 0  3.918644067796607 2.9 0  3.881355932203387 2.9 0  3.844067796610166 2.9 0  3.806779661016946 2.9 0  3.769491525423725 2.9 0  3.732203389830505 2.9 0  3.694915254237285 2.9 0  3.657627118644065 2.9 0  3.620338983050845 2.9 0  3.583050847457625 2.9 0  3.545762711864405 2.9 0  3.508474576271184 2.9 0  3.471186440677964 2.9 0  3.433898305084744 2.9 0  3.396610169491524 2.9 0  3.359322033898303 2.9 0  3.322033898305083 2.9 0  3.284745762711863 2.9 0  3.247457627118643 2.9 0  3.210169491525423 2.9 0  3.172881355932202 2.9 0  3.135593220338982 2.9 0  3.098305084745762 2.9 0  3.061016949152542 2.9 0  3.023728813559321 2.9 0  2.986440677966101 2.9 0  2.949152542372881 2.9 0  2.911864406779661 2.9 0  2.87457627118644 2.9 0  2.83728813559322 2.9 0  5 0.1063822624840908 0  5 0.210636879963479 0  5 0.3128064053000104 0  5 0.4129325399736057 0  5 0.5110561519920087 0  5 0.6072172917522097 0  5 0.7014552086337308 0  5 0.7938083672768746 0  5 0.8843144624325437 0  5 0.9730104357533907 0  5 1.059932489779506 0  5 1.145116102681561 0  5 1.228596043237163 0  5 1.310406384819408 0  5 1.39058051967151 0  5 1.46915117219283 0  5 1.546150411689349 0  5 1.621609666350684 0  5 1.695559735780513 0  5 1.76803080351128 0  5 1.839052449831632 0  5 1.908653663284034 0  5 1.976862852540214 0  5 2.043707858250082 0  5 2.109215963970139 0  5 2.173413907547539 0  5 2.236327892447888 0  5 2.29798359737153 0  5 2.358406188061876 0  5 2.417620326899216 0  5 2.475650183036803 0  5 2.532519442044509 0  5 2.588251315695885 0  5 2.642868552136335 0  5 2.696393444001645 0  5 2.748847837883952 0  5 2.800253143882191 0  5 2.85063034388582 0  0.2631578947368421 0 0  0.5263157894736842 0 0  0.7894736842105263 0 0  1.052631578947368 0 0  1.31578947368421 0 0  1.578947368421053 0 0  1.842105263157895 0 0  2.105263157894737 0 0  2.368421052631579 0 0  2.631578947368421 0 0  2.894736842105263 0 0  3.157894736842105 0 0  3.421052631578947 0 0  3.684210526315789 0 0  3.947368421052632 0 0  4.210526315789473 0 0  4.473684210526315 0 0  4.736842105263158 0 0  0 2.850203682350569 0  0 2.799411438503675 0  0 2.747603349778291 0  0 2.694759099502208 0  0 2.640857964382145 0  0 2.58587880633613 0  0 2.52980006535898 0  0 2.472599749459174 0  0 2.414255427218689 0  0 2.35474421880616 0  0 2.294042786119219 0  0 2.232127324764723 0  0 2.1689735539481 0  0 2.104556707683346 0  0 2.038851524813415 0  0 1.971832238155654 0  0 1.903472565412125 0  0 1.83374569926617 0  0 1.762624296208474 0  0 1.690080464918761 0  0 1.616085756774205 0  0 1.540611154706337 0  0 1.463627060685571 0  0 1.385103284916206 0  0 1.305009033716617 0  0 1.223312897337225 0  0 1.139982838163732 0  0 1.054986177579937 0  0 0.9682895835804808 0  0 0.8798590579197967 0  0 0.789659921841535 0  0 0.6976568029903634 0  0 0.6038136217958807 0  0 0.508093576867624 0  0 0.4104591310957497 0  0 0.31087199635222 0  0 0.2092931188294389 0  0 0.1056826638508546 0  1.434832105734982 2.866945754976478 0  1.737156300412976 2.8700394402447 0  2.032203389830508 2.867707527316512 0  2.332911392405064 2.893422591869991 0  2.469810913221006 2.891944186617815 0  2.606221408801046 2.892519154968786 0  2.255455320556353 2.892068684938936 0  2.538247299178607 2.894964578175289 0  2.674683544303798 2.893422591869991 0  2.40126582278481 2.893422591869991 0  3.566125247274844 2.86502933617869 0  3.266101694915253 2.867707527316512 0  2.967796610169491 2.867707527316512 0  1.174288529771947 2.870795313883199 0  3.825423728813556 2.867707527316512 0  2.727766680241741 2.892655387639323 0  0.06601655192030442 1.502119107695954 0  4.933983535518289 1.50765079194109 0  0.9532124728076634 2.868722489784116 0  4.048935912505472 2.870640982963028 0  0.05930163367361851 1.866907161167415 0  4.943402512617702 1.871280731227115 0  4.271733869970415 2.865208656206698 0  0.724942092071192 2.863922936166216 0  0.05494499779911566 2.196469063120751 0  4.947228695435926 2.208030108416282 0  0.5406152149451962 2.866493807374646 0  4.459322033898304 2.868847558171501 0  2.18135593220339 2.875780645487384 0  2.81702715648046 2.876587550622478 0  4.928427208334964 1.186856072959362 0  0.07189226971603357 1.174626666111664 0  4.610299014391064 2.867003104061287 0  0.3897270066746503 2.869433095314649 0  1.5811324999839 2.868247328613121 0  1.887637879307645 2.869235851843492 0  3.413449426409203 2.867372048026557 0  3.116721298784139 2.865731235545648 0  2.644303797468355 2.893422591869991 0  2.370983221771223 2.892719513366117 0  2.302531645569621 2.89333678739629 0  2.758987341772152 2.894242393896969 0  0.04979653335696588 2.443411216910279 0  4.950470983481301 2.446866954190454 0  2.482937483056625 0.2513241088166693 0  1.70712950486069 0.1999998660928157 0  3.285846579639133 0.2292006256069719 0  4.907807122450741 0.8340823629079156 0  4.757627118644067 2.867707527316512 0  0.07734891246767406 0.8347594898806658 0  0.2390604736599493 2.861365431805748 0  0.8363213714273008 2.863896768913622 0  4.16086561018973 2.868916854014843 0  1.28254933196979 2.86761095296154 0  1.065094818264994 2.861284686078544 0  3.938181277358471 2.868651344087338 0  3.711492629398847 2.863574306894209 0  4.913693619806458 0.5579891341027028 0  0.08208328472281323 0.5559535993317524 0  2.696596932509445 2.892010483912606 0  0.04706410140274642 2.613055974506517 0  4.955577063959472 2.616518038416838 0  2.234177215189874 2.893422591869991 0  2.279795840517476 2.894038618939426 0  0.911735788765236 0.2117925286661764 0  4.055948041976698 0.2039101059740411 0  4.872119713756579 2.86763292637659 0  2.78011387899257 2.891535929611774 0  0.1327442468251299 2.85732490707
[...]
<PointData  Vectors="displacement"> 
<DataArray  type="Float64"  Name="displacement"  NumberOfComponents="3" format="ascii">7.6231878549587628e-06 -2.9752386210927942e-04 0.0000000000000000e+00  0.0000000000000000e+00 1.2327724098549201e-06 0.0000000000000000e+00  -1.3131416057580547e-05 -3.0545549255584913e-04 0.0000000000000000e+00  0.0000000000000000e+00 1.2681796363444085e-06 0.0000000000000000e+00  0.0000000000000000e+00 0.0000000000000000e+00 0.0000000000000000e+00  0.0000000000000000e+00 0.0000000000000000e+00 0.0000000000000000e+00  1.7463753408722591e-06 -2.5393595077731907e-04 0.0000000000000000e+00  -8.4982176213487375e-07 -2.2946224910615754e-04 0.0000000000000000e+00  -2.0747132505823701e-06 -2.1065374948928426e-04 0.0000000000000000e+00  -2.6809246766484564e-06 -1.9495887129569584e-04 0.0000000000000000e+00  -2.9198699452299257e-06 -1.8139082338966442e-04 0.0000000000000000e+00  -2.9157587469994813e-06 -1.6939392979496752e-04 0.0000000000000000e+00  -2.7490755640185580e-06 -1.5861282390934860e-04 0.0000000000000000e+00  -2.4740947010919347e-06 -1.4880666344560862e-04 0.0000000000000000e+00  -2.1317463625419805e-06 -1.3980217916270967e-04 0.0000000000000000e+00  -1.7484646834584966e-06 -1.3147266777504665e-04 0.0000000000000000e+00  -1.3448870874956175e-06 -1.2372387071419444e-04 0.0000000000000000e+00  -9.3623999107328311e-07 -1.1648060233390481e-04 0.0000000000000000e+00  -5.3379780483680879e-07 -1.0968302540685373e-04 0.0000000000000000e+00  -1.4484540505049940e-07 -1.0328328068157142e-04 0.0000000000000000e+00  2.2512269165050311e-07 -9.7242719242985890e-05 0.0000000000000000e+00  5.7239282399332372e-07 -9.1528859801587981e-05 0.0000000000000000e+00  8.9473198064224500e-07 -8.6114451284595938e-05 0.0000000000000000e+00  1.1905409089619948e-06 -8.0976164149241256e-05 0.0000000000000000e+00  1.4594251934421272e-06 -7.6094007638948075e-05 0.0000000000000000e+00  1.7014738978683530e-06 -7.1450662491256544e-05 0.0000000000000000e+00  1.9170586683332840e-06 -6.7031064195364454e-05 0.0000000000000000e+00  2.1068418327316696e-06 -6.2821930096421431e-05 0.0000000000000000e+00  2.2718391422076183e-06 -5.8811189010063192e-05 0.0000000000000000e+00  2.4130136643159891e-06 -5.4988367846799986e-05 0.0000000000000000e+00  2.5315551165119813e-06 -5.1344039614713123e-05 0.0000000000000000e+00  2.6287406915013722e-06 -4.7869535531385180e-05 0.0000000000000000e+00  2.7058210448452547e-06 -4.4556944540313847e-05 0.0000000000000000e+00  2.7638762218154030e-06 -4.1399311101412204e-05 0.0000000000000000e+00  2.8042823706915454e-06 -3.8390129496148773e-05 0.0000000000000000e+00  2.8281505896788297e-06 -3.5523230226920629e-05 0.0000000000000000e+00  2.8366975671298604e-06 -3.2793292042232441e-05 0.0000000000000000e+00  2.8310259766975366e-06 -3.0195341061169844e-05 0.0000000000000000e+00  2.8119449301930162e-06 -2.7724717407360278e-05 0.0000000000000000e+00  2.7807926854473784e-06 -2.5376944155440335e-05 0.0000000000000000e+00  2.7382920810525576e-06 -2.3148166672236772e-05 0.0000000000000000e+00  2.6854308981085649e-06 -2.1034624346912812e-05 0.0000000000000000e+00  2.6230815425276343e-06 -1.9032872599012500e-05 0.0000000000000000e+00  2.5519253244482922e-06 -1.7139761647894663e-05 0.0000000000000000e+00  2.4727972147037418e-06 -1.5352307064336216e-05 0.0000000000000000e+00  2.3863519962974886e-06 -1.3667764512250019e-05 0.0000000000000000e+00  2.2932458367156007e-06 -1.2083583425808864e-05 0.0000000000000000e+00  2.1940489171093663e-06 -1.0597397884286066e-05 0.0000000000000000e+00  2.0893538920100097e-06 -9.2070032936604766e-06 0.0000000000000000e+00  1.9796768394167591e-06 -7.9103961505150006e-06 0.0000000000000000e+00  1.8655109160353047e-06 -6.7056926650323609e-06 0.0000000000000000e+00  1.7472932318394879e-06 -5.5911820954865593e-06 0.0000000000000000e+00  1.6254520726131504e-06 -4.5652791633391393e-06 0.0000000000000000e+00  1.5003619538526221e-06 -3.6265554026643317e-06 0.0000000000000000e+00  1.3724073439922820e-06 -2.7736994035897897e-06 0.0000000000000000e+00  1.2419190597190428e-06 -2.0055399561898851e-06 0.0000000000000000e+00  1.1091897221853140e-06 -1.3210186779545403e-06 0.0000000000000000e+00  9.7456065643526478e-07 -7.1917349539392593e-07 0.0000000000000000e+00  8.3829306339906096e-07 -1.9921582444831903e-07 0.0000000000000000e+00  7.0061998528652338e-07 2.3955881551807595e-07 0.0000000000000000e+00  5.6180628308450582e-07 5.9775148545139519e-07 0.0000000000000000e+00  4.2213770318384133e-07 8.7586087609315098e-07 0.0000000000000000e+00  2.8179996155056905e-07 1.0742357863300267e-06 0.0000000000000000e+00  1.4101393921696586e-07 1.1931549982161699e-06 0.0000000000000000e+00  -4.6499053351915994e-05 -4.0413587063988036e-04 0.0000000000000000e+00  -4.2742149248959279e-05 -4.2572058779863278e-04 0.0000000000000000e+00  -4.0381916165692822e-05 -4.3791200933847015e-04 0.0000000000000000e+00  -3.8554480859542171e-05 -4.4676562893808039e-04 0.0000000000000000e+00  -3.7360969441149747e-05 -4.5430556526475564e-04 0.0000000000000000e+00  -3.6273805967890636e-05 -4.6116145109599988e-04 0.0000000000000000e+00  -3.5187008477018838e-05 -4.6743995723884629e-04 0.0000000000000000e+00  -3.4108701685333250e-05 -4.7321889789595932e-04 0.0000000000000000e+00  -3.3038813911180211e-05 -4.7857275658839672e-04 0.0000000000000000e+00  -3.1974350230515964e-05 -4.8355849768750843e-04 0.0000000000000000e+00  -3.0912765565315085e-05 -4.8821764448441109e-04 0.0000000000000000e+00  -2.9852183753807859e-05 -4.9258260149603363e-04 0.0000000000000000e+00  -2.8791989269196833e-05 -4.9668017155780095e-04 0.0000000000000000e+00  -2.7731530944211224e-05 -5.0053161310455901e-04 0.0000000000000000e+00  -2.6669913996369131e-05 -5.0415456435226906e-04 0.0000000000000000e+00  -2.5607089724151158e-05 -5.0756446126201985e-04 0.0000000000000000e+00  -2.4542672818676857e-05 -5.1077369633260243e-04 0.0000000000000000e+00  -2.3476572139234800e-05 -5.1379295168594978e-04 0.0000000000000000e+00  -2.2408754348426500e-05 -5.1663160845626121e-04 0.0000000000000000e+00  -2.1339254610329422e-05 -5.1929778324405333e-04 0.0000000000000000e+00  -2.0268137780474323e-05 -5.2179865121698287e-04 0.0000000000000000e+00  -1.9195505379847812e-05 -5.2414053185939375e-04 0.0000000000000000e+00  -1.8121417784649200e-05 -5.2632899332667868e-04 0.0000000000000000e+00  -1.7045963496396169e-05 -5.2836902621170565e-04 0.0000000000000000e+00  -1.5969214592328799e-05 -5.3026504198298125e-04 0.0000000000000000e+00  -1.4891241109111103e-05 -5.3202090701361387e-04 0.0000000000000000e+00  -1.3812169555322225e-05 -5.3364008361300459e-04 0.0000000000000000e+00  -1.2731966079714784e-05 -5.3512561592187037e-04 0.0000000000000000e+00  -1.1650785679285586e-05 -5.3648024714913524e-04 0.0000000000000000e+00  -1.0568724663117837e-05 -5.3770635039936490e-04 0.0000000000000000e+00  -9.4858735148313835e-06 -5.3880603192101939e-04 0.0000000000000000e+00  -8.4023088277421948e-06 -5.3978111096843976e-04 0.0000000000000000e+00  -7.3181484010803495e-06 -5.4063317979960641e-04 0.0000000000000000e+00  -6.2335425866940679e-06 -5.4136359454798810e-04 0.0000000000000000e+00  -5.1485513160455409e-06 -5.4197348112204277e-04 0.0000000000000000e+00  -4.0633945731613501e-06 -5.4246384997003758e-04 0.0000000000000000e+00  -2.9781053802232482e-06 -5.4283543631516008e-04 0.0000000000000000e+00  -1.8928410798149574e-06 -5.4308882085125226e-04 0.0000000000000000e+00  -8.0776199793327543e-07 -5.4322442552211876e-04 0.0000000000000000e+00  2.7704151065419353e-07 -5.4324247851940269e-04 0.0000000000000000e+00  1.3614392514690409e-06 -5.4314303826252374e-04 0.0000000000000000e+00  2.4453118855419629e-06 -5.4292599081444512e-04 0.0000000000000000e+00  3.5285391108000539e-06 -5.4259104871491192e-04 0.0000000000000000e+00  4.6109845157679517e-06 -5.4213772748143646e-04 0.0000000000000000e+00  5.6925549818498548e-06 -5.4156536240696147e-04 0.0000000000000000e+00  6.7731265030310477e-06 -5.4087312504690684e-04 0.0000000000000000e+00  7.8525623012833507e-06 -5.4005994543597253e-04 0.0000000000000000e+00  8.9307462930280427e-06 -5.3912455187555761e-04 0.0000000000000000e+00  1.0007558166277694e-05 -5.3806545765617414e-04 0.0000000000000000e+00  1.1082833663088652e-05 -5.3688092497656593e-04 0.0000000000000000e+00  1.2156453160920867e-05 -5.3556898868815667e-04 0.0000000000000000e+00  1.3228279567137004e-05 -5.3412735638232319e-04 0.0000000000000000e+00  1.4298071789222630e-05 -5.3255347121594133e-04 0.0000000000000000e+00  1.5365707829260045e-05 -5.3084448603681186e-04 0.0000000000000000e+00  1.6430975217690697e-05 -5.2899712664730388e-04 0.0000000000000000e+00  1.7493659801042046e-05 -5.2700776876543360e-04 0.0000000000000000e+00  1.8553529606145322e-05 -5.2487230643931545e-04 0.0000000000000000e+00  1.9610416504578094e-05 -5.2258615648206907e-04 0.0000000000000000e+00  2.0663979840502713e-05 -5.2014402367971189e-04 0.0000000000000000e+00  2.1713954819353330e-05 -5.1754021045981747e-04 0.0000000000000000e+00  2.2759960629825530e-05 -5.1476801117252176e-04 0.0000000000000000e+00  2.3801699315318748e-05 -5.1181989086153271e-04 0.0000000000000000e+00  2.4838726116626033e-05 -5.0868723632784300e-04 0.0000000000000000e+00  2.5870565408732052e-05 -5.0536014026159233e-04 0.0000000000000000e+00  2.6896622496593441e-05 -5.0182725821164612e-04 0.0000000000000000e+00  2.7916245330124666e-05 -4.9807519271877253e-04 0.0000000000000000e+00  2.8928346009532093e-05 -4.9408832922903851e-04 0.0000000000000000e+00  2.9931933078342366e-05 -4.8984809301849837e-04 0.0000000000000000e+00  3.0925986923847394e-05 -4.8533269142118235e-04 0.0000000000000000e+00  3.1907073940477118e-05 -4.8051442696499485e-04 0.0000000000000000e+00  3.2872501033598887e-05 -4.7536063070510503e-04 0.0000000000000000e+00  3.3819778448894235e-05 -4.6983145522276219e-04 0.0000000000000000e+00  3.4746094373432608e-05 -4.6387641936774675e-04 0.0000000000000000e+00  3.5656157725418466e-05 -4.5741924243893571e-04 0.0000000000000000e+00  3.6559076630673852e-05 -4.5032540295763016e-04 0.0000000000000000e+00  3.7371921177644010e-05 -4.4235882207513568e-04 0.0000000000000000e+00  3.7772786314441080e-05 -4.3389072587271066e-04 0.0000000000000000e+00  4.3564964432043556e-05 -4.1355661574362165e-04 0.0000000000000000e+00  -1.4522437738630981e-07 1.2285214494787868e-06 0.0000000000000000e+00  -2.9023881610921704e-07 1.1095127406607767e-06 0.0000000000000000e+00  -4.3483762904924742e-07 9.1098033931939133e-07 0.0000000000000000e+00  -5.7879815371987344e-07 6.3266510248916940e-07 0.0000000000000000e+00  -7.2191396060595980e-07 2.7418266160342691e-07 0.0000000000000000e+00  -8.6390445616549665e-07 -1.6494609899584630e-07 0.0000000000000000e+00  -1.0046056795476157e-06 -6.8530658421876276e-07 0.0000000000000000e+00  -1.1437165623651090e-06 -1.2876180094172160e-06 0.0000000000000000e+00  -1.2809822163128986e-06 -1.9726955686366319e-06 0.0000000000000000e+00  -1.4161044596405742e-06 -2.7414797217943364e-06 0.0000000000000000e+00  -1.5487911346235998e-06 -3.5950345836035356e-06 0.0000000000000000e+00  -1.6787038455378822e-06 -4.5345352533122242e-06 0.0000000000000000e+00  -1.8055102281766529e-06 -5.5612928738509821e-06 0.0000000000000000e+00  -1.9288235674608983e-06 -6.6767480316611035e-06 0.0000000000000000e+00  -2.0482391871410933e-06 -7.8824822974195854e-06 0.0000000000000000e+00  -2.1633190921729039e-06 -9.1802212871569438e-06 0.0000000000000000e+00  -2.2736079930342195e-06 -1.0571829122653234e-05 0.0000000000000000e+00  -2.3785735599067359e-06 -1.2059357243910216e-05 0.0000000000000000e+00  -2.4777008676200576e-06 -1.3645000094387794e-05 0.0000000000000000e+00  -2.5703954966843520e-06 -1.5331123991451485e-05 0.0000000000000000e+00  -2.6560315692250132e-06 -1.7120324096441072e-05 0.0000000000000000e+00  -2.7339841281669303e-06 -1.9015251174785272e-05 0.0000000000000000e+00  -2.8034744369751157e-06 -2.1018989720396138e-05 0.0000000000000000e+00  -2.8637747965273374e-06 -2.3134716255843870e-05 0.0000000000000000e+00  -2.9140889990451691e-06 -2.5365874655099909e-05 0.0000000000000000e+00  -2.9535565308619298e-06 -2.7716183606711134e-05 0.0000000000000000e+00  -2.9812556542383737e-06 -3.0189662176783446e-05 0.0000000000000000e+00  -2.9962199072763586e-06 -3.2790649244265903e-05 0.0000000000000000e+00  -2.9974865400227085e-06 -3.5523831358940273e-05 0.0000000000000000e+00  -2.9840129285310948e-06 -3.8394274376087163e-05 0.0000000000000000e+00  -2.9546777374258444e-06 -4.1407505538167018e-05 0.0000000000000000e+00  -2.9083468808025586e-06 -4.4569488475934059e-05 0.0000000000000000e+00  -2.8441111762550568e-06 -4.7886817042216837e-05 0.0000000000000000e+00  -2.7604093772848270e-06 -5.1366641247622129e-05 0.0000000000000000e+00  -2.6563800225967286e-06 -5.5016824836472009e-05 0.0000000000000000e+00  -2.5309741922797030e-06 -5.8846004204822890e-05 0.0000000000000000e+00  -2.3830935410093541e-06 -6.2863793964468563e-05 0.0000000000000000e+00  -2.2116974496860017e-06 -6.7080921615766994e-05 0.0000000000000000e+00  -2.0161423009977368e-06 -7.1509383851823695e-05 0.0000000000000000e+00  -1.7959819661253789e-06 -7.6162684603706495e-05 0.0000000000000000e+00  -1.5509661697708064e-06 -8.1056123860718602e-05 0.0000000000000000e+00  -1.2813482578311985e-06 -8.6207242016955558e-05 0.0000000000000000e+00  -9.8823250751598875e-07 -9.1636231088384270e-05 0.0000000000000000e+00  -6.7290257743432025e-07 -9.7366653238816327e-05 0.0000000000000000e+00  -3.3826890399481665e-07 -1.0342601919324744e-04 0.0000000000000000e+00  1.1184705208682970e-08 -1.0984759897658450e-04 0.0000000000000000e+00  3.6945283710772897e-07 -1.1667089417587750e-04 0.0000000000000000e+00  7.2796483362117148e-07 -1.2394466677862460e-04 0.0000000000000000e+00  1.0740632158172670e-06 -1.3172870114987724e-04 0.0000000000000000e+00  1.3932868698904658e-06 -1.4009929495332221e-04 0.0000000000000000e+00  1.6598194699809209e-06 -1.4915550350127907e-04 0.0000000000000000e+00  1.8475435666646654e-06 -1.5902284181001228e-04 0.0000000000000000e+00  1.9105040747327385e-06 -1.6988318160643468e-04 0.0000000000000000e+00  1.7885269650537597e-06 -1.8197905311443673e-04 0.0000000000000000e+00  1.3922118259469312e-06 -1.9567716942445998e-04 0.0000000000000000e+00  5.7801612786739982e-07 -2.1155211209674673e-04 0.0000000000000000e+00  -9.0074877704415659e-07 -2.3063320102542927e-04 0.0000000000000000e+00  -4.0629062472627471e-06 -2.5562911864904046e-04 0.0000000000000000e+00  0.0000000000000000e+00 -2.5386854746918823e-06 0.0000000000000000e+00  0.0000000000000000e+00 -4.6989742877871442e-06 0.0000000000000000e+00  0.0000000000000000e+00 -6.5303766390256421e-06 0.0000000000000000e+00  0.0000000000000000e+00 -8.0744554137804556e-06 0.0000000000000000e+00  0.0000000000000000e+00 -9.3613887515803457e-06 0.0000000000000000e+00  0.0000000000000000e+00 -1.0415936162971736e-05 0.0000000000000000e+00  0.0000000000000000e+00 -1.1258204831859713e-05 0.0000000000000000e+00  0.0000000000000000e+00 -1.1904955769477949e-05 0.0000000000000000e+00  0.0000000000000000e+00 -1.2368489345206860e-05 0.0000000000000000e+00  0.0000000000000000e+00 -1.2662725967538812e-05 0.0000000000000000e+00  0.0000000000000000e+00 -1.2798058201951368e-05 0.0000000000000000e+00  0.0000000000000000e+00 -1.2785214217044713e-05 0.0000000000000000e+00  0.0000000000000000e+00 -1.2635309708375128e-05 0.0000000000000000e+00  0.0000000000000000e+00 -1.2359155727184262e-05 0.0000000000000000e+00  0.0000000000000000e+00 -1.1967963996054603e-05 0.0000000000000000e+00  0.0000000000000000e+00 -1.1473513641899243e-05 0.0000000000000000e+00  0.0000000000000000e+00 -1.0888345974470982e-05 0.0000000000000000e+00  0.0000000000000000e+00 -1.0225124104648556e-05 0.0000000000000000e+00  0.0000000000000000e+00 -9.4970084627250503e-06 0.0000000000000000e+00  0.0000000000000000e+00 -8.7174252685603855e-06 0.0000000000000000e+00  0.0000000000000000e+00 -7.8999943384184150e-06 0.0000000000000000e+00  0.0000000000000000e+00 -7.0581802506350534e-06 0.0000000000000000e+00  0.0000000000000000e+00 -6.2053506220771170e-06 0.0000000000000000e+00  0.0000000000000000e+00 -5.3541009807905188e-06 0.0000000000000000e+00  0.0000000000000000e+00 -4.5168259718997192e-06 0.0000000000000000e+00  0.0000000000000000e+00 -3.7051860671902716e-06 0.0000000000000000e+00  0.0000000000000000e+00 -2.9294402048607981e-06 0.0000000000000000e+00  0.0000000000000000e+00 -2.1993791920644812e-06 0.0000000000000000e+00  0.0000000000000000e+00 -1.5233783041471264e-06 0.0000000000000000e+00  0.0000000000000000e+00 -9.0866069864369404e-07 0.0000000000000000e+00  0.0000000000000000e+00 -3.6127212222766305e-07 0.0000000000000000e+00  0.0000000000000000e+00 1.1406780543430105e-07 0.0000000000000000e+00  0.0000000000000000e+00 5.1383841845784088e-07 0.0000000000000000e+00  0.0000000000000000e+00 8.3565192370223551e-07 0.0000000000000000e+00  0.0000000000000000e+00 1.0782942244872262e-06 0.0000000000000000e+00  0.0000000000000000e+00 1.2415963885186710e-06 0.0000000000000000e+00  0.0000000000000000e+00 1.3264706451040822e-06 0.0000000000000000e+00  0.0000000000000000e+00 1.3344928598943617e-06 0.0000000000000000e+00  0.0000000000000000e+00 0.0000000000000000e+00 0.0000000000000000e+00  0.0000000000000000e+00 0.0000000000000000e+00 0.0000000000000000e+00  0.0000000000000000e+00 0.0000000000000000e+00 0.0000000000000000e+00  0.0000000000000000e+00 0.0000000000000000e+00 0.0000000000000000e+00  0.0000000000000000e+00 0.0000000000000000e+00 0.0000000000000000e+00  0.0000000000000000e+00 0.0000000000000000e+00 0.0000000000000000e+00  0.0000000000000000e+00 0.0000000000000000e+00 0.0000000000000000e+00  0.0000000000000000e+00 0.0000000000000000e+00 0.0000000000000000e+00  0.0000000000000000e+00 0.0000000000000000e+00 0.0000000000000000e+00  0.0000000000000000e+00 0.0000000000000000e+00 0.0000000000000000e+00  0.0000000000000000e+00 0.0000000000000000e+00 0.0000000000000000e+00  0.0000000000000000e+00 0.0000000000000000e+00 0.0000000000000000e+00  0.0000000000000000e+00 0.0000000000000000e+00 0.0000000000000000e+00  0.0000000000000000e+00 0.0000000000000000e+00 0.0000000000000000e+00  0.0000000000000000e+00 0.0000000000000000e+00 0.0000000000000000e+00  0.0000000000000000e+00 0.0000000000000000e+00 0.0000000000000000e+00  0.0000000000000000e+00 0.0000000000000000e+00 0.0000000000000000e+00  0.0000000000000000e+00 0.0000000000000000e+00 0.0000000000000000e+00  0.0000000000000000e+00 1.2963397095067435e-06 0.0000000000000000e+00  0.0000000000000000e+00 1.2843790058270064e-06 0.0000000000000000e+00  0.0000000000000000e+00 1.1943900856995040e-06 0.0000000000000000e+00  0.0000000000000000e+00 1.0250864132178591e-06 0.0000000000000000e+00  0.0000000000000000e+00 7.7565179922258247e-07 0.0000000000000000e+00  0.0000000000000000e+00 4.4651986513200865e-07 0.0000000000000000e+00  0.0000000000000000e+00 3.9147157351388588e-08 0.0000000000000000e+00  0.0000000000000000e+00 -4.4387728059377127e-07 0.0000000000000000e+00  0.0000000000000000e+00 -9.9878008163470331e-07 0.0000000000000000e+00  0.0000000000000000e+00 -1.6204882832978025e-06 0.0000000000000000e+00  0.0000000000000000e+00 -2.3028627139832462e-06 0.0000000000000000e+00  0.0000000000000000e+00 -3.0381271855989095e-06 0.0000000000000000e+00  0.0000000000000000e+00 -3.8180042578130214e-06 0.0000000000000000e+00  0.0000000000000000e+00 -4.6325308638092129e-06 0.0000000000000000e+00  0.0000000000000000e+00 -5.4710695230244137e-06 0.0000000000000000e+00  0.0000000000000000e+00 -6.3218453312883770e-06 0.0000000000000000e+00  0.0000000000000000e+00 -7.1726096107974075e-06 0.0000000000000000e+00  0.0000000000000000e+00 -8.0107026683641913e-06 0.0000000000000000e+00  0.0000000000000000e+00 -8.8227018448562628e-06 0.0000000000000000e+00  0.0000000000000000e+00 -9.5952321661517164e-06 0.0000000000000000e+00  0.0000000000000000e+00 -1.0314903364041467e-05 0.0000000000000000e+00  0.0000000000000000e+00 -1.0968485802937810e-05 0.0000000000000000e+00  0.0000000000000000e+00 -1.1542991201017688e-05 0.0000000000000000e+00  0.00000000000