<?xml version="1.0"?>
<VTKFile type="UnstructuredGrid"  version="0.1"  >
<UnstructuredGrid>
<Piece  NumberOfPoints="3167" NumberOfCells="6038">
<Points>
<DataArray  type="Float64"  NumberOfComponents="3"  format="ascii">2.2 2.9 0  0 2.9 0  2.8 2.9 0  5 2.9 0  5 0 0  0 0 0  2.16271186440678 2.9 0  2.125423728813559 2.9 0  2.088135593220339 2.9 0  2.050847457627119 2.9 0  2.013559322033898 2.9 0  1.976271186440678 2.9 0  1.938983050847457 2.9 0  1.901694915254237 2.9 0  1.864406779661016 2.9 0  1.827118644067796 2.9 0  1.789830508474575 2.9 0  1.752542372881355 2.9 0  1.715254237288134 2.9 0  1.677966101694914 2.9 0  1.640677966101693 2.9 0  1.603389830508473 2.9 0  1.566101694915253 2.9 0  1.528813559322032 2.9 0  1.491525423728812 2.9 0  1.454237288135591 2.9 0  1.416949152542371 2.9 0  1.37966101694915 2.9 0  1.34237288135593 2.9 0  1.305084745762709 2.9 0  1.267796610169489 2.9 0  1.230508474576268 2.9 0  1.193220338983048 2.9 0  1.155932203389827 2.9 0  1.118644067796607 2.9 0  1.081355932203387 2.9 0  1.044067796610166 2.9 0  1.006779661016946 2.9 0  0.9694915254237257 2.9 0  0.9322033898305055 2.9 0  0.8949152542372856 2.9 0  0.8576271186440652 2.9 0  0.820338983050845 2.9 0  0.783050847457625 2.9 0  0.7457627118644048 2.9 0  0.7084745762711844 2.9 0  0.6711864406779642 2.9 0  0.633898305084744 2.9 0  0.5966101694915238 2.9 0  0.5593220338983036 2.9 0  0.5220338983050834 2.9 0  0.4847457627118632 2.9 0  0.447457627118643 2.9 0  0.4101694915254228 2.9 0  0.3728813559322024 2.9 0  0.3355932203389822 2.9 0  0.2983050847457622 2.9 0  0.2610169491525418 2.9 0  0.2237288135593216 2.9 0  0.1864406779661016 2.9 0  0.1491525423728812 2.9 0  0.1118644067796613 2.9 0  0.07457627118644039 2.9 0  0.03728813559321997 2.9 0  2.792405063291139 2.9 0  2.784810126582279 2.9 0  2.777215189873418 2.9 0  2.769620253164557 2.9 0  2.762025316455697 2.9 0  2.754430379746836 2.9 0  2.746835443037975 2.9 0  2.739240506329114 2.9 0  2.731645569620254 2.9 0  2.724050632911393 2.9 0  2.716455696202532 2.9 0  2.708860759493671 2.9 0  2.701265822784811 2.9 0  2.69367088607595 2.9 0  2.686075949367089 2.9 0  2.678481012658228 2.9 0  2.670886075949368 2.9 0  2.663291139240507 2.9 0  2.655696202531646 2.9 0  2.648101265822786 2.9 0  2.640506329113925 2.9 0  2.632911392405064 2.9 0  2.625316455696203 2.9 0  2.617721518987342 2.9 0  2.610126582278482 2.9 0  2.602531645569621 2.9 0  2.59493670886076 2.9 0  2.587341772151899 2.9 0  2.579746835443038 2.9 0  2.572151898734178 2.9 0  2.564556962025317 2.9 0  2.556962025316456 2.9 0  2.549367088607595 2.9 0  2.541772151898734 2.9 0  2.534177215189874 2.9 0  2.526582278481013 2.9 0  2.518987341772152 2.9 0  2.511392405063292 2.9 0  2.503797468354431 2.9 0  2.49620253164557 2.9 0  2.488607594936709 2.9 0  2.481012658227848 2.9 0  2.473417721518988 2.9 0  2.465822784810127 2.9 0  2.458227848101266 2.9 0  2.450632911392406 2.9 0  2.443037974683545 2.9 0  2.435443037974684 2.9 0  2.427848101265823 2.9 0  2.420253164556962 2.9 0  2.412658227848102 2.9 0  2.405063291139241 2.9 0  2.39746835443038 2.9 0  2.389873417721519 2.9 0  2.382278481012658 2.9 0  2.374683544303798 2.9 0  2.367088607594937 2.9 0  2.359493670886076 2.9 0  2.351898734177215 2.9 0  2.344303797468355 2.9 0  2.336708860759494 2.9 0  2.329113924050633 2.9 0  2.321518987341773 2.9 0  2.313924050632912 2.9 0  2.306329113924051 2.9 0  2.29873417721519 2.9 0  2.291139240506329 2.9 0  2.283544303797469 2.9 0  2.275949367088608 2.9 0  2.268354430379747 2.9 0  2.260759493670887 2.9 0  2.253164556962026 2.9 0  2.245569620253165 2.9 0  2.237974683544304 2.9 0  2.230379746835443 2.9 0  2.222784810126583 2.9 0  2.215189873417722 2.9 0  2.207594936708861 2.9 0  4.96271186440678 2.9 0  4.925423728813559 2.9 0  4.888135593220339 2.9 0  4.850847457627118 2.9 0  4.813559322033898 2.9 0  4.776271186440677 2.9 0  4.738983050847457 2.9 0  4.701694915254237 2.9 0  4.664406779661016 2.9 0  4.627118644067796 2.9 0  4.589830508474575 2.9 0  4.552542372881355 2.9 0  4.515254237288135 2.9 0  4.477966101694914 2.9 0  4.440677966101694 2.9 0  4.403389830508473 2.9 0  4.366101694915252 2.9 0  4.328813559322032 2.9 0  4.291525423728811 2.9 0  4.254237288135591 2.9 0  4.21694915254237 2.9 0  4.17966101694915 2.9 0  4.14237288135593 2.9 0  4.105084745762709 2.9 0  4.067796610169489 2.9 0  4.030508474576268 2.9 0  3.993220338983048 2.9 0  3.955932203389827 2.9 0  3.918644067796607 2.9 0  3.881355932203387 2.9 0  3.844067796610166 2.9 0  3.806779661016946 2.9 0  3.769491525423725 2.9 0  3.732203389830505 2.9 0  3.694915254237285 2.9 0  3.657627118644065 2.9 0  3.620338983050845 2.9 0  3.583050847457625 2.9 0  3.545762711864405 2.9 0  3.508474576271184 2.9 0  3.471186440677964 2.9 0  3.433898305084744 2.9 0  3.396610169491524 2.9 0  3.359322033898303 2.9 0  3.322033898305083 2.9 0  3.284745762711863 2.9 0  3.247457627118643 2.9 0  3.210169491525423 2.9 0  3.172881355932202 2.9 0  3.135593220338982 2.9 0  3.098305084745762 2.9 0  3.061016949152542 2.9 0  3.023728813559321 2.9 0  2.986440677966101 2.9 0  2.949152542372881 2.9 0  2.911864406779661 2.9 0  2.87457627118644 2.9 0  2.83728813559322 2.9 0  5 0.1063822624840908 0  5 0.210636879963479 0  5 0.3128064053000104 0  5 0.4129325399736057 0  5 0.5110561519920087 0  5 0.6072172917522097 0  5 0.7014552086337308 0  5 0.7938083672768746 0  5 0.8843144624325437 0  5 0.9730104357533907 0  5 1.059932489779506 0  5 1.145116102681561 0  5 1.228596043237163 0  5 1.310406384819408 0  5 1.39058051967151 0  5 1.46915117219283 0  5 1.546150411689349 0  5 1.621609666350684 0  5 1.695559735780513 0  5 1.76803080351128 0  5 1.839052449831632 0  5 1.908653663284034 0  5 1.976862852540214 0  5 2.043707858250082 0  5 2.109215963970139 0  5 2.173413907547539 0  5 2.236327892447888 0  5 2.29798359737153 0  5 2.358406188061876 0  5 2.417620326899216 0  5 2.475650183036803 0  5 2.532519442044509 0  5 2.588251315695885 0  5 2.642868552136335 0  5 2.696393444001645 0  5 2.748847837883952 0  5 2.800253143882191 0  5 2.85063034388582 0  0.2631578947368421 0 0  0.5263157894736842 0 0  0.7894736842105263 0 0  1.052631578947368 0 0  1.31578947368421 0 0  1.578947368421053 0 0  1.842105263157895 0 0  2.105263157894737 0 0  2.368421052631579 0 0  2.631578947368421 0 0  2.894736842105263 0 0  3.157894736842105 0 0  3.421052631578947 0 0  3.684210526315789 0 0  3.947368421052632 0 0  4.210526315789473 0 0  4.473684210526315 0 0  4.736842105263158 0 0  0 2.850203682350569 0  0 2.799411438503675 0  0 2.747603349778291 0  0 2.694759099502208 0  0 2.640857964382145 0  0 2.58587880633613 0  0 2.52980006535898 0  0 2.472599749459174 0  0 2.414255427218689 0  0 2.35474421880616 0  0 2.294042786119219 0  0 2.232127324764723 0  0 2.1689735539481 0  0 2.104556707683346 0  0 2.038851524813415 0  0 1.971832238155654 0  0 1.903472565412125 0  0 1.83374569926617 0  0 1.762624296208474 0  0 1.690080464918761 0  0 1.616085756774205 0  0 1.540611154706337 0  0 1.463627060685571 0  0 1.385103284916206 0  0 1.305009033716617 0  0 1.223312897337225 0  0 1.139982838163732 0  0 1.054986177579937 0  0 0.9682895835804808 0  0 0.8798590579197967 0  0 0.789659921841535 0  0 0.6976568029903634 0  0 0.6038136217958807 0  0 0.508093576867624 0  0 0.4104591310957497 0  0 0.31087199635222 0  0 0.2092931188294389 0  0 0.1056826638508546 0  1.434832105734982 2.866945754976478 0  1.737156300412976 2.8700394402447 0  2.032203389830508 2.867707527316512 0  2.332911392405064 2.893422591869991 0  2.469810913221006 2.891944186617815 0  2.606221408801046 2.892519154968786 0  2.255455320556353 2.892068684938936 0  2.538247299178607 2.894964578175289 0  2.674683544303798 2.893422591869991 0  2.40126582278481 2.893422591869991 0  3.566125247274844 2.86502933617869 0  3.266101694915253 2.867707527316512 0  2.967796610169491 2.867707527316512 0  1.174288529771947 2.870795313883199 0  3.825423728813556 2.867707527316512 0  2.727766680241741 2.892655387639323 0  0.06601655192030442 1.502119107695954 0  4.933983535518289 1.50765079194109 0  0.9532124728076634 2.868722489784116 0  4.048935912505472 2.870640982963028 0  0.05930163367361851 1.866907161167415 0  4.943402512617702 1.871280731227115 0  4.271733869970415 2.865208656206698 0  0.724942092071192 2.863922936166216 0  0.05494499779911566 2.196469063120751 0  4.947228695435926 2.208030108416282 0  0.5406152149451962 2.866493807374646 0  4.459322033898304 2.868847558171501 0  2.18135593220339 2.875780645487384 0  2.81702715648046 2.876587550622478 0  4.928427208334964 1.186856072959362 0  0.07189226971603357 1.174626666111664 0  4.610299014391064 2.867003104061287 0  0.3897270066746503 2.869433095314649 0  1.5811324999839 2.868247328613121 0  1.887637879307645 2.869235851843492 0  3.413449426409203 2.867372048026557 0  3.116721298784139 2.865731235545648 0  2.644303797468355 2.893422591869991 0  2.370983221771223 2.892719513366117 0  2.302531645569621 2.89333678739629 0  2.758987341772152 2.894242393896969 0  0.04979653335696588 2.443411216910279 0  4.950470983481301 2.446866954190454 0  2.482937483056625 0.2513241088166693 0  1.70712950486069 0.1999998660928157 0  3.285846579639133 0.2292006256069719 0  4.907807122450741 0.8340823629079156 0  4.757627118644067 2.867707527316512 0  0.07734891246767406 0.8347594898806658 0  0.2390604736599493 2.861365431805748 0  0.8363213714273008 2.863896768913622 0  4.16086561018973 2.868916854014843 0  1.28254933196979 2.86761095296154 0  1.065094818264994 2.861284686078544 0  3.938181277358471 2.868651344087338 0  3.711492629398847 2.863574306894209 0  4.913693619806458 0.5579891341027028 0  0.08208328472281323 0.5559535993317524 0  2.696596932509445 2.892010483912606 0  0.04706410140274642 2.613055974506517 0  4.955577063959472 2.616518038416838 0  2.234177215189874 2.893422591869991 0  2.279795840517476 2.894038618939426 0  0.911735788765236 0.2117925286661764 0  4.055948041976698 0.2039101059740411 0  4.872119713756579 2.86763292637659 0  2.78011387899257 2.891535929611774 0  0.1327442468251299 2.85732490707
[...]
<PointData  Vectors="displacement"> 
<DataArray  type="Float64"  Name="displacement"  NumberOfComponents="3" format="ascii">1.6653513173729935e-05 -3.5361489529470191e-04 0.0000000000000000e+00  0.0000000000000000e+00 1.5655527517591792e-06 0.0000000000000000e+00  -2.2177841753753608e-05 -3.6154847925774921e-04 0.0000000000000000e+00  0.0000000000000000e+00 1.6009554521689970e-06 0.0000000000000000e+00  0.0000000000000000e+00 0.0000000000000000e+00 0.0000000000000000e+00  0.0000000000000000e+00 0.0000000000000000e+00 0.0000000000000000e+00  1.0705860352543577e-05 -3.0324575115355960e-04 0.0000000000000000e+00  7.9182640958482967e-06 -2.7429193841080470e-04 0.0000000000000000e+00  6.5067670562485957e-06 -2.5188211701122361e-04 0.0000000000000000e+00  5.7160950917028022e-06 -2.3311656205671498e-04 0.0000000000000000e+00  5.2930963996438411e-06 -2.1685463682769132e-04 0.0000000000000000e+00  5.1136412221881560e-06 -2.0245225128031651e-04 0.0000000000000000e+00  5.0975736069723933e-06 -1.8949610291112229e-04 0.0000000000000000e+00  5.1905675806801340e-06 -1.7770485682147693e-04 0.0000000000000000e+00  5.3519850427074473e-06 -1.6687517885787030e-04 0.0000000000000000e+00  5.5553761301614511e-06 -1.5685792620831745e-04 0.0000000000000000e+00  5.7801105234245144e-06 -1.4754146469795189e-04 0.0000000000000000e+00  6.0109803149562173e-06 -1.3883633407803733e-04 0.0000000000000000e+00  6.2368374065861016e-06 -1.3067102869638309e-04 0.0000000000000000e+00  6.4504177100826892e-06 -1.2298813829976233e-04 0.0000000000000000e+00  6.6462527158057696e-06 -1.1574104800214894e-04 0.0000000000000000e+00  6.8206681989603700e-06 -1.0889045599846732e-04 0.0000000000000000e+00  6.9714729688383816e-06 -1.0240326356127667e-04 0.0000000000000000e+00  7.0970368677551493e-06 -9.6251066683985764e-05 0.0000000000000000e+00  7.1970358336188759e-06 -9.0409445318183039e-05 0.0000000000000000e+00  7.2715863994000082e-06 -8.4857209191651974e-05 0.0000000000000000e+00  7.3210706472465976e-06 -7.9575888721420196e-05 0.0000000000000000e+00  7.3461576187354400e-06 -7.4549177279961199e-05 0.0000000000000000e+00  7.3478922754298366e-06 -6.9762246794993947e-05 0.0000000000000000e+00  7.3272153484373427e-06 -6.5202214851533920e-05 0.0000000000000000e+00  7.2853444599352751e-06 -6.0857486246687083e-05 0.0000000000000000e+00  7.2235603458869242e-06 -5.6717397386190895e-05 0.0000000000000000e+00  7.1431136415881789e-06 -5.2772214714249875e-05 0.0000000000000000e+00  7.0450579017837869e-06 -4.9013382691530117e-05 0.0000000000000000e+00  6.9308110379903356e-06 -4.5432898492734262e-05 0.0000000000000000e+00  6.8014013140074515e-06 -4.2023196025172467e-05 0.0000000000000000e+00  6.6580957548004431e-06 -3.8777718462297270e-05 0.0000000000000000e+00  6.5019676706555150e-06 -3.5690361411564750e-05 0.0000000000000000e+00  6.3337793960514764e-06 -3.2755420217940489e-05 0.0000000000000000e+00  6.1548700693621107e-06 -2.9967399816486409e-05 0.0000000000000000e+00  5.9659307403452049e-06 -2.7321575595911119e-05 0.0000000000000000e+00  5.7679262189349527e-06 -2.4813346228242536e-05 0.0000000000000000e+00  5.5616909269039002e-06 -2.2438493097864702e-05 0.0000000000000000e+00  5.3478771782684341e-06 -2.0193170738873345e-05 0.0000000000000000e+00  5.1272828091145119e-06 -1.8073728194971724e-05 0.0000000000000000e+00  4.9005232711578498e-06 -1.6076815081076953e-05 0.0000000000000000e+00  4.6682140251227859e-06 -1.4199320034936336e-05 0.0000000000000000e+00  4.4308825873367615e-06 -1.2438356403399696e-05 0.0000000000000000e+00  4.1890700363615107e-06 -1.0791238018969228e-05 0.0000000000000000e+00  3.9432504585128264e-06 -9.2555240572300119e-06 0.0000000000000000e+00  3.6938638522632007e-06 -7.8289190996871729e-06 0.0000000000000000e+00  3.4412963354833157e-06 -6.5093417475398925e-06 0.0000000000000000e+00  3.1859211511693033e-06 -5.2948645288082685e-06 0.0000000000000000e+00  2.9280575248283801e-06 -4.1837496492300121e-06 0.0000000000000000e+00  2.6680314255181500e-06 -3.1744019731649850e-06 0.0000000000000000e+00  2.4061147647059519e-06 -2.2653982296784088e-06 0.0000000000000000e+00  2.1425459425126110e-06 -1.4554544530792898e-06 0.0000000000000000e+00  1.8775904660429263e-06 -7.4340312706520360e-07 0.0000000000000000e+00  1.6114575423780584e-06 -1.2828112201887597e-07 0.0000000000000000e+00  1.3443160372029129e-06 3.9076235182604029e-07 0.0000000000000000e+00  1.0763695342261576e-06 8.1445787113694485e-07 0.0000000000000000e+00  8.0782367824660162e-07 1.1434088308290292e-06 0.0000000000000000e+00  5.3881161477877419e-07 1.3780430049535489e-06 0.0000000000000000e+00  2.6948568161752240e-07 1.5186949416476481e-06 0.0000000000000000e+00  -5.5431562900208452e-05 -4.6229416005654455e-04 0.0000000000000000e+00  -5.1433044097464897e-05 -4.8536722031417489e-04 0.0000000000000000e+00  -4.8836730571013548e-05 -4.9883002847625512e-04 0.0000000000000000e+00  -4.6774464697551140e-05 -5.0881944013402502e-04 0.0000000000000000e+00  -4.5348493569122022e-05 -5.1739574764300569e-04 0.0000000000000000e+00  -4.4029117189002068e-05 -5.2520787307021386e-04 0.0000000000000000e+00  -4.2710295772479231e-05 -5.3237553100163803e-04 0.0000000000000000e+00  -4.1400145842881097e-05 -5.3898521178263534e-04 0.0000000000000000e+00  -4.0098389826804010e-05 -5.4511803514223941e-04 0.0000000000000000e+00  -3.8802159401405451e-05 -5.5083619870392980e-04 0.0000000000000000e+00  -3.7508903879943305e-05 -5.5618533630622826e-04 0.0000000000000000e+00  -3.6216670538569467e-05 -5.6120117311863357e-04 0.0000000000000000e+00  -3.4924853643059133e-05 -5.6591330747063459e-04 0.0000000000000000e+00  -3.3632812808169985e-05 -5.7034526974597544e-04 0.0000000000000000e+00  -3.2339606348608113e-05 -5.7451664308751863e-04 0.0000000000000000e+00  -3.1045234016185809e-05 -5.7844461413928934e-04 0.0000000000000000e+00  -2.9749288941236747e-05 -5.8214302122993244e-04 0.0000000000000000e+00  -2.8451679428250818e-05 -5.8562381344532397e-04 0.0000000000000000e+00  -2.7152368223978632e-05 -5.8889749918902801e-04 0.0000000000000000e+00  -2.5851388643722480e-05 -5.9197318102557840e-04 0.0000000000000000e+00  -2.4548803845788110e-05 -5.9485891239030185e-04 0.0000000000000000e+00  -2.3244716778626900e-05 -5.9756179225737682e-04 0.0000000000000000e+00  -2.1939185392124684e-05 -6.0008808060487795e-04 0.0000000000000000e+00  -2.0632298345751792e-05 -6.0244339229608194e-04 0.0000000000000000e+00  -1.9324126183716420e-05 -6.0463269526419183e-04 0.0000000000000000e+00  -1.8014738639399598e-05 -6.0666034780954730e-04 0.0000000000000000e+00  -1.6704266730384241e-05 -6.0853025598822891e-04 0.0000000000000000e+00  -1.5392663856316745e-05 -6.1024585679463799e-04 0.0000000000000000e+00  -1.4080091957161162e-05 -6.1181025096480174e-04 0.0000000000000000e+00  -1.2766647574628469e-05 -6.1322612270840716e-04 0.0000000000000000e+00  -1.1452420264754651e-05 -6.1449585620342321e-04 0.0000000000000000e+00  -1.0137483247690544e-05 -6.1562151149886703e-04 0.0000000000000000e+00  -8.8219543512792986e-06 -6.1660489254302688e-04 0.0000000000000000e+00  -7.5059857823967546e-06 -6.1744753592976728e-04 0.0000000000000000e+00  -6.1896320138154869e-06 -6.1815071590639345e-04 0.0000000000000000e+00  -4.8731212261524902e-06 -6.1871557464324265e-04 0.0000000000000000e+00  -3.5564749894146645e-06 -6.1914294300441754e-04 0.0000000000000000e+00  -2.2398557743568802e-06 -6.1943347371870106e-04 0.0000000000000000e+00  -9.2342410096766832e-07 -6.1958763951949140e-04 0.0000000000000000e+00  3.9273201462713557e-07 -6.1960569209445376e-04 0.0000000000000000e+00  1.7084826651174531e-06 -6.1948768961291793e-04 0.0000000000000000e+00  3.0237092311756722e-06 -6.1923349415956869e-04 0.0000000000000000e+00  4.3382918198176575e-06 -6.1884277042626834e-04 0.0000000000000000e+00  5.6520936627774006e-06 -6.1831495890427057e-04 0.0000000000000000e+00  6.9650252894549532e-06 -6.1764929587777341e-04 0.0000000000000000e+00  8.2769600078830657e-06 -6.1684483052115019e-04 0.0000000000000000e+00  9.5877633513070880e-06 -6.1590033925779011e-04 0.0000000000000000e+00  1.0897319571374069e-05 -6.1481436867981962e-04 0.0000000000000000e+00  1.2205509912995719e-05 -6.1358522225230829e-04 0.0000000000000000e+00  1.3512168010143906e-05 -6.1221091863077526e-04 0.0000000000000000e+00  1.4817178024208538e-05 -6.1068921998488337e-04 0.0000000000000000e+00  1.6120404797122127e-05 -6.0901751634393820e-04 0.0000000000000000e+00  1.7421600249642127e-05 -6.0719289859257676e-04 0.0000000000000000e+00  1.8720650381655880e-05 -6.0521212850898269e-04 0.0000000000000000e+00  2.0017341118405205e-05 -6.0307148438839154e-04 0.0000000000000000e+00  2.1311458640608286e-05 -6.0076684752191254e-04 0.0000000000000000e+00  2.2602771395917603e-05 -5.9829355609733752e-04 0.0000000000000000e+00  2.3891118828766839e-05 -5.9564640936358938e-04 0.0000000000000000e+00  2.5176157253650650e-05 -5.9281940345596142e-04 0.0000000000000000e+00  2.6457616567818615e-05 -5.8980608093248750e-04 0.0000000000000000e+00  2.7735118981977636e-05 -5.8659885144932969e-04 0.0000000000000000e+00  2.9008372905275236e-05 -5.8318919001008429e-04 0.0000000000000000e+00  3.0276933379585925e-05 -5.7956736228237707e-04 0.0000000000000000e+00  3.1540327714003666e-05 -5.7572218075099412e-04 0.0000000000000000e+00  3.2797962789156924e-05 -5.7164084637720801e-04 0.0000000000000000e+00  3.4049194679261317e-05 -5.6730825841975801e-04 0.0000000000000000e+00  3.5292916501127235e-05 -5.6270683548852987e-04 0.0000000000000000e+00  3.6528168724421099e-05 -5.5781568938544014e-04 0.0000000000000000e+00  3.7753952974782721e-05 -5.5261032616548398e-04 0.0000000000000000e+00  3.8966771665813286e-05 -5.4705961884002558e-04 0.0000000000000000e+00  4.0163970123970117e-05 -5.4112677199437463e-04 0.0000000000000000e+00  4.1343191227523156e-05 -5.3476689915603944e-04 0.0000000000000000e+00  4.2501635009318666e-05 -5.2792288305445021e-04 0.0000000000000000e+00  4.3643819455411827e-05 -5.2050915568105935e-04 0.0000000000000000e+00  4.4779012268450388e-05 -5.1237857630764350e-04 0.0000000000000000e+00  4.5823821048560315e-05 -5.0327662926270454e-04 0.0000000000000000e+00  4.6465184592937889e-05 -4.9354204308858828e-04 0.0000000000000000e+00  5.2494631466343004e-05 -4.7171090708603982e-04 0.0000000000000000e+00  -2.7369785653408982e-07 1.5540578748593132e-06 0.0000000000000000e+00  -5.4725251471866674e-07 1.4133160914788393e-06 0.0000000000000000e+00  -8.2052419789132231e-07 1.1785254253581198e-06 0.0000000000000000e+00  -1.0933571980423800e-06 8.4936871729965050e-07 0.0000000000000000e+00  -1.3656100717605419e-06 4.2538332853989262e-07 0.0000000000000000e+00  -1.6370725661808673e-06 -9.4017018489793281e-08 0.0000000000000000e+00  -1.9076354939545994e-06 -7.0953855279221703e-07 0.0000000000000000e+00  -2.1770693571490681e-06 -1.4220551264356148e-06 0.0000000000000000e+00  -2.4451788487802849e-06 -2.2325569382245093e-06 0.0000000000000000e+00  -2.7117290238845901e-06 -3.1421865108824713e-06 0.0000000000000000e+00  -2.9764865642789370e-06 -4.1522331490727988e-06 0.0000000000000000e+00  -3.2391738738039205e-06 -5.2641258029122743e-06 0.0000000000000000e+00  -3.4995140632636064e-06 -6.4794576415240198e-06 0.0000000000000000e+00  -3.7571767946042450e-06 -7.7999796364244110e-06 0.0000000000000000e+00  -4.0118123209412307e-06 -9.2276144744423335e-06 0.0000000000000000e+00  -4.2630349191777454e-06 -1.0764460978374432e-05 0.0000000000000000e+00  -4.5104392055582522e-06 -1.2412789837350414e-05 0.0000000000000000e+00  -4.7535414188025387e-06 -1.4175098924032413e-05 0.0000000000000000e+00  -4.9918708065725026e-06 -1.6054057692144999e-05 0.0000000000000000e+00  -5.2248790383875677e-06 -1.8052555094780223e-05 0.0000000000000000e+00  -5.4519899971475655e-06 -2.0173744844286728e-05 0.0000000000000000e+00  -5.6725910634999908e-06 -2.2420879136590080e-05 0.0000000000000000e+00  -5.8859663897958239e-06 -2.4797712982078094e-05 0.0000000000000000e+00  -6.0914117034342539e-06 -2.7308128876955233e-05 0.0000000000000000e+00  -6.2881629882563564e-06 -2.9956337411256384e-05 0.0000000000000000e+00  -6.4753864649824353e-06 -3.2746887771602530e-05 0.0000000000000000e+00  -6.6521862768313969e-06 -3.5684699059452380e-05 0.0000000000000000e+00  -6.8176178843971227e-06 -3.8775084980763475e-05 0.0000000000000000e+00  -6.9707404873504421e-06 -4.2023792094149413e-05 0.0000000000000000e+00  -7.1105248601460199e-06 -4.5437030341123967e-05 0.0000000000000000e+00  -7.2358617050074038e-06 -4.9021578289561958e-05 0.0000000000000000e+00  -7.3456264146609855e-06 -5.2784759172316755e-05 0.0000000000000000e+00  -7.4389538327796749e-06 -5.6734675522747992e-05 0.0000000000000000e+00  -7.5141954404015982e-06 -6.0880098539308359e-05 0.0000000000000000e+00  -7.5705752638731052e-06 -6.5230696764365697e-05 0.0000000000000000e+00  -7.6070203197929100e-06 -6.9797071718526662e-05 0.0000000000000000e+00  -7.6224180173450377e-06 -7.4591033814604794e-05 0.0000000000000000e+00  -7.6157075910339490e-06 -7.9625745714983223e-05 0.0000000000000000e+00  -7.5862487967144671e-06 -8.4915925807935275e-05 0.0000000000000000e+00  -7.5335884432264888e-06 -9.0478110420048373e-05 0.0000000000000000e+00  -7.4574508314781063e-06 -9.6331016910752404e-05 0.0000000000000000e+00  -7.3580580638223588e-06 -1.0249606898025229e-04 0.0000000000000000e+00  -7.2365243696528514e-06 -1.0899786059725195e-04 0.0000000000000000e+00  -7.0940668713792389e-06 -1.1586500914232285e-04 0.0000000000000000e+00  -6.9335396253843969e-06 -1.2313086336814165e-04 0.0000000000000000e+00  -6.7594236669323123e-06 -1.3083556434581212e-04 0.0000000000000000e+00  -6.5777405375923807e-06 -1.3902659808790585e-04 0.0000000000000000e+00  -6.3969770005609699e-06 -1.4776233424120135e-04 0.0000000000000000e+00  -6.2297679004513348e-06 -1.5711408157873652e-04 0.0000000000000000e+00  -6.0905192300694025e-06 -1.6717220647053104e-04 0.0000000000000000e+00  -6.0048751539084503e-06 -1.7805371599946299e-04 0.0000000000000000e+00  -5.9992349156203040e-06 -1.8990601799270714e-04 0.0000000000000000e+00  -6.1188436583311352e-06 -2.0294160458603160e-04 0.0000000000000000e+00  -6.4242182164035844e-06 -2.1744315831983958e-04 0.0000000000000000e+00  -7.0045723118867027e-06 -2.3383481264595334e-04 0.0000000000000000e+00  -8.0047735044853215e-06 -2.5278041772021614e-04 0.0000000000000000e+00  -9.6655109505943412e-06 -2.7546523792176965e-04 0.0000000000000000e+00  -1.3024997896688138e-05 -3.0493460800876121e-04 0.0000000000000000e+00  0.0000000000000000e+00 -2.9324734458673499e-06 0.0000000000000000e+00  0.0000000000000000e+00 -5.4135540727904634e-06 0.0000000000000000e+00  0.0000000000000000e+00 -7.5030529809552756e-06 0.0000000000000000e+00  0.0000000000000000e+00 -9.2513266900978169e-06 0.0000000000000000e+00  0.0000000000000000e+00 -1.0695082619686644e-05 0.0000000000000000e+00  0.0000000000000000e+00 -1.1864569684190167e-05 0.0000000000000000e+00  0.0000000000000000e+00 -1.2784435060531830e-05 0.0000000000000000e+00  0.0000000000000000e+00 -1.3475296857641878e-05 0.0000000000000000e+00  0.0000000000000000e+00 -1.3952490740088068e-05 0.0000000000000000e+00  0.0000000000000000e+00 -1.4233145697022451e-05 0.0000000000000000e+00  0.0000000000000000e+00 -1.4330231554861906e-05 0.0000000000000000e+00  0.0000000000000000e+00 -1.4257042973840824e-05 0.0000000000000000e+00  0.0000000000000000e+00 -1.4027282122183435e-05 0.0000000000000000e+00  0.0000000000000000e+00 -1.3654245505063607e-05 0.0000000000000000e+00  0.0000000000000000e+00 -1.3151651437959936e-05 0.0000000000000000e+00  0.0000000000000000e+00 -1.2533821909915417e-05 0.0000000000000000e+00  0.0000000000000000e+00 -1.1815895232489962e-05 0.0000000000000000e+00  0.0000000000000000e+00 -1.1013096324170399e-05 0.0000000000000000e+00  0.0000000000000000e+00 -1.0141150077100692e-05 0.0000000000000000e+00  0.0000000000000000e+00 -9.2160222215320430e-06 0.0000000000000000e+00  0.0000000000000000e+00 -8.2538104575402467e-06 0.0000000000000000e+00  0.0000000000000000e+00 -7.2703443288358076e-06 0.0000000000000000e+00  0.0000000000000000e+00 -6.2812721038027429e-06 0.0000000000000000e+00  0.0000000000000000e+00 -5.3012245473270457e-06 0.0000000000000000e+00  0.0000000000000000e+00 -4.3445436401833077e-06 0.0000000000000000e+00  0.0000000000000000e+00 -3.4246262763429279e-06 0.0000000000000000e+00  0.0000000000000000e+00 -2.5531492818288108e-06 0.0000000000000000e+00  0.0000000000000000e+00 -1.7411883414235738e-06 0.0000000000000000e+00  0.0000000000000000e+00 -9.9810013359982212e-07 0.0000000000000000e+00  0.0000000000000000e+00 -3.3184630339632373e-07 0.0000000000000000e+00  0.0000000000000000e+00 2.5103023610325215e-07 0.0000000000000000e+00  0.0000000000000000e+00 7.4556705082745221e-07 0.0000000000000000e+00  0.0000000000000000e+00 1.1482259484322832e-06 0.0000000000000000e+00  0.0000000000000000e+00 1.4568103802778477e-06 0.0000000000000000e+00  0.0000000000000000e+00 1.6705007608737242e-06 0.0000000000000000e+00  0.0000000000000000e+00 1.7897005515384118e-06 0.0000000000000000e+00  0.0000000000000000e+00 1.8160485914587131e-06 0.0000000000000000e+00  0.0000000000000000e+00 1.7519741218114738e-06 0.0000000000000000e+00  0.0000000000000000e+00 0.0000000000000000e+00 0.0000000000000000e+00  0.0000000000000000e+00 0.0000000000000000e+00 0.0000000000000000e+00  0.0000000000000000e+00 0.0000000000000000e+00 0.0000000000000000e+00  0.0000000000000000e+00 0.0000000000000000e+00 0.0000000000000000e+00  0.0000000000000000e+00 0.0000000000000000e+00 0.0000000000000000e+00  0.0000000000000000e+00 0.0000000000000000e+00 0.0000000000000000e+00  0.0000000000000000e+00 0.0000000000000000e+00 0.0000000000000000e+00  0.0000000000000000e+00 0.0000000000000000e+00 0.0000000000000000e+00  0.0000000000000000e+00 0.0000000000000000e+00 0.0000000000000000e+00  0.0000000000000000e+00 0.0000000000000000e+00 0.0000000000000000e+00  0.0000000000000000e+00 0.0000000000000000e+00 0.0000000000000000e+00  0.0000000000000000e+00 0.0000000000000000e+00 0.0000000000000000e+00  0.0000000000000000e+00 0.0000000000000000e+00 0.0000000000000000e+00  0.0000000000000000e+00 0.0000000000000000e+00 0.0000000000000000e+00  0.0000000000000000e+00 0.0000000000000000e+00 0.0000000000000000e+00  0.0000000000000000e+00 0.0000000000000000e+00 0.0000000000000000e+00  0.0000000000000000e+00 0.0000000000000000e+00 0.0000000000000000e+00  0.0000000000000000e+00 0.0000000000000000e+00 0.0000000000000000e+00  0.0000000000000000e+00 1.7144956148691247e-06 0.0000000000000000e+00  0.0000000000000000e+00 1.7750406259928457e-06 0.0000000000000000e+00  0.0000000000000000e+00 1.7437260857196460e-06 0.0000000000000000e+00  0.0000000000000000e+00 1.6184196943493127e-06 0.0000000000000000e+00  0.0000000000000000e+00 1.3975897053635573e-06 0.0000000000000000e+00  0.0000000000000000e+00 1.0811200843933639e-06 0.0000000000000000e+00  0.0000000000000000e+00 6.7010121977967268e-07 0.0000000000000000e+00  0.0000000000000000e+00 1.6695606372915197e-07 0.0000000000000000e+00  0.0000000000000000e+00 -4.2449037825953207e-07 0.0000000000000000e+00  0.0000000000000000e+00 -1.0988688898733188e-06 0.0000000000000000e+00  0.0000000000000000e+00 -1.8495263684815892e-06 0.0000000000000000e+00  0.0000000000000000e+00 -2.6678520033475422e-06 0.0000000000000000e+00  0.0000000000000000e+00 -3.5445953818652297e-06 0.0000000000000000e+00  0.0000000000000000e+00 -4.4684726450880756e-06 0.0000000000000000e+00  0.0000000000000000e+00 -5.4273468433423846e-06 0.0000000000000000e+00  0.0000000000000000e+00 -6.4076648416664603e-06 0.0000000000000000e+00  0.0000000000000000e+00 -7.3952512818298686e-06 0.0000000000000000e+00  0.0000000000000000e+00 -8.3753622561852289e-06 0.0000000000000000e+00  0.0000000000000000e+00 -9.3322709514181706e-06 0.0000000000000000e+00  0.0000000000000000e+00 -1.0250226893173453e-05 0.0000000000000000e+00  0.0000000000000000e+00 -1.1113367219904074e-05 0.0000000000000000e+00  0.0000000000000000e+00 -1.1905942252889185e-05 0.0000000000000000e+00  0.0000000000000000e+00 -1.2612406362861560e-05 0.0000000000000000e+00  0.000000000000000