<?xml version="1.0"?>
<VTKFile type="UnstructuredGrid"  version="0.1"  >
<UnstructuredGrid>
<Piece  NumberOfPoints="1250" NumberOfCells="2352">
<Points>
<DataArray  type="Float64"  NumberOfComponents="3"  format="ascii">0 0 0  0.0336 0 0  0.0336 0.07729999999999999 0  0 0.07729999999999999 0  0.001400000000000002 0 0  0.002800000000000005 0 0  0.004200000000000008 0 0  0.005600000000000009 0 0  0.007000000000000011 0 0  0.008400000000000013 0 0  0.009800000000000019 0 0  0.01120000000000002 0 0  0.01260000000000003 0 0  0.01400000000000003 0 0  0.01540000000000004 0 0  0.01680000000000005 0 0  0.01820000000000004 0 0  0.01960000000000004 0 0  0.02100000000000004 0 0  0.02240000000000003 0 0  0.02380000000000003 0 0  0.02520000000000002 0 0  0.02660000000000002 0 0  0.02800000000000001 0 0  0.02940000000000001 0 0  0.03080000000000001 0 0  0.0322 0 0  0.0336 0.001577551020408161 0  0.0336 0.003155102040816321 0  0.0336 0.004732653061224482 0  0.0336 0.006310204081632642 0  0.0336 0.007887755102040803 0  0.0336 0.009465306122448964 0  0.0336 0.01104285714285712 0  0.0336 0.01262040816326528 0  0.0336 0.01419795918367344 0  0.0336 0.0157755102040816 0  0.0336 0.01735306122448976 0  0.0336 0.01893061224489792 0  0.0336 0.02050816326530608 0  0.0336 0.02208571428571425 0  0.0336 0.02366326530612241 0  0.0336 0.02524081632653058 0  0.0336 0.02681836734693874 0  0.0336 0.02839591836734691 0  0.0336 0.02997346938775507 0  0.0336 0.03155102040816323 0  0.0336 0.0331285714285714 0  0.0336 0.03470612244897956 0  0.0336 0.03628367346938772 0  0.0336 0.03786122448979588 0  0.0336 0.03943877551020405 0  0.0336 0.04101632653061221 0  0.0336 0.04259387755102037 0  0.0336 0.04417142857142854 0  0.0336 0.04574897959183671 0  0.0336 0.04732653061224486 0  0.0336 0.04890408163265302 0  0.0336 0.05048163265306119 0  0.0336 0.05205918367346936 0  0.0336 0.05363673469387752 0  0.0336 0.05521428571428568 0  0.0336 0.05679183673469385 0  0.0336 0.05836938775510202 0  0.0336 0.05994693877551018 0  0.0336 0.06152448979591834 0  0.0336 0.0631020408163265 0  0.0336 0.06467959183673468 0  0.0336 0.06625714285714283 0  0.0336 0.06783469387755101 0  0.0336 0.06941224489795916 0  0.0336 0.07098979591836733 0  0.0336 0.07256734693877549 0  0.0336 0.07414489795918365 0  0.0336 0.07572244897959182 0  0.03219999999999999 0.07729999999999999 0  0.03079999999999999 0.07729999999999999 0  0.02939999999999999 0.07729999999999999 0  0.02799999999999999 0.07729999999999999 0  0.02659999999999999 0.07729999999999999 0  0.02519999999999999 0.07729999999999999 0  0.02379999999999998 0.07729999999999999 0  0.02239999999999998 0.07729999999999999 0  0.02099999999999997 0.07729999999999999 0  0.01959999999999996 0.07729999999999999 0  0.01819999999999996 0.07729999999999999 0  0.01679999999999995 0.07729999999999999 0  0.01539999999999996 0.07729999999999999 0  0.01399999999999996 0.07729999999999999 0  0.01259999999999996 0.07729999999999999 0  0.01119999999999997 0.07729999999999999 0  0.009799999999999972 0.07729999999999999 0  0.008399999999999977 0.07729999999999999 0  0.006999999999999978 0.07729999999999999 0  0.005599999999999983 0.07729999999999999 0  0.004199999999999988 0.07729999999999999 0  0.00279999999999999 0.07729999999999999 0  0.001399999999999998 0.07729999999999999 0  0 0.07572244897959184 0  0 0.07414489795918368 0  0 0.07256734693877551 0  0 0.07098979591836735 0  0 0.06941224489795919 0  0 0.06783469387755103 0  0 0.06625714285714288 0  0 0.06467959183673472 0  0 0.06310204081632656 0  0 0.0615244897959184 0  0 0.05994693877551023 0  0 0.05836938775510207 0  0 0.05679183673469392 0  0 0.05521428571428574 0  0 0.05363673469387759 0  0 0.05205918367346941 0  0 0.05048163265306126 0  0 0.04890408163265308 0  0 0.04732653061224493 0  0 0.04574897959183676 0  0 0.0441714285714286 0  0 0.04259387755102043 0  0 0.04101632653061228 0  0 0.03943877551020411 0  0 0.03786122448979595 0  0 0.03628367346938779 0  0 0.03470612244897962 0  0 0.03312857142857146 0  0 0.03155102040816329 0  0 0.02997346938775513 0  0 0.02839591836734697 0  0 0.0268183673469388 0  0 0.02524081632653064 0  0 0.02366326530612247 0  0 0.02208571428571431 0  0 0.02050816326530614 0  0 0.01893061224489798 0  0 0.01735306122448981 0  0 0.01577551020408165 0  0 0.01419795918367349 0  0 0.01262040816326532 0  0 0.01104285714285716 0  0 0.009465306122448988 0  0 0.00788775510204083 0  0 0.006310204081632659 0  0 0.004732653061224501 0  0 0.003155102040816343 0  0 0.001577551020408172 0  0.001400000000000004 0.001577551020408172 0  0.001400000000000004 0.003155102040816329 0  0.001400000000000002 0.004732653061224501 0  0.001400000000000002 0.006310204081632645 0  0.001400000000000005 0.007887755102040823 0  0.001400000000000002 0.009465306122448981 0  0.001400000000000002 0.01104285714285717 0  0.001400000000000004 0.01262040816326531 0  0.0014 0.01419795918367349 0  0.001400000000000002 0.01577551020408166 0  0.001400000000000005 0.0173530612244898 0  0.001400000000000002 0.01893061224489797 0  0.001400000000000002 0.02050816326530613 0  0.001400000000000002 0.02208571428571431 0  0.001400000000000002 0.02366326530612247 0  0.001400000000000002 0.02524081632653063 0  0.001400000000000002 0.0268183673469388 0  0.001400000000000002 0.02839591836734696 0  0.001400000000000002 0.02997346938775513 0  0.001400000000000002 0.03155102040816328 0  0.001400000000000002 0.03312857142857147 0  0.001399999999999997 0.03470612244897962 0  0.001400000000000005 0.03628367346938778 0  0.001400000000000002 0.03786122448979594 0  0.001400000000000002 0.03943877551020411 0  0.001400000000000002 0.04101632653061228 0  0.001400000000000002 0.04259387755102043 0  0.001400000000000002 0.0441714285714286 0  0.0014 0.04574897959183676 0  0.001400000000000002 0.04732653061224492 0  0.001400000000000004 0.04890408163265308 0  0.001400000000000002 0.05048163265306126 0  0.001400000000000002 0.05205918367346941 0  0.0014 0.05363673469387758 0  0.001400000000000004 0.05521428571428574 0  0.001399999999999998 0.05679183673469391 0  0.001400000000000002 0.05836938775510207 0  0.0014 0.05994693877551023 0  0.001400000000000002 0.0615244897959184 0  0.001400000000000002 0.06310204081632656 0  0.001400000000000002 0.06467959183673472 0  0.0014 0.06625714285714286 0  0.001400000000000002 0.06783469387755102 0  0.001399999999999998 0.06941224489795919 0  0.001400000000000002 0.07098979591836735 0  0.0014 0.07256734693877552 0  0.001400000000000002 0.07414489795918368 0  0.001400000000000002 0.07572244897959184 0  0.002800000000000006 0.001577551020408165 0  0.002800000000000004 0.003155102040816343 0  0.002800000000000002 0.004732653061224487 0  0.002800000000000002 0.006310204081632652 0  0.002800000000000002 0.007887755102040813 0  0.0028 0.009465306122448981 0  0.002799999999999997 0.01104285714285715 0  0.0028 0.01262040816326532 0  0.0028 0.01419795918367348 0  0.0028 0.01577551020408165 0  0.002799999999999997 0.0173530612244898 0  0.0028 0.01893061224489797 0  0.002800000000000004 0.02050816326530613 0  0.0028 0.0220857142857143 0  0.0028 0.02366326530612247 0  0.002800000000000004 0.02524081632653064 0  0.0028 0.0268183673469388 0  0.0028 0.02839591836734696 0  0.002799999999999995 0.02997346938775512 0  0.002799999999999997 0.03155102040816328 0  0.002799999999999995 0.03312857142857146 0  0.0028 0.03470612244897962 0  0.002799999999999995 0.03628367346938778 0  0.002799999999999997 0.03786122448979594 0  0.002799999999999997 0.03943877551020411 0  0.002799999999999997 0.04101632653061228 0  0.002799999999999997 0.04259387755102043 0  0.002799999999999995 0.0441714285714286 0  0.002799999999999997 0.04574897959183676 0  0.002799999999999997 0.04732653061224493 0  0.002799999999999995 0.04890408163265308 0  0.002799999999999993 0.05048163265306124 0  0.002799999999999995 0.05205918367346941 0  0.002799999999999995 0.05363673469387757 0  0.002799999999999992 0.05521428571428574 0  0.002799999999999997 0.05679183673469391 0  0.002799999999999993 0.05836938775510207 0  0.002799999999999993 0.05994693877551022 0  0.002799999999999992 0.0615244897959184 0  0.002799999999999988 0.06310204081632655 0  0.002799999999999992 0.0646795918367347 0  0.002799999999999992 0.06625714285714286 0  0.00279999999999999 0.06783469387755103 0  0.00279999999999999 0.06941224489795919 0  0.002799999999999988 0.07098979591836735 0  0.00279999999999999 0.07256734693877552 0  0.002799999999999988 0.07414489795918368 0  0.00279999999999999 0.07572244897959184 0  0.004200000000000006 0.001577551020408172 0  0.004200000000000006 0.003155102040816329 0  0.004200000000000008 0.00473265306122448 0  0.004200000000000009 0.006310204081632652 0  0.004200000000000008 0.00788775510204082 0  0.004200000000000008 0.009465306122448978 0  0.004200000000000006 0.01104285714285716 0  0.004200000000000006 0.01262040816326532 0  0.004200000000000004 0.01419795918367349 0  0.004200000000000002 0.01577551020408165 0  0.004200000000000004 0.0173530612244898 0  0.004200000000000006 0.01893061224489797 0  0.004200000000000006 0.02050816326530613 0  0.004200000000000002 0.0220857142857143 0  0.004200000000000004 0.02366326530612247 0  0.004199999999999999 0.02524081632653062 0  0.004200000000000004 0.0268183673469388 0  0.004200000000000004 0.02839591836734696 0  0.004200000000000002 0.02997346938775512 0  0.004199999999999999 0.03155102040816328 0  0.004200000000000001 0.03312857142857145 0  0.004200000000000001 0.03470612244897962 0  0.004199999999999995 0.03628367346938778 0  0.004199999999999999 0.03786122448979594 0  0.004199999999999999 0.0394387755102041 0  0.004199999999999997 0.04101632653061227 0  0.004199999999999999 0.04259387755102043 0  0.004199999999999999 0.04417142857142859 0  0.004199999999999999 0.04574897959183676 0  0.004199999999999999 0.04732653061224492 0  0.004199999999999997 0.04890408163265308 0  0.004199999999999997 0.05048163265306124 0  0.004199999999999999 0.05205918367346941 0  0.004199999999999992 0.05363673469387757 0  0.0
[...]
<PointData  Vectors="displacement"> 
<DataArray  type="Float64"  Name="displacement"  NumberOfComponents="3" format="ascii">0.0000000000000000e+00 0.0000000000000000e+00 0.0000000000000000e+00  0.0000000000000000e+00 0.0000000000000000e+00 0.0000000000000000e+00  5.6255902700118657e-04 -4.7058325230416691e-03 0.0000000000000000e+00  -5.5674790337332711e-04 -4.7047062578494930e-03 0.0000000000000000e+00  0.0000000000000000e+00 0.0000000000000000e+00 0.0000000000000000e+00  0.0000000000000000e+00 0.0000000000000000e+00 0.0000000000000000e+00  0.0000000000000000e+00 0.0000000000000000e+00 0.0000000000000000e+00  0.0000000000000000e+00 0.0000000000000000e+00 0.0000000000000000e+00  0.0000000000000000e+00 0.0000000000000000e+00 0.0000000000000000e+00  0.0000000000000000e+00 0.0000000000000000e+00 0.0000000000000000e+00  0.0000000000000000e+00 0.0000000000000000e+00 0.0000000000000000e+00  0.0000000000000000e+00 0.0000000000000000e+00 0.0000000000000000e+00  0.0000000000000000e+00 0.0000000000000000e+00 0.0000000000000000e+00  0.0000000000000000e+00 0.0000000000000000e+00 0.0000000000000000e+00  0.0000000000000000e+00 0.0000000000000000e+00 0.0000000000000000e+00  0.0000000000000000e+00 0.0000000000000000e+00 0.0000000000000000e+00  0.0000000000000000e+00 0.0000000000000000e+00 0.0000000000000000e+00  0.0000000000000000e+00 0.0000000000000000e+00 0.0000000000000000e+00  0.0000000000000000e+00 0.0000000000000000e+00 0.0000000000000000e+00  0.0000000000000000e+00 0.0000000000000000e+00 0.0000000000000000e+00  0.0000000000000000e+00 0.0000000000000000e+00 0.0000000000000000e+00  0.0000000000000000e+00 0.0000000000000000e+00 0.0000000000000000e+00  0.0000000000000000e+00 0.0000000000000000e+00 0.0000000000000000e+00  0.0000000000000000e+00 0.0000000000000000e+00 0.0000000000000000e+00  0.0000000000000000e+00 0.0000000000000000e+00 0.0000000000000000e+00  0.0000000000000000e+00 0.0000000000000000e+00 0.0000000000000000e+00  0.0000000000000000e+00 0.0000000000000000e+00 0.0000000000000000e+00  1.8272743603841475e-04 -1.6715970464992096e-04 0.0000000000000000e+00  2.8353800708275822e-04 -2.6843983133787108e-04 0.0000000000000000e+00  3.5451618688742809e-04 -3.5747583401620311e-04 0.0000000000000000e+00  4.0775373139747520e-04 -4.4217573546516647e-04 0.0000000000000000e+00  4.4847738098925839e-04 -5.2529129951503668e-04 0.0000000000000000e+00  4.7975980939747749e-04 -6.0825681663349731e-04 0.0000000000000000e+00  5.0373567658165762e-04 -6.9185632419901163e-04 0.0000000000000000e+00  5.2199142516402397e-04 -7.7650878993886418e-04 0.0000000000000000e+00  5.3574998165320682e-04 -8.6241848036021894e-04 0.0000000000000000e+00  5.4597510382044332e-04 -9.4965774599149429e-04 0.0000000000000000e+00  5.5343575682863472e-04 -1.0382160837372979e-03 0.0000000000000000e+00  5.5874893568093158e-04 -1.1280313076833988e-03 0.0000000000000000e+00  5.6241012249344112e-04 -1.2190103442081630e-03 0.0000000000000000e+00  5.6481618434012974e-04 -1.3110435033686660e-03 0.0000000000000000e+00  5.6628333994191403e-04 -1.4040143720804043e-03 0.0000000000000000e+00  5.6706169242948690e-04 -1.4978066237453843e-03 0.0000000000000000e+00  5.6734721694071523e-04 -1.5923085872272720e-03 0.0000000000000000e+00  5.6729175704332119e-04 -1.6874161619364453e-03 0.0000000000000000e+00  5.6701139720065938e-04 -1.7830345093107296e-03 0.0000000000000000e+00  5.6659347298910969e-04 -1.8790788473458449e-03 0.0000000000000000e+00  5.6610241991640522e-04 -1.9754746007551172e-03 0.0000000000000000e+00  5.6558462506642771e-04 -2.0721571030857949e-03 0.0000000000000000e+00  5.6507242202587151e-04 -2.1690710026779185e-03 0.0000000000000000e+00  5.6458735239050737e-04 -2.2661694885284965e-03 0.0000000000000000e+00  5.6414280330056128e-04 -2.3634134230902568e-03 0.0000000000000000e+00  5.6374611827372941e-04 -2.4607704456083802e-03 0.0000000000000000e+00  5.6340026735977194e-04 -2.5582140909012987e-03 0.0000000000000000e+00  5.6310515207614502e-04 -2.6557229537939866e-03 0.0000000000000000e+00  5.6285861066751770e-04 -2.7532799180729215e-03 0.0000000000000000e+00  5.6265718001749878e-04 -2.8508714602768627e-03 0.0000000000000000e+00  5.6249666209723967e-04 -2.9484870323552717e-03 0.0000000000000000e+00  5.6237253521374637e-04 -3.0461185227676829e-03 0.0000000000000000e+00  5.6228024354207764e-04 -3.1437597925762914e-03 0.0000000000000000e+00  5.6221539248197902e-04 -3.2414062811743616e-03 0.0000000000000000e+00  5.6217387223793543e-04 -3.3390546752254079e-03 0.0000000000000000e+00  5.6215192763162439e-04 -3.4367026339443157e-03 0.0000000000000000e+00  5.6214618845610849e-04 -3.5343485638594831e-03 0.0000000000000000e+00  5.6215367160734734e-04 -3.6319914365223992e-03 0.0000000000000000e+00  5.6217176371948791e-04 -3.7296306431807685e-03 0.0000000000000000e+00  5.6219819103607636e-04 -3.8272658811371587e-03 0.0000000000000000e+00  5.6223098174276623e-04 -3.9248970673389314e-03 0.0000000000000000e+00  5.6226842498343895e-04 -4.0225242756752651e-03 0.0000000000000000e+00  5.6230903037842665e-04 -4.1201476955063793e-03 0.0000000000000000e+00  5.6235149232802318e-04 -4.2177676101519115e-03 0.0000000000000000e+00  5.6239466536388803e-04 -4.3153843954544559e-03 0.0000000000000000e+00  5.6243756195411730e-04 -4.4129985400967247e-03 0.0000000000000000e+00  5.6247939774014362e-04 -4.5106106900949620e-03 0.0000000000000000e+00  5.6251975327629522e-04 -4.6082217049892371e-03 0.0000000000000000e+00  5.1591467494335914e-04 -4.7057978686114678e-03 0.0000000000000000e+00  4.6927040672885007e-04 -4.7057639710504171e-03 0.0000000000000000e+00  4.2262685934099658e-04 -4.7057312125172905e-03 0.0000000000000000e+00  3.7598462996894967e-04 -4.7056993384736196e-03 0.0000000000000000e+00  3.2934410215471608e-04 -4.7056678022201716e-03 0.0000000000000000e+00  2.8270545546122447e-04 -4.7056359451640925e-03 0.0000000000000000e+00  2.3606869884030898e-04 -4.7056030944168294e-03 0.0000000000000000e+00  1.8943370396516646e-04 -4.7055686213552340e-03 0.0000000000000000e+00  1.4280023534288320e-04 -4.7055319783885991e-03 0.0000000000000000e+00  9.6167976934885611e-05 -4.7054927221749157e-03 0.0000000000000000e+00  4.9536555533576180e-05 -4.7054505279756189e-03 0.0000000000000000e+00  2.9055614352513208e-06 -4.7054051980908486e-03 0.0000000000000000e+00  -4.3725432822399563e-05 -4.7053566662332187e-03 0.0000000000000000e+00  -9.0356854730431100e-05 -4.7053049988839257e-03 0.0000000000000000e+00  -1.3698911407655144e-04 -4.7052503939697329e-03 0.0000000000000000e+00  -1.8362258420118868e-04 -4.7051931765232525e-03 0.0000000000000000e+00  -2.3025758131449783e-04 -4.7051337902835307e-03 0.0000000000000000e+00  -2.7689434110734492e-04 -4.7050727833782714e-03 0.0000000000000000e+00  -3.2353299211965256e-04 -4.7050107851346907e-03 0.0000000000000000e+00  -3.7017352562703605e-04 -4.7049484692680867e-03 0.0000000000000000e+00  -4.1681576231909496e-04 -4.7048864949421976e-03 0.0000000000000000e+00  -4.6345931858261086e-04 -4.7048254076518621e-03 0.0000000000000000e+00  -5.1010359333216501e-04 -4.7047654583058963e-03 0.0000000000000000e+00  -5.5681439773888652e-04 -4.6070954071031527e-03 0.0000000000000000e+00  -5.5687981027479326e-04 -4.5094843984674112e-03 0.0000000000000000e+00  -5.5694374841429588e-04 -4.4118722528854546e-03 0.0000000000000000e+00  -5.5700662340052887e-04 -4.3142581112358795e-03 0.0000000000000000e+00  -5.5706921907193528e-04 -4.2166413279569655e-03 0.0000000000000000e+00  -5.5713252424698708e-04 -4.1190214147933781e-03 0.0000000000000000e+00  -5.5719768541420082e-04 -4.0213979962782790e-03 0.0000000000000000e+00  -5.5726600876223882e-04 -3.9237707894270646e-03 0.0000000000000000e+00  -5.5733898491886955e-04 -3.8261396052003873e-03 0.0000000000000000e+00  -5.5741832472089498e-04 -3.7285043700425627e-03 0.0000000000000000e+00  -5.5750599972918184e-04 -3.6308651673756663e-03 0.0000000000000000e+00  -5.5760428321332688e-04 -3.5332223003236938e-03 0.0000000000000000e+00  -5.5771578779523342e-04 -3.4355763781434177e-03 0.0000000000000000e+00  -5.5784349553464232e-04 -3.3379284298879412e-03 0.0000000000000000e+00  -5.5799077523356079e-04 -3.2402800497588315e-03 0.0000000000000000e+00  -5.5816138022826364e-04 -3.1426335794268656e-03 0.0000000000000000e+00  -5.5835941794198519e-04 -3.0449923333078521e-03 0.0000000000000000e+00  -5.5858927996124067e-04 -2.9473608733305715e-03 0.0000000000000000e+00  -5.5885551832365670e-04 -2.8497453400625609e-03 0.0000000000000000e+00  -5.5916265000377258e-04 -2.7521538470691286e-03 0.0000000000000000e+00  -5.5951486719043393e-04 -2.6545969449395454e-03 0.0000000000000000e+00  -5.5991562580339448e-04 -2.5570881603495729e-03 0.0000000000000000e+00  -5.6036707874614240e-04 -2.4596446136231831e-03 0.0000000000000000e+00  -5.6086931360256533e-04 -2.3622877152389425e-03 0.0000000000000000e+00  -5.6141934684705407e-04 -2.2650439372715074e-03 0.0000000000000000e+00  -5.6200981817004737e-04 -2.1679456494786324e-03 0.0000000000000000e+00  -5.6262731927169307e-04 -2.0710320011888693e-03 0.0000000000000000e+00  -5.6325028151013156e-04 -1.9743498188003151e-03 0.0000000000000000e+00  -5.6384633615675674e-04 -1.8779544739885767e-03 0.0000000000000000e+00  -5.6436904966984083e-04 -1.7819106589953009e-03 0.0000000000000000e+00  -5.6475392408484497e-04 -1.6862929818897531e-03 0.0000000000000000e+00  -5.6491353859191272e-04 -1.5911862655739481e-03 0.0000000000000000e+00  -5.6473169096886129e-04 -1.4966853983371831e-03 0.0000000000000000e+00  -5.6405637343237092e-04 -1.4028945391055517e-03 0.0000000000000000e+00  -5.6269138037748031e-04 -1.3099254239474394e-03 0.0000000000000000e+00  -5.6038628394406960e-04 -1.2178944458210070e-03 0.0000000000000000e+00  -5.5682440685056445e-04 -1.1269180751633931e-03 0.0000000000000000e+00  -5.5160823368918528e-04 -1.0371060312980847e-03 0.0000000000000000e+00  -5.4424136498470099e-04 -9.4855135675375138e-04 0.0000000000000000e+00  -5.3410550727467333e-04 -8.6131609223017423e-04 0.0000000000000000e+00  -5.2042986058598874e-04 -7.7541039551080383e-04 0.0000000000000000e+00  -5.0224809888982109e-04 -6.9076123682908490e-04 0.0000000000000000e+00  -4.7833382849474059e-04 -6.0716313925265853e-04 0.0000000000000000e+00  -4.4709656398713538e-04 -5.2419526004358972e-04 0.0000000000000000e+00  -4.0640060486189908e-04 -4.4107293624682365e-04 0.0000000000000000e+00  -3.5319777092583096e-04 -3.5637832131338928e-04 0.0000000000000000e+00  -2.8239630989970716e-04 -2.6738802374891361e-04 0.0000000000000000e+00  -1.8194698952413830e-04 -1.6483515571149229e-04 0.0000000000000000e+00  -1.2801724923673232e-04 -9.8255471670308307e-05 0.0000000000000000e+00  -2.3396794219923984e-04 -2.0723519169317176e-04 0.0000000000000000e+00  -3.0917686995163800e-04 -3.0797335391491209e-04 0.0000000000000000e+00  -3.6434692616797411e-04 -4.0241224317080407e-04 0.0000000000000000e+00  -4.0581885929875190e-04 -4.9343443355164636e-04 0.0000000000000000e+00  -4.3722728105255633e-04 -5.8281656946671228e-04 0.0000000000000000e+00  -4.6097641609478806e-04 -6.7161951684363357e-04 0.0000000000000000e+00  -4.7880406452633603e-04 -7.6048505916434560e-04 0.0000000000000000e+00  -4.9202619064300248e-04 -8.4979599065147511e-04 0.0000000000000000e+00  -5.0166600890484887e-04 -9.3976873704475715e-04 0.0000000000000000e+00  -5.0853096613560119e-04 -1.0305106092555959e-03 0.0000000000000000e+00  -5.1326274388186139e-04 -1.1220569234565640e-03 0.0000000000000000e+00  -5.1637211858013461e-04 -1.2143959695920829e-03 0.0000000000000000e+00  -5.1826473035711533e-04 -1.3074862492516630e-03 0.0000000000000000e+00  -5.1926101749340280e-04 -1.4012685530314906e-03 0.0000000000000000e+00  -5.1961214839748996e-04 -1.4956744519048985e-03 0.0000000000000000e+00  -5.1951302777882718e-04 -1.5906322207176382e-03 0.0000000000000000e+00  -5.1911304299491489e-04 -1.6860708867711463e-03 0.0000000000000000e+00  -5.1852498899490097e-04 -1.7819228965066190e-03 0.0000000000000000e+00  -5.1783248194361595e-04 -1.8781257632973776e-03 0.0000000000000000e+00  -5.1709609726882243e-04 -1.9746229699424732e-03 0.0000000000000000e+00  -5.1635842273103395e-04 -2.0713643347584419e-03 0.0000000000000000e+00  -5.1564818753365512e-04 -2.1683060014319852e-03 0.0000000000000000e+00  -5.1498360707026092e-04 -2.2654101750525448e-03 0.0000000000000000e+00  -5.1437506574633749e-04 -2.3626446970433060e-03 0.0000000000000000e+00  -5.1382724546391787e-04 -2.4599825281918061e-03 0.0000000000000000e+00  -5.1334079392359293e-04 -2.5574011903806964e-03 0.0000000000000000e+00  -5.1291361452825916e-04 -2.6548822030030713e-03 0.0000000000000000e+00  -5.1254184827256659e-04 -2.7524105386835906e-03 0.0000000000000000e+00  -5.1222060757868915e-04 -2.8499741142177988e-03 0.0000000000000000e+00  -5.1194451262230752e-04 -2.9475633260858240e-03 0.0000000000000000e+00  -5.1170807229811220e-04 -3.0451706350703841e-03 0.0000000000000000e+00  -5.1150594459126219e-04 -3.1427902010565173e-03 0.0000000000000000e+00  -5.1133310471284375e-04 -3.2404175667144217e-03 0.0000000000000000e+00  -5.1118494386480991e-04 -3.3380493872217734e-03 0.0000000000000000e+00  -5.1105731684992020e-04 -3.4356832022678315e-03 0.0000000000000000e+00  -5.1094655285410968e-04 -3.5333172461378334e-03 0.0000000000000000e+00  -5.1084944052114611e-04 -3.6309502915758273e-03 0.0000000000000000e+00  -5.1076319583701589e-04 -3.7285815232684896e-03 0.0000000000000000e+00  -5.1068541928265708e-04 -3.8262104371054708e-03 0.0000000000000000e+00  -5.1061404716220876e-04 -3.9238367617933298e-03 0.0000000000000000e+00  -5.1054730098023312e-04 -4.0214603998762677e-03 0.0000000000000000e+00  -5.1048363832727661e-04 -4.1190813856824002e-03 0.0000000000000000e+00  -5.1042170923996369e-04 -4.2166998580532586e-03 0.0000000000000000e+00  -5.1036032421735399e-04 -4.3143160456572951e-03 0.0000000000000000e+00  -5.1029844609427172e-04 -4.4119302615239150e-03 0.0000000000000000e+00  -5.1023523315309259e-04 -4.5095428998864380e-03 0.0000000000000000e+00  -5.1017019481169120e-04 -4.6071544298443836e-03 0.0000000000000000e+00  -9.8537751684026257e-05 -8.0079954921266698e-05 0.0000000000000000e+00  -1.9126563527948771e-04 -1.7512405492586141e-04 0.0000000000000000e+00  -2.6473503198523249e-04 -2.7383326923599490e-04 0.0000000000000000e+00  -3.2039891498313120e-04 -3.7104759794751268e-04 0.0000000000000000e+00  -3.6240386837340212e-04 -4.6615982420689041e-04 0.0000000000000000e+00  -3.9408850698431039e-04 -5.5973129166000707e-04 0.0000000000000000e+00  -4.1788408689784779e-04 -6.5240802193304733e-04 0.0000000000000000e+00  -4.3559384545101043e-04 -7.4470058651746171e-04 0.0000000000000000e+00  -4.4859199920122136e-04 -8.3697070638341642e-04 0.0000000000000000e+00  -4.5794659310211504e-04 -9.2945831467169363e-04 0.0000000000000000e+00  -4.6449767068710353e-04 -1.0223115989421616e-03 0.0000000000000000e+00  -4.6890974451796816e-04 -1.1156121667078073e-03 0.0000000000000000e+00  -4.7170897402833834e-04 -1.2093945708133399e-03 0.0000000000000000e+00  -4.7331082272327921e-04 -1.3036610363498613e-03 0.0000000000000000e+00  -4.7404146751985375e-04 -1.3983924152803882e-03 0.0000000000000000e+00  -4.7415486640712520e-04 -1.4935562461797444e-03 0.0000000000000000e+00  -4.7384663339662626e-04 -1.5891126079431955e-03 0.0000000000000000e+00  -4.7326544532929861e-04 -1.6850182967720882e-03 0.0000000000000000e+00  -4.7252246453792940e-04 -1.7812297327360347e-03 0.0000000000000000e+00  -4.7169912287165855e-04 -1.8777049092314304e-03 0.0000000000000000e+00  -4.7085353064863026e-04 -1.9744046279965986e-03 0.0000000000000000e+00  -4.7002572322679545e-04 -2.0712932079393334e-03 0.0000000000000000e+00  -4.6924192387001181e-04 -2.1683388135932944e-03 0.0000000000000000e+00  -4.6851797665211384e-04 -2.2655135155912865e-03 0.0000000000000000e+00  -4.6786208314210912e-04 -2.3627931690705351e-03 0.0000000000000000e+00  -4.6727695944285809e-04 -2.4601571749354105e-03 0.0000000000000000e+00  -4.6676151481544619e-04 -2.5575881723016065e-03 0.0000000000000000e+00  -4.6631213918825226e-04 -2.6550716973874648e-03 0.0000000000000000e+00  -4.6592367417407819e-04 -2.7525958339307223e-03 0.0000000000000000e+00  -4.6559013076284580e-04 -2.8501508723460934e-03 0.0000000000000000e+00  -4.6530520661260008e-04 -2.9477289888507302e-03 0.0000000000000000e+00  -4.6506264681013391e-04 -3.0453239512984753e-03 0.0000000000000000e+00  -4.6485648407509119e-04 -3.1429308551712137e-03 0.0000000000000000e+00  -4.6468118757532148e-04 -3.2405458908220759e-03 0.0000000000000000e+00  -4.6453174372622190e-04 -3.3381661414415217e-03 0.0000000000000000e+00  -4.6440368747085483e-04 -3.4357894101533564e-03 0.0000000000000000e+00  -4.6429309848450902e-04 -3.5334140740054983e-03 0.0000000000000000e+00  -4.6419657342266048e-04 -3.6310389622892141e-03 0.0000000000000000e+00  -4.6411118264939243e-04 -3.7286632565110538e-03 0.0000000000000000e+00  -4.6403441777474242e-04 -3.8262864093809201e-03 0.0000000000000000e+00  -4.6396413475242588e-04 -3.9239080803046122e-03 0.0000000000000000e+00  -4.6389849625004477e-04 -4.0215280850209034e-03 0.0000000000000000e+00  -4.6383591659561452e-04 -4.1191463571424586e-03 0.0000000000000000e+00  -4.6377501308696948e-04 -4.2167629193977253e-03 0.0000000000000000e+00  -4.6371456939617631e-04 -4.3143778623947167e-03 0.0000000000000000e+00  -4.6365352122329994e-04 -4.4119913295476709e-03 0.0000000000000000e+00  -4.6359098175185028e-04 -4.5096035129066374e-03 0.0000000000000000e+00  -4.6352632634964015e-04 -4.6072146917303502e-03 0.0000000000000000e+00  -7.9941627973715128e-05 -7.3211781059475886e-05 0.0000000000000000e+00  -1.5792250943933307e-04 -1.5896899624208313e-04 0.0000000000000000e+00  -2.2460154552304996e-04 -2.5215065943189020e-04 0.0000000000000000e+00  -2.7775999001143788e-04 -3.4790607106675728e-04 0.0000000000000000e+00  -3.1887592182868298e-04 -4.4392740337690425e-04 0.0000000000000000e+00  -3.5020135555685020e-04 -5.3950853018663067e-04 0.0000000000000000e+00  -3.7378639327852132e-04 -6.3459963243838412e-04 0.0000000000000000e+00  -3.9130900067191576e-04 -7.2935565372837113e-04 0.0000000000000000e+00  -4.0410884408669748e-04 -8.2396234668745492e-04 0.0000000000000000e+00  -4.1325112228959805e-04 -9.1857799477216228e-04 0.0000000000000000e+00  -4.1958285908012772e-04 -1.0133194338873394e-03 0.0000000000000000e+00  -4.2377717098492275e-04 -1.1082640709383976e-03 0.0000000000000000e+00  -4.2636755313381076e-04 -1.2034568594820464e-03 0.0000000000000000e+00  -4.2777475753552662e-04 -1.2989179949358845e-03 0.0000000000000000e+00  -4.2832824751757453e-04 -1.3946498067216782e-03 0.0000000000000000e+00  -4.2828359774048944e-04 -1.4906424145627575e-03 0.0000000000000000e+00  -4.2783676379850016e-04 -1.5868781445047358e-03 0.0000000000000000e+00  -4.2713585534554020e-04 -1.6833348544669285e-03 0.0000000000000000e+00  -4.2629086531677197e-04 -1.7799883593893325e-03 0.0000000000000000e+00  -4.2538169532623822e-04 -1.8768141401871176e-03 0.0000000000000000e+00  -4.2446474623494568e-04 -1.9737884980314995e-03 0.0000000000000000e+00  -4.2357829583692481e-04 -2.0708892885803101e-03 0.0000000000000000e+00  -4.2274685220164079e-04 -2.1680963449718306e-03 0.0000000000000000e+00  -4.2198464548020420e-04 -2.2653916756592337e-03 0.0000000000000000e+00  -4.2129839967229278e-04 -2.3627595040084611e-03 0.0000000000000000e+00  -4.2068950727757614e-04 -2.4601862008758481e-03 0.0000000000000000e+00  -4.2015571311263108e-04 -2.5576601487390617e-03 0.0000000000000000e+00  -4.1969239851206693e-04 -2.6551715659224604e-03 0.0000000000000000e+00  -4.1929354351751349e-04 -2.7527123115945505e-03 0.0000000000000000e+00  -4.1895243244195160e-04 -2.8502756861244053e-03 0.0000000000000000e+00  -4.1866215734891047e-04 -2.9478562367244139e-03 0.0000000000000000e+00  -4.1841596446433858e-04 -3.0454495747912116e-03 0.0000000000000000e+00  -4.1820748028020642e-04 -3.1430522087473405e-03 0.0000000000000000e+00  -4.1803084702986553e-04 -3.2406613942876049e-03 0.0000000000000000e+00  -4.1788079121743199e-04 -3.3382750025873482e-03 0.0000000000000000e+00  -4.1775264386049993e-04 -3.4358914061059179