<?xml version="1.0"?>
<VTKFile type="UnstructuredGrid"  version="0.1"  >
<UnstructuredGrid>
<Piece  NumberOfPoints="3167" NumberOfCells="6038">
<Points>
<DataArray  type="Float64"  NumberOfComponents="3"  format="ascii">2.2 2.9 0  0 2.9 0  2.8 2.9 0  5 2.9 0  5 0 0  0 0 0  2.16271186440678 2.9 0  2.125423728813559 2.9 0  2.088135593220339 2.9 0  2.050847457627119 2.9 0  2.013559322033898 2.9 0  1.976271186440678 2.9 0  1.938983050847457 2.9 0  1.901694915254237 2.9 0  1.864406779661016 2.9 0  1.827118644067796 2.9 0  1.789830508474575 2.9 0  1.752542372881355 2.9 0  1.715254237288134 2.9 0  1.677966101694914 2.9 0  1.640677966101693 2.9 0  1.603389830508473 2.9 0  1.566101694915253 2.9 0  1.528813559322032 2.9 0  1.491525423728812 2.9 0  1.454237288135591 2.9 0  1.416949152542371 2.9 0  1.37966101694915 2.9 0  1.34237288135593 2.9 0  1.305084745762709 2.9 0  1.267796610169489 2.9 0  1.230508474576268 2.9 0  1.193220338983048 2.9 0  1.155932203389827 2.9 0  1.118644067796607 2.9 0  1.081355932203387 2.9 0  1.044067796610166 2.9 0  1.006779661016946 2.9 0  0.9694915254237257 2.9 0  0.9322033898305055 2.9 0  0.8949152542372856 2.9 0  0.8576271186440652 2.9 0  0.820338983050845 2.9 0  0.783050847457625 2.9 0  0.7457627118644048 2.9 0  0.7084745762711844 2.9 0  0.6711864406779642 2.9 0  0.633898305084744 2.9 0  0.5966101694915238 2.9 0  0.5593220338983036 2.9 0  0.5220338983050834 2.9 0  0.4847457627118632 2.9 0  0.447457627118643 2.9 0  0.4101694915254228 2.9 0  0.3728813559322024 2.9 0  0.3355932203389822 2.9 0  0.2983050847457622 2.9 0  0.2610169491525418 2.9 0  0.2237288135593216 2.9 0  0.1864406779661016 2.9 0  0.1491525423728812 2.9 0  0.1118644067796613 2.9 0  0.07457627118644039 2.9 0  0.03728813559321997 2.9 0  2.792405063291139 2.9 0  2.784810126582279 2.9 0  2.777215189873418 2.9 0  2.769620253164557 2.9 0  2.762025316455697 2.9 0  2.754430379746836 2.9 0  2.746835443037975 2.9 0  2.739240506329114 2.9 0  2.731645569620254 2.9 0  2.724050632911393 2.9 0  2.716455696202532 2.9 0  2.708860759493671 2.9 0  2.701265822784811 2.9 0  2.69367088607595 2.9 0  2.686075949367089 2.9 0  2.678481012658228 2.9 0  2.670886075949368 2.9 0  2.663291139240507 2.9 0  2.655696202531646 2.9 0  2.648101265822786 2.9 0  2.640506329113925 2.9 0  2.632911392405064 2.9 0  2.625316455696203 2.9 0  2.617721518987342 2.9 0  2.610126582278482 2.9 0  2.602531645569621 2.9 0  2.59493670886076 2.9 0  2.587341772151899 2.9 0  2.579746835443038 2.9 0  2.572151898734178 2.9 0  2.564556962025317 2.9 0  2.556962025316456 2.9 0  2.549367088607595 2.9 0  2.541772151898734 2.9 0  2.534177215189874 2.9 0  2.526582278481013 2.9 0  2.518987341772152 2.9 0  2.511392405063292 2.9 0  2.503797468354431 2.9 0  2.49620253164557 2.9 0  2.488607594936709 2.9 0  2.481012658227848 2.9 0  2.473417721518988 2.9 0  2.465822784810127 2.9 0  2.458227848101266 2.9 0  2.450632911392406 2.9 0  2.443037974683545 2.9 0  2.435443037974684 2.9 0  2.427848101265823 2.9 0  2.420253164556962 2.9 0  2.412658227848102 2.9 0  2.405063291139241 2.9 0  2.39746835443038 2.9 0  2.389873417721519 2.9 0  2.382278481012658 2.9 0  2.374683544303798 2.9 0  2.367088607594937 2.9 0  2.359493670886076 2.9 0  2.351898734177215 2.9 0  2.344303797468355 2.9 0  2.336708860759494 2.9 0  2.329113924050633 2.9 0  2.321518987341773 2.9 0  2.313924050632912 2.9 0  2.306329113924051 2.9 0  2.29873417721519 2.9 0  2.291139240506329 2.9 0  2.283544303797469 2.9 0  2.275949367088608 2.9 0  2.268354430379747 2.9 0  2.260759493670887 2.9 0  2.253164556962026 2.9 0  2.245569620253165 2.9 0  2.237974683544304 2.9 0  2.230379746835443 2.9 0  2.222784810126583 2.9 0  2.215189873417722 2.9 0  2.207594936708861 2.9 0  4.96271186440678 2.9 0  4.925423728813559 2.9 0  4.888135593220339 2.9 0  4.850847457627118 2.9 0  4.813559322033898 2.9 0  4.776271186440677 2.9 0  4.738983050847457 2.9 0  4.701694915254237 2.9 0  4.664406779661016 2.9 0  4.627118644067796 2.9 0  4.589830508474575 2.9 0  4.552542372881355 2.9 0  4.515254237288135 2.9 0  4.477966101694914 2.9 0  4.440677966101694 2.9 0  4.403389830508473 2.9 0  4.366101694915252 2.9 0  4.328813559322032 2.9 0  4.291525423728811 2.9 0  4.254237288135591 2.9 0  4.21694915254237 2.9 0  4.17966101694915 2.9 0  4.14237288135593 2.9 0  4.105084745762709 2.9 0  4.067796610169489 2.9 0  4.030508474576268 2.9 0  3.993220338983048 2.9 0  3.955932203389827 2.9 0  3.918644067796607 2.9 0  3.881355932203387 2.9 0  3.844067796610166 2.9 0  3.806779661016946 2.9 0  3.769491525423725 2.9 0  3.732203389830505 2.9 0  3.694915254237285 2.9 0  3.657627118644065 2.9 0  3.620338983050845 2.9 0  3.583050847457625 2.9 0  3.545762711864405 2.9 0  3.508474576271184 2.9 0  3.471186440677964 2.9 0  3.433898305084744 2.9 0  3.396610169491524 2.9 0  3.359322033898303 2.9 0  3.322033898305083 2.9 0  3.284745762711863 2.9 0  3.247457627118643 2.9 0  3.210169491525423 2.9 0  3.172881355932202 2.9 0  3.135593220338982 2.9 0  3.098305084745762 2.9 0  3.061016949152542 2.9 0  3.023728813559321 2.9 0  2.986440677966101 2.9 0  2.949152542372881 2.9 0  2.911864406779661 2.9 0  2.87457627118644 2.9 0  2.83728813559322 2.9 0  5 0.1063822624840908 0  5 0.210636879963479 0  5 0.3128064053000104 0  5 0.4129325399736057 0  5 0.5110561519920087 0  5 0.6072172917522097 0  5 0.7014552086337308 0  5 0.7938083672768746 0  5 0.8843144624325437 0  5 0.9730104357533907 0  5 1.059932489779506 0  5 1.145116102681561 0  5 1.228596043237163 0  5 1.310406384819408 0  5 1.39058051967151 0  5 1.46915117219283 0  5 1.546150411689349 0  5 1.621609666350684 0  5 1.695559735780513 0  5 1.76803080351128 0  5 1.839052449831632 0  5 1.908653663284034 0  5 1.976862852540214 0  5 2.043707858250082 0  5 2.109215963970139 0  5 2.173413907547539 0  5 2.236327892447888 0  5 2.29798359737153 0  5 2.358406188061876 0  5 2.417620326899216 0  5 2.475650183036803 0  5 2.532519442044509 0  5 2.588251315695885 0  5 2.642868552136335 0  5 2.696393444001645 0  5 2.748847837883952 0  5 2.800253143882191 0  5 2.85063034388582 0  0.2631578947368421 0 0  0.5263157894736842 0 0  0.7894736842105263 0 0  1.052631578947368 0 0  1.31578947368421 0 0  1.578947368421053 0 0  1.842105263157895 0 0  2.105263157894737 0 0  2.368421052631579 0 0  2.631578947368421 0 0  2.894736842105263 0 0  3.157894736842105 0 0  3.421052631578947 0 0  3.684210526315789 0 0  3.947368421052632 0 0  4.210526315789473 0 0  4.473684210526315 0 0  4.736842105263158 0 0  0 2.850203682350569 0  0 2.799411438503675 0  0 2.747603349778291 0  0 2.694759099502208 0  0 2.640857964382145 0  0 2.58587880633613 0  0 2.52980006535898 0  0 2.472599749459174 0  0 2.414255427218689 0  0 2.35474421880616 0  0 2.294042786119219 0  0 2.232127324764723 0  0 2.1689735539481 0  0 2.104556707683346 0  0 2.038851524813415 0  0 1.971832238155654 0  0 1.903472565412125 0  0 1.83374569926617 0  0 1.762624296208474 0  0 1.690080464918761 0  0 1.616085756774205 0  0 1.540611154706337 0  0 1.463627060685571 0  0 1.385103284916206 0  0 1.305009033716617 0  0 1.223312897337225 0  0 1.139982838163732 0  0 1.054986177579937 0  0 0.9682895835804808 0  0 0.8798590579197967 0  0 0.789659921841535 0  0 0.6976568029903634 0  0 0.6038136217958807 0  0 0.508093576867624 0  0 0.4104591310957497 0  0 0.31087199635222 0  0 0.2092931188294389 0  0 0.1056826638508546 0  1.434832105734982 2.866945754976478 0  1.737156300412976 2.8700394402447 0  2.032203389830508 2.867707527316512 0  2.332911392405064 2.893422591869991 0  2.469810913221006 2.891944186617815 0  2.606221408801046 2.892519154968786 0  2.255455320556353 2.892068684938936 0  2.538247299178607 2.894964578175289 0  2.674683544303798 2.893422591869991 0  2.40126582278481 2.893422591869991 0  3.566125247274844 2.86502933617869 0  3.266101694915253 2.867707527316512 0  2.967796610169491 2.867707527316512 0  1.174288529771947 2.870795313883199 0  3.825423728813556 2.867707527316512 0  2.727766680241741 2.892655387639323 0  0.06601655192030442 1.502119107695954 0  4.933983535518289 1.50765079194109 0  0.9532124728076634 2.868722489784116 0  4.048935912505472 2.870640982963028 0  0.05930163367361851 1.866907161167415 0  4.943402512617702 1.871280731227115 0  4.271733869970415 2.865208656206698 0  0.724942092071192 2.863922936166216 0  0.05494499779911566 2.196469063120751 0  4.947228695435926 2.208030108416282 0  0.5406152149451962 2.866493807374646 0  4.459322033898304 2.868847558171501 0  2.18135593220339 2.875780645487384 0  2.81702715648046 2.876587550622478 0  4.928427208334964 1.186856072959362 0  0.07189226971603357 1.174626666111664 0  4.610299014391064 2.867003104061287 0  0.3897270066746503 2.869433095314649 0  1.5811324999839 2.868247328613121 0  1.887637879307645 2.869235851843492 0  3.413449426409203 2.867372048026557 0  3.116721298784139 2.865731235545648 0  2.644303797468355 2.893422591869991 0  2.370983221771223 2.892719513366117 0  2.302531645569621 2.89333678739629 0  2.758987341772152 2.894242393896969 0  0.04979653335696588 2.443411216910279 0  4.950470983481301 2.446866954190454 0  2.482937483056625 0.2513241088166693 0  1.70712950486069 0.1999998660928157 0  3.285846579639133 0.2292006256069719 0  4.907807122450741 0.8340823629079156 0  4.757627118644067 2.867707527316512 0  0.07734891246767406 0.8347594898806658 0  0.2390604736599493 2.861365431805748 0  0.8363213714273008 2.863896768913622 0  4.16086561018973 2.868916854014843 0  1.28254933196979 2.86761095296154 0  1.065094818264994 2.861284686078544 0  3.938181277358471 2.868651344087338 0  3.711492629398847 2.863574306894209 0  4.913693619806458 0.5579891341027028 0  0.08208328472281323 0.5559535993317524 0  2.696596932509445 2.892010483912606 0  0.04706410140274642 2.613055974506517 0  4.955577063959472 2.616518038416838 0  2.234177215189874 2.893422591869991 0  2.279795840517476 2.894038618939426 0  0.911735788765236 0.2117925286661764 0  4.055948041976698 0.2039101059740411 0  4.872119713756579 2.86763292637659 0  2.78011387899257 2.891535929611774 0  0.1327442468251299 2.85732490707
[...]
<PointData  Vectors="displacement"> 
<DataArray  type="Float64"  Name="displacement"  NumberOfComponents="3" format="ascii">7.9943733928614148e-05 -4.9656313305072809e-04 0.0000000000000000e+00  0.0000000000000000e+00 2.9460403884418622e-06 0.0000000000000000e+00  -8.0086267474383833e-05 -4.9658042715653870e-04 0.0000000000000000e+00  0.0000000000000000e+00 2.9460003199277224e-06 0.0000000000000000e+00  0.0000000000000000e+00 0.0000000000000000e+00 0.0000000000000000e+00  0.0000000000000000e+00 0.0000000000000000e+00 0.0000000000000000e+00  7.9316598309209411e-05 -4.3653018271190542e-04 0.0000000000000000e+00  7.7622178398909479e-05 -3.9686862071550681e-04 0.0000000000000000e+00  7.5970195330269936e-05 -3.6498681134263395e-04 0.0000000000000000e+00  7.4337201646432709e-05 -3.3780270032888272e-04 0.0000000000000000e+00  7.2707812073440834e-05 -3.1395432229781189e-04 0.0000000000000000e+00  7.1082734240908492e-05 -2.9265896450681876e-04 0.0000000000000000e+00  6.9464876559091965e-05 -2.7340373156089961e-04 0.0000000000000000e+00  6.7853781616591155e-05 -2.5583015015591837e-04 0.0000000000000000e+00  6.6252035351467063e-05 -2.3967206140186443e-04 0.0000000000000000e+00  6.4659498528503030e-05 -2.2473081248579284e-04 0.0000000000000000e+00  6.3076234038368293e-05 -2.1085258050441188e-04 0.0000000000000000e+00  6.1502405736614819e-05 -1.9791099514624859e-04 0.0000000000000000e+00  5.9939131843298516e-05 -1.8580275808926147e-04 0.0000000000000000e+00  5.8386596390877052e-05 -1.7444331615111723e-04 0.0000000000000000e+00  5.6845029614277165e-05 -1.6376214812245077e-04 0.0000000000000000e+00  5.5314780637055546e-05 -1.5369887329022506e-04 0.0000000000000000e+00  5.3796219689188172e-05 -1.4420172349198030e-04 0.0000000000000000e+00  5.2289073174214450e-05 -1.3522577547508114e-04 0.0000000000000000e+00  5.0793963917424422e-05 -1.2673181757045688e-04 0.0000000000000000e+00  4.9311135098229271e-05 -1.1868558047294900e-04 0.0000000000000000e+00  4.7840679105021372e-05 -1.1105691973327460e-04 0.0000000000000000e+00  4.6382655372737108e-05 -1.0381906470270407e-04 0.0000000000000000e+00  4.4937322495601757e-05 -9.6947609182533213e-05 0.0000000000000000e+00  4.3504482733341604e-05 -9.0421223877359976e-05 0.0000000000000000e+00  4.2084383121096472e-05 -8.4220714032267859e-05 0.0000000000000000e+00  4.0677055026644411e-05 -7.8328419961502937e-05 0.0000000000000000e+00  3.9282498270581385e-05 -7.2728207429206040e-05 0.0000000000000000e+00  3.7900478337364272e-05 -6.7405911949650245e-05 0.0000000000000000e+00  3.6531364948900120e-05 -6.2348279924462360e-05 0.0000000000000000e+00  3.5174424788122008e-05 -5.7542947565839126e-05 0.0000000000000000e+00  3.3830103475384680e-05 -5.2978976565388681e-05 0.0000000000000000e+00  3.2498141062448119e-05 -4.8646358721000327e-05 0.0000000000000000e+00  3.1178123438582203e-05 -4.4535844808043799e-05 0.0000000000000000e+00  2.9870058399062221e-05 -4.0638421432605874e-05 0.0000000000000000e+00  2.8573664523450751e-05 -3.6946386845663963e-05 0.0000000000000000e+00  2.7288738452433422e-05 -3.3452298340050395e-05 0.0000000000000000e+00  2.6014943919724002e-05 -3.0149303531305364e-05 0.0000000000000000e+00  2.4752024228227971e-05 -2.7031243651543016e-05 0.0000000000000000e+00  2.3499650631167097e-05 -2.4092218064723023e-05 0.0000000000000000e+00  2.2257474936212375e-05 -2.1326861535601454e-05 0.0000000000000000e+00  2.1025136774228088e-05 -1.8730209441238944e-05 0.0000000000000000e+00  1.9802258441731358e-05 -1.6297651837603472e-05 0.0000000000000000e+00  1.8588383346579875e-05 -1.4024925447290683e-05 0.0000000000000000e+00  1.7383139744473276e-05 -1.1908158751583661e-05 0.0000000000000000e+00  1.6186057035793037e-05 -9.9437076809369727e-06 0.0000000000000000e+00  1.4996683797253299e-05 -8.1282908795277068e-06 0.0000000000000000e+00  1.3814532745636690e-05 -6.4588789746067859e-06 0.0000000000000000e+00  1.2639114409299297e-05 -4.9327335418807294e-06 0.0000000000000000e+00  1.1469910904505284e-05 -3.5473428116747857e-06 0.0000000000000000e+00  1.0306400754670566e-05 -2.3004753363347535e-06 0.0000000000000000e+00  9.1481039514267337e-06 -1.1901340713293189e-06 0.0000000000000000e+00  7.9943492931328832e-06 -2.1450027093579421e-07 0.0000000000000000e+00  6.8446764882397875e-06 6.2797128310971636e-07 0.0000000000000000e+00  5.6985173943105663e-06 1.3385758374114023e-06 0.0000000000000000e+00  4.5553295353822638e-06 1.9184599697496389e-06 0.0000000000000000e+00  3.4144037874606243e-06 2.3685506060441862e-06 0.0000000000000000e+00  2.2752747544452714e-06 2.6895468982437057e-06 0.0000000000000000e+00  1.1373356362329465e-06 2.8819425327597496e-06 0.0000000000000000e+00  -7.9077789718061021e-05 -5.1486415502711069e-04 0.0000000000000000e+00  -7.6938821232302093e-05 -5.2804017034118269e-04 0.0000000000000000e+00  -7.4848846456256120e-05 -5.3929551167841098e-04 0.0000000000000000e+00  -7.2769936591020730e-05 -5.4935046040844205e-04 0.0000000000000000e+00  -7.0712015469434337e-05 -5.5852525523862162e-04 0.0000000000000000e+00  -6.8656279248915022e-05 -5.6699066054055906e-04 0.0000000000000000e+00  -6.6602216042713542e-05 -5.7486215038162294e-04 0.0000000000000000e+00  -6.4549753315603576e-05 -5.8221653298504660e-04 0.0000000000000000e+00  -6.2497068347506469e-05 -5.8911255742420102e-04 0.0000000000000000e+00  -6.0445281914516811e-05 -5.9559655267407490e-04 0.0000000000000000e+00  -5.8394344363743776e-05 -6.0170490862057678e-04 0.0000000000000000e+00  -5.6343577905827121e-05 -6.0746702236249433e-04 0.0000000000000000e+00  -5.4293069232529184e-05 -6.1290764187133364e-04 0.0000000000000000e+00  -5.2242913795075665e-05 -6.1804688027389699e-04 0.0000000000000000e+00  -5.0192696371889538e-05 -6.2290195563412070e-04 0.0000000000000000e+00  -4.8142845911000420e-05 -6.2748836641146469e-04 0.0000000000000000e+00  -4.6093171538916590e-05 -6.3181891225965825e-04 0.0000000000000000e+00  -4.4043668344111132e-05 -6.3590480936691026e-04 0.0000000000000000e+00  -4.1994301660309076e-05 -6.3975603723218381e-04 0.0000000000000000e+00  -3.9945055120659662e-05 -6.4338132440536775e-04 0.0000000000000000e+00  -3.7895913699955542e-05 -6.4678844602129523e-04 0.0000000000000000e+00  -3.5846890035267873e-05 -6.4998430275361042e-04 0.0000000000000000e+00  -3.3797962646910680e-05 -6.5297501917550762e-04 0.0000000000000000e+00  -3.1749132933208275e-05 -6.5576612183290077e-04 0.0000000000000000e+00  -2.9700387322523301e-05 -6.5836253700076342e-04 0.0000000000000000e+00  -2.7651723129950268e-05 -6.6076861961629864e-04 0.0000000000000000e+00  -2.5603180272832366e-05 -6.6298829808354698e-04 0.0000000000000000e+00  -2.3554645885783684e-05 -6.6502505026064934e-04 0.0000000000000000e+00  -2.1506181433559183e-05 -6.6688204126631419e-04 0.0000000000000000e+00  -1.9457788975567265e-05 -6.6856202525436841e-04 0.0000000000000000e+00  -1.7409460300086179e-05 -6.7006746268132250e-04 0.0000000000000000e+00  -1.5361165545133409e-05 -6.7140048525614793e-04 0.0000000000000000e+00  -1.3312904964014970e-05 -6.7256296703244612e-04 0.0000000000000000e+00  -1.1264694978933417e-05 -6.7355650559140236e-04 0.0000000000000000e+00  -9.2164872651598170e-06 -6.7438241414831466e-04 0.0000000000000000e+00  -7.1683543855323126e-06 -6.7504185881334545e-04 0.0000000000000000e+00  -5.1201949561489605e-06 -6.7553568627712747e-04 0.0000000000000000e+00  -3.0720543757230383e-06 -6.7586453425114385e-04 0.0000000000000000e+00  -1.0239343616262592e-06 -6.7602885236590189e-04 0.0000000000000000e+00  1.0241857896865550e-06 -6.7602884862716752e-04 0.0000000000000000e+00  3.0723086204618800e-06 -6.7586452082094570e-04 0.0000000000000000e+00  5.1204405015501763e-06 -6.7553565667214646e-04 0.0000000000000000e+00  7.1685850545348052e-06 -6.7504183259266108e-04 0.0000000000000000e+00  9.2167391208166031e-06 -6.7438238438944753e-04 0.0000000000000000e+00  1.1264934995402348e-05 -6.7355643555712223e-04 0.0000000000000000e+00  1.3313148900070208e-05 -6.7256290267980929e-04 0.0000000000000000e+00  1.5361401296080558e-05 -6.7140042586610741e-04 0.0000000000000000e+00  1.7409695151122485e-05 -6.7006739647875997e-04 0.0000000000000000e+00  1.9458044248124715e-05 -6.6856195697346317e-04 0.0000000000000000e+00  2.1506429924620854e-05 -6.6688195130887274e-04 0.0000000000000000e+00  2.3554885679015044e-05 -6.6502496548578481e-04 0.0000000000000000e+00  2.5603428637681961e-05 -6.6298818818823300e-04 0.0000000000000000e+00  2.7651996948461153e-05 -6.6076850081781555e-04 0.0000000000000000e+00  2.9700661414383156e-05 -6.5836244131039546e-04 0.0000000000000000e+00  3.1749407824924436e-05 -6.5576604797135292e-04 0.0000000000000000e+00  3.3798239138611010e-05 -6.5297494373433912e-04 0.0000000000000000e+00  3.5847159080892872e-05 -6.4998420767478193e-04 0.0000000000000000e+00  3.7896234692808920e-05 -6.4678837261557764e-04 0.0000000000000000e+00  3.9945439153293358e-05 -6.4338116500810879e-04 0.0000000000000000e+00  4.1994725470009605e-05 -6.3975585787342626e-04 0.0000000000000000e+00  4.4044120396241981e-05 -6.3590461918586498e-04 0.0000000000000000e+00  4.6093680286734016e-05 -6.3181868431065721e-04 0.0000000000000000e+00  4.8143403380499227e-05 -6.2748812806964912e-04 0.0000000000000000e+00  5.0193315652642464e-05 -6.2290161705096927e-04 0.0000000000000000e+00  5.2243431052283719e-05 -6.1804627407030857e-04 0.0000000000000000e+00  5.4293821502299194e-05 -6.1290702029932840e-04 0.0000000000000000e+00  5.6344318946333965e-05 -6.0746644371544966e-04 0.0000000000000000e+00  5.8395206020365697e-05 -6.0170406357690481e-04 0.0000000000000000e+00  6.0446670743404581e-05 -5.9559596597973021e-04 0.0000000000000000e+00  6.2498146705474859e-05 -5.8911179007333425e-04 0.0000000000000000e+00  6.4549974041099400e-05 -5.8221500501338171e-04 0.0000000000000000e+00  6.6603326921083723e-05 -5.7486100102588258e-04 0.0000000000000000e+00  6.8658310213812895e-05 -5.6699102981320007e-04 0.0000000000000000e+00  7.0713233633676559e-05 -5.5852287262822921e-04 0.0000000000000000e+00  7.2769509883633654e-05 -5.4934481368103239e-04 0.0000000000000000e+00  7.4823044643509130e-05 -5.3929363532388783e-04 0.0000000000000000e+00  7.6952130808977031e-05 -5.2808164309259221e-04 0.0000000000000000e+00  7.9052625488169683e-05 -5.1482876084445032e-04 0.0000000000000000e+00  -1.1373510113222685e-06 2.8819113881300692e-06 0.0000000000000000e+00  -2.2752928618123028e-06 2.6895126573046345e-06 0.0000000000000000e+00  -3.4144090440749083e-06 2.3685252100188787e-06 0.0000000000000000e+00  -4.5552922932214061e-06 1.9184354397243966e-06 0.0000000000000000e+00  -5.6985179187351879e-06 1.3385504354161895e-06 0.0000000000000000e+00  -6.8447086331070626e-06 6.2792151330181378e-07 0.0000000000000000e+00  -7.9943493356207555e-06 -2.1452095908245122e-07 0.0000000000000000e+00  -9.1480736257506119e-06 -1.1901459508568004e-06 0.0000000000000000e+00  -1.0306408965477461e-05 -2.3005027455081333e-06 0.0000000000000000e+00  -1.1469915177916819e-05 -3.5473801662127234e-06 0.0000000000000000e+00  -1.2639113158217385e-05 -4.9327717763049570e-06 0.0000000000000000e+00  -1.3814541153236375e-05 -6.4589248687223007e-06 0.0000000000000000e+00  -1.4996690272579393e-05 -8.1283361671266375e-06 0.0000000000000000e+00  -1.6186059611212346e-05 -9.9437534509147667e-06 0.0000000000000000e+00  -1.7383135448242479e-05 -1.1908196555798361e-05 0.0000000000000000e+00  -1.8588380537171654e-05 -1.4024969409527357e-05 0.0000000000000000e+00  -1.9802236684156762e-05 -1.6297671274683991e-05 0.0000000000000000e+00  -2.1025133857127957e-05 -1.8730254333781857e-05 0.0000000000000000e+00  -2.2257463109677167e-05 -2.1326923761371299e-05 0.0000000000000000e+00  -2.3499632458942524e-05 -2.4092306351060438e-05 0.0000000000000000e+00  -2.4752082427493392e-05 -2.7031346847546712e-05 0.0000000000000000e+00  -2.6014922238816166e-05 -3.0149369599391503e-05 0.0000000000000000e+00  -2.7288708636127466e-05 -3.3452310560044956e-05 0.0000000000000000e+00  -2.8573649009917673e-05 -3.6946419578364696e-05 0.0000000000000000e+00  -2.9870028346405173e-05 -4.0638484244255832e-05 0.0000000000000000e+00  -3.1178083319978208e-05 -4.4535856797501850e-05 0.0000000000000000e+00  -3.2498043049783559e-05 -4.8646505078045524e-05 0.0000000000000000e+00  -3.3830101611428486e-05 -5.2979059041978272e-05 0.0000000000000000e+00  -3.5174453320714400e-05 -5.7542902743697150e-05 0.0000000000000000e+00  -3.6531216791109227e-05 -6.2348164558668985e-05 0.0000000000000000e+00  -3.7900498589164746e-05 -6.7405922230214486e-05 0.0000000000000000e+00  -3.9282382627376934e-05 -7.2728212054327926e-05 0.0000000000000000e+00  -4.0677258660159782e-05 -7.8328390089701236e-05 0.0000000000000000e+00  -4.2084354081173621e-05 -8.4220808400653184e-05 0.0000000000000000e+00  -4.3504425696073548e-05 -9.0421444517303480e-05 0.0000000000000000e+00  -4.4937260475406645e-05 -9.6947695309492008e-05 0.0000000000000000e+00  -4.6382732306574549e-05 -1.0381899978149410e-04 0.0000000000000000e+00  -4.7840662837408031e-05 -1.1105691595454817e-04 0.0000000000000000e+00  -4.9311081929903843e-05 -1.1868553847271767e-04 0.0000000000000000e+00  -5.0793927062515499e-05 -1.2673171255054680e-04 0.0000000000000000e+00  -5.2288973163284303e-05 -1.3522569150876290e-04 0.0000000000000000e+00  -5.3795943639120716e-05 -1.4420185350977015e-04 0.0000000000000000e+00  -5.5314926594797892e-05 -1.5369916819485494e-04 0.0000000000000000e+00  -5.6845332998134000e-05 -1.6376238842610543e-04 0.0000000000000000e+00  -5.8386663727600055e-05 -1.7444319714019670e-04 0.0000000000000000e+00  -5.9938894240292527e-05 -1.8580242238812081e-04 0.0000000000000000e+00  -6.1502167318730114e-05 -1.9791074875398054e-04 0.0000000000000000e+00  -6.3075740257626805e-05 -2.1085323099827134e-04 0.0000000000000000e+00  -6.4659412679712484e-05 -2.2473189248928198e-04 0.0000000000000000e+00  -6.6252696609374732e-05 -2.3967128077940797e-04 0.0000000000000000e+00  -6.7854067935133733e-05 -2.5583031944209964e-04 0.0000000000000000e+00  -6.9466021327113607e-05 -2.7340282132335997e-04 0.0000000000000000e+00  -7.1082271804543941e-05 -2.9265986301588073e-04 0.0000000000000000e+00  -7.2705854156231668e-05 -3.1395690525829611e-04 0.0000000000000000e+00  -7.4335115654758406e-05 -3.3780227947060015e-04 0.0000000000000000e+00  -7.5981786537388174e-05 -3.6498626336738094e-04 0.0000000000000000e+00  -7.7592754459614220e-05 -3.9688940349343565e-04 0.0000000000000000e+00  -7.9339674372106274e-05 -4.3649201811147073e-04 0.0000000000000000e+00  0.0000000000000000e+00 -3.4861292014032367e-06 0.0000000000000000e+00  0.0000000000000000e+00 -6.3260374556299029e-06 0.0000000000000000e+00  0.0000000000000000e+00 -8.6109166539371820e-06 0.0000000000000000e+00  0.0000000000000000e+00 -1.0418615150726807e-05 0.0000000000000000e+00  0.0000000000000000e+00 -1.1806935406023584e-05 0.0000000000000000e+00  0.0000000000000000e+00 -1.2824474057387959e-05 0.0000000000000000e+00  0.0000000000000000e+00 -1.3511422790178188e-05 0.0000000000000000e+00  0.0000000000000000e+00 -1.3901927748758867e-05 0.0000000000000000e+00  0.0000000000000000e+00 -1.4022859817874818e-05 0.0000000000000000e+00  0.0000000000000000e+00 -1.3902623945243113e-05 0.0000000000000000e+00  0.0000000000000000e+00 -1.3564036126470172e-05 0.0000000000000000e+00  0.0000000000000000e+00 -1.3029817018574514e-05 0.0000000000000000e+00  0.0000000000000000e+00 -1.2322864166825285e-05 0.0000000000000000e+00  0.0000000000000000e+00 -1.1465180817045223e-05 0.0000000000000000e+00  0.0000000000000000e+00 -1.0478957354240446e-05 0.0000000000000000e+00  0.0000000000000000e+00 -9.3867052479709737e-06 0.0000000000000000e+00  0.0000000000000000e+00 -8.2114152559505122e-06 0.0000000000000000e+00  0.0000000000000000e+00 -6.9757665684149454e-06 0.0000000000000000e+00  0.0000000000000000e+00 -5.7024618731015500e-06 0.0000000000000000e+00  0.0000000000000000e+00 -4.4139829672725957e-06 0.0000000000000000e+00  0.0000000000000000e+00 -3.1322660799314783e-06 0.0000000000000000e+00  0.0000000000000000e+00 -1.8782477948648689e-06 0.0000000000000000e+00  0.0000000000000000e+00 -6.7211828148950089e-07 0.0000000000000000e+00  0.0000000000000000e+00 4.6810489973234728e-07 0.0000000000000000e+00  0.0000000000000000e+00 1.5251823606735070e-06 0.0000000000000000e+00  0.0000000000000000e+00 2.4837418895573810e-06 0.0000000000000000e+00  0.0000000000000000e+00 3.3312311980704590e-06 0.0000000000000000e+00  0.0000000000000000e+00 4.0562755115826225e-06 0.0000000000000000e+00  0.0000000000000000e+00 4.6501866568912344e-06 0.0000000000000000e+00  0.0000000000000000e+00 5.1064269461023953e-06 0.0000000000000000e+00  0.0000000000000000e+00 5.4205950605691067e-06 0.0000000000000000e+00  0.0000000000000000e+00 5.5905414110478341e-06 0.0000000000000000e+00  0.0000000000000000e+00 5.6161108391609883e-06 0.0000000000000000e+00  0.0000000000000000e+00 5.4989963957067939e-06 0.0000000000000000e+00  0.0000000000000000e+00 5.2426906124024440e-06 0.0000000000000000e+00  0.0000000000000000e+00 4.8522607798554586e-06 0.0000000000000000e+00  0.0000000000000000e+00 4.3341394356334660e-06 0.0000000000000000e+00  0.0000000000000000e+00 3.6958813492024062e-06 0.0000000000000000e+00  0.0000000000000000e+00 0.0000000000000000e+00 0.0000000000000000e+00  0.0000000000000000e+00 0.0000000000000000e+00 0.0000000000000000e+00  0.0000000000000000e+00 0.0000000000000000e+00 0.0000000000000000e+00  0.0000000000000000e+00 0.0000000000000000e+00 0.0000000000000000e+00  0.0000000000000000e+00 0.0000000000000000e+00 0.0000000000000000e+00  0.0000000000000000e+00 0.0000000000000000e+00 0.0000000000000000e+00  0.0000000000000000e+00 0.0000000000000000e+00 0.0000000000000000e+00  0.0000000000000000e+00 0.0000000000000000e+00 0.0000000000000000e+00  0.0000000000000000e+00 0.0000000000000000e+00 0.0000000000000000e+00  0.0000000000000000e+00 0.0000000000000000e+00 0.0000000000000000e+00  0.0000000000000000e+00 0.0000000000000000e+00 0.0000000000000000e+00  0.0000000000000000e+00 0.0000000000000000e+00 0.0000000000000000e+00  0.0000000000000000e+00 0.0000000000000000e+00 0.0000000000000000e+00  0.0000000000000000e+00 0.0000000000000000e+00 0.0000000000000000e+00  0.0000000000000000e+00 0.0000000000000000e+00 0.0000000000000000e+00  0.0000000000000000e+00 0.0000000000000000e+00 0.0000000000000000e+00  0.0000000000000000e+00 0.0000000000000000e+00 0.0000000000000000e+00  0.0000000000000000e+00 0.0000000000000000e+00 0.0000000000000000e+00  0.0000000000000000e+00 3.7018538379212523e-06 0.0000000000000000e+00  0.0000000000000000e+00 4.3437329915439759e-06 0.0000000000000000e+00  0.0000000000000000e+00 4.8631659959949112e-06 0.0000000000000000e+00  0.0000000000000000e+00 5.2526654670088336e-06 0.0000000000000000e+00  0.0000000000000000e+00 5.5058967128572507e-06 0.0000000000000000e+00  0.0000000000000000e+00 5.6179937365283762e-06 0.0000000000000000e+00  0.0000000000000000e+00 5.5857150110743687e-06 0.0000000000000000e+00  0.0000000000000000e+00 5.4075901619812698e-06 0.0000000000000000e+00  0.0000000000000000e+00 5.0840763343413027e-06 0.0000000000000000e+00  0.0000000000000000e+00 4.6177962064390588e-06 0.0000000000000000e+00  0.0000000000000000e+00 4.0132995108848474e-06 0.0000000000000000e+00  0.0000000000000000e+00 3.2779750014921249e-06 0.0000000000000000e+00  0.0000000000000000e+00 2.4204362147461628e-06 0.0000000000000000e+00  0.0000000000000000e+00 1.4523758694477148e-06 0.0000000000000000e+00  0.0000000000000000e+00 3.8706847735391257e-07 0.0000000000000000e+00  0.0000000000000000e+00 -7.5974362621100170e-07 0.0000000000000000e+00  0.0000000000000000e+00 -1.9710039098415788e-06 0.0000000000000000e+00  0.0000000000000000e+00 -3.2282612236220450e-06 0.0000000000000000e+00  0.0000000000000000e+00 -4.5111173335633870e-06 0.0000000000000000e+00  0.0000000000000000e+00 -5.7985423927998999e-06 0.0000000000000000e+00  0.0000000000000000e+00 -7.0686470078776374e-06 0.0000000000000000e+00  0.0000000000000000e+00 -8.2991217214278552e-06 0.0000000000000000e+00  0.0000000000000000e+00 -9.4673268281882186e-06 0.0000000000000000e+00  0.0000000000000000e+00 -1.0550617