<?xml version="1.0"?>
<VTKFile type="UnstructuredGrid"  version="0.1"  >
<UnstructuredGrid>
<Piece  NumberOfPoints="1250" NumberOfCells="2352">
<Points>
<DataArray  type="Float64"  NumberOfComponents="3"  format="ascii">0 0 0  0.0336 0 0  0.0336 0.07729999999999999 0  0 0.07729999999999999 0  0.001400000000000002 0 0  0.002800000000000005 0 0  0.004200000000000008 0 0  0.005600000000000009 0 0  0.007000000000000011 0 0  0.008400000000000013 0 0  0.009800000000000019 0 0  0.01120000000000002 0 0  0.01260000000000003 0 0  0.01400000000000003 0 0  0.01540000000000004 0 0  0.01680000000000005 0 0  0.01820000000000004 0 0  0.01960000000000004 0 0  0.02100000000000004 0 0  0.02240000000000003 0 0  0.02380000000000003 0 0  0.02520000000000002 0 0  0.02660000000000002 0 0  0.02800000000000001 0 0  0.02940000000000001 0 0  0.03080000000000001 0 0  0.0322 0 0  0.0336 0.001577551020408161 0  0.0336 0.003155102040816321 0  0.0336 0.004732653061224482 0  0.0336 0.006310204081632642 0  0.0336 0.007887755102040803 0  0.0336 0.009465306122448964 0  0.0336 0.01104285714285712 0  0.0336 0.01262040816326528 0  0.0336 0.01419795918367344 0  0.0336 0.0157755102040816 0  0.0336 0.01735306122448976 0  0.0336 0.01893061224489792 0  0.0336 0.02050816326530608 0  0.0336 0.02208571428571425 0  0.0336 0.02366326530612241 0  0.0336 0.02524081632653058 0  0.0336 0.02681836734693874 0  0.0336 0.02839591836734691 0  0.0336 0.02997346938775507 0  0.0336 0.03155102040816323 0  0.0336 0.0331285714285714 0  0.0336 0.03470612244897956 0  0.0336 0.03628367346938772 0  0.0336 0.03786122448979588 0  0.0336 0.03943877551020405 0  0.0336 0.04101632653061221 0  0.0336 0.04259387755102037 0  0.0336 0.04417142857142854 0  0.0336 0.04574897959183671 0  0.0336 0.04732653061224486 0  0.0336 0.04890408163265302 0  0.0336 0.05048163265306119 0  0.0336 0.05205918367346936 0  0.0336 0.05363673469387752 0  0.0336 0.05521428571428568 0  0.0336 0.05679183673469385 0  0.0336 0.05836938775510202 0  0.0336 0.05994693877551018 0  0.0336 0.06152448979591834 0  0.0336 0.0631020408163265 0  0.0336 0.06467959183673468 0  0.0336 0.06625714285714283 0  0.0336 0.06783469387755101 0  0.0336 0.06941224489795916 0  0.0336 0.07098979591836733 0  0.0336 0.07256734693877549 0  0.0336 0.07414489795918365 0  0.0336 0.07572244897959182 0  0.03219999999999999 0.07729999999999999 0  0.03079999999999999 0.07729999999999999 0  0.02939999999999999 0.07729999999999999 0  0.02799999999999999 0.07729999999999999 0  0.02659999999999999 0.07729999999999999 0  0.02519999999999999 0.07729999999999999 0  0.02379999999999998 0.07729999999999999 0  0.02239999999999998 0.07729999999999999 0  0.02099999999999997 0.07729999999999999 0  0.01959999999999996 0.07729999999999999 0  0.01819999999999996 0.07729999999999999 0  0.01679999999999995 0.07729999999999999 0  0.01539999999999996 0.07729999999999999 0  0.01399999999999996 0.07729999999999999 0  0.01259999999999996 0.07729999999999999 0  0.01119999999999997 0.07729999999999999 0  0.009799999999999972 0.07729999999999999 0  0.008399999999999977 0.07729999999999999 0  0.006999999999999978 0.07729999999999999 0  0.005599999999999983 0.07729999999999999 0  0.004199999999999988 0.07729999999999999 0  0.00279999999999999 0.07729999999999999 0  0.001399999999999998 0.07729999999999999 0  0 0.07572244897959184 0  0 0.07414489795918368 0  0 0.07256734693877551 0  0 0.07098979591836735 0  0 0.06941224489795919 0  0 0.06783469387755103 0  0 0.06625714285714288 0  0 0.06467959183673472 0  0 0.06310204081632656 0  0 0.0615244897959184 0  0 0.05994693877551023 0  0 0.05836938775510207 0  0 0.05679183673469392 0  0 0.05521428571428574 0  0 0.05363673469387759 0  0 0.05205918367346941 0  0 0.05048163265306126 0  0 0.04890408163265308 0  0 0.04732653061224493 0  0 0.04574897959183676 0  0 0.0441714285714286 0  0 0.04259387755102043 0  0 0.04101632653061228 0  0 0.03943877551020411 0  0 0.03786122448979595 0  0 0.03628367346938779 0  0 0.03470612244897962 0  0 0.03312857142857146 0  0 0.03155102040816329 0  0 0.02997346938775513 0  0 0.02839591836734697 0  0 0.0268183673469388 0  0 0.02524081632653064 0  0 0.02366326530612247 0  0 0.02208571428571431 0  0 0.02050816326530614 0  0 0.01893061224489798 0  0 0.01735306122448981 0  0 0.01577551020408165 0  0 0.01419795918367349 0  0 0.01262040816326532 0  0 0.01104285714285716 0  0 0.009465306122448988 0  0 0.00788775510204083 0  0 0.006310204081632659 0  0 0.004732653061224501 0  0 0.003155102040816343 0  0 0.001577551020408172 0  0.001400000000000004 0.001577551020408172 0  0.001400000000000004 0.003155102040816329 0  0.001400000000000002 0.004732653061224501 0  0.001400000000000002 0.006310204081632645 0  0.001400000000000005 0.007887755102040823 0  0.001400000000000002 0.009465306122448981 0  0.001400000000000002 0.01104285714285717 0  0.001400000000000004 0.01262040816326531 0  0.0014 0.01419795918367349 0  0.001400000000000002 0.01577551020408166 0  0.001400000000000005 0.0173530612244898 0  0.001400000000000002 0.01893061224489797 0  0.001400000000000002 0.02050816326530613 0  0.001400000000000002 0.02208571428571431 0  0.001400000000000002 0.02366326530612247 0  0.001400000000000002 0.02524081632653063 0  0.001400000000000002 0.0268183673469388 0  0.001400000000000002 0.02839591836734696 0  0.001400000000000002 0.02997346938775513 0  0.001400000000000002 0.03155102040816328 0  0.001400000000000002 0.03312857142857147 0  0.001399999999999997 0.03470612244897962 0  0.001400000000000005 0.03628367346938778 0  0.001400000000000002 0.03786122448979594 0  0.001400000000000002 0.03943877551020411 0  0.001400000000000002 0.04101632653061228 0  0.001400000000000002 0.04259387755102043 0  0.001400000000000002 0.0441714285714286 0  0.0014 0.04574897959183676 0  0.001400000000000002 0.04732653061224492 0  0.001400000000000004 0.04890408163265308 0  0.001400000000000002 0.05048163265306126 0  0.001400000000000002 0.05205918367346941 0  0.0014 0.05363673469387758 0  0.001400000000000004 0.05521428571428574 0  0.001399999999999998 0.05679183673469391 0  0.001400000000000002 0.05836938775510207 0  0.0014 0.05994693877551023 0  0.001400000000000002 0.0615244897959184 0  0.001400000000000002 0.06310204081632656 0  0.001400000000000002 0.06467959183673472 0  0.0014 0.06625714285714286 0  0.001400000000000002 0.06783469387755102 0  0.001399999999999998 0.06941224489795919 0  0.001400000000000002 0.07098979591836735 0  0.0014 0.07256734693877552 0  0.001400000000000002 0.07414489795918368 0  0.001400000000000002 0.07572244897959184 0  0.002800000000000006 0.001577551020408165 0  0.002800000000000004 0.003155102040816343 0  0.002800000000000002 0.004732653061224487 0  0.002800000000000002 0.006310204081632652 0  0.002800000000000002 0.007887755102040813 0  0.0028 0.009465306122448981 0  0.002799999999999997 0.01104285714285715 0  0.0028 0.01262040816326532 0  0.0028 0.01419795918367348 0  0.0028 0.01577551020408165 0  0.002799999999999997 0.0173530612244898 0  0.0028 0.01893061224489797 0  0.002800000000000004 0.02050816326530613 0  0.0028 0.0220857142857143 0  0.0028 0.02366326530612247 0  0.002800000000000004 0.02524081632653064 0  0.0028 0.0268183673469388 0  0.0028 0.02839591836734696 0  0.002799999999999995 0.02997346938775512 0  0.002799999999999997 0.03155102040816328 0  0.002799999999999995 0.03312857142857146 0  0.0028 0.03470612244897962 0  0.002799999999999995 0.03628367346938778 0  0.002799999999999997 0.03786122448979594 0  0.002799999999999997 0.03943877551020411 0  0.002799999999999997 0.04101632653061228 0  0.002799999999999997 0.04259387755102043 0  0.002799999999999995 0.0441714285714286 0  0.002799999999999997 0.04574897959183676 0  0.002799999999999997 0.04732653061224493 0  0.002799999999999995 0.04890408163265308 0  0.002799999999999993 0.05048163265306124 0  0.002799999999999995 0.05205918367346941 0  0.002799999999999995 0.05363673469387757 0  0.002799999999999992 0.05521428571428574 0  0.002799999999999997 0.05679183673469391 0  0.002799999999999993 0.05836938775510207 0  0.002799999999999993 0.05994693877551022 0  0.002799999999999992 0.0615244897959184 0  0.002799999999999988 0.06310204081632655 0  0.002799999999999992 0.0646795918367347 0  0.002799999999999992 0.06625714285714286 0  0.00279999999999999 0.06783469387755103 0  0.00279999999999999 0.06941224489795919 0  0.002799999999999988 0.07098979591836735 0  0.00279999999999999 0.07256734693877552 0  0.002799999999999988 0.07414489795918368 0  0.00279999999999999 0.07572244897959184 0  0.004200000000000006 0.001577551020408172 0  0.004200000000000006 0.003155102040816329 0  0.004200000000000008 0.00473265306122448 0  0.004200000000000009 0.006310204081632652 0  0.004200000000000008 0.00788775510204082 0  0.004200000000000008 0.009465306122448978 0  0.004200000000000006 0.01104285714285716 0  0.004200000000000006 0.01262040816326532 0  0.004200000000000004 0.01419795918367349 0  0.004200000000000002 0.01577551020408165 0  0.004200000000000004 0.0173530612244898 0  0.004200000000000006 0.01893061224489797 0  0.004200000000000006 0.02050816326530613 0  0.004200000000000002 0.0220857142857143 0  0.004200000000000004 0.02366326530612247 0  0.004199999999999999 0.02524081632653062 0  0.004200000000000004 0.0268183673469388 0  0.004200000000000004 0.02839591836734696 0  0.004200000000000002 0.02997346938775512 0  0.004199999999999999 0.03155102040816328 0  0.004200000000000001 0.03312857142857145 0  0.004200000000000001 0.03470612244897962 0  0.004199999999999995 0.03628367346938778 0  0.004199999999999999 0.03786122448979594 0  0.004199999999999999 0.0394387755102041 0  0.004199999999999997 0.04101632653061227 0  0.004199999999999999 0.04259387755102043 0  0.004199999999999999 0.04417142857142859 0  0.004199999999999999 0.04574897959183676 0  0.004199999999999999 0.04732653061224492 0  0.004199999999999997 0.04890408163265308 0  0.004199999999999997 0.05048163265306124 0  0.004199999999999999 0.05205918367346941 0  0.004199999999999992 0.05363673469387757 0  0.0
[...]
<PointData  Scalars=" mean stress"> 
<DataArray  type="Float64"  Name=" mean stress"  format="ascii">1.9768115426605320e+04  1.8768907855625916e+04  1.0124998605514396e+04  1.0124997154324943e+04  1.0755612519079086e+04  7.7903557210024956e+03  6.7942915620747463e+03  6.1147415919547111e+03  5.6144066158744781e+03  5.2150442123222065e+03  4.8954151843208656e+03  4.6442017172131837e+03  4.4542118063262551e+03  4.3212017124675058e+03  4.2426725106497233e+03  4.2173815060632123e+03  4.2450412432465237e+03  4.3262488004199531e+03  4.4626415550503161e+03  4.6573301818786767e+03  4.9157114811855217e+03  5.2469616462888007e+03  5.6679160451263251e+03  6.2064102764446043e+03  6.9412800137935765e+03  8.0622768718581592e+03  9.7590422632456339e+03  1.2602964648494133e+04  9.6610426423060926e+03  9.0364773741218414e+03  8.7174586806672723e+03  8.6244015609249782e+03  8.6484794082085446e+03  8.7344729027211342e+03  8.8530715432206671e+03  8.9862127899930802e+03  9.1227302726437338e+03  9.2556077587605741e+03  9.3805313148753939e+03  9.4950162341237319e+03  9.5978384756219930e+03  9.6886452726549669e+03  9.7676769728485069e+03  9.8355636419336570e+03  9.8931749411487017e+03  9.9415096521542928e+03  9.9816155099745592e+03  1.0014532484384756e+04  1.0041254213650744e+04  1.0062703377380349e+04  1.0079717612910366e+04  1.0093043236289775e+04  1.0103334574414761e+04  1.0111157173612435e+04  1.0116993535155596e+04  1.0121250348620002e+04  1.0124266456958187e+04  1.0126320999659951e+04  1.0127641349152282e+04  1.0128410587259115e+04  1.0128774369301951e+04  1.0128847098932811e+04  1.0128717392116210e+04  1.0128452848326559e+04  1.0128104174897378e+04  1.0127708729857139e+04  1.0127293563054911e+04  1.0126878046258877e+04  1.0126476198000377e+04  1.0126098816514932e+04  1.0125755556654987e+04  1.0125457219325335e+04  1.0125217288305412e+04  1.0125057391073262e+04  1.0124984056952553e+04  1.0125014666601370e+04  1.0124961151495298e+04  1.0124843946780449e+04  1.0124669107606955e+04  1.0124461415231150e+04  1.0124242034267196e+04  1.0124029034434727e+04  1.0123836813617068e+04  1.0123676447036940e+04  1.0123556069185413e+04  1.0123481221835584e+04  1.0123455130387096e+04  1.0123478880930124e+04  1.0123551484828722e+04  1.0123669826376139e+04  1.0123828499369612e+04  1.0124019548661476e+04  1.0124232144551210e+04  1.0124452234582253e+04  1.0124662237584940e+04  1.0124841026506039e+04  1.0124964654938469e+04  1.0125010758699256e+04  1.0124985898081537e+04  1.0125055085990627e+04  1.0125223914072871e+04  1.0125468307113690e+04  1.0125770063989712e+04  1.0126116031712843e+04  1.0126496004705914e+04  1.0126900586268282e+04  1.0127319093616157e+04  1.0127737525284283e+04  1.0128136445347429e+04  1.0128488661754520e+04  1.0128756586361944e+04  1.0128889175846742e+04  1.0128818363194512e+04  1.0128454900335300e+04  1.0127683546206355e+04  1.0126357553743170e+04  1.0124292437035439e+04  1.0121259039552202e+04  1.0116975979787319e+04  1.0111101626438063e+04  1.0103225856398787e+04  1.0092861981041069e+04  1.0079439395808533e+04  1.0062297721467532e+04  1.0040683469278152e+04  1.0013750583571500e+04  9.9805666007343843e+03  9.9401266215801861e+03  9.8913778366414517e+03  9.8332579938231211e+03  9.7647520022381104e+03  9.6849719251695042e+03  9.5932671378872474e+03  9.4893738353189856e+03  9.3736172662467561e+03  9.2471876980492070e+03  9.1125256696838551e+03  8.9738859663522780e+03  8.8381856863158082e+03  8.7164804680109901e+03  8.6267035880017975e+03  8.5963916801790401e+03  8.6915343865669838e+03  8.9917483781190822e+03  9.8514994617085777e+03  1.4133529049960287e+04  1.2224820740912761e+04  1.1241714341110981e+04  1.0097484999549990e+04  9.5827531087301959e+03  9.3263241352781370e+03  9.2199205600494297e+03  9.2007192731877749e+03  9.2324606742988799e+03  9.2936062646541413e+03  9.3702928169420866e+03  9.4535006986541594e+03  9.5373334106426282e+03  9.6180025255359687e+03  9.6931801113219008e+03  9.7615620450063907e+03  9.8225618857927802e+03  9.8760898438934109e+03  9.9223904684550362e+03  9.9619226826840586e+03  9.9952713741624302e+03  1.0023082991247860e+04  1.0046019585597000e+04  1.0064727045065565e+04  1.0079814177964994e+04  1.0091839996089242e+04  1.0101307083025678e+04  1.0108659370671070e+04  1.0114283005299048e+04  1.0118509279881000e+04  1.0121618851761235e+04  1.0123846661955355e+04  1.0125387130867563e+04  1.0126399330903263e+04  1.0127011934632163e+04  1.0127327812516065e+04  1.0127428211066126e+04  1.0127376484232258e+04  1.0127221381122432e+04  1.0126999914283288e+04  1.0126739846862736e+04  1.0126461845079986e+04  1.0126181344287750e+04  1.0125910171727084e+04  1.0125657938607539e+04  1.0125433151389034e+04  1.0125244017358318e+04  1.0125097027106069e+04  1.0125004866139094e+04  9.8391259120453979e+03  1.0421325036860711e+04  1.0207468785859104e+04  9.9166161613933145e+03  9.7220376811063634e+03  9.6112805765798712e+03  9.5624902232092409e+03  9.5556043689940288e+03  9.5758926905362532e+03  9.6128874351470640e+03  9.6592086954782535e+03  9.7097139498463530e+03  9.7608781435973488e+03  9.8103532934710802e+03  9.8566500541745263e+03  9.8989033887814312e+03  9.9366975777757179e+03  9.9699342494847406e+03  9.9987324957198562e+03  1.0023353465068230e+04  1.0044143926696854e+04  1.0061494660564220e+04  1.0075810453949765e+04  1.0087489144975110e+04  1.0096907652484579e+04  1.0104413325858610e+04  1.0110319270181815e+04  1.0114902569878357e+04  1.0118404558020560e+04  1.0121032465753226e+04  1.0122961941507399e+04  1.0124340056968966e+04  1.0125288519687501e+04  1.0125906894202182e+04  1.0126275697698369e+04  1.0126459285505805e+04  1.0126508478669868e+04  1.0126462912711107e+04  1.0126353105296190e+04  1.0126202252255003e+04  1.0126027767308029e+04  1.0125842581210136e+04  1.0125656213258511e+04  1.0125475649598438e+04  1.0125306008500693e+04  1.0125151947609018e+04  1.0125020460438869e+04  1.0124931195682104e+04  8.3615281249858854e+03  9.3339454533806183e+03  9.7163714342006933e+03  9.8070854718838527e+03  9.8053253219094076e+03  9.7884053447100396e+03  9.7791365858992849e+03  9.7820926363085546e+03  9.7958252768969305e+03  9.8174107915272853e+03  9.8439514457779460e+03  9.8730290592016845e+03  9.9027864291538644e+03  9.9318787793987540e+03  9.9593886609824604e+03  9.9847381701185477e+03  1.0007610232319450e+04  1.0027882084131310e+04  1.0045570853415986e+04  1.0060790033349798e+04  1.0073715358086332e+04  1.0084558605505059e+04  1.0093547972747960e+04  1.0100913818489253e+04  1.0106878716338812e+04  1.0111650908368303e+04  1.0115420383748695e+04  1.0118356933683735e+04  1.0120609648924848e+04  1.0122307429268092e+04  1.0123560164915327e+04  1.0124460327208761e+04  1.0125084771484808e+04  1.0125496608297819e+04  1.0125747042158935e+04  1.0125877110437759e+04  1.0125919280451721e+04  1.0125898881263078e+04  1.0125835359527518e+04  1.0125743357150659e+04  1.0125633614381915e+04  1.0125513710663914e+04  1.0125388667160201e+04  1.0125261535974521e+04  1.0125134167065278e+04  1.0125008984338112e+04  1.0124894793999501e+04  1.0124813748175300e+04  7.4057986713809778e+03  8.4418779651749155e+03  9.1069568185562566e+03  9.4818552854081336e+03  9.6861433289254364e+03  9.8007700326902432e+03  9.8699450931033080e+03  9.9158440176689419e+03  9.9493966877617149e+03  9.9759568547073522e+03  9.9981569058394798e+03  1.0017302007579143e+04  1.0034054067499244e+04  1.0048768698379637e+04  1.0061661137323954e+04  1.0072887064990648e+04  1.0082580659066247e+04  1.0090871072738324e+04  1.0097888109995725e+04  1.0103762669748547e+04  1.0108624886621243e+04  1.0112601517483881e+04  1.0115813380018180e+04  1.0118373235232424e+04  1.0120384268345411e+04  1.0121939185795452e+04  1.0123119870455072e+04  1.0123997499876590e+04  1.0124633019687801e+04  1.0125077866803194e+04  1.0125374848425809e+04  1.0125559098360425e+04  1.0125659048818239e+04  1.0125697371715427e+04  1.0125691857268790e+04  1.0125656208950784e+04  1.0125600742434583e+04  1.0125532982364048e+04  1.0125458155128783e+04  1.0125379579863089e+04  1.0125298965553615e+04  1.0125216639632255e+04  1.0125131762867160e+04  1.0125042685298582e+04  1.0124947856397455e+04  1.0124847519452083e+04  1.0124749367326203e+04  1.0124670849299575e+04  6.7378387993813503e+03  7.7547027153817107e+03  8.5436891641428156e+03  9.0967424826794613e+03  9.4660724566294411e+03  9.7087437882322538e+03  9.8682056169067437e+03  9.9734830848726779e+03  1.0043146144496943e+04  1.0089043937904018e+04  1.0118853781296611e+04  1.0137662610796755e+04  1.0148917711406461e+04  1.0154999872716739e+04  1.0157575938356329e+04  1.0157822255911136e+04  1.0156571137191379e+04  1.0154409980471653e+04  1.0151750188848800e+04  1.0148876077008230e+04  1.0145980070705706e+04  1.0143188271446117e+04  1.0140579126214507e+04  1.0138197106210668e+04  1.0136062747175876e+04  1.0134180024608431e+04  1.0132541768694016e+04  1.0131133630894268e+04  1.0129936974895145e+04  1.0128930964191768e+04  1.0128094046398957e+04  1.0127404982491629e+04  1.0126843531837669e+04  1.0126390876656349e+04  1.0126029849409610e+04  1.0125745011351284e+04  1.0125522618677960e+04  1.0125350503643718e+04  1.0125217891597027e+04  1.0125115172410951e+04  1.0125033648010678e+04  1.0124965294259566e+04  1.0124902617360149e+04  1.0124838721945254e+04  1.0124768007364113e+04  1.0124687292337283e+04  1.0124599578250345e+04  1.0124513153173188e+04  6.2498517336050500e+03  7.2338572930589462e+03  8.0726506609564212e+03  8.7293670921519642e+03  9.2161286407174121e+03  9.5648716489526305e+03  9.8091449245808089e+03  9.9769468266586337e+03  1.0089608844055638e+04  1.0162807815762497e+04  1.0207941018542455e+04  1.0233292069284109e+04  1.0244896655752398e+04  1.0247158035999370e+04  1.0243282204165624e+04  1.0235589181058825e+04  1.0225739644217385e+04  1.0214902745190893e+04  1.0203882003834693e+04  1.0193210519859678e+04  1.0183223232221015e+04  1.0174111745740493e+04  1.0165965798969512e+04  1.0158804455547708e+04  1.0152599387073797e+04  1.0147292081148205e+04  1.0142806398426781e+04  1.0139057584233393e+04  1.0135958591906392e+04  1.0133424381192506e+04  1.0131374703897687e+04  1.0129735771329704e+04  1.0128441106457234e+04  1.0127431812271032e+04  1.0126656432045886e+04  1.0126070533552846e+04  1.0125636115257466e+04  1.0125320906417181e+04  1.0125097613917824e+04  1.0124943156969057e+04  1.0124837928008332e+04  1.0124765124291076e+04  1.0124710231176992e+04  1.0124660722602928e+04  1.0124606255746177e+04  1.0124538966825545e+04  1.0124455041579889e+04  1.0124351980462123e+04  5.8819441483787814e+03  6.8393936277965213e+03  7.6965377819599644e+03  8.4117927314421049e+03  8.9773194534729591e+03  9.4066742719761296e+03  9.7222444141850483e+03  9.9473874044511576e+03  1.0102876952926254e+04  1.0205871382605559e+04  1.0270015994705896e+04  1.0305935884978939e+04  1.0321791440020634e+04  1.0323779734393249e+04  1.0316553152317958e+04  1.0303558409615956e+04  1.0287307770168165e+04  1.0269594801782052e+04  1.0251665308550751e+04  1.0234352129377708e+04  1.0218180832352431e+04  1.0203452013513715e+04  1.0190304858095113e+04  1.0178765771550881e+04  1.0168785186472798e+04  1.0160265068272953e+04  1.0153079157064787e+04  1.0147087580927600e+04  1.0142147144784458e+04  1.0138118328966902e+04  1.0134869812432737e+04  1.0132281159058217e+04  1.0130244163682937e+04  1.0128663241381963e+04  1.0127455153148527e+04  1.0126548289674172e+04  1.0125881678533109e+04  1.0125403836410647e+04  1.0125071555182045e+04  1.0124848687558100e+04  1.0124704985590992e+04  1.0124615037487729e+04  1.0124557364087406e+04  1.0124513691611401e+04  1.0124468521833942e+04  1.0124408572176901e+04  1.0124322597627743e+04  1.0124197836118879e+04  5.6042535002477034e+03  6.5431979574886682e+03  7.4061261461103504e+03  8.1541771673833555e+03  8.7708388314122731e+03  9.2581585552674223e+03  9.6293631297960328e+03  9.9024526223215944e+03  1.0096051817258101e+04  1.0227256371485841e+04  1.0310762425185514e+04  1.0358701054729005e+04  1.0380808559326326e+04  1.0384730278317822e+04  1.0376355800623187e+04  1.0360138234601136e+04  1.0339378077140585e+04  1.0316465934501635e+04  1.0293084822048584e+04  1.0270375639302034e+04  1.0249070482747346e+04  1.0229598626948320e+04  1.0212169733291297e+04  1.0196838376288708e+04  1.0183553439168532e+04  1.0172195393508571e+04  1.0162603978381694e+04  1.0154598349652259e+04  1.0147991385048132e+04  1.0142599504054588e+04  1.0138249088892602e+04  1.0134780367422987e+04  1.0132049434358963e+04  1.0129928937168823e+04  1.0128307832055760e+04  1.0127090518372455e+04  1.0126195582796130e+04  1.0125554324088776e+04  1.0125109182777431e+04  1.0124812164928930e+04  1.0124623324998962e+04  1.0124509351142455e+04  1.0124442289203291e+04  1.0124398383486490e+04  1.0124357042105339e+04  1.0124299541158598e+04  1.0124207626383486e+04  1.0124059809591408e+04  5.4000597585015166e+03  6.3271065047502170e+03  7.1911644669454336e+03  7.9575239691811857e+03  8.6064863828584184e+03  9.1335312215914855e+03  9.5454128925031728e+03  9.8555151492940950e+03  1.0079972241437030e+04  1.0235074314165824e+04  1.0335793364413086e+04  1.0395107193095877e+04  1.0423817364604194e+04  1.0430641625002498e+04  1.0422438863227997e+04  1.0404482387413273e+04  1.0380734902205751e+04  1.0354101683160830e+04  1.0326651935876755e+04  1.0299805859386461e+04  1.0274488881458783e+04  1.0251256393387330e+04  1.0230392989452705e+04  1.0211990252454778e+04  1.0196006838902307e+04  1.0182314188145881e+04  1.0170730710578839e+04  1.0161046855145640e+04  1.0153043041806643e+04  1.0146502080635642e+04  1.0141217387388571e+04  1.0136998042746745e+04  1.0133671524117974e+04  1.0131084759226744e+04  1.0129104004278157e+04  1.0127613931151820e+04  1.0126516213325182e+04  1.0125727825102755e+04  1.0125179209824544e+04  1.0124812426492135e+04  1.0124579348460786e+04  1.0124439954530280e+04  1.0124360727153271e+04  1.0124313110824449e+04  1.0124271972755274e+04  1.0124213758480402e+04  1.0124114296598875e+04  1.0123945282906308e+04  5.2597847943417692e+03  6.1797350628182512e+03  7.0434721283335957e+03  7.8198041963629530e+03  8.4882024145966716e+03  9.0406881684598320e+03  9.4799288887333078e+03  9.8159662843242058e+03  1.0062829102962660e+04  1.0235860550840693e+04  1.0349929610809517e+04  1.0418419934183392e+04  1.0452783288840636e+04  1.0462455598031576e+04  1.0454979379120810e+04  1.0436226461602086e+04  1.0410654993478551e+04  1.0381563141299634e+04  1.0351320282339664e+04  1.0321567674556673e+04  1.0293386972273454e+04  1.0267438322786553e+04  1.0244071340434994e+04  1.0223412783597620e+04  1.0205434731255609e+04  1.0190006750750877e+04  1.0176935128401225e+04  1.0165991788318966e+04  1.0156935098006183e+04  1.0149524373355858e+04  1.0143529558314875e+04  1.0138737266169317e+04  1.0134954126927285e+04  1.0132008184045617e+04  1.0129748918442343e+04  1.0128046343371774e+04  1.0126789505497261e+04  1.0125884641007378e+04  1.0125253166910186e+04  1.0124829632412875e+04  1.0124559710312693e+04  1.0124398266145576e+04  1.0124307505089439e+04  1.0124255136921451e+04  1.0124212466389286e+04  1.0124152187636439e+04  1.0124045694081453e+04  1.0123859874631369e+04  5.1779743627796815e+03  6.0942588761350062e+03  6.9574388564449173e+03  7.7386091672487764e+03  8.4172269373575473e+03  8.9837265502440569e+03  9.4385815933925496e+03  9.7898602143399112e+03  1.0050225506954488e+04  1.0234310471074670e+04  1.0356795955126949e+04  1.0431218932656691e+04  1.0469367098265429e+04  1.0481080825663317e+04  1.0474304689535513e+04  1.0455272192697628e+04  1.0428746662011266e+04  1.0398271921597985e+04  1.0366407471585711e+04  1.0334936338853146e+04  1.0305041741412815e+04  1.0277453103817272e+04  1.0252564143787640e+04  1.0230526636078948e+04  1.0211323624472516e+04  1.0194825645628287e+04  1.0180833151810013e+04  1.0169107886391617e+04  1.0159395536530672e+04  1.0151441590844139e+04  1.0145001978590026e+04  1.0139849763692098e+04  1.0135778910215562e+04  1.0132605921539107e+04  1.0130169978668193e+04  1.0128332058799719e+04  1.0126973398576272e+04  1.0125993572769976e+04  1.0125308384109710e+04  1.0124847699012311e+04  1.0124553312974274e+04  1.0124376882092411e+04  1.0124277912261459e+04  1.0124221742429863e+04  1.0124177410126023e+04  1.0124115250437751e+04  1.0124003915539288e+04  1.0123807494044744e+04  5.1518431080991368e+03  6.0670689019621132e+03  6.9298498970800629e+03  7.7122164637054948e+03  8.3937562417236786e+03  8.9645148155710413e+03  9.4243005536370601e+03  9.7805321809959205e+03  1.0045388853505910e+04  1.0233226103298171e+04  1.0358624489251682e+04  1.0435144202578975e+04  1.0474667214919054e+04  1.0487159308146131e+04  1.0480695445669395e+04  1.0461629610396849e+04  1.0434828695908831e+04  1.0403921095413403e+04  1.0371532558645597e+04  1.0339496079408651e+04  1.0309031105248092e+04  1.0280892133033230e+04  1.0255489169509980e+04  1.0232983559233600e+04  1.0213362923998278e+04  1.0196498791015123e+04  1.0182190129603712e+04  1.0170195590303774e+04  1.0160256811602048e+04  1.0152114760371564e+04  1.0145520716663908e+04  1.0140243205676044e+04  1.0136071918291711e+04  1.0132819442907439e+04  1.0130321450541176e+04  1.0128435827488269e+04  1.0127041130219543e+04  1.0126034641019653e+04  1.0125330225634803e+04  1.0124856131265962e+04  1.0124552810142848e+04  1.0124370805097024e+04  1.0124268685488905e+04  1.0124210971232544e+04  1.0124165919821986e+04  1.0124103077474929e+04  1.0123990152853212e+04  1.0123790423086257e+04  5.1806105773366899e+03  6.0970781607063091e+03  6.9596506119222377e+03  7.7399647050451395e+03  8.4177063101577023e+03  8.9835193517881326e+03  9.4379375395084353e+03  9.7890152142212864e+03  1.0049359099903175e+04  1.0233537762063637e+04  1.0356175623201669e+04  1.0430768678519869e+04  1.0469078803867884e+04  1.0480932540029855e+04  1.0474268968133882e+04  1.0455321297532581e+04  1.0428855418045785e+04  1.0398419018612172e+04  1.0366575802209451e+04  1.0335112794783088e+04  1.0305216740306229e+04  1.0277620014561122e+04  1.0252718707107546e+04  1.0230666431814812e+04  1.0211447608966306e+04  1.0194933766091566e+04  1.0180926035268869e+04  1.0169186596011623e+04  1.0159461386101824e+04  1.0151496007770254e+04  1.0145046406204236e+04  1.0139885594674748e+04  1.0135807443999993e+04  1.0132628339770921e+04  1.0130187333856704e+04  1.0128345272305314e+04  1.0126983264929104e+04  1.0126000768099102e+04  1.0125313477127351e+04  1.0124851163705305e+04  1.0124555542615717e+04  1.0124378205395637e+04  1.0124278610813953e+04  1.0124222075488899e+04  1.0124177628244875e+04  1.0124115656021722e+04  1.0124004753905530e+04  1.0123809380769335e+04  5.2653164027838884e+03  6.1855039665170889e+03  7.0478348095538031e+03  7.8223266482328909e+03  8.4889271634411216e+03  9.0400607329270115e+03  9.4784854194618983e+03  9.8141888991312735e+03  1.0061066680454705e+04  1.0234325358840761e+04  1.0348722055041406e+04  1.0417562241081490e+04  1.0452250316165651e+04  1.0462198328416678e+04  1.0454940533654826e+04  1.0436349941544104e+04  1.0410890849405270e+04  1.0381869662122675e+04  1.0351664347922060e+04  1.0321924158188045e+04  1.0293737695130751e+04  1.0267770861272451e+04  1.0244377857551523e+04  1.0223688971989701e+04  1.0205678905462864e+04  1.0190219096737781e+04  1.0177117102287639e+04  1.0166145648209989e+04  1.0157063549646353e+04  1.0149630310074223e+04  1.0143615876993796e+04  1.0138806743020785e+04  1.0135009339202688e+04  1.0132051466131315e+04  1.0129782342962608e+04  1.0128071719855718e+04  1.0126808390847382e+04  1.0125898357495904e+04  1.0125262824698617e+04  1.0124836154979323e+04  1.0124563861995830e+04  1.0124400683584170e+04  1.0124308730961275e+04  1.0124255669124410e+04  1.0124212785277907e+04  1.0124152883173647e+04  1.0124047246039147e+04  1.0123863545062941e+04  5.4090407346275942e+03  6.3360663047719008e+03  7.1974843027589950e+03  7.9607538439568516e+03  8.6069338814163712e+03  9.1320490478142456e+03  9.5428782486936561e+03  9.8526547821170552e+03  1.0077276873261779e+04  1.0232815200669844e+04  1.0334077036385053e+04  1.0