<?xml version="1.0"?>
<VTKFile type="UnstructuredGrid"  version="0.1"  >
<UnstructuredGrid>
<Piece  NumberOfPoints="1250" NumberOfCells="2352">
<Points>
<DataArray  type="Float64"  NumberOfComponents="3"  format="ascii">0 0 0  0.0336 0 0  0.0336 0.07729999999999999 0  0 0.07729999999999999 0  0.001400000000000002 0 0  0.002800000000000005 0 0  0.004200000000000008 0 0  0.005600000000000009 0 0  0.007000000000000011 0 0  0.008400000000000013 0 0  0.009800000000000019 0 0  0.01120000000000002 0 0  0.01260000000000003 0 0  0.01400000000000003 0 0  0.01540000000000004 0 0  0.01680000000000005 0 0  0.01820000000000004 0 0  0.01960000000000004 0 0  0.02100000000000004 0 0  0.02240000000000003 0 0  0.02380000000000003 0 0  0.02520000000000002 0 0  0.02660000000000002 0 0  0.02800000000000001 0 0  0.02940000000000001 0 0  0.03080000000000001 0 0  0.0322 0 0  0.0336 0.001577551020408161 0  0.0336 0.003155102040816321 0  0.0336 0.004732653061224482 0  0.0336 0.006310204081632642 0  0.0336 0.007887755102040803 0  0.0336 0.009465306122448964 0  0.0336 0.01104285714285712 0  0.0336 0.01262040816326528 0  0.0336 0.01419795918367344 0  0.0336 0.0157755102040816 0  0.0336 0.01735306122448976 0  0.0336 0.01893061224489792 0  0.0336 0.02050816326530608 0  0.0336 0.02208571428571425 0  0.0336 0.02366326530612241 0  0.0336 0.02524081632653058 0  0.0336 0.02681836734693874 0  0.0336 0.02839591836734691 0  0.0336 0.02997346938775507 0  0.0336 0.03155102040816323 0  0.0336 0.0331285714285714 0  0.0336 0.03470612244897956 0  0.0336 0.03628367346938772 0  0.0336 0.03786122448979588 0  0.0336 0.03943877551020405 0  0.0336 0.04101632653061221 0  0.0336 0.04259387755102037 0  0.0336 0.04417142857142854 0  0.0336 0.04574897959183671 0  0.0336 0.04732653061224486 0  0.0336 0.04890408163265302 0  0.0336 0.05048163265306119 0  0.0336 0.05205918367346936 0  0.0336 0.05363673469387752 0  0.0336 0.05521428571428568 0  0.0336 0.05679183673469385 0  0.0336 0.05836938775510202 0  0.0336 0.05994693877551018 0  0.0336 0.06152448979591834 0  0.0336 0.0631020408163265 0  0.0336 0.06467959183673468 0  0.0336 0.06625714285714283 0  0.0336 0.06783469387755101 0  0.0336 0.06941224489795916 0  0.0336 0.07098979591836733 0  0.0336 0.07256734693877549 0  0.0336 0.07414489795918365 0  0.0336 0.07572244897959182 0  0.03219999999999999 0.07729999999999999 0  0.03079999999999999 0.07729999999999999 0  0.02939999999999999 0.07729999999999999 0  0.02799999999999999 0.07729999999999999 0  0.02659999999999999 0.07729999999999999 0  0.02519999999999999 0.07729999999999999 0  0.02379999999999998 0.07729999999999999 0  0.02239999999999998 0.07729999999999999 0  0.02099999999999997 0.07729999999999999 0  0.01959999999999996 0.07729999999999999 0  0.01819999999999996 0.07729999999999999 0  0.01679999999999995 0.07729999999999999 0  0.01539999999999996 0.07729999999999999 0  0.01399999999999996 0.07729999999999999 0  0.01259999999999996 0.07729999999999999 0  0.01119999999999997 0.07729999999999999 0  0.009799999999999972 0.07729999999999999 0  0.008399999999999977 0.07729999999999999 0  0.006999999999999978 0.07729999999999999 0  0.005599999999999983 0.07729999999999999 0  0.004199999999999988 0.07729999999999999 0  0.00279999999999999 0.07729999999999999 0  0.001399999999999998 0.07729999999999999 0  0 0.07572244897959184 0  0 0.07414489795918368 0  0 0.07256734693877551 0  0 0.07098979591836735 0  0 0.06941224489795919 0  0 0.06783469387755103 0  0 0.06625714285714288 0  0 0.06467959183673472 0  0 0.06310204081632656 0  0 0.0615244897959184 0  0 0.05994693877551023 0  0 0.05836938775510207 0  0 0.05679183673469392 0  0 0.05521428571428574 0  0 0.05363673469387759 0  0 0.05205918367346941 0  0 0.05048163265306126 0  0 0.04890408163265308 0  0 0.04732653061224493 0  0 0.04574897959183676 0  0 0.0441714285714286 0  0 0.04259387755102043 0  0 0.04101632653061228 0  0 0.03943877551020411 0  0 0.03786122448979595 0  0 0.03628367346938779 0  0 0.03470612244897962 0  0 0.03312857142857146 0  0 0.03155102040816329 0  0 0.02997346938775513 0  0 0.02839591836734697 0  0 0.0268183673469388 0  0 0.02524081632653064 0  0 0.02366326530612247 0  0 0.02208571428571431 0  0 0.02050816326530614 0  0 0.01893061224489798 0  0 0.01735306122448981 0  0 0.01577551020408165 0  0 0.01419795918367349 0  0 0.01262040816326532 0  0 0.01104285714285716 0  0 0.009465306122448988 0  0 0.00788775510204083 0  0 0.006310204081632659 0  0 0.004732653061224501 0  0 0.003155102040816343 0  0 0.001577551020408172 0  0.001400000000000004 0.001577551020408172 0  0.001400000000000004 0.003155102040816329 0  0.001400000000000002 0.004732653061224501 0  0.001400000000000002 0.006310204081632645 0  0.001400000000000005 0.007887755102040823 0  0.001400000000000002 0.009465306122448981 0  0.001400000000000002 0.01104285714285717 0  0.001400000000000004 0.01262040816326531 0  0.0014 0.01419795918367349 0  0.001400000000000002 0.01577551020408166 0  0.001400000000000005 0.0173530612244898 0  0.001400000000000002 0.01893061224489797 0  0.001400000000000002 0.02050816326530613 0  0.001400000000000002 0.02208571428571431 0  0.001400000000000002 0.02366326530612247 0  0.001400000000000002 0.02524081632653063 0  0.001400000000000002 0.0268183673469388 0  0.001400000000000002 0.02839591836734696 0  0.001400000000000002 0.02997346938775513 0  0.001400000000000002 0.03155102040816328 0  0.001400000000000002 0.03312857142857147 0  0.001399999999999997 0.03470612244897962 0  0.001400000000000005 0.03628367346938778 0  0.001400000000000002 0.03786122448979594 0  0.001400000000000002 0.03943877551020411 0  0.001400000000000002 0.04101632653061228 0  0.001400000000000002 0.04259387755102043 0  0.001400000000000002 0.0441714285714286 0  0.0014 0.04574897959183676 0  0.001400000000000002 0.04732653061224492 0  0.001400000000000004 0.04890408163265308 0  0.001400000000000002 0.05048163265306126 0  0.001400000000000002 0.05205918367346941 0  0.0014 0.05363673469387758 0  0.001400000000000004 0.05521428571428574 0  0.001399999999999998 0.05679183673469391 0  0.001400000000000002 0.05836938775510207 0  0.0014 0.05994693877551023 0  0.001400000000000002 0.0615244897959184 0  0.001400000000000002 0.06310204081632656 0  0.001400000000000002 0.06467959183673472 0  0.0014 0.06625714285714286 0  0.001400000000000002 0.06783469387755102 0  0.001399999999999998 0.06941224489795919 0  0.001400000000000002 0.07098979591836735 0  0.0014 0.07256734693877552 0  0.001400000000000002 0.07414489795918368 0  0.001400000000000002 0.07572244897959184 0  0.002800000000000006 0.001577551020408165 0  0.002800000000000004 0.003155102040816343 0  0.002800000000000002 0.004732653061224487 0  0.002800000000000002 0.006310204081632652 0  0.002800000000000002 0.007887755102040813 0  0.0028 0.009465306122448981 0  0.002799999999999997 0.01104285714285715 0  0.0028 0.01262040816326532 0  0.0028 0.01419795918367348 0  0.0028 0.01577551020408165 0  0.002799999999999997 0.0173530612244898 0  0.0028 0.01893061224489797 0  0.002800000000000004 0.02050816326530613 0  0.0028 0.0220857142857143 0  0.0028 0.02366326530612247 0  0.002800000000000004 0.02524081632653064 0  0.0028 0.0268183673469388 0  0.0028 0.02839591836734696 0  0.002799999999999995 0.02997346938775512 0  0.002799999999999997 0.03155102040816328 0  0.002799999999999995 0.03312857142857146 0  0.0028 0.03470612244897962 0  0.002799999999999995 0.03628367346938778 0  0.002799999999999997 0.03786122448979594 0  0.002799999999999997 0.03943877551020411 0  0.002799999999999997 0.04101632653061228 0  0.002799999999999997 0.04259387755102043 0  0.002799999999999995 0.0441714285714286 0  0.002799999999999997 0.04574897959183676 0  0.002799999999999997 0.04732653061224493 0  0.002799999999999995 0.04890408163265308 0  0.002799999999999993 0.05048163265306124 0  0.002799999999999995 0.05205918367346941 0  0.002799999999999995 0.05363673469387757 0  0.002799999999999992 0.05521428571428574 0  0.002799999999999997 0.05679183673469391 0  0.002799999999999993 0.05836938775510207 0  0.002799999999999993 0.05994693877551022 0  0.002799999999999992 0.0615244897959184 0  0.002799999999999988 0.06310204081632655 0  0.002799999999999992 0.0646795918367347 0  0.002799999999999992 0.06625714285714286 0  0.00279999999999999 0.06783469387755103 0  0.00279999999999999 0.06941224489795919 0  0.002799999999999988 0.07098979591836735 0  0.00279999999999999 0.07256734693877552 0  0.002799999999999988 0.07414489795918368 0  0.00279999999999999 0.07572244897959184 0  0.004200000000000006 0.001577551020408172 0  0.004200000000000006 0.003155102040816329 0  0.004200000000000008 0.00473265306122448 0  0.004200000000000009 0.006310204081632652 0  0.004200000000000008 0.00788775510204082 0  0.004200000000000008 0.009465306122448978 0  0.004200000000000006 0.01104285714285716 0  0.004200000000000006 0.01262040816326532 0  0.004200000000000004 0.01419795918367349 0  0.004200000000000002 0.01577551020408165 0  0.004200000000000004 0.0173530612244898 0  0.004200000000000006 0.01893061224489797 0  0.004200000000000006 0.02050816326530613 0  0.004200000000000002 0.0220857142857143 0  0.004200000000000004 0.02366326530612247 0  0.004199999999999999 0.02524081632653062 0  0.004200000000000004 0.0268183673469388 0  0.004200000000000004 0.02839591836734696 0  0.004200000000000002 0.02997346938775512 0  0.004199999999999999 0.03155102040816328 0  0.004200000000000001 0.03312857142857145 0  0.004200000000000001 0.03470612244897962 0  0.004199999999999995 0.03628367346938778 0  0.004199999999999999 0.03786122448979594 0  0.004199999999999999 0.0394387755102041 0  0.004199999999999997 0.04101632653061227 0  0.004199999999999999 0.04259387755102043 0  0.004199999999999999 0.04417142857142859 0  0.004199999999999999 0.04574897959183676 0  0.004199999999999999 0.04732653061224492 0  0.004199999999999997 0.04890408163265308 0  0.004199999999999997 0.05048163265306124 0  0.004199999999999999 0.05205918367346941 0  0.004199999999999992 0.05363673469387757 0  0.0
[...]
<PointData  Scalars=" mean stress"> 
<DataArray  type="Float64"  Name=" mean stress"  format="ascii">6.6131366557996793e+04  6.3533106531973237e+04  3.3874995335704902e+04  3.3874990480290602e+04  3.5981592831320959e+04  2.6061737469873686e+04  2.2729503991619633e+04  2.0456120427656657e+04  1.8782311244183937e+04  1.7446337516462456e+04  1.6377154292576441e+04  1.5536905533478761e+04  1.4901537241273290e+04  1.4456858844702465e+04  1.4194517794178510e+04  1.4110366243532178e+04  1.4203456257664240e+04  1.4475806959883792e+04  1.4932931647854128e+04  1.5585297478298098e+04  1.6451060846050877e+04  1.7561096331917543e+04  1.8972139361234680e+04  2.0777340204702177e+04  2.3243978324494950e+04  2.7006172159078662e+04  3.2627494233606194e+04  4.1895207469383437e+04  3.2315129912641314e+04  3.0215716338510862e+04  2.9158451013472877e+04  2.8850311643135050e+04  2.8932542874700597e+04  2.9221281859450268e+04  2.9618691077333013e+04  3.0064529283836444e+04  3.0521523041856373e+04  3.0966248584775902e+04  3.1384303458045120e+04  3.1767394003582584e+04  3.2111437805082674e+04  3.2415263355524228e+04  3.2679680857638086e+04  3.2906802592354827e+04  3.3099541204983238e+04  3.3261240451739046e+04  3.3395407232118167e+04  3.3505521999019380e+04  3.3594909852437260e+04  3.3666658235999828e+04  3.3723569885521320e+04  3.3768141872436354e+04  3.3802563407874892e+04  3.3828726606716831e+04  3.3848245698724393e+04  3.3862481245449388e+04  3.3872566800923269e+04  3.3879436164814499e+04  3.3883849941264722e+04  3.3886420556911507e+04  3.3887635228666630e+04  3.3887876624272852e+04  3.3887441143743927e+04  3.3886554882406388e+04  3.3885387429352559e+04  3.3884063720062622e+04  3.3882674210339908e+04  3.3881283674958060e+04  3.3879938985013257e+04  3.3878676243240319e+04  3.3877527731779614e+04  3.3876529570962761e+04  3.3875726859336624e+04  3.3875191940398799e+04  3.3874946640663009e+04  3.3875049085137623e+04  3.3874870083048285e+04  3.3874477990199339e+04  3.3873893051933097e+04  3.3873198172774792e+04  3.3872464164496610e+04  3.3871751488744652e+04  3.3871108324529203e+04  3.3870571734860234e+04  3.3870168943344506e+04  3.3869918497529601e+04  3.3869831192829828e+04  3.3869910664482602e+04  3.3870153603500818e+04  3.3870549581659252e+04  3.3871080505121223e+04  3.3871719750405944e+04  3.3872431075939254e+04  3.3873167458260781e+04  3.3873870069928380e+04  3.3874468224012824e+04  3.3874881807574071e+04  3.3875036013354278e+04  3.3874952796033052e+04  3.3875184222777672e+04  3.3875749020530769e+04  3.3876566662023994e+04  3.3877576265563046e+04  3.3878733839163666e+04  3.3880005254460732e+04  3.3881359093191997e+04  3.3882759639121359e+04  3.3884160078399596e+04  3.3885495421634812e+04  3.3886674737057343e+04  3.3887572318667109e+04  3.3888017451955486e+04  3.3887782474969448e+04  3.3886568868822069e+04  3.3883991157519362e+04  3.3879558461337168e+04  3.3872653640552839e+04  3.3862510099116618e+04  3.3848186503147699e+04  3.3828539922612334e+04  3.3802198242854363e+04  3.3767533134890517e+04  3.3722635440602273e+04  3.3665295542642139e+04  3.3592992172046288e+04  3.3502894181456293e+04  3.3391881102225903e+04  3.3256589836640422e+04  3.3093496652852875e+04  3.2899045825963112e+04  3.2669838961721569e+04  3.2402902584861658e+04  3.2096056670777951e+04  3.1748414861152505e+04  3.1361061127863657e+04  3.0937973164925945e+04  3.0487311472352412e+04  3.0023306416237290e+04  2.9569095765334445e+04  2.9161663731102963e+04  2.8861004824071599e+04  2.8759243235747355e+04  2.9077146294708939e+04  3.0081076179156615e+04  3.2956897182489280e+04  4.7281505444578106e+04  4.0896661865727132e+04  3.7608140365484942e+04  3.3780611516269637e+04  3.2058966915774607e+04  3.1201427474280266e+04  3.0845756360080260e+04  3.0781782194351505e+04  3.0888200444628572e+04  3.1092955950019274e+04  3.1349671626150441e+04  3.1628175089526299e+04  3.1908742747534936e+04  3.2178703743429247e+04  3.2430273321554887e+04  3.2659091750218213e+04  3.2863200067488862e+04  3.3042300552216089e+04  3.3197213673819206e+04  3.3329476742186620e+04  3.3441048145795925e+04  3.3534091915754885e+04  3.3610824009174066e+04  3.3673406069768069e+04  3.3723875491755898e+04  3.3764102910658810e+04  3.3795770049021776e+04  3.3820362305785835e+04  3.3839171677575148e+04  3.3853306588595493e+04  3.3863706017009070e+04  3.3871155965311307e+04  3.3876306852665410e+04  3.3879690827604318e+04  3.3881738327887877e+04  3.3882793466446274e+04  3.3883128012414221e+04  3.3882953876550528e+04  3.3882434111632283e+04  3.3881692509095032e+04  3.3880821920210808e+04  3.3879891457313213e+04  3.3878952736619613e+04  3.3878045306948159e+04  3.3877201306588024e+04  3.3876449180651674e+04  3.3875816375506169e+04  3.3875324595905709e+04  3.3875016277819333e+04  3.2915749540504767e+04  3.4863826046146052e+04  3.4148808436891864e+04  3.3176151549792441e+04  3.2525516991263259e+04  3.2155254512026633e+04  3.1992257442206177e+04  3.1969413789936036e+04  3.2037448242398994e+04  3.2161345194580095e+04  3.2316418984350585e+04  3.2485468801013219e+04  3.2656704789359352e+04  3.2822274710097714e+04  3.2977198612070271e+04  3.3118584874184729e+04  3.3245044771194523e+04  3.3356250975847994e+04  3.3452603410010772e+04  3.3534976992111253e+04  3.3604532854744735e+04  3.3662579166349104e+04  3.3710470782398457e+04  3.3749539162481196e+04  3.3781045658475610e+04  3.3806152598114066e+04  3.3825907665385479e+04  3.3841237974907541e+04  3.3852950987397628e+04  3.3861740039739976e+04  3.3868192782695944e+04  3.3872801245048824e+04  3.3875972587369419e+04  3.3878039882890225e+04  3.3879272477433587e+04  3.3879885645358256e+04  3.3880049381872355e+04  3.3879896261979440e+04  3.3879528358652533e+04  3.3879023251844017e+04  3.3878439179826106e+04  3.3877819385522547e+04  3.3877195701150988e+04  3.3876591486510297e+04  3.3876023854665043e+04  3.3875508380510459e+04  3.3875068456921166e+04  3.3874769823827060e+04  2.7972721737827658e+04  3.1226258754154616e+04  3.2506083593604319e+04  3.2809959626379910e+04  3.2804399269045774e+04  3.2748058145297055e+04  3.2717259889227895e+04  3.2727315186150841e+04  3.2773387524034108e+04  3.2845702691065191e+04  3.2934572120369521e+04  3.3031910512714443e+04  3.3131508423108469e+04  3.3228869992465283e+04  3.3320928384685634e+04  3.3405752225006763e+04  3.3482282348787252e+04  3.3550109339446004e+04  3.3609291527210036e+04  3.3660209420887557e+04  3.3703451583633541e+04  3.3739727021602273e+04  3.3769799556342303e+04  3.3794440147210662e+04  3.3814393633175358e+04  3.3830356846798582e+04  3.3842965508044668e+04  3.3852787727635026e+04  3.3860322334718177e+04  3.3866000588481947e+04  3.3870190136140023e+04  3.3873200339238429e+04  3.3875288308674499e+04  3.3876665167551320e+04  3.3877502204733377e+04  3.3877936693810327e+04  3.3878077237201178e+04  3.3878008556957895e+04  3.3877795696620175e+04  3.3877487626791648e+04  3.3877120266515056e+04  3.3876718961851686e+04  3.3876300501600206e+04  3.3875875088673703e+04  3.3875448906103193e+04  3.3875030060193705e+04  3.3874648013799597e+04  3.3874376888002953e+04  2.4775538631728894e+04  2.8242094946042907e+04  3.0467538508556911e+04  3.1722159377393742e+04  3.2405937002686176e+04  3.2789680367629808e+04  3.3021300942031572e+04  3.3174998655836731e+04  3.3287350962344768e+04  3.3376278833829099e+04  3.3450597074954574e+04  3.3514678512321268e+04  3.3570742417629692e+04  3.3619982092407867e+04  3.3663120216290634e+04  3.3700679464113717e+04  3.3733110010690791e+04  3.3760844815591830e+04  3.3784318728665603e+04  3.3803970063337336e+04  3.3820234439340202e+04  3.3833536083312021e+04  3.3844279289832069e+04  3.3852841358046477e+04  3.3859567523453930e+04  3.3864767946439024e+04  3.3868716565210227e+04  3.3871651495787257e+04  3.3873776618760443e+04  3.3875264000860370e+04  3.3876256837103785e+04  3.3876872651100704e+04  3.3877206546883797e+04  3.3877334358425709e+04  3.3877315589229474e+04  3.3877196071950581e+04  3.3877010306749784e+04  3.3876783457730911e+04  3.3876533001440286e+04  3.3876270034834452e+04  3.3876000269142882e+04  3.3875724794535861e+04  3.3875440799039498e+04  3.3875142759506169e+04  3.3874825487069691e+04  3.3874489796906957e+04  3.3874161431717832e+04  3.3873898782427830e+04  2.2541069826267263e+04  2.5943398716339154e+04  2.8583395523487103e+04  3.0434043662349828e+04  3.1669973253711421e+04  3.2482085524885722e+04  3.3015746542577115e+04  3.3368073075512526e+04  3.3601205031418212e+04  3.3754796491435962e+04  3.3854542475084083e+04  3.3917469534218668e+04  3.3955116624680122e+04  3.3975452947200596e+04  3.3984057781693999e+04  3.3984868393202079e+04  3.3980670316166368e+04  3.3973429208348854e+04  3.3964521599249318e+04  3.3954898639326791e+04  3.3945203950998126e+04  3.3935859215547338e+04  3.3927126670588041e+04  3.3919154894548308e+04  3.3912012408400573e+04  3.3905712354586904e+04  3.3900230613733118e+04  3.3895519073639560e+04  3.3891515298523758e+04  3.3888149510201212e+04  3.3885349550897663e+04  3.3883044323891387e+04  3.3881166082832948e+04  3.3879651849701157e+04  3.3878444173764685e+04  3.3877491392915239e+04  3.3876747519235279e+04  3.3876171840307601e+04  3.3875728306352736e+04  3.3875384764957300e+04  3.3875112115982171e+04  3.3874883514666006e+04  3.3874673891102946e+04  3.3874460178166672e+04  3.3874223641439079e+04  3.3873953642730790e+04  3.3873660232365495e+04  3.3873371153240201e+04  2.0908708896469794e+04  2.4201172703381944e+04  2.7007828665595618e+04  2.9205295519079096e+04  3.0834095773537763e+04  3.2001064212384681e+04  3.2818445708517756e+04  3.3379923611536782e+04  3.3756879118163852e+04  3.4001774586672189e+04  3.4152752528027951e+04  3.4237535778825237e+04  3.4276323983622169e+04  3.4283853171155242e+04  3.4270852095604016e+04  3.4245084130878706e+04  3.4212105866070968e+04  3.4175828860978829e+04  3.4138941068736982e+04  3.4103225540266576e+04  3.4069802286647697e+04  3.4039311777889052e+04  3.4012053719240233e+04  3.3988091426208179e+04  3.3967329727633798e+04  3.3949572536602813e+04  3.3934564856319150e+04  3.3922022922048527e+04  3.3911655348386936e+04  3.3903177501973485e+04  3.3896320813790619e+04  3.3890838351250350e+04  3.3886507663613425e+04  3.3883131675184544e+04  3.3880538213996289e+04  3.3878578617708758e+04  3.3877125744578807e+04  3.3876071629990351e+04  3.3875324965250380e+04  3.3874808536120276e+04  3.3874456749339479e+04  3.3874213395909537e+04  3.3874029922117974e+04  3.3873864427436871e+04  3.3873682316110368e+04  3.3873457287323428e+04  3.3873176591042873e+04  3.3872831878720433e+04  1.9678100564320899e+04  2.2881782673920286e+04  2.5749865753215818e+04  2.8143188573551790e+04  3.0035498828524225e+04  3.1472143168375907e+04  3.2528027308084522e+04  3.3281311233392793e+04  3.3801513044118859e+04  3.4146054227275927e+04  3.4360600375515925e+04  3.4480709404120207e+04  3.4533690166684406e+04  3.4540280410766165e+04  3.4516047904749605e+04  3.4472525232884662e+04  3.4418117657416238e+04  3.4358825330063519e+04  3.4298815443977706e+04  3.4240873412349501e+04  3.4186756609460899e+04  3.4137469789351489e+04  3.4093477780482615e+04  3.4054868205529834e+04  3.4021474626722098e+04  3.3992968563480732e+04  3.3968927203126266e+04  3.3948882278191420e+04  3.3932354475612898e+04  3.3918876838466233e+04  3.3908009887387285e+04  3.3899350597844612e+04  3.3892536894971847e+04  3.3887248948883003e+04  3.3883208251185519e+04  3.3880175214196031e+04  3.3877945845777838e+04  3.3876347906553026e+04  3.3875236846494692e+04  3.3874491740611200e+04  3.3874011401938049e+04  3.3873710823753623e+04  3.3873518156350212e+04  3.3873372273707639e+04  3.3873221335584800e+04  3.3873020914476561e+04  3.3872733400866513e+04  3.3872316110051215e+04  1.8749352903590243e+04  2.1891185837147303e+04  2.4778654952541598e+04  2.7281711420577816e+04  2.9345090400451249e+04  3.0975638823157900e+04  3.2217619663407269e+04  3.3131273296602238e+04  3.3778932220518785e+04  3.4217811332746540e+04  3.4497094061995878e+04  3.4657378015927658e+04  3.4731245002740674e+04  3.4744278160321737e+04  3.4716184198980620e+04  3.4661862256030778e+04  3.4592354189965197e+04  3.4515657072513779e+04  3.4437400323431459e+04  3.4361399542241415e+04  3.4290102659186108e+04  3.4224944587682214e+04  3.4166625649396898e+04  3.4115327468622068e+04  3.4070878228519745e+04  3.4032877382427840e+04  3.4000788240758418e+04  3.3974005364171382e+04  3.3951902404399982e+04  3.3933864940693536e+04  3.3919311946655602e+04  3.3907708767733529e+04  3.3898573872301393e+04  3.3891481137193317e+04  3.3886059023852009e+04  3.3881987676449935e+04  3.3878994715683148e+04  3.3876850299596874e+04  3.3875361867148516e+04  3.3874368862746582e+04  3.3873737658996877e+04  3.3873356822684473e+04  3.3873132845106200e+04  3.3872986263330255e+04  3.3872848198505555e+04  3.3872656020369359e+04  3.3872348669256782e+04  3.3871854263745809e+04  1.8066540386627687e+04  2.1168627248474259e+04  2.4059910471726718e+04  2.6624228556488673e+04  2.8795659144494650e+04  3.0559080816426973e+04  3.1937108518843674e+04  3.2974544014488660e+04  3.3725392201573071e+04  3.4244176457770627e+04  3.4581005191431672e+04  3.4779309788730840e+04  3.4875236198718703e+04  3.4897955098435210e+04  3.4870415519585978e+04  3.4810259986558216e+04  3.4730745161040359e+04  3.4641589361707251e+04  3.4549713488904999e+04  3.4459867089373794e+04  3.4375144502845193e+04  3.4297402249548242e+04  3.4227591078701778e+04  3.4166016213914925e+04  3.4112538364115346e+04  3.4066726629103869e+04  3.4027972856632972e+04  3.3995575484405577e+04  3.3968799512008358e+04  3.3946918029322987e+04  3.3929239684074222e+04  3.3915125592186807e+04  3.3903998463984586e+04  3.3895346118085741e+04  3.3888721064883604e+04  3.3883737445520979e+04  3.3880066295372511e+04  3.3877429849599874e+04  3.3875595411422335e+04  3.3874369149021535e+04  3.3873590067307538e+04  3.3873124289332642e+04  3.3872859696465712e+04  3.3872700770194133e+04  3.3872563441700935e+04  3.3872368920727786e+04  3.3872036350774659e+04  3.3871471044118814e+04  1.7597630841107166e+04  2.0676034160104242e+04  2.3566275672351483e+04  2.6163960418473307e+04  2.8400391539046326e+04  3.0248885062113470e+04  3.1718390677239968e+04  3.2842536410022993e+04  3.3668288598974956e+04  3.4247006085197441e+04  3.4628454368649123e+04  3.4857423065545918e+04  3.4972233041238440e+04  3.5004456878475081e+04  3.4979329778807783e+04  3.4916495717127807e+04  3.4830868046052638e+04  3.4733478805699044e+04  3.4632252547839023e+04  3.4532677910285289e+04  3.4438371522072019e+04  3.4351540075921534e+04  3.4273351619526213e+04  3.4204228879899150e+04  3.4144077333520450e+04  3.4092459710884003e+04  3.4048727216440595e+04  3.4012116250003848e+04  3.3981817986701273e+04  3.3957026880565878e+04  3.3936973027671113e+04  3.3920942359869900e+04  3.3908287828794935e+04  3.3898434066411923e+04  3.3890877455378737e+04  3.3885183092907224e+04  3.3880979769688543e+04  3.3877953796185458e+04  3.3875842278599535e+04  3.3874426262296707e+04  3.3873524009779787e+04  3.3872984539420861e+04  3.3872681424703245e+04  3.3872506654154240e+04  3.3872364241833915e+04  3.3872162847542204e+04  3.3871806775851954e+04  3.3871185254970747e+04  1.7324390364391751e+04  2.0390589876248832e+04  2.3278995143575787e+04  2.5892857973395316e+04  2.8163439614952898e+04  3.0058756905774917e+04  3.1580431051127103e+04  3.2755496709172254e+04  3.3626357574703652e+04  3.4241999700908658e+04  3.4651560136579166e+04  3.4900340957103464e+04  3.5027785658426707e+04  3.5066818455913803e+04  3.5044018217432240e+04  3.4980237657437821e+04  3.4891410089626166e+04  3.4789388604679618e+04  3.4682733202542579e+04  3.4577406354373466e+04  3.4477364134869880e+04  3.4385044757836928e+04  3.4301763639177581e+04  3.4228027067043484e+04  3.4163777104769681e+04  3.4108579655439542e+04  3.4061766354079227e+04  3.4022539502932406e+04  3.3990047827233830e+04  3.3963439501580440e+04  3.3941897721259658e+04  3.3924663078335339e+04  3.3911046143325446e+04  3.3900432936076395e+04  3.3892285377909990e+04  3.3886138334264084e+04  3.3881594466752656e+04  3.3878317800100311e+04  3.3876026658475581e+04  3.3874486421805021e+04  3.3873502382125371e+04  3.3872912821735525e+04  3.3872582284756543e+04  3.3872394829056218e+04  3.3872246884364955e+04  3.3872039218433616e+04  3.3871666964276032e+04  3.3871009980164432e+04  1.7237517693555292e+04  2.0300239974245040e+04  2.3187330436164877e+04  2.5805168509829149e+04  2.8085461761708360e+04  2.9994942162042571e+04  3.1533020856694478e+04  3.2724571289103496e+04  3.3610384567678848e+04  3.4238520725912924e+04  3.4657780825680478e+04  3.4913542758072705e+04  3.5045563084017136e+04  3.5087183296478186e+04  3.5065416526715031e+04  3.5001517001134453e+04  3.4911763340700149e+04  3.4808290707296714e+04  3.4699880135875886e+04  3.4592660847077903e+04  3.4490709842359371e+04  3.4396549030875343e+04  3.4311548204369428e+04  3.4236245591146369e+04  3.4170598523196437e+04  3.4114176188765203e+04  3.4066305244568939e+04  3.4026177635860280e+04  3.3992928537508276e+04  3.3965690993718505e+04  3.3943632644489386e+04  3.3925978897102948e+04  3.3912026026172534e+04  3.3901146954285789e+04  3.3892791860548758e+04  3.3886485270330340e+04  3.3881820879298735e+04  3.3878455043241142e+04  3.3876099606727337e+04  3.3874514533164169e+04  3.3873500621219864e+04  3.3872892429274936e+04  3.3872551368726316e+04  3.3872358757735208e+04  3.3872208416694775e+04  3.3871998474296408e+04  3.3871620906784410e+04  3.3870952857314805e+04  1.7334425766816294e+04  2.0401374027743848e+04  2.3287773190659114e+04  2.5898688265727917e+04  2.8166174232020527e+04  3.0058989874901297e+04  3.1578994012904470e+04  3.2753199561015823e+04  3.3623833513687212e+04  3.4239668793470184e+04  3.4649650468233209e+04  3.4898937890886271e+04  3.5026882153618120e+04  3.5066355783212755e+04  3.5043914874427537e+04  3.4980407818845313e+04  3.4891774080825118e+04  3.4789877989392844e+04  3.4683292464173901e+04  3.4577992610250083e+04  3.4477945828785472e+04  3.4385599922736888e+04  3.4302278080078759e+04  3.4228492655539427e+04  3.4164190278132613e+04  3.4108940153618227e+04  3.4062076193709137e+04  3.4022802169112176e+04  3.3990267655379306e+04  3.3963621219084671e+04  3.3942046119503066e+04  3.3924782788251039e+04  3.3911141491180948e+04  3.3900507859763056e+04  3.3892343387628425e+04  3.3886182504670920e+04  3.3881627450556785e+04  3.3878341855576502e+04  3.3876043685728546e+04  3.3874498004863126e+04  3.3873509835556659e+04  3.3872917244505079e+04  3.3872584618441528e+04  3.3872395940715025e+04  3.3872247612075851e+04  3.3872040573935454e+04  3.3871669768332271e+04  3.3871016292995133e+04  1.7618628031782311e+04  2.0698100212502090e+04  2.3583671634179187e+04  2.6175004822468596e+04  2.8405065442985771e+04  3.0248606847796593e+04  3.1714957020802649e+04  3.2837610278813983e+04  3.3663107221679013e+04  3.4242351367537893e+04  3.4624725731761326e+04  3.4854746166268851e+04  3.4970562670722844e+04  3.5003657193275452e+04  3.4979228718936734e+04  3.4916918734427483e+04  3.4831656544607220e+04  3.4734498551426259e+04  3.4633395903676130e+04  3.4533862589746459e+04  3.4439537610783242e+04  3.4352646389468980e+04  3.4274372020017960e+04  3.4205148882315334e+04  3.4144891155095705e+04  3.4093167810058439e+04  3.4049334307810626e+04  3.4012629750431945e+04  3.3982246834002792e+04  3.3957380663157754e+04  3.3937261366406230e+04  3.3921174489127145e+04  3.3908472331178571e+04  3.3898578722807455e+04  3.3890989179131560e+04  3.3885267923248684e+04  3.3881042905125796e+04  3.3877999653423809e+04  3.3875874566967184e+04  3.3874448068118778e+04  3.3873537888041021e+04  3.3872992618606877e+04  3.3872685519443905e+04  3.3872508429628535e+04  3.3872365304788582e+04  3.3872165171767752e+04  3.3871811966527843e+04  3.3871197535845509e+04  1.8100483325934059e+04  2.1202914215844150e+04  2.4085361819446636e+04  2.6638968663812931e+04  2.8800484769585633e+04  3.0556764813513390e+04  3.1930617462693332e+04  3.2966404099402869e+04  3.3717361607418563e+04  3.4237274055737893e+04  3.4575681645846125e+04  3.4