<?xml version="1.0"?>
<VTKFile type="UnstructuredGrid"  version="0.1"  >
<UnstructuredGrid>
<Piece  NumberOfPoints="1250" NumberOfCells="2352">
<Points>
<DataArray  type="Float64"  NumberOfComponents="3"  format="ascii">0 0 0  0.0336 0 0  0.0336 0.07729999999999999 0  0 0.07729999999999999 0  0.001400000000000002 0 0  0.002800000000000005 0 0  0.004200000000000008 0 0  0.005600000000000009 0 0  0.007000000000000011 0 0  0.008400000000000013 0 0  0.009800000000000019 0 0  0.01120000000000002 0 0  0.01260000000000003 0 0  0.01400000000000003 0 0  0.01540000000000004 0 0  0.01680000000000005 0 0  0.01820000000000004 0 0  0.01960000000000004 0 0  0.02100000000000004 0 0  0.02240000000000003 0 0  0.02380000000000003 0 0  0.02520000000000002 0 0  0.02660000000000002 0 0  0.02800000000000001 0 0  0.02940000000000001 0 0  0.03080000000000001 0 0  0.0322 0 0  0.0336 0.001577551020408161 0  0.0336 0.003155102040816321 0  0.0336 0.004732653061224482 0  0.0336 0.006310204081632642 0  0.0336 0.007887755102040803 0  0.0336 0.009465306122448964 0  0.0336 0.01104285714285712 0  0.0336 0.01262040816326528 0  0.0336 0.01419795918367344 0  0.0336 0.0157755102040816 0  0.0336 0.01735306122448976 0  0.0336 0.01893061224489792 0  0.0336 0.02050816326530608 0  0.0336 0.02208571428571425 0  0.0336 0.02366326530612241 0  0.0336 0.02524081632653058 0  0.0336 0.02681836734693874 0  0.0336 0.02839591836734691 0  0.0336 0.02997346938775507 0  0.0336 0.03155102040816323 0  0.0336 0.0331285714285714 0  0.0336 0.03470612244897956 0  0.0336 0.03628367346938772 0  0.0336 0.03786122448979588 0  0.0336 0.03943877551020405 0  0.0336 0.04101632653061221 0  0.0336 0.04259387755102037 0  0.0336 0.04417142857142854 0  0.0336 0.04574897959183671 0  0.0336 0.04732653061224486 0  0.0336 0.04890408163265302 0  0.0336 0.05048163265306119 0  0.0336 0.05205918367346936 0  0.0336 0.05363673469387752 0  0.0336 0.05521428571428568 0  0.0336 0.05679183673469385 0  0.0336 0.05836938775510202 0  0.0336 0.05994693877551018 0  0.0336 0.06152448979591834 0  0.0336 0.0631020408163265 0  0.0336 0.06467959183673468 0  0.0336 0.06625714285714283 0  0.0336 0.06783469387755101 0  0.0336 0.06941224489795916 0  0.0336 0.07098979591836733 0  0.0336 0.07256734693877549 0  0.0336 0.07414489795918365 0  0.0336 0.07572244897959182 0  0.03219999999999999 0.07729999999999999 0  0.03079999999999999 0.07729999999999999 0  0.02939999999999999 0.07729999999999999 0  0.02799999999999999 0.07729999999999999 0  0.02659999999999999 0.07729999999999999 0  0.02519999999999999 0.07729999999999999 0  0.02379999999999998 0.07729999999999999 0  0.02239999999999998 0.07729999999999999 0  0.02099999999999997 0.07729999999999999 0  0.01959999999999996 0.07729999999999999 0  0.01819999999999996 0.07729999999999999 0  0.01679999999999995 0.07729999999999999 0  0.01539999999999996 0.07729999999999999 0  0.01399999999999996 0.07729999999999999 0  0.01259999999999996 0.07729999999999999 0  0.01119999999999997 0.07729999999999999 0  0.009799999999999972 0.07729999999999999 0  0.008399999999999977 0.07729999999999999 0  0.006999999999999978 0.07729999999999999 0  0.005599999999999983 0.07729999999999999 0  0.004199999999999988 0.07729999999999999 0  0.00279999999999999 0.07729999999999999 0  0.001399999999999998 0.07729999999999999 0  0 0.07572244897959184 0  0 0.07414489795918368 0  0 0.07256734693877551 0  0 0.07098979591836735 0  0 0.06941224489795919 0  0 0.06783469387755103 0  0 0.06625714285714288 0  0 0.06467959183673472 0  0 0.06310204081632656 0  0 0.0615244897959184 0  0 0.05994693877551023 0  0 0.05836938775510207 0  0 0.05679183673469392 0  0 0.05521428571428574 0  0 0.05363673469387759 0  0 0.05205918367346941 0  0 0.05048163265306126 0  0 0.04890408163265308 0  0 0.04732653061224493 0  0 0.04574897959183676 0  0 0.0441714285714286 0  0 0.04259387755102043 0  0 0.04101632653061228 0  0 0.03943877551020411 0  0 0.03786122448979595 0  0 0.03628367346938779 0  0 0.03470612244897962 0  0 0.03312857142857146 0  0 0.03155102040816329 0  0 0.02997346938775513 0  0 0.02839591836734697 0  0 0.0268183673469388 0  0 0.02524081632653064 0  0 0.02366326530612247 0  0 0.02208571428571431 0  0 0.02050816326530614 0  0 0.01893061224489798 0  0 0.01735306122448981 0  0 0.01577551020408165 0  0 0.01419795918367349 0  0 0.01262040816326532 0  0 0.01104285714285716 0  0 0.009465306122448988 0  0 0.00788775510204083 0  0 0.006310204081632659 0  0 0.004732653061224501 0  0 0.003155102040816343 0  0 0.001577551020408172 0  0.001400000000000004 0.001577551020408172 0  0.001400000000000004 0.003155102040816329 0  0.001400000000000002 0.004732653061224501 0  0.001400000000000002 0.006310204081632645 0  0.001400000000000005 0.007887755102040823 0  0.001400000000000002 0.009465306122448981 0  0.001400000000000002 0.01104285714285717 0  0.001400000000000004 0.01262040816326531 0  0.0014 0.01419795918367349 0  0.001400000000000002 0.01577551020408166 0  0.001400000000000005 0.0173530612244898 0  0.001400000000000002 0.01893061224489797 0  0.001400000000000002 0.02050816326530613 0  0.001400000000000002 0.02208571428571431 0  0.001400000000000002 0.02366326530612247 0  0.001400000000000002 0.02524081632653063 0  0.001400000000000002 0.0268183673469388 0  0.001400000000000002 0.02839591836734696 0  0.001400000000000002 0.02997346938775513 0  0.001400000000000002 0.03155102040816328 0  0.001400000000000002 0.03312857142857147 0  0.001399999999999997 0.03470612244897962 0  0.001400000000000005 0.03628367346938778 0  0.001400000000000002 0.03786122448979594 0  0.001400000000000002 0.03943877551020411 0  0.001400000000000002 0.04101632653061228 0  0.001400000000000002 0.04259387755102043 0  0.001400000000000002 0.0441714285714286 0  0.0014 0.04574897959183676 0  0.001400000000000002 0.04732653061224492 0  0.001400000000000004 0.04890408163265308 0  0.001400000000000002 0.05048163265306126 0  0.001400000000000002 0.05205918367346941 0  0.0014 0.05363673469387758 0  0.001400000000000004 0.05521428571428574 0  0.001399999999999998 0.05679183673469391 0  0.001400000000000002 0.05836938775510207 0  0.0014 0.05994693877551023 0  0.001400000000000002 0.0615244897959184 0  0.001400000000000002 0.06310204081632656 0  0.001400000000000002 0.06467959183673472 0  0.0014 0.06625714285714286 0  0.001400000000000002 0.06783469387755102 0  0.001399999999999998 0.06941224489795919 0  0.001400000000000002 0.07098979591836735 0  0.0014 0.07256734693877552 0  0.001400000000000002 0.07414489795918368 0  0.001400000000000002 0.07572244897959184 0  0.002800000000000006 0.001577551020408165 0  0.002800000000000004 0.003155102040816343 0  0.002800000000000002 0.004732653061224487 0  0.002800000000000002 0.006310204081632652 0  0.002800000000000002 0.007887755102040813 0  0.0028 0.009465306122448981 0  0.002799999999999997 0.01104285714285715 0  0.0028 0.01262040816326532 0  0.0028 0.01419795918367348 0  0.0028 0.01577551020408165 0  0.002799999999999997 0.0173530612244898 0  0.0028 0.01893061224489797 0  0.002800000000000004 0.02050816326530613 0  0.0028 0.0220857142857143 0  0.0028 0.02366326530612247 0  0.002800000000000004 0.02524081632653064 0  0.0028 0.0268183673469388 0  0.0028 0.02839591836734696 0  0.002799999999999995 0.02997346938775512 0  0.002799999999999997 0.03155102040816328 0  0.002799999999999995 0.03312857142857146 0  0.0028 0.03470612244897962 0  0.002799999999999995 0.03628367346938778 0  0.002799999999999997 0.03786122448979594 0  0.002799999999999997 0.03943877551020411 0  0.002799999999999997 0.04101632653061228 0  0.002799999999999997 0.04259387755102043 0  0.002799999999999995 0.0441714285714286 0  0.002799999999999997 0.04574897959183676 0  0.002799999999999997 0.04732653061224493 0  0.002799999999999995 0.04890408163265308 0  0.002799999999999993 0.05048163265306124 0  0.002799999999999995 0.05205918367346941 0  0.002799999999999995 0.05363673469387757 0  0.002799999999999992 0.05521428571428574 0  0.002799999999999997 0.05679183673469391 0  0.002799999999999993 0.05836938775510207 0  0.002799999999999993 0.05994693877551022 0  0.002799999999999992 0.0615244897959184 0  0.002799999999999988 0.06310204081632655 0  0.002799999999999992 0.0646795918367347 0  0.002799999999999992 0.06625714285714286 0  0.00279999999999999 0.06783469387755103 0  0.00279999999999999 0.06941224489795919 0  0.002799999999999988 0.07098979591836735 0  0.00279999999999999 0.07256734693877552 0  0.002799999999999988 0.07414489795918368 0  0.00279999999999999 0.07572244897959184 0  0.004200000000000006 0.001577551020408172 0  0.004200000000000006 0.003155102040816329 0  0.004200000000000008 0.00473265306122448 0  0.004200000000000009 0.006310204081632652 0  0.004200000000000008 0.00788775510204082 0  0.004200000000000008 0.009465306122448978 0  0.004200000000000006 0.01104285714285716 0  0.004200000000000006 0.01262040816326532 0  0.004200000000000004 0.01419795918367349 0  0.004200000000000002 0.01577551020408165 0  0.004200000000000004 0.0173530612244898 0  0.004200000000000006 0.01893061224489797 0  0.004200000000000006 0.02050816326530613 0  0.004200000000000002 0.0220857142857143 0  0.004200000000000004 0.02366326530612247 0  0.004199999999999999 0.02524081632653062 0  0.004200000000000004 0.0268183673469388 0  0.004200000000000004 0.02839591836734696 0  0.004200000000000002 0.02997346938775512 0  0.004199999999999999 0.03155102040816328 0  0.004200000000000001 0.03312857142857145 0  0.004200000000000001 0.03470612244897962 0  0.004199999999999995 0.03628367346938778 0  0.004199999999999999 0.03786122448979594 0  0.004199999999999999 0.0394387755102041 0  0.004199999999999997 0.04101632653061227 0  0.004199999999999999 0.04259387755102043 0  0.004199999999999999 0.04417142857142859 0  0.004199999999999999 0.04574897959183676 0  0.004199999999999999 0.04732653061224492 0  0.004199999999999997 0.04890408163265308 0  0.004199999999999997 0.05048163265306124 0  0.004199999999999999 0.05205918367346941 0  0.004199999999999992 0.05363673469387757 0  0.0
[...]
<PointData  Scalars=" mean stress"> 
<DataArray  type="Float64"  Name=" mean stress"  format="ascii">1.0965968502775475e+05  1.0985202093871537e+05  4.8874993334305102e+04  4.8874986307308878e+04  5.4469583791676589e+04  3.8462001127440722e+04  3.2939776029118257e+04  2.9694540513963904e+04  2.7203690646119354e+04  2.5244864204096742e+04  2.3678372770572172e+04  2.2449852078238840e+04  2.1523038683438044e+04  2.0876269144635637e+04  2.0496914054017845e+04  2.0378697642758128e+04  2.0520225139673290e+04  2.0924639445994926e+04  2.1600431580291908e+04  2.2563663410669807e+04  2.3842054829217155e+04  2.5481764058779314e+04  2.7569304410738834e+04  3.0228814360551009e+04  3.3832146652614225e+04  3.9640543473952130e+04  4.5261056873377122e+04  5.7035114196516239e+04  4.5712291835650700e+04  4.2851932958005258e+04  4.1685368699793384e+04  4.1388703724223713e+04  4.1594695690147979e+04  4.2064485397592514e+04  4.2671967178333267e+04  4.3338113230528274e+04  4.4013138321437036e+04  4.4665618784548300e+04  4.5276244817747160e+04  4.5834018434956335e+04  4.6333718065670466e+04  4.6774131751871915e+04  4.7156779451311733e+04  4.7484970399607933e+04  4.7763103425485715e+04  4.7996150472814894e+04  4.8189281504281716e+04  4.8347599480913777e+04  4.8475960881949228e+04  4.8578862036215629e+04  4.8660375251682206e+04  4.8724121770433245e+04  4.8773271135261981e+04  4.8810558724128328e+04  4.8838315039957917e+04  4.8858501870642649e+04  4.8872751689241326e+04  4.8882407678650583e+04  4.8888562570557864e+04  4.8892095115896693e+04  4.8893703483768164e+04  4.8893935244208922e+04  4.8893213852369721e+04  4.8891861738854284e+04  4.8890120241678589e+04  4.8888166706324570e+04  4.8886129147531457e+04  4.8884098916994350e+04  4.8882141892133346e+04  4.8880308736240710e+04  4.8878644883310568e+04  4.8877201546150922e+04  4.8876043041442761e+04  4.8875272973922678e+04  4.8874921756582080e+04  4.8875071849020525e+04  4.8874815787332169e+04  4.8874251506779685e+04  4.8873407456433837e+04  4.8872403078225419e+04  4.8871340786883367e+04  4.8870308310733075e+04  4.8869375760421746e+04  4.8868597220780663e+04  4.8868012518915733e+04  4.8867648847829601e+04  4.8867522060266136e+04  4.8867637499217133e+04  4.8867990301410136e+04  4.8868565152310672e+04  4.8869335520643668e+04  4.8870262450126444e+04  4.8871293042891666e+04  4.8872358850675220e+04  4.8873374489924514e+04  4.8874237680954313e+04  4.8874832928001531e+04  4.8875053132697110e+04  4.8874930380263948e+04  4.8875261470605343e+04  4.8876074616329213e+04  4.8877254726902182e+04  4.8878714655754746e+04  4.8880391672847887e+04  4.8882237450864799e+04  4.8884207812898872e+04  4.8886252665670727e+04  4.8888306226141780e+04  4.8890276843889907e+04  4.8892035826238796e+04  4.8893404720603379e+04  4.8894140562343011e+04  4.8893918645316342e+04  4.8892312422607603e+04  4.8888770208562513e+04  4.8882588442938526e+04  4.8872881408231049e+04  4.8858547478587541e+04  4.8838232241545040e+04  4.8810289194574936e+04  4.8772739201054377e+04  4.8723230523160717e+04  4.8659002062175532e+04  4.8576853461960207e+04  4.8473127001479581e+04  4.8343707749674461e+04  4.8184050313393222e+04  4.7989242712077488e+04  4.7754120512747664e+04  4.7473447449540887e+04  4.7142182529915030e+04  4.6755858520329741e+04  4.6311103604563534e+04  4.5806348722434552e+04  4.5242781609170495e+04  4.4625641665529984e+04  4.3966011219876447e+04  4.3283419074704485e+04  4.2609634687504709e+04  4.1995253989861849e+04  4.1522599869337704e+04  4.1305711660509005e+04  4.1662466907096285e+04  4.2849370160149607e+04  4.5278676797763495e+04  7.1596470183336583e+04  5.8456652495545146e+04  5.4329519432114808e+04  4.8318428881708984e+04  4.6012988466432274e+04  4.4849750609898059e+04  4.4388231025203815e+04  4.4331214658675832e+04  4.4509093451570225e+04  4.4822050700847030e+04  4.5205226627583004e+04  4.5616435835496522e+04  4.6028109259799319e+04  4.6422585507559364e+04  4.6789086392587698e+04  4.7121664469537958e+04  4.7417758315508356e+04  4.7677145821654078e+04  4.7901173938543092e+04  4.8092188850774815e+04  4.8253116108631824e+04  4.8387155154739972e+04  4.8497561882674643e+04  4.8587498947021508e+04  4.8659937858734309e+04  4.8717600157409754e+04  4.8762927527365333e+04  4.8798072817970831e+04  4.8824905652338486e+04  4.8845027730006928e+04  4.8859794095958881e+04  4.8870337596423706e+04  4.8877594503366607e+04  4.8882329892299764e+04  4.8885161827876458e+04  4.8886583771769729e+04  4.8886984898032446e+04  4.8886668200359665e+04  4.8885866419051024e+04  4.8884755914843241e+04  4.8883468682740167e+04  4.8882102736109329e+04  4.8880731098653399e+04  4.8879409615247103e+04  4.8878183643654120e+04  4.8877093386019733e+04  4.8876177734438679e+04  4.8875467400995207e+04  4.8875023352219847e+04  4.8428445493544554e+04  5.0611496023551044e+04  4.9313429307462677e+04  4.7785798980695348e+04  4.6842397419789108e+04  4.6320246763398216e+04  4.6100872243371450e+04  4.6082106003991736e+04  4.6191904905119780e+04  4.6379885508055864e+04  4.6610778581346894e+04  4.6860141209135356e+04  4.7111295034623028e+04  4.7353190519379772e+04  4.7578873495763648e+04  4.7784360838795968e+04  4.7967802518242286e+04  4.8128850419007271e+04  4.8268181120667556e+04  4.8387136058570191e+04  4.8487452633134060e+04  4.8571066378081057e+04  4.8639968724253165e+04  4.8696108061524734e+04  4.8741324194571163e+04  4.8777308183748260e+04  4.8805581112603933e+04  4.8827486613748093e+04  4.8844193065776504e+04  4.8856702275967189e+04  4.8865862211668282e+04  4.8872381955272969e+04  4.8876847552432169e+04  4.8879737816328881e+04  4.8881439457879729e+04  4.8882261147363010e+04  4.8882446288777974e+04  4.8882184415937962e+04  4.8881621207434524e+04  4.8880867172354730e+04  4.8880005086023230e+04  4.8879096255823606e+04  4.8878185683325333e+04  4.8877306293334230e+04  4.8876482142012224e+04  4.8875735242195246e+04  4.8875099076879495e+04  4.8874668728307937e+04  4.0809314910371839e+04  4.5445067777595170e+04  4.7089145408678116e+04  4.7404469624018209e+04  4.7336390489968268e+04  4.7233873042195097e+04  4.7184059289144730e+04  4.7199692793828595e+04  4.7269502518652582e+04  4.7377592024724443e+04  4.7509264840051452e+04  4.7652608833699152e+04  4.7798625453187218e+04  4.7940874375026127e+04  4.8075007865059109e+04  4.8198322148891290e+04  4.8309366625066541e+04  4.8407618627479096e+04  4.8493219734726437e+04  4.8566766110402546e+04  4.8629144841408925e+04  4.8681408749788410e+04  4.8724682943425534e+04  4.8760097190591994e+04  4.8788738982258168e+04  4.8811622870777399e+04  4.8829672344066690e+04  4.8843711110881057e+04  4.8854461232233756e+04  4.8862546033390929e+04  4.8868496168332291e+04  4.8872757582773083e+04  4.8875700436175590e+04  4.8877628300127901e+04  4.8878787156429593e+04  4.8879373878446080e+04  4.8879544000611037e+04  4.8879418668930237e+04  4.8879090726168062e+04  4.8878629925167181e+04  4.8878087291408388e+04  4.8877498697819021e+04  4.8876887771192720e+04  4.8876268740831147e+04  4.8875650156378477e+04  4.8875043529801354e+04  4.8874491434987242e+04  4.8874101393370263e+04  3.6026063039761590e+04  4.1043361364528711e+04  4.4179910507746179e+04  4.5902555101286394e+04  4.6828361700159840e+04  4.7346263167438592e+04  4.7661462803821807e+04  4.7873647458766078e+04  4.8031191192887491e+04  4.8157487177813447e+04  4.8263945329361413e+04  4.8356197922541171e+04  4.8437106851658558e+04  4.8508230631066872e+04  4.8570539960291593e+04  4.8624762754087431e+04  4.8671544248325372e+04  4.8711514420970117e+04  4.8745309329342526e+04  4.8773570373145012e+04  4.8796934078238759e+04  4.8816019064825952e+04  4.8831413665877932e+04  4.8843665867098985e+04  4.8853276201609486e+04  4.8860693629400004e+04  4.8866314095461013e+04  4.8870481295805301e+04  4.8873489127017827e+04  4.8875585311269249e+04  4.8876975745337499e+04  4.8877829198127438e+04  4.8878282061960716e+04  4.8878442939165187e+04  4.8878396911990472e+04  4.8878209397670347e+04  4.8877929531596630e+04  4.8877593051007185e+04  4.8877224672230906e+04  4.8876839973906390e+04  4.8876446825923886e+04  4.8876046488866603e+04  4.8875634651563218e+04  4.8875203161082020e+04  4.8874744443073854e+04  4.8874259750621452e+04  4.8873786569073884e+04  4.8873409940708094e+04  3.2712300921178659e+04  3.7653942786171887e+04  4.1442417201148230e+04  4.4066353787097716e+04  4.5803841952709372e+04  4.6940600585506661e+04  4.7686492485778734e+04  4.8178954208644529e+04  4.8504905692475317e+04  4.8719574763953235e+04  4.8858743979083127e+04  4.8946183041025637e+04  4.8998057932835152e+04  4.9025573687755859e+04  4.9036598796773549e+04  4.9036697876102968e+04  4.9029812179312590e+04  4.9018723096626010e+04  4.9005376423474379e+04  4.8991113693182393e+04  4.8976839348779533e+04  4.8963142493009706e+04  4.8950385944590213e+04  4.8938771527859528e+04  4.8928387987734073e+04  4.8919246157191417e+04  4.8911304742306806e+04  4.8904489175610615e+04  4.8898705324547016e+04  4.8893849361248780e+04  4.8889814753324208e+04  4.8886497086270800e+04  4.8883797248520379e+04  4.8881623379341836e+04  4.8879891883109711e+04  4.8878527740085032e+04  4.8877464287326518e+04  4.8876642599843843e+04  4.8876010571558843e+04  4.8875521784061435e+04  4.8875134267347603e+04  4.8874809337652812e+04  4.8874510900645822e+04  4.8874205790372689e+04  4.8873867158791385e+04  4.8873479961870180e+04  4.8873059246029101e+04  4.8872645921949035e+04  3.0299211478534609e+04  3.5087627677504599e+04  3.9141995041772941e+04  4.2293442754616866e+04  4.4615074108168621e+04  4.6270898176548377e+04  4.7426882980069735e+04  4.8218751976013868e+04  4.8748744204619390e+04  4.9091553061753817e+04  4.9301351388866911e+04  4.9417492845307679e+04  4.9468661012736193e+04  4.9475790572760096e+04  4.9454125563286354e+04  4.9414692235090522e+04  4.9365373789729383e+04  4.9311708515620798e+04  4.9257490134280917e+04  4.9205222746334061e+04  4.9156466532821934e+04  4.9112100181983762e+04  4.9072519338338461e+04  4.9037785759649603e+04  4.9007738514926677e+04  4.8982076025741248e+04  4.8960415797628899e+04  4.8942337161800431e+04  4.8927411151961547e+04  4.8915220706617685e+04  4.8905373658115874e+04  4.8897510402034983e+04  4.8891307698914832e+04  4.8886479716017639e+04  4.8882777148503024e+04  4.8879985049570314e+04  4.8877919835781395e+04  4.8876425808813459e+04  4.8875371443535747e+04  4.8874645636828078e+04  4.8874154099203559e+04  4.8873816101992415e+04  4.8873561970495866e+04  4.8873331640296099e+04  4.8873075618082847e+04  4.8872756446379477e+04  4.8872356388004526e+04  4.8871864240426847e+04  2.8488836673693844e+04  3.3147966871326571e+04  3.7302759317587057e+04  4.0753318753876883e+04  4.3468903698495684e+04  4.5522101311527593e+04  4.7025615473582249e+04  4.8094429668003810e+04  4.8829557593584199e+04  4.9313839471081075e+04  4.9612882612928253e+04  4.9777649650986816e+04  4.9847220371036667e+04  4.9851235101088176e+04  4.9811917050113727e+04  4.9745704306671447e+04  4.9664553932020484e+04  4.9576979184623880e+04  4.9488871274812183e+04  4.9404147321420140e+04  4.9325258195887225e+04  4.9253583661473422e+04  4.9189737227134494e+04  4.9133799077389820e+04  4.9085492076321920e+04  4.9044313033283768e+04  4.9009629071414747e+04  4.8980746992388602e+04  4.8956961927474920e+04  4.8937590256213865e+04  4.8921990713647894e+04  4.8909576753068650e+04  4.8899822546847143e+04  4.8892264461751714e+04  4.8886499410304474e+04  4.8882181135707237e+04  4.8879015217259897e+04  4.8876753373589287e+04  4.8875187484113252e+04  4.8874143639000191e+04  4.8873476469156674e+04  4.8873063971375392e+04  4.8872803121838733e+04  4.8872606355563439e+04  4.8872399498915038e+04  4.8872119079421311e+04  4.8871711531712179e+04  4.8871115981715084e+04  2.7126474946836999e+04  3.1695015708647836e+04  3.5883217696704392e+04  3.9501782281066022e+04  4.2473884945221049e+04  4.4813991148808811e+04  4.6590008921479268e+04  4.7891609127788681e+04  4.8810298188841887e+04  4.9429380708770121e+04  4.9820085552288328e+04  5.0040989668526730e+04  5.0138973274705771e+04  5.0150761013765623e+04  5.0104580696615754e+04  5.0021726362963491e+04  4.9917940160204555e+04  4.9804589796595668e+04  4.9689647493818440e+04  4.9578489153961906e+04  4.9474537058123438e+04  4.9379769930528179e+04  4.9295122717768150e+04  4.9220796053439328e+04  4.9156492701899959e+04  4.9101595627032279e+04  4.9055299881789557e+04  4.9016708339426812e+04  4.8984899409776277e+04  4.8958973295443335e+04  4.8938082018566427e+04  4.8921447356764482e+04  4.8908369934759176e+04  4.8898231993913956e+04  4.8890495778830642e+04  4.8884699012962221e+04  4.8880448565099236e+04  4.8877413118396995e+04  4.8875315430720293e+04  4.8873924607329609e+04  4.8873048691459611e+04  4.8872527775588285e+04  4.8872227802886315e+04  4.8872034947551641e+04  4.8871850610566340e+04  4.8871585151515668e+04  4.8871151159340290e+04  4.8870445461935022e+04  2.6127682709270728e+04  3.0637760259173454e+04  3.4834125485382167e+04  3.8546656432657903e+04  4.1681008873463332e+04  4.4218135911344500e+04  4.6193898734164963e+04  4.7675708298441976e+04  4.8743477858298007e+04  4.9477134416496410e+04  4.9949669891627571e+04  5.0224054909664439e+04  5.0352503371966108e+04  5.0377021489231782e+04  5.0330562822485226e+04  5.0238391775081225e+04  5.0119438233039167e+04  4.9987535608173697e+04  4.9852497934708241e+04  4.9721026740801964e+04  4.9597456572011462e+04  4.9484356408744810e+04  4.9383007077586481e+04  4.9293774654770466e+04  4.9216398286883152e+04  4.9150208660057484e+04  4.9094291004432482e+04  4.9047604273345081e+04  4.9009066102616045e+04  4.8977611378175090e+04  4.8952230723033033e+04  4.8931993940443885e+04  4.8916062393253058e+04  4.8903693431511289e+04  4.8894239274305895e+04  4.8887142181837604e+04  4.8881927298485673e+04  4.8878194186826993e+04  4.8875607790396207e+04  4.8873889341648588e+04  4.8872807560616209e+04  4.8872170330150366e+04  4.8871816911390000e+04  4.8871610464778132e+04  4.8871430592594559e+04  4.8871164399221125e+04  4.8870695872017699e+04  4.8869888761670540e+04  2.5444086499398516e+04  2.9919335752341667e+04  3.4115559257412286e+04  3.7879363425735522e+04  4.1111333793454854e+04  4.3774641657505119e+04  4.5884787219481557e+04  4.7492921920599205e+04  4.8668988750791301e+04  4.9488654573119486e+04  5.0024711936639011e+04  5.0342319699487045e+04  5.0496982255383955e+04  5.0534260059722343e+04  5.0490448192324351e+04  5.0393712336145618e+04  5.0265369071198686e+04  5.0121134819499646e+04  4.9972255611870380e+04  4.9826482645196731e+04  4.9688888325901207e+04  4.9562532909752656e+04  4.9448998783235380e+04  4.9348811570865728e+04  4.9261766837831950e+04  4.9187179505398635e+04  4.9124070954300332e+04  4.9071306564595157e+04  4.9027694335717955e+04  4.8992053340690516e+04  4.8963259124296521e+04  4.8940271755270391e+04  4.8922151068053397e+04  4.8908062657463386e+04  4.8897277392220873e+04  4.8889166566350235e+04  4.8883194286984100e+04  4.8878908282056989e+04  4.8875929981671441e+04  4.8873944462776977e+04  4.8872690631182610e+04  4.8871951812886269e+04  4.8871546745552158e+04  4.8871320671923029e+04  4.8871136080573939e+04  4.8870862004514267e+04  4.8870360977301221e+04  4.8869473404491277e+04  2.5048257429384939e+04  2.9505726423520475e+04  3.3700044758569114e+04  3.7488764967334435e+04  4.0771919513806628e+04  4.3504483905861118e+04  4.5691033312484120e+04  4.7373115900385354e+04  4.8614186553047126e+04  4.9486662441154971e+04  5.0062603773162256e+04  5.0408045999020731e+04  5.0580204758616841e+04  5.0626642619556544e+04  5.0585616570220285e+04  5.0487041174951497e+04  5.0353699108034773e+04  5.0202480853492169e+04  5.0045536991985420e+04  4.9891290234436878e+04  4.9745291683666008e+04  4.9610926033748190e+04  4.9489980217267323e+04  4.9383093777399568e+04  4.9290109696974447e+04  4.9210343197360657e+04  4.9142784062897183e+04  4.9086245870624334e+04  4.9039473379700503e+04  4.9001217390617217e+04  4.8970284671036308e+04  4.8945569072843638e+04  4.8926068721821190e+04  4.8910893125687369e+04  4.8899263193678715e+04  4.8890506465965002e+04  4.8884049290374380e+04  4.8879407234058846e+04  4.8876174658033677e+04  4.8874014090504068e+04  4.8872645790699309e+04  4.8871837667836320e+04  4.8871395504304252e+04  4.8871153164849478e+04  4.8870962242469024e+04  4.8870680402889382e+04  4.8870156913442581e+04  4.8869218577357024e+04  2.4926283141005526e+04  2.9379054666620777e+04  3.3571892559152991e+04  3.7366779372479228e+04  4.0664241184275284e+04  4.3417290588041542e+04  4.5627289294399336e+04  4.7332719264631756e+04  4.8594795447537253e+04  4.9484684733549679e+04  5.0074028187576885e+04  5.0429010861659299e+04  5.0607318340061371e+04  5.0657118311994767e+04  5.0617288448029554e+04  5.0518312474863356e+04  5.0383459958053725e+04  5.0230017567880830e+04  5.0070445333702934e+04  4.9913398667704678e+04  4.9764596787433082e+04  4.9627540128640772e+04  4.9504090184663284e+04  4.9394929593143337e+04  4.9299921091076023e+04  4.9218382919382413e+04  4.9149296387827904e+04  4.9091459167259833e+04  4.9043595754638816e+04  4.9004434600229673e+04  4.8972759654123452e+04  4.8947442595494409e+04  4.8927460742979958e+04  4.8911904588660291e+04  4.8899978027177240e+04  4.8890993640693465e+04  4.8884364825710982e+04  4.8879596086238125e+04  4.8876272447526826e+04  4.8874048643106355e+04  4.8872638473569132e+04  4.8871804501311766e+04  4.8871348014291092e+04  4.8871098947154795e+04  4.8870905144751756e+04  4.8870620473677714e+04  4.8870089633907897e+04  4.8869135496259893e+04  2.5074396315427097e+04  2.9534113735747203e+04  3.3726119817164581e+04  3.7510380893075147e+04  4.0788067479886624e+04  4.3515441331985443e+04  4.5697719694205749e+04  4.7376694769527858e+04  4.8615754147610358e+04  4.9487099421751016e+04  5.0062533359105510e+04  5.0407862732468850e+04  5.0580126998462089e+04  5.0626766284972771e+04  5.0585960506038035e+04  5.0487580869151119e+04  5.0354389662270158e+04  5.0203271581846100e+04  5.0046379875139173e+04  4.9892144229431688e+04  4.9746124375433712e+04  4.9611713688787080e+04  4.9490706963190853e+04  4.9383750376763506e+04  4.9290692207183376e+04  4.9210851686258102e+04  4.9143221469243967e+04  4.9086617046832507e+04  4.9039784322749969e+04  4.9001474648797943e+04  4.8970494905121886e+04  4.8945738746779563e+04  4.8926203898028623e+04  4.8910999341957766e+04  4.8899345401634047e+04  4.8890569014229732e+04  4.8884095938954611e+04  4.8879441189495366e+04  4.8876198621992320e+04  4.8874030317595105e+04  4.8872656153533644e+04  4.8871843733223781e+04  4.8871398616251594e+04  4.8871154564003184e+04  4.8870963131293604e+04  4.8870682242196533e+04  4.8870160887111975e+04  4.8869227698949107e+04  2.5498065633699382e+04  2.9977305355396260e+04  3.4167938488197258e+04  3.7922017879182255e+04  4.1142555524422860e+04  4.3795323609384410e+04  4.5897042119543054e+04  4.7499231084301689e+04  4.8671567556206333e+04  4.9489219307606763e+04  5.0024443916644697e+04  5.0341942978653678e+04  5.0496880833881813e+04  5.0534588901961601e+04  5.0491221440977315e+04  5.0394867723479751e+04  5.0266810680889765e+04  5.0122759656424758e+04  4.9973968630764641e+04  4.9828204069609121e+04  4.9690556123290989e+04  4.9564102403811252e+04  4.9450440744466534e+04  4.9350109643136384e+04  4.9262914827747110e+04  4.9188178835286853e+04  4.9124928431549437e+04  4.9072032526163806e+04  4.9028301169648796e+04  4.8992554354635584e+04  4.8963667715700249e+04  4.8940600832384218e+04  4.8922412672322651e+04  4.8908267742008189e+04  4.8897435717309701e+04  4.8889286679273930e+04  4.8883283560216682e+04  4.8878972989620197e+04  4.8875975399454204e+04  4.8873974984753899e+04  4.8872709897531546e+04  4.8871962858387102e+04  4.8871552160226791e+04  4.8871322838018044e+04  4.8871137302871175e+04  4.8870865132206163e+04  4.8870368325044197e+04  4.8869491144681415e+04  2.6213160047221016e+04  3.0727717590744873e+04  3.4912946207491696e+04  3.8608691841568558e+04  4.1724735961975974e+04  4.4245911187509962e+04  4.6209485253604485e+04  4.7683108049664574e+04  4.8746042634837053e+04  4.9477299012849871e+04  4.9949021036539787e+04  5.0