<?xml version="1.0"?>
<VTKFile type="UnstructuredGrid"  version="0.1"  >
<UnstructuredGrid>
<Piece  NumberOfPoints="1250" NumberOfCells="2352">
<Points>
<DataArray  type="Float64"  NumberOfComponents="3"  format="ascii">0 0 0  0.0336 0 0  0.0336 0.07729999999999999 0  0 0.07729999999999999 0  0.001400000000000002 0 0  0.002800000000000005 0 0  0.004200000000000008 0 0  0.005600000000000009 0 0  0.007000000000000011 0 0  0.008400000000000013 0 0  0.009800000000000019 0 0  0.01120000000000002 0 0  0.01260000000000003 0 0  0.01400000000000003 0 0  0.01540000000000004 0 0  0.01680000000000005 0 0  0.01820000000000004 0 0  0.01960000000000004 0 0  0.02100000000000004 0 0  0.02240000000000003 0 0  0.02380000000000003 0 0  0.02520000000000002 0 0  0.02660000000000002 0 0  0.02800000000000001 0 0  0.02940000000000001 0 0  0.03080000000000001 0 0  0.0322 0 0  0.0336 0.001577551020408161 0  0.0336 0.003155102040816321 0  0.0336 0.004732653061224482 0  0.0336 0.006310204081632642 0  0.0336 0.007887755102040803 0  0.0336 0.009465306122448964 0  0.0336 0.01104285714285712 0  0.0336 0.01262040816326528 0  0.0336 0.01419795918367344 0  0.0336 0.0157755102040816 0  0.0336 0.01735306122448976 0  0.0336 0.01893061224489792 0  0.0336 0.02050816326530608 0  0.0336 0.02208571428571425 0  0.0336 0.02366326530612241 0  0.0336 0.02524081632653058 0  0.0336 0.02681836734693874 0  0.0336 0.02839591836734691 0  0.0336 0.02997346938775507 0  0.0336 0.03155102040816323 0  0.0336 0.0331285714285714 0  0.0336 0.03470612244897956 0  0.0336 0.03628367346938772 0  0.0336 0.03786122448979588 0  0.0336 0.03943877551020405 0  0.0336 0.04101632653061221 0  0.0336 0.04259387755102037 0  0.0336 0.04417142857142854 0  0.0336 0.04574897959183671 0  0.0336 0.04732653061224486 0  0.0336 0.04890408163265302 0  0.0336 0.05048163265306119 0  0.0336 0.05205918367346936 0  0.0336 0.05363673469387752 0  0.0336 0.05521428571428568 0  0.0336 0.05679183673469385 0  0.0336 0.05836938775510202 0  0.0336 0.05994693877551018 0  0.0336 0.06152448979591834 0  0.0336 0.0631020408163265 0  0.0336 0.06467959183673468 0  0.0336 0.06625714285714283 0  0.0336 0.06783469387755101 0  0.0336 0.06941224489795916 0  0.0336 0.07098979591836733 0  0.0336 0.07256734693877549 0  0.0336 0.07414489795918365 0  0.0336 0.07572244897959182 0  0.03219999999999999 0.07729999999999999 0  0.03079999999999999 0.07729999999999999 0  0.02939999999999999 0.07729999999999999 0  0.02799999999999999 0.07729999999999999 0  0.02659999999999999 0.07729999999999999 0  0.02519999999999999 0.07729999999999999 0  0.02379999999999998 0.07729999999999999 0  0.02239999999999998 0.07729999999999999 0  0.02099999999999997 0.07729999999999999 0  0.01959999999999996 0.07729999999999999 0  0.01819999999999996 0.07729999999999999 0  0.01679999999999995 0.07729999999999999 0  0.01539999999999996 0.07729999999999999 0  0.01399999999999996 0.07729999999999999 0  0.01259999999999996 0.07729999999999999 0  0.01119999999999997 0.07729999999999999 0  0.009799999999999972 0.07729999999999999 0  0.008399999999999977 0.07729999999999999 0  0.006999999999999978 0.07729999999999999 0  0.005599999999999983 0.07729999999999999 0  0.004199999999999988 0.07729999999999999 0  0.00279999999999999 0.07729999999999999 0  0.001399999999999998 0.07729999999999999 0  0 0.07572244897959184 0  0 0.07414489795918368 0  0 0.07256734693877551 0  0 0.07098979591836735 0  0 0.06941224489795919 0  0 0.06783469387755103 0  0 0.06625714285714288 0  0 0.06467959183673472 0  0 0.06310204081632656 0  0 0.0615244897959184 0  0 0.05994693877551023 0  0 0.05836938775510207 0  0 0.05679183673469392 0  0 0.05521428571428574 0  0 0.05363673469387759 0  0 0.05205918367346941 0  0 0.05048163265306126 0  0 0.04890408163265308 0  0 0.04732653061224493 0  0 0.04574897959183676 0  0 0.0441714285714286 0  0 0.04259387755102043 0  0 0.04101632653061228 0  0 0.03943877551020411 0  0 0.03786122448979595 0  0 0.03628367346938779 0  0 0.03470612244897962 0  0 0.03312857142857146 0  0 0.03155102040816329 0  0 0.02997346938775513 0  0 0.02839591836734697 0  0 0.0268183673469388 0  0 0.02524081632653064 0  0 0.02366326530612247 0  0 0.02208571428571431 0  0 0.02050816326530614 0  0 0.01893061224489798 0  0 0.01735306122448981 0  0 0.01577551020408165 0  0 0.01419795918367349 0  0 0.01262040816326532 0  0 0.01104285714285716 0  0 0.009465306122448988 0  0 0.00788775510204083 0  0 0.006310204081632659 0  0 0.004732653061224501 0  0 0.003155102040816343 0  0 0.001577551020408172 0  0.001400000000000004 0.001577551020408172 0  0.001400000000000004 0.003155102040816329 0  0.001400000000000002 0.004732653061224501 0  0.001400000000000002 0.006310204081632645 0  0.001400000000000005 0.007887755102040823 0  0.001400000000000002 0.009465306122448981 0  0.001400000000000002 0.01104285714285717 0  0.001400000000000004 0.01262040816326531 0  0.0014 0.01419795918367349 0  0.001400000000000002 0.01577551020408166 0  0.001400000000000005 0.0173530612244898 0  0.001400000000000002 0.01893061224489797 0  0.001400000000000002 0.02050816326530613 0  0.001400000000000002 0.02208571428571431 0  0.001400000000000002 0.02366326530612247 0  0.001400000000000002 0.02524081632653063 0  0.001400000000000002 0.0268183673469388 0  0.001400000000000002 0.02839591836734696 0  0.001400000000000002 0.02997346938775513 0  0.001400000000000002 0.03155102040816328 0  0.001400000000000002 0.03312857142857147 0  0.001399999999999997 0.03470612244897962 0  0.001400000000000005 0.03628367346938778 0  0.001400000000000002 0.03786122448979594 0  0.001400000000000002 0.03943877551020411 0  0.001400000000000002 0.04101632653061228 0  0.001400000000000002 0.04259387755102043 0  0.001400000000000002 0.0441714285714286 0  0.0014 0.04574897959183676 0  0.001400000000000002 0.04732653061224492 0  0.001400000000000004 0.04890408163265308 0  0.001400000000000002 0.05048163265306126 0  0.001400000000000002 0.05205918367346941 0  0.0014 0.05363673469387758 0  0.001400000000000004 0.05521428571428574 0  0.001399999999999998 0.05679183673469391 0  0.001400000000000002 0.05836938775510207 0  0.0014 0.05994693877551023 0  0.001400000000000002 0.0615244897959184 0  0.001400000000000002 0.06310204081632656 0  0.001400000000000002 0.06467959183673472 0  0.0014 0.06625714285714286 0  0.001400000000000002 0.06783469387755102 0  0.001399999999999998 0.06941224489795919 0  0.001400000000000002 0.07098979591836735 0  0.0014 0.07256734693877552 0  0.001400000000000002 0.07414489795918368 0  0.001400000000000002 0.07572244897959184 0  0.002800000000000006 0.001577551020408165 0  0.002800000000000004 0.003155102040816343 0  0.002800000000000002 0.004732653061224487 0  0.002800000000000002 0.006310204081632652 0  0.002800000000000002 0.007887755102040813 0  0.0028 0.009465306122448981 0  0.002799999999999997 0.01104285714285715 0  0.0028 0.01262040816326532 0  0.0028 0.01419795918367348 0  0.0028 0.01577551020408165 0  0.002799999999999997 0.0173530612244898 0  0.0028 0.01893061224489797 0  0.002800000000000004 0.02050816326530613 0  0.0028 0.0220857142857143 0  0.0028 0.02366326530612247 0  0.002800000000000004 0.02524081632653064 0  0.0028 0.0268183673469388 0  0.0028 0.02839591836734696 0  0.002799999999999995 0.02997346938775512 0  0.002799999999999997 0.03155102040816328 0  0.002799999999999995 0.03312857142857146 0  0.0028 0.03470612244897962 0  0.002799999999999995 0.03628367346938778 0  0.002799999999999997 0.03786122448979594 0  0.002799999999999997 0.03943877551020411 0  0.002799999999999997 0.04101632653061228 0  0.002799999999999997 0.04259387755102043 0  0.002799999999999995 0.0441714285714286 0  0.002799999999999997 0.04574897959183676 0  0.002799999999999997 0.04732653061224493 0  0.002799999999999995 0.04890408163265308 0  0.002799999999999993 0.05048163265306124 0  0.002799999999999995 0.05205918367346941 0  0.002799999999999995 0.05363673469387757 0  0.002799999999999992 0.05521428571428574 0  0.002799999999999997 0.05679183673469391 0  0.002799999999999993 0.05836938775510207 0  0.002799999999999993 0.05994693877551022 0  0.002799999999999992 0.0615244897959184 0  0.002799999999999988 0.06310204081632655 0  0.002799999999999992 0.0646795918367347 0  0.002799999999999992 0.06625714285714286 0  0.00279999999999999 0.06783469387755103 0  0.00279999999999999 0.06941224489795919 0  0.002799999999999988 0.07098979591836735 0  0.00279999999999999 0.07256734693877552 0  0.002799999999999988 0.07414489795918368 0  0.00279999999999999 0.07572244897959184 0  0.004200000000000006 0.001577551020408172 0  0.004200000000000006 0.003155102040816329 0  0.004200000000000008 0.00473265306122448 0  0.004200000000000009 0.006310204081632652 0  0.004200000000000008 0.00788775510204082 0  0.004200000000000008 0.009465306122448978 0  0.004200000000000006 0.01104285714285716 0  0.004200000000000006 0.01262040816326532 0  0.004200000000000004 0.01419795918367349 0  0.004200000000000002 0.01577551020408165 0  0.004200000000000004 0.0173530612244898 0  0.004200000000000006 0.01893061224489797 0  0.004200000000000006 0.02050816326530613 0  0.004200000000000002 0.0220857142857143 0  0.004200000000000004 0.02366326530612247 0  0.004199999999999999 0.02524081632653062 0  0.004200000000000004 0.0268183673469388 0  0.004200000000000004 0.02839591836734696 0  0.004200000000000002 0.02997346938775512 0  0.004199999999999999 0.03155102040816328 0  0.004200000000000001 0.03312857142857145 0  0.004200000000000001 0.03470612244897962 0  0.004199999999999995 0.03628367346938778 0  0.004199999999999999 0.03786122448979594 0  0.004199999999999999 0.0394387755102041 0  0.004199999999999997 0.04101632653061227 0  0.004199999999999999 0.04259387755102043 0  0.004199999999999999 0.04417142857142859 0  0.004199999999999999 0.04574897959183676 0  0.004199999999999999 0.04732653061224492 0  0.004199999999999997 0.04890408163265308 0  0.004199999999999997 0.05048163265306124 0  0.004199999999999999 0.05205918367346941 0  0.004199999999999992 0.05363673469387757 0  0.0
[...]
<PointData  Scalars=" mean stress"> 
<DataArray  type="Float64"  Name=" mean stress"  format="ascii">8.5954108920177314e+04  8.7653403226315757e+04  4.2624994151166960e+04  4.2624988036265793e+04  4.6072067059824862e+04  3.3073131383981789e+04  2.8685810539581489e+04  2.5783812938336956e+04  2.3653534831397727e+04  2.1962173825286976e+04  2.0611167217769391e+04  1.9551065424551896e+04  1.8750735490575156e+04  1.8191903944328256e+04  1.7863878554814142e+04  1.7761379813718362e+04  1.7883252176280013e+04  1.8232177573473851e+04  1.8815372994911788e+04  1.9646499595948349e+04  2.0749198332694763e+04  2.2163394251758167e+04  2.3963247751415598e+04  2.6262649173789865e+04  2.9406310789287243e+04  3.4281989905012721e+04  4.0363946652492981e+04  5.0812085453485946e+04  4.0367421234442867e+04  3.7756718284354763e+04  3.6561349408401198e+04  3.6225590549621025e+04  3.6358660408069263e+04  3.6739808802289313e+04  3.7250991856190500e+04  3.7819273260259244e+04  3.8399164052831853e+04  3.8962021915041369e+04  3.9490234138477186e+04  3.9973695004230598e+04  4.0407491251036081e+04  4.0790305241765083e+04  4.1123268567246632e+04  4.1409120654927930e+04  4.1651586234933769e+04  4.1854916557954908e+04  4.2023556281614459e+04  4.2161907846440423e+04  4.2274171454063529e+04  4.2364243158544268e+04  4.2435656932593054e+04  4.2491559281925664e+04  4.2534707245510428e+04  4.2567482530812951e+04  4.2591916141864909e+04  4.2609719198077626e+04  4.2622316742434108e+04  4.2630882227499846e+04  4.2636371074591305e+04  4.2639552252733985e+04  4.2641037245931635e+04  4.2641306092995619e+04  4.2640730415696176e+04  4.2639593516444205e+04  4.2638107742918393e+04  4.2636429397885237e+04  4.2634671532650660e+04  4.2632915007640506e+04  4.2631218266705619e+04  4.2629626303136145e+04  4.2628179388437929e+04  4.2626922694856708e+04  4.2625912734585945e+04  4.2625240289174864e+04  4.2624932495612091e+04  4.2625062059220436e+04  4.2624837522778296e+04  4.2624344675909029e+04  4.2623608760936753e+04  4.2622734024616118e+04  4.2621809625911737e+04  4.2620911776515466e+04  4.2620101266923986e+04  4.2619424906835302e+04  4.2618917109115915e+04  4.2618601336972366e+04  4.2618491254581859e+04  4.2618591464743753e+04  4.2618897778138860e+04  4.2619396995388131e+04  4.2620066226481518e+04  4.2620871815214770e+04  4.2621767985901388e+04  4.2622695400270764e+04  4.2623579898361029e+04  4.2624332464314466e+04  4.2624852338312419e+04  4.2625045656991111e+04  4.2624940162698302e+04  4.2625230472215459e+04  4.2625940501459663e+04  4.2626969269018693e+04  4.2628240389282742e+04  4.2629698739281514e+04  4.2631301656253927e+04  4.2633009958558214e+04  4.2634779142268846e+04  4.2636550837757313e+04  4.2638243915262363e+04  4.2639744722655290e+04  4.2640895981332018e+04  4.2641483914168901e+04  4.2641223223261855e+04  4.2639739580071255e+04  4.2636549347571454e+04  4.2631036333878073e+04  4.2622425492331313e+04  4.2609753648759368e+04  4.2591837568425981e+04  4.2567239992713330e+04  4.2534234699694607e+04  4.2490772198113526e+04  4.2434448376951230e+04  4.2362479330635520e+04  4.2271686692036099e+04  4.2158499160005114e+04  4.2018977535890859e+04  4.1848872517888311e+04  4.1643726794277740e+04  4.1399035720341388e+04  4.1110484252591727e+04  4.0774282261217530e+04  4.0387626708653697e+04  3.9949329214451536e+04  3.9460664937138761e+04  3.8926530322178587e+04  3.8357057374510361e+04  3.7769973414275402e+04  3.7194138422785880e+04  3.6675680026621296e+04  3.6289475938355208e+04  3.6149430026795380e+04  3.6530561293129147e+04  3.7760309113469120e+04  4.1158694770143615e+04  5.9519958882968866e+04  5.1436822335962941e+04  4.7250839605457601e+04  4.2420771287632262e+04  4.0285522656789879e+04  3.9222474683171247e+04  3.8786002841430854e+04  3.8713215818496094e+04  3.8852734945211923e+04  3.9114582195582108e+04  3.9440783021624702e+04  3.9793622122465073e+04  4.0148455152863127e+04  4.0489467694874053e+04  4.0806965030568557e+04  4.1095542238469126e+04  4.1352800245954437e+04  4.1578418254442746e+04  4.1773472443432656e+04  4.1939932490926403e+04  4.2080290695315947e+04  4.2197292012117679e+04  4.2293741632985817e+04  4.2372372199109122e+04  4.2435756591756232e+04  4.2486255131962876e+04  4.2525988293574628e+04  4.2556827874253948e+04  4.2580401080792552e+04  4.2598103230229448e+04  4.2611115789695803e+04  4.2620427308042614e+04  4.2626855459252409e+04  4.2631068945940438e+04  4.2633608423502286e+04  4.2634905921692975e+04  4.2635302478598962e+04  4.2635063877539891e+04  4.2634394504040174e+04  4.2633449428165979e+04  4.2632344876111762e+04  4.2631167288468183e+04  4.2629981169865205e+04  4.2628835912331087e+04  4.2627771645939989e+04  4.2626823906033424e+04  4.2626027010498525e+04  4.2625408084954855e+04  4.2625020438671789e+04  4.1576768944326781e+04  4.3891610414857678e+04  4.2947079421531016e+04  4.1714644380241043e+04  4.0900380062527198e+04  4.0440059456002164e+04  4.0239994448578895e+04  4.0215359017382732e+04  4.0304225509193413e+04  4.0462673531942375e+04  4.0659772094234802e+04  4.0873989027028721e+04  4.1090581307536107e+04  4.1299744357586656e+04  4.1495274482792614e+04  4.1673584751184229e+04  4.1832970141265316e+04  4.1973053426199956e+04  4.2094365882607250e+04  4.2198030877710749e+04  4.2285527195673734e+04  4.2358514679839951e+04  4.2418708645360966e+04  4.2467792292870159e+04  4.2507358451736545e+04  4.2538873641167113e+04  4.2563658793611401e+04  4.2582882112765328e+04  4.2597560482979985e+04  4.2608566635288676e+04  4.2616639929098470e+04  4.2622399143995914e+04  4.2626356109022316e+04  4.2628929341256611e+04  4.2630457134825272e+04  4.2631209748300789e+04  4.2631400493152134e+04  4.2631195638366255e+04  4.2630723124303833e+04  4.2630080127437526e+04  4.2629339542279544e+04  4.2628555447948471e+04  4.2627767615064484e+04  4.2627005199267878e+04  4.2626289540389538e+04  4.2625640095630035e+04  4.2625086214481926e+04  4.2624710671099449e+04  3.5294783394803890e+04  3.9346727039154728e+04  4.0916365983960321e+04  4.1280578548112491e+04  4.1267706726127341e+04  4.1196453451736692e+04  4.1159152423130712e+04  4.1173687060091514e+04  4.1233445825246898e+04  4.1325962779521120e+04  4.1439017246549338e+04  4.1562457479896417e+04  4.1688508794174268e+04  4.1811555088780187e+04  4.1927775233953231e+04  4.2034771833235493e+04  4.2131239699585763e+04  4.2216686293361352e+04  4.2291203294478473e+04  4.2355284060238635e+04  4.2409680616463898e+04  4.2455293950043902e+04  4.2493091897351769e+04  4.2524049554804791e+04  4.2549107773891490e+04  4.2569145912138061e+04  4.2584965583875361e+04  4.2597282685532686e+04  4.2606725454435677e+04  4.2613836753695330e+04  4.2619079156470434e+04  4.2622841729033658e+04  4.2625447686578664e+04  4.2627162320124662e+04  4.2628200773329299e+04  4.2628735388313064e+04  4.2628902446215507e+04  4.2628808205528883e+04  4.2628534194933120e+04  4.2628141752542186e+04  4.2627675827890918e+04  4.2627168099694958e+04  4.2626639511134352e+04  4.2626102751245322e+04  4.2625565487725260e+04  4.2625037863828082e+04  4.2624556964859745e+04  4.2624216212485211e+04  3.1235778415218607e+04  3.5586756754925467e+04  3.8366311534118373e+04  3.9929183752578771e+04  4.0780914666573721e+04  4.1259843298742759e+04  4.1549885869464117e+04  4.1743036698019467e+04  4.1884622473945383e+04  4.1996862575176739e+04  4.2090706860466817e+04  4.2171606561086148e+04  4.2242344398561007e+04  4.2304429165346373e+04  4.2358782994729481e+04  4.2406076726339044e+04  4.2446888311581839e+04  4.2481771813641448e+04  4.2511281523600162e+04  4.2535974251732812e+04  4.2556401940356445e+04  4.2573101049054079e+04  4.2586582087668481e+04  4.2597320950017740e+04  4.2605752709020788e+04  4.2612267959865421e+04  4.2617211477648685e+04  4.2620882797234204e+04  4.2623538267465701e+04  4.2625394141142926e+04  4.2626630308621228e+04  4.2627394347351175e+04  4.2627805629397139e+04  4.2627959294872759e+04  4.2627929957250497e+04  4.2627775053323698e+04  4.2627537786735113e+04  4.2627249639727714e+04  4.2626932446009705e+04  4.2626600034596406e+04  4.2626259478265849e+04  4.2625912054141125e+04  4.2625554148026407e+04  4.2625178756041925e+04  4.2624779323763505e+04  4.2624356899504171e+04  4.2623943971585657e+04  4.2623614236694171e+04  2.8401818783194172e+04  3.2684891200989448e+04  3.5998751894793895e+04  3.8317772332844361e+04  3.9865401772120742e+04  4.0882356999369433e+04  4.1550865095699141e+04  4.1992386163155526e+04  4.2284588227193686e+04  4.2477060920127202e+04  4.2601972546542376e+04  4.2680666813728123e+04  4.2727625928643327e+04  4.2752861175599246e+04  4.2763385509542342e+04  4.2764148815107576e+04  4.2758652325595220e+04  4.2749365355826412e+04  4.2738015565570757e+04  4.2725795194661048e+04  4.2713509595045965e+04  4.2701685122936222e+04  4.2690647909452899e+04  4.2680581537123653e+04  4.2671569337013490e+04  4.2663625424337239e+04  4.2656717456382517e+04  4.2650783280281867e+04  4.2645743047915872e+04  4.2641507949562212e+04  4.2637986411567654e+04  4.2635088383626578e+04  4.2632728182834267e+04  4.2630826246654775e+04  4.2629310061711563e+04  4.2628114470957873e+04  4.2627181511978735e+04  4.2626459901066737e+04  4.2625904250740539e+04  4.2625474098074817e+04  4.2625132834932010e+04  4.2624846701248498e+04  4.2624584179130543e+04  4.2624316282355117e+04  4.2624019495717366e+04  4.2623680526377211e+04  4.2623312180938796e+04  4.2622949625036053e+04  2.6334212566845708e+04  3.0484264309360231e+04  3.4015336555149363e+04  3.6776146096800032e+04  3.8820658142811357e+04  4.0284649660563242e+04  4.1309652460691825e+04  4.2013423194850686e+04  4.2485578281407601e+04  4.2791967796446050e+04  4.2980479814023885e+04  4.3085933936253023e+04  4.3133708773915889e+04  4.3142321030770698e+04  4.3125250732352441e+04  4.3092248693333138e+04  4.3050289729357130e+04  4.3004279308031546e+04  4.2957584071235622e+04  4.2912433200596388e+04  4.2870223023568768e+04  4.2831748059808895e+04  4.2797375675596319e+04  4.2767177358830006e+04  4.2741026622339901e+04  4.2718671288283513e+04  4.2699786173095119e+04  4.2684010844858931e+04  4.2670976072854850e+04  4.2660321768169750e+04  4.2651708574610057e+04  4.2644824771493099e+04  4.2639389762917992e+04  4.2635155126405363e+04  4.2631903958683426e+04  4.2629449072499723e+04  4.2627630455134553e+04  4.2626312289590460e+04  4.2625379759271942e+04  4.2624735807887599e+04  4.2624298015052409e+04  4.2623995774086645e+04  4.2623768112761107e+04  4.2623562432911800e+04  4.2623335336121374e+04  4.2623053880027735e+04  4.2622702220594205e+04  4.2622270106122174e+04  2.4778104846529990e+04  2.8818275039404893e+04  3.2430775524886627e+04  3.5441922191494057e+04  3.7820521442280922e+04  3.9624960075080278e+04  4.0950196524301165e+04  4.1894878245095526e+04  4.2546578926408081e+04  4.2977572215554595e+04  4.3245313112371223e+04  4.3394529866037185e+04  4.3459566934151073e+04  4.3466496925322535e+04  4.3434884011265116e+04  4.3379212744270219e+04  4.3310031669250893e+04  4.3234863350358231e+04  4.3158925370232435e+04  4.3085698802926228e+04  4.3017373770218292e+04  4.2955196178935483e+04  4.2899735330763855e+04  4.2851088510806272e+04  4.2809035696579325e+04  4.2773155058511926e+04  4.2742907864920526e+04  4.2717699699031225e+04  4.2696923493041715e+04  4.2679988740076340e+04  4.2666340317958347e+04  4.2655469612313420e+04  4.2646920028071865e+04  4.2640288500843337e+04  4.2635224239043411e+04  4.2631425626637669e+04  4.2628635979174549e+04  4.2626638662167876e+04  4.2625251943099262e+04  4.2624323851483088e+04  4.2623727269417483e+04  4.2623355442609107e+04  4.2623118169116344e+04  4.2622938734826435e+04  4.2622752106328327e+04  4.2622502577991712e+04  4.2622143042693569e+04  4.2621620012565778e+04  2.3605468869479835e+04  2.7568542611295521e+04  3.1207683225618293e+04  3.4359475456510438e+04  3.6955330527746213e+04  3.9004895559205353e+04  4.0564664689598590e+04  4.1710969242811007e+04  4.2522568088099462e+04  4.3071645324746598e+04  4.3420193356034535e+04  4.3619346202756424e+04  4.3710115723989416e+04  4.3724683847369648e+04  4.3687823365995573e+04  4.3618249218369063e+04  4.3529818875535631e+04  4.3432557978769088e+04  4.3333514571271422e+04  4.3237457327363634e+04  4.3147437648155625e+04  4.3065236168135867e+04  4.2991713037106194e+04  4.2927079327567801e+04  4.2871104617388221e+04  4.2823273508380451e+04  4.2782901716705695e+04  4.2749220481500386e+04  4.2721436404785600e+04  4.2698772452463512e+04  4.2680494692025488e+04  4.2665928390051784e+04  4.2654466313894663e+04  4.2645571449230571e+04  4.2638775835558328e+04  4.2633676813020509e+04  4.2629931649995859e+04  4.2627251266648796e+04  4.2625393574231966e+04  4.2624156802570789e+04  4.2623373086680374e+04  4.2622902492966808e+04  4.2622627635840450e+04  4.2622448790665767e+04  4.2622279535601301e+04  4.2622041293223207e+04  4.2621657451215622e+04  4.2621037738874023e+04  2.2744840221635590e+04  2.6658247678351090e+04  3.0303448536008415e+04  3.3533936510634761e+04  3.6267147265962929e+04  3.8484787927702244e+04  4.0216079284099564e+04  4.1518039214303681e+04  4.2459102176514687e+04  4.3108202689770915e+04  4.3528596922280478e+04  4.3775047578197242e+04  4.3893085391277142e+04  4.3919420922268881e+04  4.3882909072832241e+04  4.3805712342983999e+04  4.3704467435184670e+04  4.3591357103666640e+04  4.3475045852218667e+04  4.3361469662149510e+04  4.3254486418404231e+04  4.3156401411301238e+04  4.3068385043709743e+04  4.2990799947054882e+04  4.2923453438127610e+04  4.2865789397621236e+04  4.2817031644777526e+04  4.2776288945743276e+04  4.2742630032830297e+04  4.2715135469744477e+04  4.2692931878654599e+04  4.2675212935416028e+04  4.2661250617998521e+04  4.2650399435660351e+04  4.2642095749694905e+04  4.2635853798345306e+04  4.2631259640155025e+04  4.2627963914080101e+04  4.2625674067470609e+04  4.2624146508830338e+04  4.2623178992236441e+04  4.2622603400376407e+04  4.2622278985799254e+04  4.2622085870336741e+04  4.2621918557432698e+04  4.2621678157566683e+04  4.2621263141342919e+04  4.2620554495030206e+04  2.2155324344493663e+04  2.6039196633525196e+04  2.9683830341674617e+04  3.2957254986493441e+04  3.5773087687277504e+04  3.8098280232979210e+04  3.9944811193596797e+04  4.1355701307277930e+04  4.2390634562084982e+04  4.3114666458015156e+04  4.3590700113123443e+04  4.3875257544317399e+04  4.4016632933453431e+04  4.4054569390202916e+04  4.4020798546682025e+04  4.3939995892063729e+04  4.3830874923472373e+04  4.3707263091251043e+04  4.3579079880714824e+04  4.3453184255967863e+04  4.3334085323287603e+04  4.3224524039375450e+04  4.3125940200925244e+04  4.3038841059582133e+04  4.2963087700894903e+04  4.2898113984129348e+04  4.2843091032988086e+04  4.2797048362735761e+04  4.2758960916032331e+04  4.2727809644448680e+04  4.2702621845933150e+04  4.2682496251050128e+04  4.2666616827979851e+04  4.2654258428284091e+04  4.2644786699375567e+04  4.2637654124266162e+04  4.2632393593986759e+04  4.2628610554735009e+04  4.2625974483006066e+04  4.2624210210382313e+04  4.2623089430649619e+04  4.2622422544945737e+04  4.2622050842004704e+04  4.2621838759114980e+04  4.2621665831498285e+04  4.2621417391884715e+04  4.2620973229566604e+04  4.2620194054721280e+04  2.1813700444980353e+04  2.5682525057912302e+04  2.9325312594835872e+04  3.2619570052989231e+04  3.5478696769690265e+04  3.7862883551332787e+04  3.9774886156552879e+04  4.1249490376149333e+04  4.2340721570667905e+04  4.3110723518606850e+04  4.3621660922149538e+04  4.3930730518535805e+04  4.4087651381636708e+04  4.4133868130971168e+04  4.4102797481737267e+04  4.4020627442874087e+04  4.3907345918727093e+04  4.3777805080264574e+04  4.3642716704143582e+04  4.3509529927565811e+04  4.3383176102497448e+04  4.3266683650611420e+04  4.3161674791974656e+04  4.3068759597783253e+04  4.2987843408446519e+04  4.2918362718952347e+04  4.2859463004353282e+04  4.2810130107914105e+04  4.2769284989450403e+04  4.2735849952119963e+04  4.2708792981009283e+04  4.2687155547500515e+04  4.2670068151201413e+04  4.2656756968330679e+04  4.2646544231382562e+04  4.2638844357761256e+04  4.2633157354697760e+04  4.2629060634028938e+04  4.2626200055401292e+04  4.2624280760562055e+04  4.2623058147333904e+04  4.2622329133184860e+04  4.2621923669696800e+04  4.2621696236626340e+04  4.2621516842045799e+04  4.2621260896035281e+04  4.2620796639702530e+04  4.2619972970554714e+04  2.1708186780412754e+04  2.5573048444734944e+04  2.9214473204024187e+04  3.2513812209830809e+04  3.5384983911059411e+04  3.7786591621656786e+04  3.9718687203230285e+04  4.1213426910211012e+04  4.2322881275894935e+04  4.3108076337677667e+04  4.3630776116100133e+04  4.3948276263426051e+04  4.4110682194750989e+04  4.4159950977662324e+04  4.4130032058466422e+04  4.4047606005318412e+04  4.3933084529955770e+04  4.3801666208528273e+04  4.3664334411612028e+04  4.3528743231035311e+04  4.3399972633844904e+04  4.3281153811894910e+04  4.3173975605047366e+04  4.3079087011542390e+04  4.2996411705297178e+04  4.2925389707283575e+04  4.2865159810753161e+04  4.2814694541741133e+04  4.2772897616811555e+04  4.2738672171749247e+04  4.2710966534103827e+04  4.2688803014819779e+04  4.2671294092979988e+04  4.2657649447365169e+04  4.2647176528266566e+04  4.2639276742100301e+04  4.2633438818730865e+04  4.2629230527554966e+04  4.2626289584028971e+04  4.2624314324238308e+04  4.2623054502169296e+04  4.2622302359399866e+04  4.2621883914791717e+04  4.2621650208747989e+04  4.2621467971968625e+04  4.2621209297243884e+04  4.2620738450656863e+04  4.2619900909644683e+04  2.1835607576949871e+04  2.5706345778976585e+04  2.9347041289328718e+04  3.2637333413439224e+04  3.5491661182780656e+04  3.7871354216148735e+04  3.9779722745206338e+04  4.1251744336677380e+04  4.2341363251685892e+04  4.3110518627457917e+04  4.3621140315322242e+04  4.3930220100201819e+04  4.4087321915759210e+04  4.4133784665277381e+04  4.4102960129394698e+04  4.4021001285023813e+04  4.3907881027730335e+04  4.3778448949950936e+04  4.3643421222804893e+04  4.3510254720786856e+04  4.3383889595944893e+04  4.3267362799393100e+04  4.3162304110732410e+04  4.3069329895109971e+04  4.2988350470932972e+04  4.2918806083058887e+04  4.2859844884887461e+04  4.2810454508115530e+04  4.2769556991754507e+04  4.2736075174169273e+04  4.2708977174758023e+04  4.2687304317121976e+04  4.2670186766266517e+04  4.2656850250901320e+04  4.2646616498649055e+04  4.2638899404926866e+04  4.2633198465911548e+04  4.2629090611989741e+04  4.2626221263046056e+04  4.2624295171028461e+04  4.2623067400384898e+04  4.2622334601388342e+04  4.2621926530553887e+04  4.2621697576246705e+04  4.2621517711904286e+04  4.2621262568923237e+04  4.2620800148124821e+04  4.2619980919057474e+04  2.2200627169272171e+04  2.6087863977689962e+04  2.9727450645101650e+04  3.2992230643106443e+04  3.5798045754550993e+04  3.8114138111335466e+04  3.9953521688781133e+04  4.1359493740152357e+04  4.2391464397873482e+04  4.3114020250213245e+04  4.3589578691544681e+04  4.3874254474447196e+04  4.4016043211160184e+04  4.4054490965039760e+04  4.4021211633845822e+04  4.3940819782367682e+04  4.3832005115789871e+04  4.3708593790824838e+04  4.3580516261545970e+04  4.3454648007458076e+04  4.3335516062026254e+04  4.3225878351427316e+04  4.3127189484775168e+04  4.3039968904889378e+04  4.2964087243206915e+04  4.2898985478091672e+04  4.2843839759468145e+04  4.2797682906375012e+04  4.2759491803072626e+04  4.2728248305759334e+04  4.2702979858985789e+04  4.2682784811728496e+04  4.2666846405597244e+04  4.2654438561920950e+04  4.2644925899752183e+04  4.2637759851568262e+04  4.2632472288107900e+04  4.2628667699875848e+04  4.2626014693850499e+04  4.2624237332599492e+04  4.2623106652019327e+04  4.2622432524273179e+04  4.2622055848765005e+04  4.2621840879183321e+04  4.2621667080658997e+04  4.2621420253066586e+04  4.2620979721890253e+04  4.2620209516080417e+04  2.2816737370563857e+04  2.6733814135645560e+04  3.0369009584550884e+04  3.3584609605612590e+04  3.6301813842101452e+04  3.8505733320678628e+04  4.0226751760365019e+04  4.1522001990449608e+04  4.2459293868262175e+04  4.3106722717613775e+04  4.3526777343395690e+04  4.3