<?xml version="1.0"?>
<VTKFile type="UnstructuredGrid"  version="0.1"  >
<UnstructuredGrid>
<Piece  NumberOfPoints="1250" NumberOfCells="2352">
<Points>
<DataArray  type="Float64"  NumberOfComponents="3"  format="ascii">0 0 0  0.0336 0 0  0.0336 0.07729999999999999 0  0 0.07729999999999999 0  0.001400000000000002 0 0  0.002800000000000005 0 0  0.004200000000000008 0 0  0.005600000000000009 0 0  0.007000000000000011 0 0  0.008400000000000013 0 0  0.009800000000000019 0 0  0.01120000000000002 0 0  0.01260000000000003 0 0  0.01400000000000003 0 0  0.01540000000000004 0 0  0.01680000000000005 0 0  0.01820000000000004 0 0  0.01960000000000004 0 0  0.02100000000000004 0 0  0.02240000000000003 0 0  0.02380000000000003 0 0  0.02520000000000002 0 0  0.02660000000000002 0 0  0.02800000000000001 0 0  0.02940000000000001 0 0  0.03080000000000001 0 0  0.0322 0 0  0.0336 0.001577551020408161 0  0.0336 0.003155102040816321 0  0.0336 0.004732653061224482 0  0.0336 0.006310204081632642 0  0.0336 0.007887755102040803 0  0.0336 0.009465306122448964 0  0.0336 0.01104285714285712 0  0.0336 0.01262040816326528 0  0.0336 0.01419795918367344 0  0.0336 0.0157755102040816 0  0.0336 0.01735306122448976 0  0.0336 0.01893061224489792 0  0.0336 0.02050816326530608 0  0.0336 0.02208571428571425 0  0.0336 0.02366326530612241 0  0.0336 0.02524081632653058 0  0.0336 0.02681836734693874 0  0.0336 0.02839591836734691 0  0.0336 0.02997346938775507 0  0.0336 0.03155102040816323 0  0.0336 0.0331285714285714 0  0.0336 0.03470612244897956 0  0.0336 0.03628367346938772 0  0.0336 0.03786122448979588 0  0.0336 0.03943877551020405 0  0.0336 0.04101632653061221 0  0.0336 0.04259387755102037 0  0.0336 0.04417142857142854 0  0.0336 0.04574897959183671 0  0.0336 0.04732653061224486 0  0.0336 0.04890408163265302 0  0.0336 0.05048163265306119 0  0.0336 0.05205918367346936 0  0.0336 0.05363673469387752 0  0.0336 0.05521428571428568 0  0.0336 0.05679183673469385 0  0.0336 0.05836938775510202 0  0.0336 0.05994693877551018 0  0.0336 0.06152448979591834 0  0.0336 0.0631020408163265 0  0.0336 0.06467959183673468 0  0.0336 0.06625714285714283 0  0.0336 0.06783469387755101 0  0.0336 0.06941224489795916 0  0.0336 0.07098979591836733 0  0.0336 0.07256734693877549 0  0.0336 0.07414489795918365 0  0.0336 0.07572244897959182 0  0.03219999999999999 0.07729999999999999 0  0.03079999999999999 0.07729999999999999 0  0.02939999999999999 0.07729999999999999 0  0.02799999999999999 0.07729999999999999 0  0.02659999999999999 0.07729999999999999 0  0.02519999999999999 0.07729999999999999 0  0.02379999999999998 0.07729999999999999 0  0.02239999999999998 0.07729999999999999 0  0.02099999999999997 0.07729999999999999 0  0.01959999999999996 0.07729999999999999 0  0.01819999999999996 0.07729999999999999 0  0.01679999999999995 0.07729999999999999 0  0.01539999999999996 0.07729999999999999 0  0.01399999999999996 0.07729999999999999 0  0.01259999999999996 0.07729999999999999 0  0.01119999999999997 0.07729999999999999 0  0.009799999999999972 0.07729999999999999 0  0.008399999999999977 0.07729999999999999 0  0.006999999999999978 0.07729999999999999 0  0.005599999999999983 0.07729999999999999 0  0.004199999999999988 0.07729999999999999 0  0.00279999999999999 0.07729999999999999 0  0.001399999999999998 0.07729999999999999 0  0 0.07572244897959184 0  0 0.07414489795918368 0  0 0.07256734693877551 0  0 0.07098979591836735 0  0 0.06941224489795919 0  0 0.06783469387755103 0  0 0.06625714285714288 0  0 0.06467959183673472 0  0 0.06310204081632656 0  0 0.0615244897959184 0  0 0.05994693877551023 0  0 0.05836938775510207 0  0 0.05679183673469392 0  0 0.05521428571428574 0  0 0.05363673469387759 0  0 0.05205918367346941 0  0 0.05048163265306126 0  0 0.04890408163265308 0  0 0.04732653061224493 0  0 0.04574897959183676 0  0 0.0441714285714286 0  0 0.04259387755102043 0  0 0.04101632653061228 0  0 0.03943877551020411 0  0 0.03786122448979595 0  0 0.03628367346938779 0  0 0.03470612244897962 0  0 0.03312857142857146 0  0 0.03155102040816329 0  0 0.02997346938775513 0  0 0.02839591836734697 0  0 0.0268183673469388 0  0 0.02524081632653064 0  0 0.02366326530612247 0  0 0.02208571428571431 0  0 0.02050816326530614 0  0 0.01893061224489798 0  0 0.01735306122448981 0  0 0.01577551020408165 0  0 0.01419795918367349 0  0 0.01262040816326532 0  0 0.01104285714285716 0  0 0.009465306122448988 0  0 0.00788775510204083 0  0 0.006310204081632659 0  0 0.004732653061224501 0  0 0.003155102040816343 0  0 0.001577551020408172 0  0.001400000000000004 0.001577551020408172 0  0.001400000000000004 0.003155102040816329 0  0.001400000000000002 0.004732653061224501 0  0.001400000000000002 0.006310204081632645 0  0.001400000000000005 0.007887755102040823 0  0.001400000000000002 0.009465306122448981 0  0.001400000000000002 0.01104285714285717 0  0.001400000000000004 0.01262040816326531 0  0.0014 0.01419795918367349 0  0.001400000000000002 0.01577551020408166 0  0.001400000000000005 0.0173530612244898 0  0.001400000000000002 0.01893061224489797 0  0.001400000000000002 0.02050816326530613 0  0.001400000000000002 0.02208571428571431 0  0.001400000000000002 0.02366326530612247 0  0.001400000000000002 0.02524081632653063 0  0.001400000000000002 0.0268183673469388 0  0.001400000000000002 0.02839591836734696 0  0.001400000000000002 0.02997346938775513 0  0.001400000000000002 0.03155102040816328 0  0.001400000000000002 0.03312857142857147 0  0.001399999999999997 0.03470612244897962 0  0.001400000000000005 0.03628367346938778 0  0.001400000000000002 0.03786122448979594 0  0.001400000000000002 0.03943877551020411 0  0.001400000000000002 0.04101632653061228 0  0.001400000000000002 0.04259387755102043 0  0.001400000000000002 0.0441714285714286 0  0.0014 0.04574897959183676 0  0.001400000000000002 0.04732653061224492 0  0.001400000000000004 0.04890408163265308 0  0.001400000000000002 0.05048163265306126 0  0.001400000000000002 0.05205918367346941 0  0.0014 0.05363673469387758 0  0.001400000000000004 0.05521428571428574 0  0.001399999999999998 0.05679183673469391 0  0.001400000000000002 0.05836938775510207 0  0.0014 0.05994693877551023 0  0.001400000000000002 0.0615244897959184 0  0.001400000000000002 0.06310204081632656 0  0.001400000000000002 0.06467959183673472 0  0.0014 0.06625714285714286 0  0.001400000000000002 0.06783469387755102 0  0.001399999999999998 0.06941224489795919 0  0.001400000000000002 0.07098979591836735 0  0.0014 0.07256734693877552 0  0.001400000000000002 0.07414489795918368 0  0.001400000000000002 0.07572244897959184 0  0.002800000000000006 0.001577551020408165 0  0.002800000000000004 0.003155102040816343 0  0.002800000000000002 0.004732653061224487 0  0.002800000000000002 0.006310204081632652 0  0.002800000000000002 0.007887755102040813 0  0.0028 0.009465306122448981 0  0.002799999999999997 0.01104285714285715 0  0.0028 0.01262040816326532 0  0.0028 0.01419795918367348 0  0.0028 0.01577551020408165 0  0.002799999999999997 0.0173530612244898 0  0.0028 0.01893061224489797 0  0.002800000000000004 0.02050816326530613 0  0.0028 0.0220857142857143 0  0.0028 0.02366326530612247 0  0.002800000000000004 0.02524081632653064 0  0.0028 0.0268183673469388 0  0.0028 0.02839591836734696 0  0.002799999999999995 0.02997346938775512 0  0.002799999999999997 0.03155102040816328 0  0.002799999999999995 0.03312857142857146 0  0.0028 0.03470612244897962 0  0.002799999999999995 0.03628367346938778 0  0.002799999999999997 0.03786122448979594 0  0.002799999999999997 0.03943877551020411 0  0.002799999999999997 0.04101632653061228 0  0.002799999999999997 0.04259387755102043 0  0.002799999999999995 0.0441714285714286 0  0.002799999999999997 0.04574897959183676 0  0.002799999999999997 0.04732653061224493 0  0.002799999999999995 0.04890408163265308 0  0.002799999999999993 0.05048163265306124 0  0.002799999999999995 0.05205918367346941 0  0.002799999999999995 0.05363673469387757 0  0.002799999999999992 0.05521428571428574 0  0.002799999999999997 0.05679183673469391 0  0.002799999999999993 0.05836938775510207 0  0.002799999999999993 0.05994693877551022 0  0.002799999999999992 0.0615244897959184 0  0.002799999999999988 0.06310204081632655 0  0.002799999999999992 0.0646795918367347 0  0.002799999999999992 0.06625714285714286 0  0.00279999999999999 0.06783469387755103 0  0.00279999999999999 0.06941224489795919 0  0.002799999999999988 0.07098979591836735 0  0.00279999999999999 0.07256734693877552 0  0.002799999999999988 0.07414489795918368 0  0.00279999999999999 0.07572244897959184 0  0.004200000000000006 0.001577551020408172 0  0.004200000000000006 0.003155102040816329 0  0.004200000000000008 0.00473265306122448 0  0.004200000000000009 0.006310204081632652 0  0.004200000000000008 0.00788775510204082 0  0.004200000000000008 0.009465306122448978 0  0.004200000000000006 0.01104285714285716 0  0.004200000000000006 0.01262040816326532 0  0.004200000000000004 0.01419795918367349 0  0.004200000000000002 0.01577551020408165 0  0.004200000000000004 0.0173530612244898 0  0.004200000000000006 0.01893061224489797 0  0.004200000000000006 0.02050816326530613 0  0.004200000000000002 0.0220857142857143 0  0.004200000000000004 0.02366326530612247 0  0.004199999999999999 0.02524081632653062 0  0.004200000000000004 0.0268183673469388 0  0.004200000000000004 0.02839591836734696 0  0.004200000000000002 0.02997346938775512 0  0.004199999999999999 0.03155102040816328 0  0.004200000000000001 0.03312857142857145 0  0.004200000000000001 0.03470612244897962 0  0.004199999999999995 0.03628367346938778 0  0.004199999999999999 0.03786122448979594 0  0.004199999999999999 0.0394387755102041 0  0.004199999999999997 0.04101632653061227 0  0.004199999999999999 0.04259387755102043 0  0.004199999999999999 0.04417142857142859 0  0.004199999999999999 0.04574897959183676 0  0.004199999999999999 0.04732653061224492 0  0.004199999999999997 0.04890408163265308 0  0.004199999999999997 0.05048163265306124 0  0.004199999999999999 0.05205918367346941 0  0.004199999999999992 0.05363673469387757 0  0.0
[...]
<PointData  Scalars=" mean stress"> 
<DataArray  type="Float64"  Name=" mean stress"  format="ascii">1.0006083117170992e+04  9.5003113837113306e+03  5.1249992941489973e+03  5.1249985595966782e+03  5.4441989294106061e+03  3.9432664760631051e+03  3.4390858524082955e+03  3.0951161144462767e+03  2.8418601388994944e+03  2.6397137371014055e+03  2.4779262044093543e+03  2.3507687704412660e+03  2.2546010377701000e+03  2.1872749408786103e+03  2.1475255918103508e+03  2.1347239722048289e+03  2.1487245799148668e+03  2.1898296397186923e+03  2.2588679476179991e+03  2.3574140426792678e+03  2.4881996386246910e+03  2.6558694752818956e+03  2.8689451586440819e+03  3.1415163127681217e+03  3.5134874143891966e+03  4.0809055771131848e+03  4.9397621332475219e+03  6.3792784023237864e+03  4.8901573868459463e+03  4.5740194115921959e+03  4.4125408136707510e+03  4.3654378271345504e+03  4.3776253794632694e+03  4.4211529507598116e+03  4.4811843613830461e+03  4.5485768443171492e+03  4.6176782861527299e+03  4.6849372606069546e+03  4.7481701717267670e+03  4.8061193283834245e+03  4.8581651543269736e+03  4.9041290886275401e+03  4.9441327887255893e+03  4.9784951767810335e+03  5.0076564516923145e+03  5.0321221696088296e+03  5.0524226655424218e+03  5.0690843439476812e+03  5.0826101575267221e+03  5.0934671416368483e+03  5.1020792855470327e+03  5.1088243541712227e+03  5.1140335500123292e+03  5.1179931372604324e+03  5.1209473449551870e+03  5.1231020283137977e+03  5.1246287004355136e+03  5.1256686541488252e+03  5.1263369792004905e+03  5.1267263466372269e+03  5.1269104832268786e+03  5.1269472969906346e+03  5.1268816429229082e+03  5.1267477380418140e+03  5.1265712490221013e+03  5.1263710854832643e+03  5.1261609393240296e+03  5.1259506160074516e+03  5.1257472113336271e+03  5.1255561910754177e+03  5.1253824422573507e+03  5.1252314320043024e+03  5.1251099854385475e+03  5.1250290498024387e+03  5.1249919300625033e+03  5.1250074238353745e+03  5.1249803359420421e+03  5.1249210100989494e+03  5.1248325112579078e+03  5.1247273830182303e+03  5.1246163383331141e+03  5.1245085236030163e+03  5.1244112266457350e+03  5.1243300534384634e+03  5.1242691214393990e+03  5.1242312357439696e+03  5.1242180289613270e+03  5.1242300508413473e+03  5.1242668009627469e+03  5.1243267022398659e+03  5.1244070181993866e+03  5.1245037221619168e+03  5.1246113324271755e+03  5.1247227360232155e+03  5.1248290338391862e+03  5.1249195319351784e+03  5.1249821092898756e+03  5.1250054457613887e+03  5.1249928619919247e+03  5.1250278830324041e+03  5.1251133392219526e+03  5.1252370443415375e+03  5.1253897854763500e+03  5.1255649049409758e+03  5.1257572369500404e+03  5.1259620251481338e+03  5.1261738622008852e+03  5.1263856609463037e+03  5.1265875834474828e+03  5.1267658658262762e+03  5.1269014819856575e+03  5.1269685951818001e+03  5.1269327517405409e+03  5.1267487767129023e+03  5.1263583382032048e+03  5.1256871568330234e+03  5.1246418508451688e+03  5.1231064274277715e+03  5.1209384589047404e+03  5.1179650207897193e+03  5.1139785199055896e+03  5.1087326076875161e+03  5.1019384596069312e+03  5.0932618096317583e+03  5.0823212622272749e+03  5.0686885669931062e+03  5.0518917361743452e+03  5.0314221170962392e+03  5.0067468062013368e+03  4.9773281203303304e+03  4.9426522480466410e+03  4.9022697399008093e+03  4.8558512673258001e+03  4.8032632993591733e+03  4.7446704681003766e+03  4.6806752545683103e+03  4.6125129932969548e+03  4.5423373409933511e+03  4.4736495449254926e+03  4.4120456689934445e+03  4.3666030507172027e+03  4.3512599862636671e+03  4.3994186401144261e+03  4.5513788086777950e+03  4.9865614559267997e+03  7.1540085314617218e+03  6.1878722268820229e+03  5.6902504689576635e+03  5.1110726540934565e+03  4.8505293513327861e+03  4.7207319697088988e+03  4.6668733699017621e+03  4.6571542000088348e+03  4.6732208351391446e+03  4.7041710722325197e+03  4.7429877221560391e+03  4.7851052919115073e+03  4.8275391337822630e+03  4.8683716487282218e+03  4.9064245007927120e+03  4.9410375783367099e+03  4.9719140409569145e+03  4.9990084395017348e+03  5.0224445581069867e+03  5.0424546912352407e+03  5.0593348930946922e+03  5.0734123782860333e+03  5.0850222593764056e+03  5.0944914672555051e+03  5.1021281641552141e+03  5.1082153066626588e+03  5.1130072889388839e+03  5.1167288172533572e+03  5.1195753483612070e+03  5.1217145737669771e+03  5.1232885545952458e+03  5.1244162116070929e+03  5.1251959551305627e+03  5.1257083032966839e+03  5.1260183866656553e+03  5.1261782754711367e+03  5.1262290944902761e+03  5.1262029117718848e+03  5.1261244027904313e+03  5.1260123022915332e+03  5.1258806632268879e+03  5.1257399462749891e+03  5.1255979643926721e+03  5.1254607042075186e+03  5.1253330306532707e+03  5.1252192494685069e+03  5.1251235149592685e+03  5.1250491124858509e+03  5.1250024631074130e+03  4.9802983011589813e+03  5.2749916853247723e+03  5.1667434595091372e+03  5.0195217607054828e+03  4.9210314188317998e+03  4.8649691807381614e+03  4.8402728290320001e+03  4.8367873966514608e+03  4.8470567939753282e+03  4.8657825289017610e+03  4.8892290927730837e+03  4.9147934807865240e+03  4.9406914060185836e+03  4.9657343831150874e+03  4.9891685459403216e+03  5.0105560362969154e+03  5.0296864282569150e+03  5.0465099287516314e+03  5.0610868188212744e+03  5.0735492847876812e+03  5.0840728517849720e+03  5.0928553220140284e+03  5.1001015878018879e+03  5.1060130239997634e+03  5.1107804166897986e+03  5.1145795846939500e+03  5.1175690133019707e+03  5.1198889551236243e+03  5.1216615664054425e+03  5.1229917419245348e+03  5.1239683901457665e+03  5.1246659547620011e+03  5.1251460408296261e+03  5.1254590452135717e+03  5.1256457235263033e+03  5.1257386506881103e+03  5.1257635509316779e+03  5.1257404866809848e+03  5.1256849051498566e+03  5.1256085474377960e+03  5.1255202278965307e+03  5.1254264917235978e+03  5.1253321573284766e+03  5.1252407609077372e+03  5.1251548931918187e+03  5.1250769117527116e+03  5.1250103565183817e+03  5.1249651731230906e+03  4.2323784336349827e+03  4.7245896739335785e+03  4.9181633185462006e+03  4.9640803005833814e+03  4.9631893604728475e+03  4.9546249275694490e+03  4.9499333336035288e+03  4.9514296060328597e+03  4.9583806957134057e+03  4.9693066969460497e+03  4.9827408552704437e+03  4.9974591534232213e+03  5.0125215258680710e+03  5.0272472833994862e+03  5.0411720382751873e+03  5.0540032712946904e+03  5.0655804879642074e+03  5.0758415487579368e+03  5.0847951233340300e+03  5.0924986588561751e+03  5.0990411071795652e+03  5.1045296645150111e+03  5.1090798380577235e+03  5.1128082291119345e+03  5.1158274983938545e+03  5.1182430523839748e+03  5.1201510584407233e+03  5.1216374602597307e+03  5.1227777235299009e+03  5.1236370938270220e+03  5.1242711945869250e+03  5.1247268322907757e+03  5.1250429090232547e+03  5.1252513696321448e+03  5.1253781324508645e+03  5.1254439694808198e+03  5.1254653147966274e+03  5.1254549892813884e+03  5.1254228363039947e+03  5.1253762671998011e+03  5.1253207183907271e+03  5.1252600263855102e+03  5.1251967327601615e+03  5.1251323824068413e+03  5.1250679117243899e+03  5.1250045476280156e+03  5.1249467475800329e+03  5.1249057243849884e+03  3.7486141423040685e+03  4.2730493403973278e+03  4.6096941921088655e+03  4.7994576136017895e+03  4.9028626726660877e+03  4.9608835967939776e+03  4.9958981335462477e+03  5.0191309225239311e+03  5.0361143728177522e+03  5.0495584079383880e+03  5.0607954708571297e+03  5.0704862013673119e+03  5.0789656391046856e+03  5.0864137855996623e+03  5.0929395880282464e+03  5.0986218477113616e+03  5.1035284817496777e+03  5.1077248639787085e+03  5.1112766976522544e+03  5.1142502402431492e+03  5.1167113623638561e+03  5.1187242248993452e+03  5.1203499824783585e+03  5.1216457116609581e+03  5.1226636420020486e+03  5.1234506989829451e+03  5.1240483294895721e+03  5.1244925616659684e+03  5.1248142445334570e+03  5.1250394140608541e+03  5.1251897380920891e+03  5.1252830004046782e+03  5.1253335926117652e+03  5.1253529906213298e+03  5.1253501993583095e+03  5.1253321551478684e+03  5.1253040795039778e+03  5.1252697811966091e+03  5.1252319056824817e+03  5.1251921330170735e+03  5.1251513282431260e+03  5.1251096570978843e+03  5.1250666947847067e+03  5.1250216061386009e+03  5.1249736063247119e+03  5.1249228184879121e+03  5.1248731365478834e+03  5.1248333928554594e+03  3.4105109972178170e+03  3.9252198929710917e+03  4.3245834040724239e+03  4.6045239727144144e+03  4.7914687743434279e+03  4.9143024113275651e+03  4.9950176579405661e+03  5.0483062528369073e+03  5.0835678015356025e+03  5.1068000179514956e+03  5.1218889510267763e+03  5.1314094696626125e+03  5.1371064958971929e+03  5.1401851207579266e+03  5.1414890552174711e+03  5.1416137344735962e+03  5.1409804521586611e+03  5.1398865333252561e+03  5.1385402190469340e+03  5.1370854216956377e+03  5.1356195419621845e+03  5.1342064090036438e+03  5.1328857305530919e+03  5.1316800167239653e+03  5.1305996621507647e+03  5.1296466791228222e+03  5.1288174384748263e+03  5.1281046773662829e+03  5.1274989626012384e+03  5.1269897473069859e+03  5.1265661222513154e+03  5.1262173368167769e+03  5.1259331457450053e+03  5.1257040239865992e+03  5.1255212817999663e+03  5.1253771045111225e+03  5.1252645353802718e+03  5.1251774154245977e+03  5.1251102908083312e+03  5.1250582971463436e+03  5.1250170317091433e+03  5.1249824328968116e+03  5.1249507075526353e+03  5.1249183654290300e+03  5.1248825716287756e+03  5.1248417158744860e+03  5.1247973173859255e+03  5.1247535713592206e+03  3.1635051984915149e+03  3.6615820866101822e+03  4.0861565073977927e+03  4.4185685281263941e+03  4.6649540033262101e+03  4.8414782420625252e+03  4.9651227396027116e+03  5.0500595048519872e+03  5.1070859581023360e+03  5.1441372894601172e+03  5.1669824908672281e+03  5.1798145042055994e+03  5.1856884306895272e+03  5.1868330799503829e+03  5.1848712391456502e+03  5.1809772397952247e+03  5.1759916717644091e+03  5.1705063278127427e+03  5.1649279278669510e+03  5.1595263125216088e+03  5.1544710187785749e+03  5.1498590317946100e+03  5.1457357747870419e+03  5.1421108972525917e+03  5.1389700601237919e+03  5.1362836460133176e+03  5.1340131152530703e+03  5.1321155673280855e+03  5.1305469415822963e+03  5.1292641929493193e+03  5.1282267019729188e+03  5.1273971188211208e+03  5.1267417946265223e+03  5.1262309173224085e+03  5.1258384409120772e+03  5.1255418750082663e+03  5.1253219842661492e+03  5.1251624341124070e+03  5.1250494095138811e+03  5.1249712276016853e+03  5.1249179635597184e+03  5.1248811122955003e+03  5.1248533268921383e+03  5.1248282669965183e+03  5.1248006973530737e+03  5.1247666375288600e+03  5.1247241568491499e+03  5.1246719901104470e+03  2.9772803714016568e+03  3.4619152930822502e+03  3.8957783834612901e+03  4.2578210122115343e+03  4.5440752789184971e+03  4.7614030265559113e+03  4.9211360615011563e+03  5.0350973281790220e+03  5.1138019144442178e+03  5.1659348973683118e+03  5.1984031578141339e+03  5.2165848306684011e+03  5.2246104819858265e+03  5.2256169025941272e+03  5.2219590030251748e+03  5.2153814172130951e+03  5.2071557848999309e+03  5.1981899613959176e+03  5.1891145388960831e+03  5.1803510778332202e+03  5.1721656064994086e+03  5.1647102784452100e+03  5.1580555454555379e+03  5.1522147732541989e+03  5.1471628721652778e+03  5.1428502197430771e+03  5.1392129066625048e+03  5.1361801335558766e+03  5.1336794189650464e+03  5.1316401418227224e+03  5.1299958309845524e+03  5.1286855249553482e+03  5.1276544532222824e+03  5.1268542332920233e+03  5.1262427318407053e+03  5.1257837021807500e+03  5.1254462817265621e+03  5.1252044110227089e+03  5.1250362192896973e+03  5.1249234097516519e+03  5.1248506717188502e+03  5.1248051424320311e+03  5.1247759497231882e+03  5.1247538439020982e+03  5.1247309801875663e+03  5.1247006352993494e+03  5.1246571173177726e+03  5.1245939664305770e+03  2.8367209075328269e+03  3.3119890895930630e+03  3.7487799011176426e+03  4.1274230106509021e+03  4.4395603961470142e+03  4.6862284045181277e+03  4.8741220780449430e+03  5.0123525619159072e+03  5.1103472161430200e+03  5.1767593979126450e+03  5.2190278942297628e+03  5.2432931264677873e+03  5.2544833448442050e+03  5.2564684124818896e+03  5.2522294793277879e+03  5.2440205878845418e+03  5.2335123600341440e+03  5.2219148557354092e+03  5.2100799716542360e+03  5.1985852001405838e+03  5.1878011085510743e+03  5.1779449840109173e+03  5.1691229514190754e+03  5.1613626349115248e+03  5.1546381605668248e+03  5.1488890263438079e+03  5.1440341125141658e+03  5.1399818806882458e+03  5.1366376146538914e+03  5.1339083909412684e+03  5.1317063289456455e+03  5.1299505563498878e+03  5.1285682322064031e+03  5.1274948941224575e+03  5.1266743347442871e+03  5.1260581636206252e+03  5.1256051715386830e+03  5.1252805837980668e+03  5.1250552653564710e+03  5.1249049229887332e+03  5.1248093373451984e+03  5.1247516468746153e+03  5.1247177019424507e+03  5.1246954780611513e+03  5.1246745521767698e+03  5.1246454467593858e+03  5.1245989219965959e+03  5.1245241011512417e+03  2.7333635814637369e+03  3.2026094653674322e+03  3.6399721375897034e+03  4.0278825029189093e+03  4.3563696505826874e+03  4.6231454331512696e+03  4.8316287480571855e+03  4.9885940879143109e+03  5.1022081715915974e+03  5.1807166281580185e+03  5.2316978758140585e+03  5.2617209249003954e+03  5.2762532339354657e+03  5.2797074891988050e+03  5.2755554739795880e+03  5.2664663936289380e+03  5.2544460616103333e+03  5.2409650495011711e+03  5.2270707329746710e+03  5.2134819782079658e+03  5.2006672116026175e+03  5.1889075571466137e+03  5.1783470687353347e+03  5.1690321030943851e+03  5.1609417332715648e+03  5.1540108853577640e+03  5.1481476436262910e+03  5.1432459390243630e+03  5.1391946260995919e+03  5.1358837692107181e+03  5.1332088010237530e+03  5.1310730833656253e+03  5.1293892899857256e+03  5.1280799398555000e+03  5.1270773354987532e+03  5.1263231009534293e+03  5.1257674660040584e+03  5.1253684052989338e+03  5.1250907111457309e+03  5.1249050553848701e+03  5.1247870776158488e+03  5.1247165201943444e+03  5.1246764174479422e+03  5.1246523153556536e+03  5.1246314923823220e+03  5.1246020258974859e+03  5.1245516809944747e+03  5.1244661308537925e+03  2.6623602045433831e+03  3.1280140441425838e+03  3.5652142871812166e+03  3.9581724944553325e+03  4.2964975184995674e+03  4.5761508013191669e+03  4.7984825239267502e+03  4.9685755266332271e+03  5.0935307805119619e+03  5.1811145998082538e+03  5.2388532597924323e+03  5.2735212012533375e+03  5.2909149980551456e+03  5.2958108582628902e+03  5.2920265993080729e+03  5.2825343817985577e+03  5.2695907991681415e+03  5.2548652937442739e+03  5.2395571799497093e+03  5.2244972179854503e+03  5.2102329118915177e+03  5.1970984102993289e+03  5.1852706784917900e+03  5.1748138781173066e+03  5.1657138763145085e+03  5.1579046516146809e+03  5.1512881514129422e+03  5.1457489298897235e+03  5.1411646792377478e+03  5.1374135716985993e+03  5.1343791591470344e+03  5.1319534310239387e+03  5.1300385086915358e+03  5.1285473524181280e+03  5.1274037735325392e+03  5.1265419762746624e+03  5.1259057990787805e+03  5.1254477812506866e+03  5.1251281462136049e+03  5.1249137645547116e+03  5.1247771373187488e+03  5.1246954186662724e+03  5.1246494778848055e+03  5.1246229705404212e+03  5.1246013718761078e+03  5.1245708604085548e+03  5.1245169562635310e+03  5.1244228995047379e+03  2.6209499860983456e+03  3.0847483200189449e+03  3.5216665816572927e+03  3.9170737760147877e+03  4.2605716596500970e+03  4.5473183772840057e+03  4.7775536460381854e+03  4.9553613430609221e+03  5.0871511825325288e+03  5.1803299915315492e+03  5.2423288167926576e+03  5.2799997066533388e+03  5.2993092719614615e+03  5.3052384426196568e+03  5.3018085465549784e+03  5.2921748135876605e+03  5.2787483104007351e+03  5.2633228245125892e+03  5.2471939053704809e+03  5.2312640727527960e+03  5.2161322394805220e+03  5.2021676204506912e+03  5.1895695048801908e+03  5.1784147170275355e+03  5.1686946741157062e+03  5.1603438453179933e+03  5.1532612249902504e+03  5.1473262140994211e+03  5.1424100863920703e+03  5.1383840151186405e+03  5.1351244582986392e+03  5.1325165470540278e+03  5.1304559915905120e+03  5.1288499109025406e+03  5.1276169027826190e+03  5.1266865976640802e+03  5.1259988807608488e+03  5.1255029195500783e+03  5.1251560956606454e+03  5.1249229093765316e+03  5.1247738991598926e+03  5.1246845946392659e+03  5.1246344987989260e+03  5.1246060671558535e+03  5.1245836273476989e+03  5.1245521638018345e+03  5.1244958091002381e+03  5.1243963858744492e+03  2.6077230547168256e+03  3.0709854935857306e+03  3.5077017997565326e+03  3.9037145063200242e+03  4.2486914309959111e+03  4.5375939189927112e+03  4.7703249715940037e+03  4.9506397459361906e+03  5.0847029999226743e+03  5.1797811140150952e+03  5.2432543711026537e+03  5.2819865716757358e+03  5.3019920470577645e+03  5.3083152053578615e+03  5.3050433737338517e+03  5.2953927657563645e+03  5.2818268707686393e+03  5.2661822828635059e+03  5.2497880852403596e+03  5.2335720895772010e+03  5.2181515471009070e+03  5.2039083636340065e+03  5.1910500734556681e+03  5.1796583447972007e+03  5.1697269121472682e+03  5.1611907460693437e+03  5.1539480902931300e+03  5.1478767802772736e+03  5.1428460404404905e+03  5.1387247552497865e+03  5.1353870294224171e+03  5.1327156967002138e+03  5.1306043043204036e+03  5.1289579896198102e+03  5.1276935737306439e+03  5.1267391225557512e+03  5.1260331646790310e+03  5.1255237071827414e+03  5.1251671512472449e+03  5.1249271775543448e+03  5.1247736446402469e+03  5.1246815186293143e+03  5.1246298284573131e+03  5.1246006150683806e+03  5.1245778112679800e+03  5.1245460021785366e+03  5.1244888428023478e+03  5.1243877450189884e+03  2.6222843663062035e+03  3.0861753652957232e+03  3.5227861122074992e+03  3.9177599124302042e+03  4.2608143051414727e+03  4.5472134990531913e+03  4.7772276434548248e+03  4.9549336269514442e+03  5.0867126308151319e+03  5.1799388672173309e+03  5.2420148216205289e+03  5.2797718002383690e+03  5.2991633451676416e+03  5.3051633844594644e+03  5.3017904653516662e+03  5.2921996691213471e+03  5.2788033597515159e+03  5.2633972810258729e+03  5.2472791097603285e+03  5.2313533899518543e+03  5.2162208191673635e+03  5.2022521061357847e+03  5.1896477406346503e+03  5.1784854778322087e+03  5.1687574316988739e+03  5.1603985729599290e+03  5.1533082400743797e+03  5.1473660547711934e+03  5.1424434176564882e+03  5.1384115594885325e+03  5.1351469463503418e+03  5.1325346837241468e+03  5.1304704346172857e+03  5.1288612584025823e+03  5.1276256875076633e+03  5.1266932859816270e+03  5.1260038748406478e+03  5.1255065616303855e+03  5.1251586736076160e+03  5.1249246631100295e+03  5.1247750277436762e+03  5.1246852644595747e+03  5.1246348523872339e+03  5.1246062357412557e+03  5.1245837377537046e+03  5.1245523690974360e+03  5.1244962334583652e+03  5.1243973408831589e+03  2.6651601544954965e+03  3.1309341065085860e+03  3.5674225579222143e+03  3.9594492910807608e+03  4.2968643666800099e+03  4.5758332104938199e+03  4.7977518789868027e+03  4.9676758625231369e+03  5.0926386901066007e+03  5.1803375273143874e+03  5.2382420278603695e+03  5.2730870603004496e+03  5.2906452217628075e+03  5.2956806353713255e+03  5.2920069367881797e+03  5.2825968839913776e+03  5.2697101830321908e+03  5.2550204462595748e+03  5.2397313366024819e+03  5.2246776603173403e+03  5.2104104382759806e+03  5.1972667322490033e+03  5.1854258291309443e+03  5.1749536771798885e+03  5.1658374706663635e+03  5.1580121353856784e+03  5.1513802616518105e+03  5.1458268095876583e+03  5.1412296979690827e+03  5.1374671939881837e+03  5.1344228513177595e+03  5.1319885983191261e+03  5.1300664556457750e+03  5.1285692606342736e+03  5.1274206921169543e+03  5.1265548211613723e+03  5.1259153583301577e+03  5.1254547241645469e+03  5.1251330347239737e+03  5.1249170661004791e+03  5.1247792387881291e+03  5.1246966423080075e+03  5.1246500983877631e+03  5.1246232399271548e+03  5.1246015332887819e+03  5.1245712124706324e+03  5.1245177418223511e+03  5.1244247573774837e+03  2.7379095076509257e+03  3.2071446727856978e+03  3.6431710668285209e+03  4.0295173778052249e+03  4.3565961621982888e+03  4.6223951970416592e+03  4.8303457802028533e+03  4.9871462477381829e+03  5.1008438494286747e+03  5.1795731262648642e+03  5.2308291171824467e+03  5.2