<?xml version="1.0"?>
<VTKFile type="UnstructuredGrid"  version="0.1"  >
<UnstructuredGrid>
<Piece  NumberOfPoints="1250" NumberOfCells="2352">
<Points>
<DataArray  type="Float64"  NumberOfComponents="3"  format="ascii">0 0 0  0.0336 0 0  0.0336 0.07729999999999999 0  0 0.07729999999999999 0  0.001400000000000002 0 0  0.002800000000000005 0 0  0.004200000000000008 0 0  0.005600000000000009 0 0  0.007000000000000011 0 0  0.008400000000000013 0 0  0.009800000000000019 0 0  0.01120000000000002 0 0  0.01260000000000003 0 0  0.01400000000000003 0 0  0.01540000000000004 0 0  0.01680000000000005 0 0  0.01820000000000004 0 0  0.01960000000000004 0 0  0.02100000000000004 0 0  0.02240000000000003 0 0  0.02380000000000003 0 0  0.02520000000000002 0 0  0.02660000000000002 0 0  0.02800000000000001 0 0  0.02940000000000001 0 0  0.03080000000000001 0 0  0.0322 0 0  0.0336 0.001577551020408161 0  0.0336 0.003155102040816321 0  0.0336 0.004732653061224482 0  0.0336 0.006310204081632642 0  0.0336 0.007887755102040803 0  0.0336 0.009465306122448964 0  0.0336 0.01104285714285712 0  0.0336 0.01262040816326528 0  0.0336 0.01419795918367344 0  0.0336 0.0157755102040816 0  0.0336 0.01735306122448976 0  0.0336 0.01893061224489792 0  0.0336 0.02050816326530608 0  0.0336 0.02208571428571425 0  0.0336 0.02366326530612241 0  0.0336 0.02524081632653058 0  0.0336 0.02681836734693874 0  0.0336 0.02839591836734691 0  0.0336 0.02997346938775507 0  0.0336 0.03155102040816323 0  0.0336 0.0331285714285714 0  0.0336 0.03470612244897956 0  0.0336 0.03628367346938772 0  0.0336 0.03786122448979588 0  0.0336 0.03943877551020405 0  0.0336 0.04101632653061221 0  0.0336 0.04259387755102037 0  0.0336 0.04417142857142854 0  0.0336 0.04574897959183671 0  0.0336 0.04732653061224486 0  0.0336 0.04890408163265302 0  0.0336 0.05048163265306119 0  0.0336 0.05205918367346936 0  0.0336 0.05363673469387752 0  0.0336 0.05521428571428568 0  0.0336 0.05679183673469385 0  0.0336 0.05836938775510202 0  0.0336 0.05994693877551018 0  0.0336 0.06152448979591834 0  0.0336 0.0631020408163265 0  0.0336 0.06467959183673468 0  0.0336 0.06625714285714283 0  0.0336 0.06783469387755101 0  0.0336 0.06941224489795916 0  0.0336 0.07098979591836733 0  0.0336 0.07256734693877549 0  0.0336 0.07414489795918365 0  0.0336 0.07572244897959182 0  0.03219999999999999 0.07729999999999999 0  0.03079999999999999 0.07729999999999999 0  0.02939999999999999 0.07729999999999999 0  0.02799999999999999 0.07729999999999999 0  0.02659999999999999 0.07729999999999999 0  0.02519999999999999 0.07729999999999999 0  0.02379999999999998 0.07729999999999999 0  0.02239999999999998 0.07729999999999999 0  0.02099999999999997 0.07729999999999999 0  0.01959999999999996 0.07729999999999999 0  0.01819999999999996 0.07729999999999999 0  0.01679999999999995 0.07729999999999999 0  0.01539999999999996 0.07729999999999999 0  0.01399999999999996 0.07729999999999999 0  0.01259999999999996 0.07729999999999999 0  0.01119999999999997 0.07729999999999999 0  0.009799999999999972 0.07729999999999999 0  0.008399999999999977 0.07729999999999999 0  0.006999999999999978 0.07729999999999999 0  0.005599999999999983 0.07729999999999999 0  0.004199999999999988 0.07729999999999999 0  0.00279999999999999 0.07729999999999999 0  0.001399999999999998 0.07729999999999999 0  0 0.07572244897959184 0  0 0.07414489795918368 0  0 0.07256734693877551 0  0 0.07098979591836735 0  0 0.06941224489795919 0  0 0.06783469387755103 0  0 0.06625714285714288 0  0 0.06467959183673472 0  0 0.06310204081632656 0  0 0.0615244897959184 0  0 0.05994693877551023 0  0 0.05836938775510207 0  0 0.05679183673469392 0  0 0.05521428571428574 0  0 0.05363673469387759 0  0 0.05205918367346941 0  0 0.05048163265306126 0  0 0.04890408163265308 0  0 0.04732653061224493 0  0 0.04574897959183676 0  0 0.0441714285714286 0  0 0.04259387755102043 0  0 0.04101632653061228 0  0 0.03943877551020411 0  0 0.03786122448979595 0  0 0.03628367346938779 0  0 0.03470612244897962 0  0 0.03312857142857146 0  0 0.03155102040816329 0  0 0.02997346938775513 0  0 0.02839591836734697 0  0 0.0268183673469388 0  0 0.02524081632653064 0  0 0.02366326530612247 0  0 0.02208571428571431 0  0 0.02050816326530614 0  0 0.01893061224489798 0  0 0.01735306122448981 0  0 0.01577551020408165 0  0 0.01419795918367349 0  0 0.01262040816326532 0  0 0.01104285714285716 0  0 0.009465306122448988 0  0 0.00788775510204083 0  0 0.006310204081632659 0  0 0.004732653061224501 0  0 0.003155102040816343 0  0 0.001577551020408172 0  0.001400000000000004 0.001577551020408172 0  0.001400000000000004 0.003155102040816329 0  0.001400000000000002 0.004732653061224501 0  0.001400000000000002 0.006310204081632645 0  0.001400000000000005 0.007887755102040823 0  0.001400000000000002 0.009465306122448981 0  0.001400000000000002 0.01104285714285717 0  0.001400000000000004 0.01262040816326531 0  0.0014 0.01419795918367349 0  0.001400000000000002 0.01577551020408166 0  0.001400000000000005 0.0173530612244898 0  0.001400000000000002 0.01893061224489797 0  0.001400000000000002 0.02050816326530613 0  0.001400000000000002 0.02208571428571431 0  0.001400000000000002 0.02366326530612247 0  0.001400000000000002 0.02524081632653063 0  0.001400000000000002 0.0268183673469388 0  0.001400000000000002 0.02839591836734696 0  0.001400000000000002 0.02997346938775513 0  0.001400000000000002 0.03155102040816328 0  0.001400000000000002 0.03312857142857147 0  0.001399999999999997 0.03470612244897962 0  0.001400000000000005 0.03628367346938778 0  0.001400000000000002 0.03786122448979594 0  0.001400000000000002 0.03943877551020411 0  0.001400000000000002 0.04101632653061228 0  0.001400000000000002 0.04259387755102043 0  0.001400000000000002 0.0441714285714286 0  0.0014 0.04574897959183676 0  0.001400000000000002 0.04732653061224492 0  0.001400000000000004 0.04890408163265308 0  0.001400000000000002 0.05048163265306126 0  0.001400000000000002 0.05205918367346941 0  0.0014 0.05363673469387758 0  0.001400000000000004 0.05521428571428574 0  0.001399999999999998 0.05679183673469391 0  0.001400000000000002 0.05836938775510207 0  0.0014 0.05994693877551023 0  0.001400000000000002 0.0615244897959184 0  0.001400000000000002 0.06310204081632656 0  0.001400000000000002 0.06467959183673472 0  0.0014 0.06625714285714286 0  0.001400000000000002 0.06783469387755102 0  0.001399999999999998 0.06941224489795919 0  0.001400000000000002 0.07098979591836735 0  0.0014 0.07256734693877552 0  0.001400000000000002 0.07414489795918368 0  0.001400000000000002 0.07572244897959184 0  0.002800000000000006 0.001577551020408165 0  0.002800000000000004 0.003155102040816343 0  0.002800000000000002 0.004732653061224487 0  0.002800000000000002 0.006310204081632652 0  0.002800000000000002 0.007887755102040813 0  0.0028 0.009465306122448981 0  0.002799999999999997 0.01104285714285715 0  0.0028 0.01262040816326532 0  0.0028 0.01419795918367348 0  0.0028 0.01577551020408165 0  0.002799999999999997 0.0173530612244898 0  0.0028 0.01893061224489797 0  0.002800000000000004 0.02050816326530613 0  0.0028 0.0220857142857143 0  0.0028 0.02366326530612247 0  0.002800000000000004 0.02524081632653064 0  0.0028 0.0268183673469388 0  0.0028 0.02839591836734696 0  0.002799999999999995 0.02997346938775512 0  0.002799999999999997 0.03155102040816328 0  0.002799999999999995 0.03312857142857146 0  0.0028 0.03470612244897962 0  0.002799999999999995 0.03628367346938778 0  0.002799999999999997 0.03786122448979594 0  0.002799999999999997 0.03943877551020411 0  0.002799999999999997 0.04101632653061228 0  0.002799999999999997 0.04259387755102043 0  0.002799999999999995 0.0441714285714286 0  0.002799999999999997 0.04574897959183676 0  0.002799999999999997 0.04732653061224493 0  0.002799999999999995 0.04890408163265308 0  0.002799999999999993 0.05048163265306124 0  0.002799999999999995 0.05205918367346941 0  0.002799999999999995 0.05363673469387757 0  0.002799999999999992 0.05521428571428574 0  0.002799999999999997 0.05679183673469391 0  0.002799999999999993 0.05836938775510207 0  0.002799999999999993 0.05994693877551022 0  0.002799999999999992 0.0615244897959184 0  0.002799999999999988 0.06310204081632655 0  0.002799999999999992 0.0646795918367347 0  0.002799999999999992 0.06625714285714286 0  0.00279999999999999 0.06783469387755103 0  0.00279999999999999 0.06941224489795919 0  0.002799999999999988 0.07098979591836735 0  0.00279999999999999 0.07256734693877552 0  0.002799999999999988 0.07414489795918368 0  0.00279999999999999 0.07572244897959184 0  0.004200000000000006 0.001577551020408172 0  0.004200000000000006 0.003155102040816329 0  0.004200000000000008 0.00473265306122448 0  0.004200000000000009 0.006310204081632652 0  0.004200000000000008 0.00788775510204082 0  0.004200000000000008 0.009465306122448978 0  0.004200000000000006 0.01104285714285716 0  0.004200000000000006 0.01262040816326532 0  0.004200000000000004 0.01419795918367349 0  0.004200000000000002 0.01577551020408165 0  0.004200000000000004 0.0173530612244898 0  0.004200000000000006 0.01893061224489797 0  0.004200000000000006 0.02050816326530613 0  0.004200000000000002 0.0220857142857143 0  0.004200000000000004 0.02366326530612247 0  0.004199999999999999 0.02524081632653062 0  0.004200000000000004 0.0268183673469388 0  0.004200000000000004 0.02839591836734696 0  0.004200000000000002 0.02997346938775512 0  0.004199999999999999 0.03155102040816328 0  0.004200000000000001 0.03312857142857145 0  0.004200000000000001 0.03470612244897962 0  0.004199999999999995 0.03628367346938778 0  0.004199999999999999 0.03786122448979594 0  0.004199999999999999 0.0394387755102041 0  0.004199999999999997 0.04101632653061227 0  0.004199999999999999 0.04259387755102043 0  0.004199999999999999 0.04417142857142859 0  0.004199999999999999 0.04574897959183676 0  0.004199999999999999 0.04732653061224492 0  0.004199999999999997 0.04890408163265308 0  0.004199999999999997 0.05048163265306124 0  0.004199999999999999 0.05205918367346941 0  0.004199999999999992 0.05363673469387757 0  0.0
[...]
<PointData  Scalars=" mean stress"> 
<DataArray  type="Float64"  Name=" mean stress"  format="ascii">7.6431914966641882e+04  7.6319423633542989e+04  3.8874994654757567e+04  3.8874989080863808e+04  4.1493937547313973e+04  2.9977388483102150e+04  2.6106461331208302e+04  2.3481927343802981e+04  2.1555113189924748e+04  2.0019581156047854e+04  1.8791697404061473e+04  1.7827380961820028e+04  1.7098782989705520e+04  1.6589520836312480e+04  1.6289976436728650e+04  1.6195393825230718e+04  1.6304721801771888e+04  1.6620355277621504e+04  1.7148760023897274e+04  1.7902185675223518e+04  1.8901855019880186e+04  2.0183766066269927e+04  2.1814425387586380e+04  2.3899647898011768e+04  2.6752996522710229e+04  3.1130433794914137e+04  3.7188201883625676e+04  4.7159401832728930e+04  3.6972354671593836e+04  3.4568723144993746e+04  3.3411665391360315e+04  3.3078996261492422e+04  3.3185062230154566e+04  3.3523419959359584e+04  3.3983783928049452e+04  3.4498198408640237e+04  3.5024460742004114e+04  3.5536025181641009e+04  3.6016567562640099e+04  3.6456700766860922e+04  3.6851827171940386e+04  3.7200662561956844e+04  3.7504179175656325e+04  3.7764831440792324e+04  3.7985983806657525e+04  3.8171489368573093e+04  3.8325383982390151e+04  3.8451669850670332e+04  3.8554168434776242e+04  3.8636426631832022e+04  3.8701663252559563e+04  3.8752745332352169e+04  3.8792185886950538e+04  3.8822156475888019e+04  3.8844509409416743e+04  3.8860805660759484e+04  3.8872345552130748e+04  3.8880200096682529e+04  3.8885241524954363e+04  3.8888172028661218e+04  3.8889550140603169e+04  3.8889814458424982e+04  3.8889304631967010e+04  3.8888279685493755e+04  3.8886933852700182e+04  3.8885410176563746e+04  3.8883812181379501e+04  3.8882213965796458e+04  3.8880669123438303e+04  3.8879218926646652e+04  3.8877900294551015e+04  3.8876754576765823e+04  3.8875833441564886e+04  3.8875219818009704e+04  3.8874938634553124e+04  3.8875056436146493e+04  3.8874851273856366e+04  3.8874401509881915e+04  3.8873730292621534e+04  3.8872932734696602e+04  3.8872090118172760e+04  3.8871271875393919e+04  3.8870533355894768e+04  3.8869917155181793e+04  3.8869454571565831e+04  3.8869166935131529e+04  3.8869066663648133e+04  3.8869157939264907e+04  3.8869436955410856e+04  3.8869891716803453e+04  3.8870501414942024e+04  3.8871235440804878e+04  3.8872052141698252e+04  3.8872897493473436e+04  3.8873703937393220e+04  3.8874390329419359e+04  3.8874864750929191e+04  3.8875041452059653e+04  3.8874945669847708e+04  3.8875210923548497e+04  3.8875858831625308e+04  3.8876797109045619e+04  3.8877955970368195e+04  3.8879285016079775e+04  3.8880745183638144e+04  3.8882300546348153e+04  3.8883910276463917e+04  3.8885520846642292e+04  3.8887057911713870e+04  3.8888417399500249e+04  3.8889455378757921e+04  3.8889976316476670e+04  3.8889719376950918e+04  3.8888342456433813e+04  3.8885403699462397e+04  3.8880340316389200e+04  3.8872444627534853e+04  3.8860837411222863e+04  3.8844438845118115e+04  3.8821937620673758e+04  3.8791759198142754e+04  3.8752034676855343e+04  3.8700572406060470e+04  3.8634835280946747e+04  3.8551927682631831e+04  3.8448597255963032e+04  3.8321258202415578e+04  3.8166044528352963e+04  3.7978903778613894e+04  3.7755744288774782e+04  3.7492652086755887e+04  3.7186197648801040e+04  3.6833858564440139e+04  3.6434593406716362e+04  3.5989618164610612e+04  3.5503465808065739e+04  3.4985465272796042e+04  3.4451905782578338e+04  3.3929290923636523e+04  3.3459994994479770e+04  3.3112769224664851e+04  3.2993195896835714e+04  3.3353601118408151e+04  3.4500806048854152e+04  3.7775271013903010e+04  5.4154708116835929e+04  4.6932948340154988e+04  4.3125734384658128e+04  3.8744803609118448e+04  3.6775365307730288e+04  3.5795404194653012e+04  3.5390201121170459e+04  3.5318961101605877e+04  3.5442769244355433e+04  3.5679062016544071e+04  3.5974698331982596e+04  3.6295107971921119e+04  3.6617698316637150e+04  3.6927962604497756e+04  3.7216995976919490e+04  3.7479819949050259e+04  3.7714207576197747e+04  3.7919835131717729e+04  3.8097659187295751e+04  3.8249456299170502e+04  3.8377483878723368e+04  3.8484233254891180e+04  3.8572253565732477e+04  3.8644030123823970e+04  3.8701904423067157e+04  3.8748025594077990e+04  3.8784325189098883e+04  3.8812508856104156e+04  3.8834059840292066e+04  3.8850250386630927e+04  3.8862158048750112e+04  3.8870684666813897e+04  3.8876576385674096e+04  3.8880443566971233e+04  3.8882779825406476e+04  3.8883979708380692e+04  3.8884354756008848e+04  3.8884147839138248e+04  3.8883545788963260e+04  3.8882690412603770e+04  3.8881688042817819e+04  3.8880617800941007e+04  3.8879538758988092e+04  3.8878496166788318e+04  3.8877526792807148e+04  3.8876663186354031e+04  3.8875936764870421e+04  3.8875372368663244e+04  3.8875018664092546e+04  3.7795803889329589e+04  4.0002918626855113e+04  3.9175804138185464e+04  3.8061214035891302e+04  3.7316936591221645e+04  3.6894197985353094e+04  3.6708909086497442e+04  3.6684097247185549e+04  3.6763282526951705e+04  3.6906337064173269e+04  3.7084976641980917e+04  3.7279497813047681e+04  3.7476400206538754e+04  3.7666697273483303e+04  3.7844694709854011e+04  3.8007091447636427e+04  3.8152308281606041e+04  3.8279981575846170e+04  3.8390580110004536e+04  3.8485115879096556e+04  3.8564927710446129e+04  3.8631521787303442e+04  3.8686456713422158e+04  3.8731263289327217e+04  3.8767391086483978e+04  3.8796175420209205e+04  3.8818819559216034e+04  3.8836388038302372e+04  3.8849807802044212e+04  3.8859874626444733e+04  3.8867262861937103e+04  3.8872537029684754e+04  3.8876164198287937e+04  3.8878526382525975e+04  3.8879932451749584e+04  3.8880629224609802e+04  3.8880811568188772e+04  3.8880631422572427e+04  3.8880205743240731e+04  3.8879623398231546e+04  3.8878951079733517e+04  3.8878238290975118e+04  3.8877521458558782e+04  3.8876827303022052e+04  3.8876175392466568e+04  3.8875583549042189e+04  3.8875078586563650e+04  3.8874735965831074e+04  3.2117452466584666e+04  3.5838357334113723e+04  3.7299601819285788e+04  3.7646431034097666e+04  3.7640444886701516e+04  3.7576827753126163e+04  3.7542576274603722e+04  3.7555073970096775e+04  3.7608731240525187e+04  3.7692340569385837e+04  3.7794806390873062e+04  3.7906874921395189e+04  3.8021442946853618e+04  3.8133370508791355e+04  3.8239154303168420e+04  3.8336591116934942e+04  3.8424476142765925e+04  3.8502348093314024e+04  3.8570280702773591e+04  3.8628715986070805e+04  3.8678333533617195e+04  3.8719950189327501e+04  3.8754444921043636e+04  3.8782704260153310e+04  3.8805584263410186e+04  3.8823885503788988e+04  3.8838338118493841e+04  3.8849594426104595e+04  3.8858227066379601e+04  3.8864731011740529e+04  3.8869528146770113e+04  3.8872973409657578e+04  3.8875361740094508e+04  3.8876935283005456e+04  3.8877890462340183e+04  3.8878384667298422e+04  3.8878542390846262e+04  3.8878460731096035e+04  3.8878214215262167e+04  3.8877858938125210e+04  3.8877436029345241e+04  3.8876974497406423e+04  3.8876493542393735e+04  3.8876004818578338e+04  3.8875515380540070e+04  3.8875034510135440e+04  3.8874596022538157e+04  3.8874285033431865e+04  2.8441646878537937e+04  3.2415765138880561e+04  3.4965220266180979e+04  3.6402761722496754e+04  3.7186837502418770e+04  3.7627391607963706e+04  3.7893643668268684e+04  3.8070501307548548e+04  3.8199845947994727e+04  3.8302218726935505e+04  3.8387739625303569e+04  3.8461441129764462e+04  3.8525886093350156e+04  3.8582458391636326e+04  3.8631999178761791e+04  3.8675117399260096e+04  3.8712336462564897e+04  3.8744158146095921e+04  3.8771084958657644e+04  3.8793622315313718e+04  3.8812271762542943e+04  3.8827521215204135e+04  3.8839835319717873e+04  3.8849647466061040e+04  3.8857354056302778e+04  3.8863311109418864e+04  3.8867832988420771e+04  3.8871192890485334e+04  3.8873624690124772e+04  3.8875325733928184e+04  3.8876460227994896e+04  3.8877162918181137e+04  3.8877542826905410e+04  3.8877686870645710e+04  3.8877663235166154e+04  3.8877524428424527e+04  3.8877309964099732e+04  3.8877048652258054e+04  3.8876760490406021e+04  3.8876458163619733e+04  3.8876148184190948e+04  3.8875831768488977e+04  3.8875505661806776e+04  3.8875163506163699e+04  3.8874799337702636e+04  3.8874414100066257e+04  3.8874037369842081e+04  3.8873736236030898e+04  2.5872830503713256e+04  2.9777427728900922e+04  3.2805440521988035e+04  3.4927846567601257e+04  3.6345461537691597e+04  3.7277188219082498e+04  3.7889600049229288e+04  3.8293982930669037e+04  3.8561567601012932e+04  3.8737833083281243e+04  3.8852265850380703e+04  3.8924415298248678e+04  3.8967535699919412e+04  3.8990783303979100e+04  3.9000568993137575e+04  3.9001416495260688e+04  3.8996525471026871e+04  3.8988152936614584e+04  3.8977878628398772e+04  3.8966793378885312e+04  3.8955634704258322e+04  3.8944885261078729e+04  3.8934844721466929e+04  3.8925682405950800e+04  3.8917475891686830e+04  3.8910239351995013e+04  3.8903944347198514e+04  3.8898535041969539e+04  3.8893939286491652e+04  3.8890076610937263e+04  3.8886863903778787e+04  3.8884219344451871e+04  3.8882065016508313e+04  3.8880328522686170e+04  3.8878943845631133e+04  3.8877851639280532e+04  3.8876999090597848e+04  3.8876339456450587e+04  3.8875831355868788e+04  3.8875437888437220e+04  3.8875125661980412e+04  3.8874863876497431e+04  3.8874623772173698e+04  3.8874378891858876e+04  3.8874107757540478e+04  3.8873798194941781e+04  3.8873461795763156e+04  3.8873130490283183e+04  2.3997051299941533e+04  2.7777391543362872e+04  3.0998575992756072e+04  3.3520052494508855e+04  3.5388857908096259e+04  3.6727738642073520e+04  3.7665487848653116e+04  3.8309572542489273e+04  3.8741884792324556e+04  3.9022626990751967e+04  3.9195580764869781e+04  3.9292574403045801e+04  3.9336801635880307e+04  3.9345182826270538e+04  3.9330035722665860e+04  3.9300271559724533e+04  3.9262266430612181e+04  3.9220506817757829e+04  3.9178073967037119e+04  3.9137010213671252e+04  3.9098596953334025e+04  3.9063565488562883e+04  3.9032256437660151e+04  3.9004739582456728e+04  3.8980903281592109e+04  3.8960520516227130e+04  3.8943297054206785e+04  3.8928905990524894e+04  3.8917011963686906e+04  3.8907287599931748e+04  3.8899424154724948e+04  3.8893137867606769e+04  3.8888173193813847e+04  3.8884303801132162e+04  3.8881332005991680e+04  3.8879087155097732e+04  3.8877423328174249e+04  3.8876216637250604e+04  3.8875362324669528e+04  3.8874771817134868e+04  3.8874369882616615e+04  3.8874092060574061e+04  3.8873882676368143e+04  3.8873693691401022e+04  3.8873485452891931e+04  3.8873227833906392e+04  3.8872906275263857e+04  3.8872511288417678e+04  2.2583739918559313e+04  2.6263006681196821e+04  2.9555845384536020e+04  3.2302964869664283e+04  3.4474617885645930e+04  3.6123073410329605e+04  3.7334406846193444e+04  3.8198375149191852e+04  3.8794799522844463e+04  3.9189612819598398e+04  3.9435251808538625e+04  3.9572547220721324e+04  3.9632855747673464e+04  3.9639985877368628e+04  3.9611806900130163e+04  3.9561552658258450e+04  3.9498864887647120e+04  3.9430623317120197e+04  3.9361603284488032e+04  3.9294994241978246e+04  3.9232806195144432e+04  3.9176186061784858e+04  3.9125661902593172e+04  3.9081329699110502e+04  3.9042994650399080e+04  3.9010276708865051e+04  3.8982688201928613e+04  3.8959689833923716e+04  3.8940730086042618e+04  3.8925271990590161e+04  3.8912810411714992e+04  3.8902882284971747e+04  3.8895071722626002e+04  3.8889011456359309e+04  3.8884381741875688e+04  3.8880907575335084e+04  3.8878354855055593e+04  3.8876525954285004e+04  3.8875255044987622e+04  3.8874403424029086e+04  3.8873855045607190e+04  3.8873512433798292e+04  3.8873293210466567e+04  3.8873127301768676e+04  3.8872955288782738e+04  3.8872726259426359e+04  3.8872397132853774e+04  3.8871919006021599e+04  2.1517793563519579e+04  2.5126499087712269e+04  2.8442278949741922e+04  3.1315957882111037e+04  3.3684318805653347e+04  3.5555432506518737e+04  3.6980268499400328e+04  3.8028092831632515e+04  3.8770541644789693e+04  3.9273353491407208e+04  3.9593028896640302e+04  3.9776196933589985e+04  3.9860272295797557e+04  3.9874625735805035e+04  3.9841875117002979e+04  3.9779114889327735e+04  3.9699009018834135e+04  3.9610725235152742e+04  3.9520713434666250e+04  3.9433342149801392e+04  3.9351411103913779e+04  3.9276558510216011e+04  3.9209580714923926e+04  3.9150679962708520e+04  3.9099653977432550e+04  3.9056038973495932e+04  3.9019215783524676e+04  3.8988487070644514e+04  3.8963132108379425e+04  3.8942444352489103e+04  3.8925755978334462e+04  3.8912452689834245e+04  3.8901981396449308e+04  3.8893852777914624e+04  3.8887640291660653e+04  3.8882976805037179e+04  3.8879549738793394e+04  3.8877095376149438e+04  3.8875392813331069e+04  3.8874257892758178e+04  3.8873537367313540e+04  3.8873103461357830e+04  3.8872848966881749e+04  3.8872682789949686e+04  3.8872525977232210e+04  3.8872306739574226e+04  3.8871955086161390e+04  3.8871388592391668e+04  2.0734786314797107e+04  2.4298147062058750e+04  2.7618734099535464e+04  3.0563132477306768e+04  3.3055765514115759e+04  3.5079453324821705e+04  3.6660346361673837e+04  3.7850043696114466e+04  3.8710675531505723e+04  3.9304931450008553e+04  3.9690399981482355e+04  3.9916977320491293e+04  4.0026175144243236e+04  4.0051482672374295e+04  4.0019236958090078e+04  3.9949677515058924e+04  3.9858006202169709e+04  3.9755362236994690e+04  3.9649674100387616e+04  3.9546379029272961e+04  3.9449015931300652e+04  3.9359704660161231e+04  3.9279527154540927e+04  3.9208826049627452e+04  3.9147435238185557e+04  3.9094855189356960e+04  3.9050384016692260e+04  3.9013213529619599e+04  3.8982497903001698e+04  3.8957401196908722e+04  3.8937128757945262e+04  3.8920946523026709e+04  3.8908191406920836e+04  3.8898275264407377e+04  3.8890684355361962e+04  3.8884975786606483e+04  3.8880772040749762e+04  3.8877754413861323e+04  3.8875655957987088e+04  3.8874254347133472e+04  3.8873364948230323e+04  3.8872834250738437e+04  3.8872533710483047e+04  3.8872353826519058e+04  3.8872198228077927e+04  3.8871976589269099e+04  3.8871596198553503e+04  3.8870948442793546e+04  2.0197839618773964e+04  2.3734244127175629e+04  2.7053919337013827e+04  3.0036858405886858e+04  3.2604221382299085e+04  3.4725531635761246e+04  3.6411275120191451e+04  3.7700268421900502e+04  3.8646607301956377e+04  3.9309384162387258e+04  3.9745816647756794e+04  4.0007371721834716e+04  4.0138061338243948e+04  4.0174130633202447e+04  4.0144537154585043e+04  4.0071813083744397e+04  3.9973057129369117e+04  3.9860912076716653e+04  3.9744454656494861e+04  3.9629967316302376e+04  3.9521585914042094e+04  3.9421830209614891e+04  3.9332029964992929e+04  3.9252661446041915e+04  3.9183608973798982e+04  3.9124364976972647e+04  3.9074180367772773e+04  3.9032175337933499e+04  3.8997419025469462e+04  3.8968985015867329e+04  3.8945988342915312e+04  3.8927608545554991e+04  3.8913102405045342e+04  3.8901809213583867e+04  3.8893150790691376e+04  3.8886627947770241e+04  3.8881814685874473e+04  3.8878351079901775e+04  3.8875935538745682e+04  3.8874316919382385e+04  3.8873286800125541e+04  3.8872672056787102e+04  3.8872327740462075e+04  3.8872130026570434e+04  3.8871968878493266e+04  3.8871739573445069e+04  3.8871332367728879e+04  3.8870620176967575e+04  1.9885989760648696e+04  2.3408615279301252e+04  2.6726381127955170e+04  2.9727997852075347e+04  3.2334539956060973e+04  3.4509450170184544e+04  3.6254834724899840e+04  3.7601986158395368e+04  3.8599803292595607e+04  3.9304683680671944e+04  3.9773139724855668e+04  4.0057232581650271e+04  4.0202262102363275e+04  4.0246020559164419e+04  4.0219002038052669e+04  4.0145120255029913e+04  4.0042639323538460e+04  3.9925139945501483e+04  3.9802424592654097e+04  3.9681316732604231e+04  3.9566339650976734e+04  3.9460277189515444e+04  3.9364627015962695e+04  3.9279960382452999e+04  3.9206202920564923e+04  3.9142850198332817e+04  3.9089130300151774e+04  3.9044124016313777e+04  3.9006851572509964e+04  3.8976333302892570e+04  3.8951630318675823e+04  3.8931870058920926e+04  3.8916260623667629e+04  3.8904096966389727e+04  3.8894761343861122e+04  3.8887719867588610e+04  3.8882516553290945e+04  3.8878765905423737e+04  3.8876144786034311e+04  3.8874384083466750e+04  3.8873260500909768e+04  3.8872588603313161e+04  3.8872213089015357e+04  3.8872001040410476e+04  3.8871833723288859e+04  3.8871597361102235e+04  3.8871171682398970e+04  3.8870418841992592e+04  1.9788580757919877e+04  2.3307472473691352e+04  2.6623866354577516e+04  2.9630022857144253e+04  3.2247530606577639e+04  3.4438397709082099e+04  3.6202250382773782e+04  3.7567953782722936e+04  3.8582593661566425e+04  3.9301524989454694e+04  3.9780880768281691e+04  4.0072806403674738e+04  4.0222953696077639e+04  4.0269585002710308e+04  4.0243684332044519e+04  4.0169618915845829e+04  4.0066043313872782e+04  3.9946857470427662e+04  3.9822114216076523e+04  3.9698826002993148e+04  3.9581653216711886e+04  3.9473474587298981e+04  3.9375849392595948e+04  3.9289385006371573e+04  3.9214024228137656e+04  3.9149266163051892e+04  3.9094333031171176e+04  3.9048293640272539e+04  3.9010152604775547e+04  3.8978912857907235e+04  3.8953617637753996e+04  3.8933376945429765e+04  3.8917382469562930e+04  3.8904914131898913e+04  3.8895340715135440e+04  3.8888116467390246e+04  3.8882775118866906e+04  3.8878922377430928e+04  3.8876227673606954e+04  3.8874415684195592e+04  3.8873257960082119e+04  3.8872564796675186e+04  3.8872177300835770e+04  3.8871959413999633e+04  3.8871789409807287e+04  3.8871550484514104e+04  3.8871118743052997e+04  3.8870353223172635e+04  1.9902714129788179e+04  2.3426762793479797e+04  2.6742436260951097e+04  2.9740464420199827e+04  3.2342885991055762e+04  3.4514129803544056e+04  3.6256723652665838e+04  3.7602053655708820e+04  3.8598887016750115e+04  3.9303404800434044e+04  3.9771897448940203e+04  4.0056244891318311e+04  4.0201617693139073e+04  4.0245725705828598e+04  4.0219016865537036e+04  4.0145383937452134e+04  4.0043086005137273e+04  3.9925707909706805e+04  3.9803060819796294e+04  3.9681978542122524e+04  3.9566994621601843e+04  3.9460902157265482e+04  3.9365206661660151e+04  3.9280485718270509e+04  3.9206669851730301e+04  3.9143258249504892e+04  3.9089481542206537e+04  3.9044422196987791e+04  3.9007101436567216e+04  3.8976540078518476e+04  3.8951799343789055e+04  3.8932006521252151e+04  3.8916369390670756e+04  3.8904182483941680e+04  3.8894827586138628e+04  3.8887770323665449e+04  3.8882554239100435e+04  3.8878793392435146e+04  3.8876164240623613e+04  3.8874397313537105e+04  3.8873269008139679e+04  3.8872593644081811e+04  3.8872215740585110e+04  3.8872002295665501e+04  3.8871834542696561e+04  3.8871598905557534e+04  3.8871174893742966e+04  3.8870426089046312e+04  2.0232555359933613e+04  2.3771348772999390e+04  2.7086046830687195e+04  3.0061192355281695e+04  3.2619995986711812e+04  3.4733937793947989e+04  3.6414257010291512e+04  3.7699853765539679e+04  3.8644464728040126e+04  3.9306702757056417e+04  3.9743333742601797e+04  4.0005469616445480e+04  4.0136877039691128e+04  4.0173650363543195e+04  4.0144665987285356e+04  4.0072422134081804e+04  3.9974012585221906e+04  3.9862091396195799e+04  3.9745754224148193e+04  3.9631304786606153e+04  3.9522899492593322e+04  3.9423076345777867e+04  3.9333180388080131e+04  3.9253700099906098e+04  3.9184529158991070e+04  3.9125166851570240e+04  3.9074868860792500e+04  3.9032758472013229e+04  3.8997906614151725e+04  3.8969387686243062e+04  3.8946316830000826e+04  3.8927873206239630e+04  3.8913312904402977e+04  3.8901974342582718e+04  3.8893278380984659e+04  3.8886724855751112e+04  3.8881886824054985e+04  3.8878403479033957e+04  3.8875972428978239e+04  3.8874341823901013e+04  3.8873302638005531e+04  3.8872681261632424e+04  3.8872332388514486e+04  3.8872132024689767e+04  3.8871970068059418e+04  3.8871742219200423e+04  3.8871338311586420e+04  3.8870634274674165e+04  2.0790216115166997e+04  2.4355802419535117e+04  2.7666700785414498e+04  3.0597774396110410e+04  3.3076853762108738e+04  3.5089589775690874e+04  3.6662865836900688e+04  3.7848121225096067e+04  3.8706767226912809e+04  3.9300674050073678e+04  3.9686734689414421e+04  3.9