<?xml version="1.0"?>
<VTKFile type="UnstructuredGrid"  version="0.1"  >
<UnstructuredGrid>
<Piece  NumberOfPoints="6382" NumberOfCells="12354">
<Points>
<DataArray  type="Float64"  NumberOfComponents="3"  format="ascii">0 -3 0  0 0 0  10 -3 0  10 0 0  5.2 0 0  5.2 -0.4 0  5.5 -0.4 0  5.5 -0.6000000000000001 0  4.5 -0.6000000000000001 0  4.5 -0.4 0  4.8 -0.4 0  4.8 0 0  0 -2.666666666666667 0  0 -2.333333333333333 0  0 -2 0  0 -1.666666666666667 0  0 -1.333333333333333 0  0 -1 0  0 -0.666666666666667 0  0 -0.3333333333333335 0  9.836518447033493 -3 0  9.676485174132324 -3 0  9.519716728676565 -3 0  9.366040597429432 -3 0  9.215293522901804 -3 0  9.067325347766827 -3 0  8.921978167503752 -3 0  8.779125793186953 -3 0  8.638633440048579 -3 0  8.500376249002967 -3 0  8.364235730108557 -3 0  8.230099119300583 -3 0  8.097858693472926 -3 0  7.96741165420296 -3 0  7.838659590098249 -3 0  7.711508416266758 -3 0  7.585867779025237 -3 0  7.461651037321721 -3 0  7.338774694871047 -3 0  7.217158563845377 -3 0  7.096725097152937 -3 0  6.977399455051415 -3 0  6.859109304538208 -3 0  6.741784490575633 -3 0  6.625356935727237 -3 0  6.509760461250432 -3 0  6.394930659317325 -3 0  6.2808046903675 -3 0  6.167321173775116 -3 0  6.054420032640893 -3 0  5.942042373994132 -3 0  5.830130346471836 -3 0  5.718627047087892 -3 0  5.607476358937133 -3 0  5.496622874861212 -3 0  5.386011773348871 -3 0  5.275588701244851 -3 0  5.1652996754838 -3 0  5.055090972556302 -3 0  4.944909027443701 -3 0  4.834700324516204 -3 0  4.724411298755151 -3 0  4.613988226651132 -3 0  4.50337712513879 -3 0  4.392523641062869 -3 0  4.281372952912111 -3 0  4.169869653528168 -3 0  4.05795762600587 -3 0  3.94557996735911 -3 0  3.832678826224885 -3 0  3.719195309632506 -3 0  3.605069340682676 -3 0  3.490239538749567 -3 0  3.374643064272765 -3 0  3.25821550942437 -3 0  3.140890695461794 -3 0  3.022600544948583 -3 0  2.903274902847057 -3 0  2.782841436154621 -3 0  2.661225305128949 -3 0  2.538348962678273 -3 0  2.414132220974763 -3 0  2.288491583733238 -3 0  2.161340409901745 -3 0  2.032588345797035 -3 0  1.902141306527067 -3 0  1.76990088069941 -3 0  1.63576426989143 -3 0  1.499623750997021 -3 0  1.361366559951406 -3 0  1.220874206813038 -3 0  1.078021832496241 -3 0  0.9326746522331657 -3 0  0.7847064770981866 -3 0  0.6339594025705644 -3 0  0.4802832713234277 -3 0  0.3235148258676688 -3 0  0.1634815529665037 -3 0  10 -0.3333333333333333 0  10 -0.6666666666666666 0  10 -1 0  10 -1.333333333333333 0  10 -1.666666666666667 0  10 -2 0  10 -2.333333333333333 0  10 -2.666666666666667 0  5.242711110725164 0 0  5.286293876642154 0 0  5.330766086609641 0 0  5.37614589213589 0 0  5.422451816439484 0 0  5.469702760205794 0 0  5.517918009017504 0 0  5.567117241892008 0 0  5.617320540096343 0 0  5.668548395644089 0 0  5.720821717893487 0 0  5.774161842649544 0 0  5.828590541642586 0 0  5.88413003019757 0 0  5.940802977381058 0 0  5.998632515893446 0 0  6.057642249375406 0 0  6.117856262977496 0 0  6.179299133651088 0 0  6.241995940085244 0 0  6.305972273082686 0 0  6.371254245606542 0 0  6.43786850326221 0 0  6.505842235920577 0 0  6.575203187664691 0 0  6.645979668539436 0 0  6.71820056760014 0 0  6.791895362764803 0 0  6.867094133292654 0 0  6.943827572794882 0 0  7.022127001289535 0 0  7.10202437703821 0 0  7.183552311040527 0 0  7.266744080707336 0 0  7.351633641831447 0 0  7.438255642584554 0 0  7.526645439439152 0 0  7.616839110330926 0 0  7.708873468012155 0 0  7.802786077905059 0 0  7.898615271449994 0 0  7.996400162886068 0 0  8.096180664647234 0 0  8.197997502517053 0 0  8.301892235188374 0 0  8.407907268711336 0 0  8.516085874431543 0 0  8.626472207031901 0 0  8.739111321743804 0 0  8.854049193814495 0 0  8.971332736524433 0 0  9.091009820696414 0 0  9.21312929427506 0 0  9.337741001971482 0 0  9.464895805719847 0 0  9.594645605970797 0 0  9.727043361679982 0 0  9.862143111819449 0 0  5.2 -0.01666666666666669 0  5.2 -0.03333333333333339 0  5.2 -0.05000000000000009 0  5.2 -0.06666666666666679 0  5.2 -0.0833333333333335 0  5.2 -0.1000000000000002 0  5.2 -0.1166666666666669 0  5.2 -0.1333333333333336 0  5.2 -0.1500000000000002 0  5.2 -0.1666666666666669 0  5.2 -0.1833333333333335 0  5.2 -0.2000000000000001 0  5.2 -0.2166666666666668 0  5.2 -0.2333333333333335 0  5.2 -0.2500000000000002 0  5.2 -0.2666666666666669 0  5.2 -0.2833333333333335 0  5.2 -0.3000000000000002 0  5.2 -0.3166666666666668 0  5.2 -0.3333333333333335 0  5.2 -0.3500000000000001 0  5.2 -0.3666666666666668 0  5.2 -0.3833333333333334 0  5.2125 -0.4 0  5.225 -0.4 0  5.2375 -0.4 0  5.25 -0.4 0  5.2625 -0.4 0  5.275 -0.4 0  5.2875 -0.4 0  5.3 -0.4 0  5.3125 -0.4 0  5.325 -0.4 0  5.337499999999999 -0.4 0  5.35 -0.4 0  5.3625 -0.4 0  5.375 -0.4 0  5.3875 -0.4 0  5.4 -0.4 0  5.4125 -0.4 0  5.425 -0.4 0  5.4375 -0.4 0  5.45 -0.4 0  5.4625 -0.4 0  5.475 -0.4 0  5.4875 -0.4 0  5.5 -0.4083333333333334 0  5.5 -0.4166666666666667 0  5.5 -0.425 0  5.5 -0.4333333333333334 0  5.5 -0.4416666666666668 0  5.5 -0.4500000000000001 0  5.5 -0.4583333333333334 0  5.5 -0.4666666666666668 0  5.5 -0.4750000000000001 0  5.5 -0.4833333333333335 0  5.5 -0.4916666666666668 0  5.5 -0.5000000000000002 0  5.5 -0.5083333333333335 0  5.5 -0.5166666666666668 0  5.5 -0.5250000000000002 0  5.5 -0.5333333333333335 0  5.5 -0.5416666666666669 0  5.5 -0.5500000000000002 0  5.5 -0.5583333333333335 0  5.5 -0.5666666666666668 0  5.5 -0.5750000000000002 0  5.5 -0.5833333333333335 0  5.5 -0.5916666666666668 0  5.479591836734694 -0.6000000000000001 0  5.459183673469388 -0.6000000000000001 0  5.438775510204081 -0.6000000000000001 0  5.418367346938775 -0.6000000000000001 0  5.397959183673469 -0.6000000000000001 0  5.377551020408164 -0.6000000000000001 0  5.357142857142857 -0.6000000000000001 0  5.336734693877551 -0.6000000000000001 0  5.316326530612245 -0.6000000000000001 0  5.295918367346939 -0.6000000000000001 0  5.275510204081633 -0.6000000000000001 0  5.255102040816326 -0.6000000000000001 0  5.23469387755102 -0.6000000000000001 0  5.214285714285714 -0.6000000000000001 0  5.193877551020408 -0.6000000000000001 0  5.173469387755102 -0.6000000000000001 0  5.153061224489796 -0.6000000000000001 0  5.13265306122449 -0.6000000000000001 0  5.112244897959184 -0.6000000000000001 0  5.091836734693878 -0.6000000000000001 0  5.071428571428571 -0.6000000000000001 0  5.051020408163265 -0.6000000000000001 0  5.030612244897959 -0.6000000000000001 0  5.010204081632653 -0.6000000000000001 0  4.989795918367347 -0.6000000000000001 0  4.969387755102041 -0.6000000000000001 0  4.948979591836735 -0.6000000000000001 0  4.928571428571429 -0.6000000000000001 0  4.908163265306122 -0.6000000000000001 0  4.887755102040816 -0.6000000000000001 0  4.86734693877551 -0.6000000000000001 0  4.846938775510204 -0.6000000000000001 0  4.826530612244898 -0.6000000000000001 0  4.806122448979592 -0.6000000000000001 0  4.785714285714286 -0.6000000000000001 0  4.76530612244898 -0.6000000000000001 0  4.744897959183674 -0.6000000000000001 0  4.724489795918368 -0.6000000000000001 0  4.704081632653061 -0.6000000000000001 0  4.683673469387755 -0.6000000000000001 0  4.663265306122449 -0.6000000000000001 0  4.642857142857143 -0.6000000000000001 0  4.622448979591836 -0.6000000000000001 0  4.602040816326531 -0.6000000000000001 0  4.581632653061225 -0.6000000000000001 0  4.561224489795919 -0.6000000000000001 0  4.540816326530612 -0.6000000000000001 0  4.520408163265306 -0.6000000000000001 0  4.5 -0.5916666666666668 0  4.5 -0.5833333333333334 0  4.5 -0.5750000000000001 0  4.5 -0.5666666666666668 0  4.5 -0.5583333333333333 0  4.5 -0.55 0  4.5 -0.5416666666666667 0  4.5 -0.5333333333333333 0  4.5 -0.525 0  4.5 -0.5166666666666666 0  4.5 -0.5083333333333333 0  4.5 -0.4999999999999999 0  4.5 -0.4916666666666666 0  4.5 -0.4833333333333332 0  4.5 -0.4749999999999999 0  4.5 -0.4666666666666666 0  4.5 -0.4583333333333333 0  4.5 -0.45 0  4.5 -0.4416666666666667 0  4.5 -0.4333333333333333 0  4.5 -0.425 0  4.5 -0.4166666666666667 0  4.5 -0.4083333333333334 0  4.5125 -0.4 0  4.525 -0.4 0  4.5375 -0.4 0  4.55 -0.4 0  4.5625 -0.4 0  4.575 -0.4 0  4.587499999999999 -0.4 0  4.6 -0.4 0  4.6125 -0.4 0  4.625 -0.4 0  4.637499999999999 -0.4 0  4.649999999999999 -0.4 0  4.6625 -0.4 0  4.675 -0.4 0  4.6875 -0.4 0  4.699999999999999 -0.4 0  4.712499999999999 -0.4 0  4.725 -0.4 0  4.7375 -0.4 0  4.75 -0.4 0  4.7625 -0.4 0  4.774999999999999 -0.4 0  4.7875 -0.4 0  4.8 -0.3833333333333333 0  4.8 -0.3666666666666666 0  4.8 -0.3499999999999999 0  4.8 -0.3333333333333333 0  4.8 -0.3166666666666665 0  4.8 -0.2999999999999998 0  4.8 -0.2833333333333331 0  4.8 -0.2666666666666664 0  4.8 -0.2499999999999998 0  4.8 -0.2333333333333331 0  4.8 -0.2166666666666665 0  4.8 -0.1999999999999999 0  4.8 -0.1833333333333332 0  4.8 -0.1666666666666665 0  4.8 -0.1499999999999998 0  4.8 -0.1333333333333331 0  4.8 -0.1166666666666665 0  4.8 -0.09999999999999987 0  4.8 -0.0833333333333332 0  4.8 -0.06666666666666654 0  4.8 -0.04999999999999988 0  4.8 -0.03333333333333327 0  4.8 -0.01666666666666661 0  0.1378568875240437 0 0  0.2729566377271358 0 0  0.4053543934976697 0 0  0.5351041938077431 0 0  0.6622589976130751 0 0  0.7868707053643811 0 0  0.9089901789958823 0 0  1.028667263218748 0 0  1.14595080597766 0 0  1.260888678095464 0 0  1.373527792852679 0 0  1.483914125496606 0 0  1.592092731258683 0 0  1.698107764821866 0 0  1.802002497531814 0 0  1.90381933543871 0 0  2.003599837235452 0 0  2.101384728705643 0 0  2.197213922283282 0 0  2.291126532207516 0 0  2.38316088991875 0 0  2.473354560839241 0 0  2.56174435771825 0 0  2.648366358500676 0 0  2.733255919649871 0 0  2.81644768934063 0 0  2.897975623365796 0 0  2.977872999136252 0 0  3.056172427651654 0 0  3.132905867173631 0 0  3.208104637720262 0 0  3.28179943290277 0 0  3.354020331980409 0 0  3.42479681287121 0 0  3.494157764630528 0 0  3.562131497303279 0 0  3.628745754972536 0 0  3.69402772750921 0 0  3.758004060518725 0 0  3.820700866964234 0 0  3.882143737648484 0 0  3.942357751260559 0 0  4.0013674
[...]
<CellData  Scalars="Plastic strain"> 
<DataArray  type="Float64"  Name="Plastic strain"  format="ascii">1.3907524578453241e-02   -5.3586005061081429e-17   2.2252613336202968e-03   0.0000000000000000e+00   0.0000000000000000e+00   0.0000000000000000e+00   1.4313055063100915e-02   0.0000000000000000e+00   1.7172914795491115e-02   6.9318391725686823e-06   3.8610503750993746e-04   4.7224518998208261e-17   0.0000000000000000e+00   0.0000000000000000e+00   5.5087873583770441e-17   0.0000000000000000e+00   4.6947203084129769e-03   0.0000000000000000e+00   -3.1222496015483695e-17   9.3643157163812111e-03   2.0426009898598105e-01   -3.9052808483795597e-17   3.9276615479401249e-02   1.1324627587525447e-01   0.0000000000000000e+00   0.0000000000000000e+00   0.0000000000000000e+00   7.3723879064338024e-03   0.0000000000000000e+00   3.5758151476104384e-05   1.4652902091319317e-02   2.1309041315993827e-03   3.3706582600744954e-17   0.0000000000000000e+00   3.3967158254921675e-17   2.9944450393226706e-03   7.9351763777487806e-03   1.9011474459662567e-04   0.0000000000000000e+00   2.4167279471934825e-03   4.8917118238187458e-02   7.4412351879304332e-04   0.0000000000000000e+00   3.3044121486536918e-02   4.8440682458233074e-17   2.9258748660913336e-02   0.0000000000000000e+00   0.0000000000000000e+00   6.5746294575136522e-03   6.2866364977064160e-03   0.0000000000000000e+00   0.0000000000000000e+00   5.2336547606333277e-04   -3.3747459048007369e-17   1.1886314841068519e-02   9.9724883040540516e-02   1.2275182822074622e-01   5.5898069418581865e-02   4.6132376654313405e-02   2.8821569906313173e-03   0.0000000000000000e+00   4.6470118241954362e-03   1.0335638795209633e-01   1.4333902110842983e-02   8.0252755220403642e-03   0.0000000000000000e+00   -3.1392075479480794e-17   7.0076782925083403e-03   2.5664480132658811e-02   -3.2552234407161124e-17   2.2969964958472169e-04   9.0756700259585262e-03   0.0000000000000000e+00   5.1192194081046002e-17   0.0000000000000000e+00   0.0000000000000000e+00   2.1236596260069972e-02   0.0000000000000000e+00   6.4277098945213895e-03   2.9734795299305412e-17   4.1562094807896235e-03   0.0000000000000000e+00   1.8070942059633721e-02   4.4419286327471480e-17   -4.2792941859402644e-17   0.0000000000000000e+00   2.1928442370729704e-03   1.5565173814637479e-01   0.0000000000000000e+00   3.6177140381810002e-03   2.8027470936921189e-02   0.0000000000000000e+00   1.1104592399375668e-02   -4.7032393618074610e-17   3.0486544623283318e-02   3.6708200701396341e-17   0.0000000000000000e+00   1.5764796890120645e-02   2.8997479723275921e-17   1.6148144783432206e-01   3.8686350345792670e-17   9.3366871627255113e-02   0.0000000000000000e+00   -5.2814936831348111e-17   0.0000000000000000e+00   1.5354893416358652e-02   4.8478026112531899e-04   0.0000000000000000e+00   1.7787964445075747e-02   1.2384687948572240e-02   0.0000000000000000e+00   0.0000000000000000e+00   0.0000000000000000e+00   -4.0580257222710444e-17   1.5766333631851200e-03   4.5425955747386532e-02   3.4116572778446718e-17   1.6350439738357431e-01   1.2656739024365277e-02   3.3045181128609430e-03   5.1368234507406747e-02   6.6886213155093756e-04   1.0482241173281890e-02   1.3755120356529267e-02   0.0000000000000000e+00   2.5444055946060399e-05   0.0000000000000000e+00   3.9415458523519289e-03   1.1809677718846737e-04   2.0085730285128406e-01   1.7340397048743360e-02   2.9455588000132139e-17   0.0000000000000000e+00   1.4523189922019397e-02   6.4971825334537367e-03   3.4108495870279684e-03   2.1100192985666752e-03   3.7690994264340640e-17   2.2045882828045066e-01   -4.2618537451732277e-17   6.4069638638796812e-03   7.4446643849193698e-05   4.7263996125591623e-02   -3.8299697605338883e-17   3.3355592294250414e-17   0.0000000000000000e+00   1.2018272825790408e-02   5.0006420864379597e-03   1.9189517940241780e-02   4.2710810510973161e-17   7.6314518863061107e-02   4.1713138903823416e-02   0.0000000000000000e+00   4.0208627853516310e-02   -2.7689203433015953e-17   4.3555228295059914e-03   3.3388875134157878e-03   1.0485722772227185e-01   1.4319577847202994e-02   0.0000000000000000e+00   0.0000000000000000e+00   3.1988917520684680e-03   0.0000000000000000e+00   0.0000000000000000e+00   2.2683897845874199e-02   0.0000000000000000e+00   0.0000000000000000e+00   4.7289100775455283e-04   8.0381467380459190e-04   0.0000000000000000e+00   0.0000000000000000e+00   0.0000000000000000e+00   1.2705096725796965e-02   0.0000000000000000e+00   3.0013885128354668e-02   0.0000000000000000e+00   7.9093303592540257e-02   5.3228782031081592e-17   0.0000000000000000e+00   3.8093551724693287e-03   3.5364466647040946e-02   2.3946538967605911e-05   5.3213222336138087e-03   0.0000000000000000e+00   0.0000000000000000e+00   4.6865287809855286e-03   0.0000000000000000e+00   0.0000000000000000e+00   7.0026505289740243e-03   3.8626980536273919e-02   0.0000000000000000e+00   0.0000000000000000e+00   7.1682919673717628e-03   -3.2661245460259775e-17   2.2290871748988098e-02   0.0000000000000000e+00   0.0000000000000000e+00   3.0606284282712483e-02   3.0139545244943753e-02   3.4809594789949948e-03   1.9265829710482167e-03   -3.5189968309991880e-17   0.0000000000000000e+00   0.0000000000000000e+00   5.2591906809074255e-03   4.3619095755948085e-17   1.9281087453776925e-03   6.1512709693290844e-03   3.8532829734089177e-03   4.2232853516427880e-03   5.2406592178510202e-03   4.2072858171168931e-17   0.0000000000000000e+00   0.0000000000000000e+00   6.0965569237543061e-04   2.7667287307196267e-02   8.3216269607670160e-04   3.1037016422394256e-02   6.4905539963206116e-01   -3.4198215334043712e-17   0.0000000000000000e+00   4.9761762446097930e-02   8.0424214780526593e-01   6.9109516581622836e-03   5.6820052484865158e-02   7.2813583500342088e-02   6.0529935024203806e-02   3.0216071146370917e-17   -4.6412623555727959e-17   2.0638057844155565e-03   3.3312394140602905e-17   5.0108421329595058e-17   6.5662412737866063e-02   7.7633922583656567e-01   2.1207006970918440e-02   6.3442196141886599e-03   0.0000000000000000e+00   4.3283967569079734e-02   2.1559141706816547e-02   1.9135924240036291e-04   -4.4157809593174422e-17   1.0183627373250266e-02   7.9036446529806625e-02   4.1900018178405979e-17   1.1269440146957962e-02   -4.1023735121762004e-17   4.1125152751525881e-02   4.9407616533074733e-04   0.0000000000000000e+00   1.9215152757846576e-06   -3.2460394084873819e-17   7.1951871478496602e-05   4.8232293209718776e-03   0.0000000000000000e+00   0.0000000000000000e+00   3.6978219250826311e-02   0.0000000000000000e+00   3.3939513290217615e-17   5.9992743018876145e-03   0.0000000000000000e+00   5.6157410799745474e-04   1.6060952289178691e-02   4.4823828130437287e-03   8.5106195651809116e-02   5.4777672365960900e-02   0.0000000000000000e+00   2.5340194505850304e-03   8.4456973984006145e-02   4.8659536601345192e-03   1.1208354047916129e-06   1.2168168738332780e-02   5.0606266683474364e-17   -5.8884199339761475e-17   2.1632767610579146e-03   0.0000000000000000e+00   1.9333711390990002e-01   6.6553937882609260e-04   0.0000000000000000e+00   1.3554238411856996e-03   1.0305125009192147e-01   9.9365197713932119e-04   4.3651093424973184e-02   0.0000000000000000e+00   5.6601762126261099e-02   3.1603103261984857e-03   -3.0735930443700986e-17   4.5531012895540102e-17   3.7555680179553190e-03   0.0000000000000000e+00   4.2783863006105351e-03   0.0000000000000000e+00   0.0000000000000000e+00   0.0000000000000000e+00   5.3248032570818341e-17   0.0000000000000000e+00   1.8892967387941904e-02   4.9919899897067618e-02   5.0967009544171260e-17   5.8109795954630729e-03   2.4519472332840013e-02   -3.2771874630494965e-17   0.0000000000000000e+00   0.0000000000000000e+00   1.0147781213592191e-02   3.5358346743377416e-17   5.3446990901162581e-17   2.2401329323079661e-02   2.0150414902356011e-02   2.2750939671655019e-03   6.1281919061641245e-03   -3.0859423204308769e-17   1.9458792179126185e-03   0.0000000000000000e+00   2.7944234820124454e-17   2.8786978433817154e-02   0.0000000000000000e+00   2.0822555235354596e-02   1.5280181854234331e-02   -2.8057109684458870e-17   5.4435013461251187e-04   0.0000000000000000e+00   6.9095690240662279e-04   -3.0247911386762460e-17   -4.2275582752332340e-17   -3.8251219727079255e-17   7.5728591438041582e-03   2.4994585363550478e-02   4.2649690396026028e-03   0.0000000000000000e+00   1.1175342491617064e-02   4.8681171169081251e-02   1.0606950273478449e-02   0.0000000000000000e+00   0.0000000000000000e+00   3.0276648445901968e-17   0.0000000000000000e+00   0.0000000000000000e+00   8.8932830716585524e-03   -3.9941930545924372e-17   3.2497654548883019e-03   5.2522241238268995e-17   5.0026168199648646e-17   0.0000000000000000e+00   6.2291378854234094e-05   1.1576679897535541e-03   8.3091113503392829e-03   1.3545326197457990e-03   1.3148889097447686e-03   2.0767288005020125e-02   0.0000000000000000e+00   2.5488491812346047e-02   0.0000000000000000e+00   0.0000000000000000e+00   0.0000000000000000e+00   0.0000000000000000e+00   1.0642944752073599e-02   0.0000000000000000e+00   0.0000000000000000e+00   3.4591034423162460e-03   7.3305879577974242e-03   2.9705680968549896e-03   1.2361397707829277e-03   -3.1944691840596353e-17   0.0000000000000000e+00   0.0000000000000000e+00   0.0000000000000000e+00   1.2943325911574301e-02   5.7820778988204348e-03   4.5459621728586512e-04   0.0000000000000000e+00   6.7363186920061671e-02   0.0000000000000000e+00   0.0000000000000000e+00   4.9445937354075133e-02   0.0000000000000000e+00   0.0000000000000000e+00   1.2195224850512262e-03   1.5193714606764120e-03   0.0000000000000000e+00   1.2415589317284009e-01   4.8267128769901019e-01   1.3522411407665458e-02   2.8849870120338113e-17   4.3019133586220393e-17   5.7701008257758256e-04   -4.2339203002201613e-17   0.0000000000000000e+00   -3.2044413277128158e-17   4.7651847594753917e-02   1.7668513562234429e-03   0.0000000000000000e+00   0.0000000000000000e+00   1.1806103158749019e-03   -3.2493266051981093e-17   0.0000000000000000e+00   5.5748173210795312e-03   0.0000000000000000e+00   -3.0852729181224928e-17   -3.0317206733276932e-17   0.0000000000000000e+00   0.0000000000000000e+00   0.0000000000000000e+00   0.0000000000000000e+00   0.0000000000000000e+00   0.0000000000000000e+00   1.9450755033530226e-03   3.9798838754352105e-03   0.0000000000000000e+00   0.0000000000000000e+00   0.0000000000000000e+00   0.0000000000000000e+00   3.3284593587185014e-17   5.0822468865029904e-02   2.5445564447494864e-02   0.0000000000000000e+00   3.1123175989941983e-03   1.3395249942198758e-03   2.0616983414053769e-02   2.2560012371757934e-03   0.0000000000000000e+00   -3.9805268628451592e-17   1.1802876802639126e-02   -3.3938538415114199e-17   7.3094331365843215e-02   1.1628256027924867e-02   0.0000000000000000e+00   1.7156660163778342e-01   2.9235852612874115e-04   3.2243381498390293e-17   2.4883451628861236e-04   1.1031499933164300e-01   1.7089082604247324e-02   -5.4733866031101340e-17   0.0000000000000000e+00   0.0000000000000000e+00   0.0000000000000000e+00   0.0000000000000000e+00   5.0451863078803352e-02   6.0110060776382085e-03   0.0000000000000000e+00   8.9532823246749205e-03   6.7876823923252059e-03   0.0000000000000000e+00   0.0000000000000000e+00   7.1964259062424606e-06   0.0000000000000000e+00   1.1581767830268477e-03   5.5245252247849785e-01   4.1328408479166542e-04   1.0581388505248451e-02   9.2097471449123138e-03   0.0000000000000000e+00   2.1285650467537326e-03   -3.1783428640126955e-17   -5.0890848364184489e-17   3.1962851208311616e-03   4.9040366106504699e-03   4.9042115802104741e-02   5.4883554961100908e-03   -4.1502641347894891e-17   2.2610242462695329e-02   0.0000000000000000e+00   0.0000000000000000e+00   7.3060020789124502e-03   0.0000000000000000e+00   4.4396401838315612e-17   8.1388838639772504e-03   9.7362198030471873e-04   -3.3110602271072620e-17   9.5004587293006926e-03   0.0000000000000000e+00   2.0456435104011263e-02   1.2544820275206300e-04   1.8287192937358032e-02   3.6009660950083557e-05   3.4478863933187465e-01   4.7349361688001267e-17   2.5761464667139440e-03   1.5544978682796251e-06   5.0425960972942689e-03   0.0000000000000000e+00   0.0000000000000000e+00   7.1319972631904954e-02   5.1158562733460088e-04   4.3164384683449082e-02   -3.3849650798820267e-17   -2.9995739309453896e-17   8.6983731061978532e-03   2.0671130307223042e-03   4.0188690981552706e-17   0.0000000000000000e+00   0.0000000000000000e+00   2.7488357184162007e-02   4.1146857564677448e-05   0.0000000000000000e+00   -2.9216317937106688e-17   3.4120718469024529e-02   0.0000000000000000e+00   4.1843687678358395e-02   1.7225655761522064e-02   0.0000000000000000e+00   -3.9257410119941081e-17   0.0000000000000000e+00   5.4741047888108638e-17   -3.5104242184160401e-17   1.2900323667234278e-02   0.0000000000000000e+00   0.0000000000000000e+00   0.0000000000000000e+00   0.0000000000000000e+00   1.0171782834389118e+00   2.3243817076991982e-02   2.3473945189962230e-02   0.0000000000000000e+00   0.0000000000000000e+00   -4.4610736784716757e-17   -3.1634306529124851e-17   2.6892663096379269e-03   5.2777776435262895e-03   0.0000000000000000e+00   1.8147692114731972e-03   1.3941297229355051e-01   0.0000000000000000e+00   2.9901866734216147e-17   2.6628738994595291e-02   1.5430682067232606e-03   0.0000000000000000e+00   0.0000000000000000e+00   4.3920957977802407e-17   8.0955268857307357e-03   5.6000175210519738e-03   3.0401112297062255e-17   1.6935234629773734e-02   6.9939842007366460e-04   2.4222604670883574e-03   1.1598912540953004e-02   1.9835925072349091e-05   3.3335581119966956e-02   6.0754322750747438e-03   0.0000000000000000e+00   4.0399929128553494e-17   5.0779405005685632e-02   1.1034700115555688e-03   5.9439953337904165e-06   2.7720144691806286e-17   6.2877705345326940e-02   3.3735783711073188e-03   8.1533933133668718e-02   -2.9871356737547521e-17   0.0000000000000000e+00   1.8578263535064601e-02   1.9948704323296301e-02   0.0000000000000000e+00   0.0000000000000000e+00   0.0000000000000000e+00   4.3625661462887372e-03   8.9084932973608200e-03   3.8563352811775624e-03   0.0000000000000000e+00   2.3974439377545528e-03   0.0000000000000000e+00   3.1067111721314270e-03   -2.9872641726834873e-17   4.1116400056260381e-17   0.0000000000000000e+00   0.0000000000000000e+00   8.3732559649599342e-04   0.0000000000000000e+00   1.3305921837148198e-03   0.0000000000000000e+00   -3.1430850140779397e-17   3.8710949022912174e-02   0.0000000000000000e+00   0.0000000000000000e+00   0.0000000000000000e+00   5.2447738329692781e-03   3.7409896148049841e-02   3.9078654260670906e-02   0.0000000000000000e+00   1.0227442191582754e-03   0.0000000000000000e+00   6.5442808096101854e-02   -2.7837107052461789e-17   0.0000000000000000e+00   9.8988590532260945e-02   3.8352683438733067e-03   3.4378648334371167e-02   5.1202149343022021e-03   5.6631527129007143e-06   0.0000000000000000e+00   0.0000000000000000e+00   0.0000000000000000e+00   3.3415476783082355e-02   2.7914924236131429e-17   7.0199472633482898e-05   0.0000000000000000e+00   0.0000000000000000e+00   1.0740064787342922e-02   0.0000000000000000e+00   0.0000000000000000e+00   0.0000000000000000e+00   2.6836643674008893e-03   1.9800982961322069e-02   0.0000000000000000e+00   3.5874832410077262e-03   0.0000000000000000e+00   2.4398577004416677e-02   5.8091268759601848e-02   0.0000000000000000e+00   0.0000000000000000e+00   0.0000000000000000e+00   -3.3233887705548570e-17   2.2305807370550318e-03   4.1934065180986952e-17   3.5420457964779065e-02   0.0000000000000000e+00   5.3334059643788449e-02   0.0000000000000000e+00   1.4253619721729973e-03   7.6015712936465174e-03   2.0178807027975742e-03   -2.9874205953165730e-17   0.0000000000000000e+00   8.1546630399958620e-03   -2.9709945549582109e-17   0.0000000000000000e+00   4.4991601997838859e-04   3.4874463996437747e-17   2.4507583018731093e-03   2.9427162346959219e-17   2.3939512499363698e-03   0.0000000000000000e+00   -4.6090339119500643e-17   5.1545374951151919e-02   5.0115011547415655e-02   6.8096230274243144e-03   0.0000000000000000e+00   3.7708150593475577e-02   5.6058622398419654e-03   1.0776750686901195e-03   0.0000000000000000e+00   8.8568646753231202e-04   4.9670398631239876e-03   2.0484130416431587e-02   1.0001956591282935e-02   8.7699368175445055e-06   1.9362114619733863e-06   2.9398808778284850e-04   1.0568043507718733e-02   3.9920337336784541e-17   3.7915162848331583e-03   2.5014256627108197e-02   0.0000000000000000e+00   5.1506523416601441e-03   -5.2879078831424080e-17   3.6157705243139576e-02   1.2928432444758471e-02   -4.1258034307980399e-17   0.0000000000000000e+00   3.5604966409927480e-17   8.1990859430362759e-02   4.9276969278514722e-02   1.2927907816017753e-03   6.4946001448555904e-02   0.0000000000000000e+00   0.0000000000000000e+00   5.2469909954559488e-17   0.0000000000000000e+00   -3.3389043872249126e-17   1.3780116924075977e-02   0.0000000000000000e+00   1.7750591316265184e-02   1.3037379306629110e-01   3.0590039812989679e-04   2.3793183986688313e-02   2.7862588618498952e-17   6.1194620325452642e-04   1.6794372484831437e-02   3.0766364312743964e-02   0.0000000000000000e+00   -4.1041973937927282e-17   0.0000000000000000e+00   3.7913690813661596e-02   0.0000000000000000e+00   1.1129365902496486e-02   4.5609434797549159e-03   5.5472746726419541e-04   4.1144407737282498e-17   0.0000000000000000e+00   2.2349388116668135e-02   1.7483368400843715e-02   2.8172459835869043e-17   1.2544149566870695e-02   3.4436620181242509e-17   1.9337995188308428e-02   2.2917268715317803e-02   1.8801887189014328e-04   -5.4086493979016506e-17   0.0000000000000000e+00   6.7827010381273645e-02   0.0000000000000000e+00   -3.4771637308618742e-17   5.5506747126488933e-03   0.0000000000000000e+00   0.0000000000000000e+00   -3.5877465977078517e-17   7.7341857234787217e-02   0.0000000000000000e+00   -4.4922415500011764e-17   0.0000000000000000e+00   1.0267070162060497e-02   7.1404073787069644e-02   2.9981936305706139e-17   4.2657185918491110e-02   2.2811913973465856e-02   0.0000000000000000e+00   7.8384646421705215e-03   5.1287786046803324e-17   5.6584158083416913e-03   3.3747321231390446e-17   0.0000000000000000e+00   0.0000000000000000e+00   7.4595457342952363e-03   0.0000000000000000e+00   6.6915623555343171e-03   0.0000000000000000e+00   0.0000000000000000e+00   0.0000000000000000e+00   5.0508279785342329e-02   5.4303691192073978e-17   5.0060943555183847e-02   3.5965040435687455e-02   3.3670059042982627e-02   3.8029387332980839e-17   7.4412389871710187e-03   2.0500093382987031e-02   3.4426980657048190e-17   0.0000000000000000e+00   4.0529775195586549e-03   5.2270733169128775e-03   4.2558250181217549e-17   0.0000000000000000e+00   0.0000000000000000e+00   0.0000000000000000e+00   0.0000000000000000e+00   2.2326409828848865e-03   0.0000000000000000e+00   1.1981595008824238e-02   5.3823209002438983e-02   2.2844530711922936e-02   1.0296973129149421e-02   5.4629572491098882e-03   -3.0732487855630241e-17   0.0000000000000000e+00   0.0000000000000000e+00   3.6440399333037163e-17   -2.8288433890684706e-17   2.1631395415580755e-02   5.8045922101173679e-03   8.0058633802372568e-03   5.3248277458234402e-03   2.0087972035889934e-03   -4.5651611832143134e-17   -4.8297368338680402e-17   3.3228861377971289e-03   0.0000000000000000e+00   3.4274100316970112e-02   0.0000000000000000e+00   0.0000000000000000e+00   0.0000000000000000e+00   1.2627646933717430e-03   0.0000000000000000e+00   0.0000000000000000e+00   8.5742866362659102e-03   6.1091185059468757e-04   -3.7310677813690074e-17   2.7679018181932556e-17   4.4745270284510236e-17   0.0000000000000000e+00   0.0000000000000000e+00   4.8859841975510125e-02   0.0000000000000000e+00   0.0000000000000000e+00   0.0000000000000000e+00   1.3216641031091557e-03   8.1920900563811566e-17   1.9748288207265671e-01   3.2891306008144576e-03   0.0000000000000000e+00   7.1312299229554267e-04   0.0000000000000000e+00   2.0595295676078065e-04   0.0000000000000000e+00   2