<?xml version="1.0"?>
<VTKFile type="UnstructuredGrid"  version="0.1"  >
<UnstructuredGrid>
<Piece  NumberOfPoints="1250" NumberOfCells="2352">
<Points>
<DataArray  type="Float64"  NumberOfComponents="3"  format="ascii">0 0 0  0.0336 0 0  0.0336 0.07729999999999999 0  0 0.07729999999999999 0  0.001400000000000002 0 0  0.002800000000000005 0 0  0.004200000000000008 0 0  0.005600000000000009 0 0  0.007000000000000011 0 0  0.008400000000000013 0 0  0.009800000000000019 0 0  0.01120000000000002 0 0  0.01260000000000003 0 0  0.01400000000000003 0 0  0.01540000000000004 0 0  0.01680000000000005 0 0  0.01820000000000004 0 0  0.01960000000000004 0 0  0.02100000000000004 0 0  0.02240000000000003 0 0  0.02380000000000003 0 0  0.02520000000000002 0 0  0.02660000000000002 0 0  0.02800000000000001 0 0  0.02940000000000001 0 0  0.03080000000000001 0 0  0.0322 0 0  0.0336 0.001577551020408161 0  0.0336 0.003155102040816321 0  0.0336 0.004732653061224482 0  0.0336 0.006310204081632642 0  0.0336 0.007887755102040803 0  0.0336 0.009465306122448964 0  0.0336 0.01104285714285712 0  0.0336 0.01262040816326528 0  0.0336 0.01419795918367344 0  0.0336 0.0157755102040816 0  0.0336 0.01735306122448976 0  0.0336 0.01893061224489792 0  0.0336 0.02050816326530608 0  0.0336 0.02208571428571425 0  0.0336 0.02366326530612241 0  0.0336 0.02524081632653058 0  0.0336 0.02681836734693874 0  0.0336 0.02839591836734691 0  0.0336 0.02997346938775507 0  0.0336 0.03155102040816323 0  0.0336 0.0331285714285714 0  0.0336 0.03470612244897956 0  0.0336 0.03628367346938772 0  0.0336 0.03786122448979588 0  0.0336 0.03943877551020405 0  0.0336 0.04101632653061221 0  0.0336 0.04259387755102037 0  0.0336 0.04417142857142854 0  0.0336 0.04574897959183671 0  0.0336 0.04732653061224486 0  0.0336 0.04890408163265302 0  0.0336 0.05048163265306119 0  0.0336 0.05205918367346936 0  0.0336 0.05363673469387752 0  0.0336 0.05521428571428568 0  0.0336 0.05679183673469385 0  0.0336 0.05836938775510202 0  0.0336 0.05994693877551018 0  0.0336 0.06152448979591834 0  0.0336 0.0631020408163265 0  0.0336 0.06467959183673468 0  0.0336 0.06625714285714283 0  0.0336 0.06783469387755101 0  0.0336 0.06941224489795916 0  0.0336 0.07098979591836733 0  0.0336 0.07256734693877549 0  0.0336 0.07414489795918365 0  0.0336 0.07572244897959182 0  0.03219999999999999 0.07729999999999999 0  0.03079999999999999 0.07729999999999999 0  0.02939999999999999 0.07729999999999999 0  0.02799999999999999 0.07729999999999999 0  0.02659999999999999 0.07729999999999999 0  0.02519999999999999 0.07729999999999999 0  0.02379999999999998 0.07729999999999999 0  0.02239999999999998 0.07729999999999999 0  0.02099999999999997 0.07729999999999999 0  0.01959999999999996 0.07729999999999999 0  0.01819999999999996 0.07729999999999999 0  0.01679999999999995 0.07729999999999999 0  0.01539999999999996 0.07729999999999999 0  0.01399999999999996 0.07729999999999999 0  0.01259999999999996 0.07729999999999999 0  0.01119999999999997 0.07729999999999999 0  0.009799999999999972 0.07729999999999999 0  0.008399999999999977 0.07729999999999999 0  0.006999999999999978 0.07729999999999999 0  0.005599999999999983 0.07729999999999999 0  0.004199999999999988 0.07729999999999999 0  0.00279999999999999 0.07729999999999999 0  0.001399999999999998 0.07729999999999999 0  0 0.07572244897959184 0  0 0.07414489795918368 0  0 0.07256734693877551 0  0 0.07098979591836735 0  0 0.06941224489795919 0  0 0.06783469387755103 0  0 0.06625714285714288 0  0 0.06467959183673472 0  0 0.06310204081632656 0  0 0.0615244897959184 0  0 0.05994693877551023 0  0 0.05836938775510207 0  0 0.05679183673469392 0  0 0.05521428571428574 0  0 0.05363673469387759 0  0 0.05205918367346941 0  0 0.05048163265306126 0  0 0.04890408163265308 0  0 0.04732653061224493 0  0 0.04574897959183676 0  0 0.0441714285714286 0  0 0.04259387755102043 0  0 0.04101632653061228 0  0 0.03943877551020411 0  0 0.03786122448979595 0  0 0.03628367346938779 0  0 0.03470612244897962 0  0 0.03312857142857146 0  0 0.03155102040816329 0  0 0.02997346938775513 0  0 0.02839591836734697 0  0 0.0268183673469388 0  0 0.02524081632653064 0  0 0.02366326530612247 0  0 0.02208571428571431 0  0 0.02050816326530614 0  0 0.01893061224489798 0  0 0.01735306122448981 0  0 0.01577551020408165 0  0 0.01419795918367349 0  0 0.01262040816326532 0  0 0.01104285714285716 0  0 0.009465306122448988 0  0 0.00788775510204083 0  0 0.006310204081632659 0  0 0.004732653061224501 0  0 0.003155102040816343 0  0 0.001577551020408172 0  0.001400000000000004 0.001577551020408172 0  0.001400000000000004 0.003155102040816329 0  0.001400000000000002 0.004732653061224501 0  0.001400000000000002 0.006310204081632645 0  0.001400000000000005 0.007887755102040823 0  0.001400000000000002 0.009465306122448981 0  0.001400000000000002 0.01104285714285717 0  0.001400000000000004 0.01262040816326531 0  0.0014 0.01419795918367349 0  0.001400000000000002 0.01577551020408166 0  0.001400000000000005 0.0173530612244898 0  0.001400000000000002 0.01893061224489797 0  0.001400000000000002 0.02050816326530613 0  0.001400000000000002 0.02208571428571431 0  0.001400000000000002 0.02366326530612247 0  0.001400000000000002 0.02524081632653063 0  0.001400000000000002 0.0268183673469388 0  0.001400000000000002 0.02839591836734696 0  0.001400000000000002 0.02997346938775513 0  0.001400000000000002 0.03155102040816328 0  0.001400000000000002 0.03312857142857147 0  0.001399999999999997 0.03470612244897962 0  0.001400000000000005 0.03628367346938778 0  0.001400000000000002 0.03786122448979594 0  0.001400000000000002 0.03943877551020411 0  0.001400000000000002 0.04101632653061228 0  0.001400000000000002 0.04259387755102043 0  0.001400000000000002 0.0441714285714286 0  0.0014 0.04574897959183676 0  0.001400000000000002 0.04732653061224492 0  0.001400000000000004 0.04890408163265308 0  0.001400000000000002 0.05048163265306126 0  0.001400000000000002 0.05205918367346941 0  0.0014 0.05363673469387758 0  0.001400000000000004 0.05521428571428574 0  0.001399999999999998 0.05679183673469391 0  0.001400000000000002 0.05836938775510207 0  0.0014 0.05994693877551023 0  0.001400000000000002 0.0615244897959184 0  0.001400000000000002 0.06310204081632656 0  0.001400000000000002 0.06467959183673472 0  0.0014 0.06625714285714286 0  0.001400000000000002 0.06783469387755102 0  0.001399999999999998 0.06941224489795919 0  0.001400000000000002 0.07098979591836735 0  0.0014 0.07256734693877552 0  0.001400000000000002 0.07414489795918368 0  0.001400000000000002 0.07572244897959184 0  0.002800000000000006 0.001577551020408165 0  0.002800000000000004 0.003155102040816343 0  0.002800000000000002 0.004732653061224487 0  0.002800000000000002 0.006310204081632652 0  0.002800000000000002 0.007887755102040813 0  0.0028 0.009465306122448981 0  0.002799999999999997 0.01104285714285715 0  0.0028 0.01262040816326532 0  0.0028 0.01419795918367348 0  0.0028 0.01577551020408165 0  0.002799999999999997 0.0173530612244898 0  0.0028 0.01893061224489797 0  0.002800000000000004 0.02050816326530613 0  0.0028 0.0220857142857143 0  0.0028 0.02366326530612247 0  0.002800000000000004 0.02524081632653064 0  0.0028 0.0268183673469388 0  0.0028 0.02839591836734696 0  0.002799999999999995 0.02997346938775512 0  0.002799999999999997 0.03155102040816328 0  0.002799999999999995 0.03312857142857146 0  0.0028 0.03470612244897962 0  0.002799999999999995 0.03628367346938778 0  0.002799999999999997 0.03786122448979594 0  0.002799999999999997 0.03943877551020411 0  0.002799999999999997 0.04101632653061228 0  0.002799999999999997 0.04259387755102043 0  0.002799999999999995 0.0441714285714286 0  0.002799999999999997 0.04574897959183676 0  0.002799999999999997 0.04732653061224493 0  0.002799999999999995 0.04890408163265308 0  0.002799999999999993 0.05048163265306124 0  0.002799999999999995 0.05205918367346941 0  0.002799999999999995 0.05363673469387757 0  0.002799999999999992 0.05521428571428574 0  0.002799999999999997 0.05679183673469391 0  0.002799999999999993 0.05836938775510207 0  0.002799999999999993 0.05994693877551022 0  0.002799999999999992 0.0615244897959184 0  0.002799999999999988 0.06310204081632655 0  0.002799999999999992 0.0646795918367347 0  0.002799999999999992 0.06625714285714286 0  0.00279999999999999 0.06783469387755103 0  0.00279999999999999 0.06941224489795919 0  0.002799999999999988 0.07098979591836735 0  0.00279999999999999 0.07256734693877552 0  0.002799999999999988 0.07414489795918368 0  0.00279999999999999 0.07572244897959184 0  0.004200000000000006 0.001577551020408172 0  0.004200000000000006 0.003155102040816329 0  0.004200000000000008 0.00473265306122448 0  0.004200000000000009 0.006310204081632652 0  0.004200000000000008 0.00788775510204082 0  0.004200000000000008 0.009465306122448978 0  0.004200000000000006 0.01104285714285716 0  0.004200000000000006 0.01262040816326532 0  0.004200000000000004 0.01419795918367349 0  0.004200000000000002 0.01577551020408165 0  0.004200000000000004 0.0173530612244898 0  0.004200000000000006 0.01893061224489797 0  0.004200000000000006 0.02050816326530613 0  0.004200000000000002 0.0220857142857143 0  0.004200000000000004 0.02366326530612247 0  0.004199999999999999 0.02524081632653062 0  0.004200000000000004 0.0268183673469388 0  0.004200000000000004 0.02839591836734696 0  0.004200000000000002 0.02997346938775512 0  0.004199999999999999 0.03155102040816328 0  0.004200000000000001 0.03312857142857145 0  0.004200000000000001 0.03470612244897962 0  0.004199999999999995 0.03628367346938778 0  0.004199999999999999 0.03786122448979594 0  0.004199999999999999 0.0394387755102041 0  0.004199999999999997 0.04101632653061227 0  0.004199999999999999 0.04259387755102043 0  0.004199999999999999 0.04417142857142859 0  0.004199999999999999 0.04574897959183676 0  0.004199999999999999 0.04732653061224492 0  0.004199999999999997 0.04890408163265308 0  0.004199999999999997 0.05048163265306124 0  0.004199999999999999 0.05205918367346941 0  0.004199999999999992 0.05363673469387757 0  0.0
[...]
<CellData  Scalars="Plastic strain"> 
<DataArray  type="Float64"  Name="Plastic strain"  format="ascii">5.5164222899215049e-02   3.2322806135612808e-14   0.0000000000000000e+00   3.2322806135613067e-14   0.0000000000000000e+00   3.2322806135612858e-14   0.0000000000000000e+00   0.0000000000000000e+00   3.2322806135612858e-14   3.2322806135612669e-14   0.0000000000000000e+00   -3.2322806135613092e-14   3.2322806135612858e-14   0.0000000000000000e+00   3.2322806135613067e-14   3.2322806135613433e-14   0.0000000000000000e+00   0.0000000000000000e+00   3.2322806135613060e-14   3.2322806135612858e-14   0.0000000000000000e+00   0.0000000000000000e+00   3.2322806135612858e-14   0.0000000000000000e+00   0.0000000000000000e+00   0.0000000000000000e+00   0.0000000000000000e+00   0.0000000000000000e+00   0.0000000000000000e+00   0.0000000000000000e+00   0.0000000000000000e+00   0.0000000000000000e+00   0.0000000000000000e+00   0.0000000000000000e+00   3.2322806135612858e-14   0.0000000000000000e+00   0.0000000000000000e+00   0.0000000000000000e+00   0.0000000000000000e+00   3.2322806135613218e-14   3.2322806135612858e-14   0.0000000000000000e+00   0.0000000000000000e+00   0.0000000000000000e+00   3.2322806135613060e-14   0.0000000000000000e+00   0.0000000000000000e+00   -3.2322806135613092e-14   0.0000000000000000e+00   3.2322806135612858e-14   3.2322806135612858e-14   3.2322806135612858e-14   3.2322806135613218e-14   3.2322806135613218e-14   0.0000000000000000e+00   0.0000000000000000e+00   0.0000000000000000e+00   0.0000000000000000e+00   0.0000000000000000e+00   -3.2322806135613092e-14   3.2322806135613218e-14   0.0000000000000000e+00   0.0000000000000000e+00   0.0000000000000000e+00   0.0000000000000000e+00   0.0000000000000000e+00   0.0000000000000000e+00   0.0000000000000000e+00   -3.2322806135613458e-14   0.0000000000000000e+00   0.0000000000000000e+00   0.0000000000000000e+00   0.0000000000000000e+00   0.0000000000000000e+00   0.0000000000000000e+00   3.2322806135613155e-14   0.0000000000000000e+00   3.2322806135612858e-14   0.0000000000000000e+00   0.0000000000000000e+00   0.0000000000000000e+00   0.0000000000000000e+00   0.0000000000000000e+00   -3.2322806135613458e-14   3.2322806135613155e-14   -3.2322806135613092e-14   0.0000000000000000e+00   0.0000000000000000e+00   0.0000000000000000e+00   0.0000000000000000e+00   0.0000000000000000e+00   0.0000000000000000e+00   0.0000000000000000e+00   0.0000000000000000e+00   0.0000000000000000e+00   0.0000000000000000e+00   0.0000000000000000e+00   0.0000000000000000e+00   -3.2322806135612814e-14   -3.2322806135612978e-14   -3.2322806135613123e-14   0.0000000000000000e+00   0.0000000000000000e+00   -3.2322806135613433e-14   -3.2322806135613452e-14   3.2322806135613004e-14   -3.2322806135612770e-14   3.2322806135613149e-14   -3.2322806135613193e-14   0.0000000000000000e+00   0.0000000000000000e+00   0.0000000000000000e+00   3.2322806135613628e-14   0.0000000000000000e+00   0.0000000000000000e+00   3.2322806135613073e-14   0.0000000000000000e+00   -3.2322806135612966e-14   0.0000000000000000e+00   0.0000000000000000e+00   -3.2322806135613123e-14   0.0000000000000000e+00   3.2322806135613130e-14   0.0000000000000000e+00   0.0000000000000000e+00   0.0000000000000000e+00   3.2322806135613130e-14   0.0000000000000000e+00   3.2322806135613130e-14   0.0000000000000000e+00   0.0000000000000000e+00   3.2322806135613130e-14   3.2322806135613130e-14   3.2322806135613130e-14   0.0000000000000000e+00   0.0000000000000000e+00   0.0000000000000000e+00   0.0000000000000000e+00   0.0000000000000000e+00   0.0000000000000000e+00   0.0000000000000000e+00   -3.2322806135612966e-14   3.2322806135613060e-14   0.0000000000000000e+00   0.0000000000000000e+00   -3.2322806135613243e-14   0.0000000000000000e+00   0.0000000000000000e+00   0.0000000000000000e+00   0.0000000000000000e+00   3.2322806135613426e-14   3.2322806135613426e-14   -3.2322806135613123e-14   3.2322806135613149e-14   3.2322806135613149e-14   3.2322806135613060e-14   0.0000000000000000e+00   -3.2322806135613123e-14   -3.2322806135613243e-14   0.0000000000000000e+00   0.0000000000000000e+00   -3.2322806135613193e-14   0.0000000000000000e+00   3.2322806135613149e-14   0.0000000000000000e+00   -3.2322806135613123e-14   -3.2322806135613243e-14   0.0000000000000000e+00   3.2322806135613149e-14   0.0000000000000000e+00   0.0000000000000000e+00   -3.2322806135613193e-14   0.0000000000000000e+00   0.0000000000000000e+00   0.0000000000000000e+00   0.0000000000000000e+00   0.0000000000000000e+00   -3.2322806135613792e-14   0.0000000000000000e+00   0.0000000000000000e+00   0.0000000000000000e+00   3.2322806135613319e-14   3.2322806135613319e-14   3.2322806135613149e-14   3.2322806135613149e-14   0.0000000000000000e+00   0.0000000000000000e+00   0.0000000000000000e+00   -3.2322806135613193e-14   -3.2322806135613079e-14   0.0000000000000000e+00   0.0000000000000000e+00   0.0000000000000000e+00   -3.2322806135613433e-14   -3.2322806135613452e-14   0.0000000000000000e+00   3.2322806135612953e-14   0.0000000000000000e+00   0.0000000000000000e+00   -3.2322806135613123e-14   0.0000000000000000e+00   3.2322806135613149e-14   0.0000000000000000e+00   0.0000000000000000e+00   3.2322806135612940e-14   -3.2322806135612827e-14   -3.2322806135612827e-14   -3.2322806135612978e-14   0.0000000000000000e+00   -3.2322806135612486e-14   0.0000000000000000e+00   0.0000000000000000e+00   -3.2322806135612966e-14   0.0000000000000000e+00   0.0000000000000000e+00   0.0000000000000000e+00   0.0000000000000000e+00   3.2322806135613130e-14   0.0000000000000000e+00   0.0000000000000000e+00   -3.2322806135612966e-14   0.0000000000000000e+00   0.0000000000000000e+00   0.0000000000000000e+00   3.2322806135612858e-14   0.0000000000000000e+00   0.0000000000000000e+00   3.2322806135613426e-14   0.0000000000000000e+00   0.0000000000000000e+00   0.0000000000000000e+00   0.0000000000000000e+00   0.0000000000000000e+00   0.0000000000000000e+00   3.2322806135612940e-14   0.0000000000000000e+00   0.0000000000000000e+00   0.0000000000000000e+00   0.0000000000000000e+00   3.2322806135612884e-14   0.0000000000000000e+00   0.0000000000000000e+00   0.0000000000000000e+00   0.0000000000000000e+00   3.2322806135612858e-14   -3.2322806135613092e-14   3.2322806135612858e-14   0.0000000000000000e+00   0.0000000000000000e+00   0.0000000000000000e+00   0.0000000000000000e+00   0.0000000000000000e+00   0.0000000000000000e+00   3.2322806135612858e-14   0.0000000000000000e+00   -3.2322806135613092e-14   3.2322806135613218e-14   0.0000000000000000e+00   0.0000000000000000e+00   0.0000000000000000e+00   0.0000000000000000e+00   0.0000000000000000e+00   0.0000000000000000e+00   3.2322806135613073e-14   3.2322806135613073e-14   0.0000000000000000e+00   0.0000000000000000e+00   3.2322806135613004e-14   3.2322806135613004e-14   0.0000000000000000e+00   0.0000000000000000e+00   0.0000000000000000e+00   3.2322806135612669e-14   0.0000000000000000e+00   3.2322806135613420e-14   -3.2322806135613079e-14   -3.2322806135613079e-14   0.0000000000000000e+00   0.0000000000000000e+00   0.0000000000000000e+00   0.0000000000000000e+00   3.2322806135612858e-14   0.0000000000000000e+00   0.0000000000000000e+00   0.0000000000000000e+00   -3.2322806135613079e-14   3.2322806135612858e-14   0.0000000000000000e+00   0.0000000000000000e+00   0.0000000000000000e+00   0.0000000000000000e+00   0.0000000000000000e+00   0.0000000000000000e+00   0.0000000000000000e+00   -3.2322806135612890e-14   -3.2322806135612827e-14   0.0000000000000000e+00   0.0000000000000000e+00   0.0000000000000000e+00   3.2322806135613060e-14   0.0000000000000000e+00   0.0000000000000000e+00   0.0000000000000000e+00   0.0000000000000000e+00   0.0000000000000000e+00   0.0000000000000000e+00   0.0000000000000000e+00   3.2322806135612701e-14   0.0000000000000000e+00   0.0000000000000000e+00   -3.2322806135612890e-14   0.0000000000000000e+00   0.0000000000000000e+00   0.0000000000000000e+00   0.0000000000000000e+00   0.0000000000000000e+00   -3.2322806135612890e-14   0.0000000000000000e+00   0.0000000000000000e+00   0.0000000000000000e+00   -3.2322806135612953e-14   0.0000000000000000e+00   3.2322806135612858e-14   0.0000000000000000e+00   0.0000000000000000e+00   0.0000000000000000e+00   0.0000000000000000e+00   0.0000000000000000e+00   3.2322806135613155e-14   -3.2322806135612966e-14   -3.2322806135613205e-14   0.0000000000000000e+00   0.0000000000000000e+00   3.2322806135613067e-14   0.0000000000000000e+00   0.0000000000000000e+00   0.0000000000000000e+00   0.0000000000000000e+00   0.0000000000000000e+00   0.0000000000000000e+00   0.0000000000000000e+00   0.0000000000000000e+00   0.0000000000000000e+00   0.0000000000000000e+00   0.0000000000000000e+00   3.2322806135612858e-14   0.0000000000000000e+00   0.0000000000000000e+00   -3.2322806135613205e-14   0.0000000000000000e+00   0.0000000000000000e+00   -3.2322806135612966e-14   -3.2322806135613205e-14   0.0000000000000000e+00   3.2322806135613288e-14   -3.2322806135613243e-14   -3.2322806135613123e-14   3.2322806135613073e-14   3.2322806135613073e-14   3.2322806135613149e-14   3.2322806135613149e-14   0.0000000000000000e+00   0.0000000000000000e+00   -3.2322806135613243e-14   -3.2322806135613123e-14   -3.2322806135613205e-14   -3.2322806135612966e-14   0.0000000000000000e+00   -3.2322806135613452e-14   0.0000000000000000e+00   0.0000000000000000e+00   0.0000000000000000e+00   0.0000000000000000e+00   0.0000000000000000e+00   0.0000000000000000e+00   0.0000000000000000e+00   0.0000000000000000e+00   0.0000000000000000e+00   3.2322806135612858e-14   0.0000000000000000e+00   -3.2322806135613243e-14   -3.2322806135613205e-14   -3.2322806135613205e-14   0.0000000000000000e+00   0.0000000000000000e+00   -6.4645612271225477e-14   0.0000000000000000e+00   0.0000000000000000e+00   3.2322806135613073e-14   0.0000000000000000e+00   0.0000000000000000e+00   -3.2322806135613243e-14   -3.2322806135612827e-14   3.2322806135612802e-14   -3.2322806135612814e-14   0.0000000000000000e+00   0.0000000000000000e+00   3.2322806135613060e-14   0.0000000000000000e+00   0.0000000000000000e+00   3.2322806135612669e-14   0.0000000000000000e+00   3.2322806135613149e-14   0.0000000000000000e+00   0.0000000000000000e+00   0.0000000000000000e+00   0.0000000000000000e+00   0.0000000000000000e+00   3.2322806135612808e-14   -3.2322806135612978e-14   0.0000000000000000e+00   -3.2322806135613193e-14   3.2322806135613155e-14   0.0000000000000000e+00   -3.2322806135613243e-14   -3.2322806135613205e-14   -3.2322806135612966e-14   0.0000000000000000e+00   0.0000000000000000e+00   0.0000000000000000e+00   0.0000000000000000e+00   0.0000000000000000e+00   0.0000000000000000e+00   -3.2322806135613079e-14   -3.2322806135612978e-14   0.0000000000000000e+00   0.0000000000000000e+00   0.0000000000000000e+00   0.0000000000000000e+00   0.0000000000000000e+00   0.0000000000000000e+00   -3.2322806135613079e-14   0.0000000000000000e+00   0.0000000000000000e+00   0.0000000000000000e+00   0.0000000000000000e+00   -3.2322806135613243e-14   0.0000000000000000e+00   -3.2322806135613205e-14   3.2322806135613073e-14   -3.2322806135613205e-14   3.2322806135613073e-14   -3.2322806135612966e-14   -3.2322806135612966e-14   0.0000000000000000e+00   0.0000000000000000e+00   0.0000000000000000e+00   0.0000000000000000e+00   0.0000000000000000e+00   -3.2322806135613243e-14   0.0000000000000000e+00   0.0000000000000000e+00   0.0000000000000000e+00   -3.2322806135613205e-14   3.2322806135613073e-14   0.0000000000000000e+00   3.2322806135613149e-14   -3.2322806135613123e-14   -3.2322806135613123e-14   -3.2322806135613123e-14   -3.2322806135613243e-14   3.2322806135613288e-14   3.2322806135613288e-14   3.2322806135613288e-14   0.0000000000000000e+00   -3.2322806135612966e-14   -3.2322806135613205e-14   0.0000000000000000e+00   0.0000000000000000e+00   0.0000000000000000e+00   -3.2322806135613243e-14   0.0000000000000000e+00   0.0000000000000000e+00   -3.2322806135613205e-14   -3.2322806135613205e-14   0.0000000000000000e+00   0.0000000000000000e+00   -3.2322806135613597e-14   3.2322806135613288e-14   0.0000000000000000e+00   -3.2322806135613243e-14   -3.2322806135613243e-14   0.0000000000000000e+00   -3.2322806135613205e-14   -3.2322806135613205e-14   3.2322806135613149e-14   0.0000000000000000e+00   -3.2322806135613205e-14   -3.2322806135613205e-14   0.0000000000000000e+00   3.2322806135612858e-14   0.0000000000000000e+00   3.2322806135613149e-14   -3.2322806135612675e-14   0.0000000000000000e+00   3.2322806135613426e-14   3.2322806135613130e-14   0.0000000000000000e+00   -3.2322806135612701e-14   -3.2322806135612814e-14   0.0000000000000000e+00   3.2322806135613149e-14   0.0000000000000000e+00   3.2322806135612669e-14   -3.2322806135612978e-14   -3.2322806135612978e-14   0.0000000000000000e+00   3.2322806135612802e-14   0.0000000000000000e+00   -3.2322806135612966e-14   3.2322806135612940e-14   0.0000000000000000e+00   0.0000000000000000e+00   -3.2322806135612890e-14   -3.2322806135612814e-14   0.0000000000000000e+00   0.0000000000000000e+00   3.2322806135612858e-14   -3.2322806135612978e-14   0.0000000000000000e+00   0.0000000000000000e+00   0.0000000000000000e+00   0.0000000000000000e+00   3.2322806135613004e-14   -3.2322806135612770e-14   0.0000000000000000e+00   0.0000000000000000e+00   0.0000000000000000e+00   0.0000000000000000e+00   0.0000000000000000e+00   0.0000000000000000e+00   0.0000000000000000e+00   3.2322806135612858e-14   -3.2322806135612814e-14   0.0000000000000000e+00   0.0000000000000000e+00   0.0000000000000000e+00   0.0000000000000000e+00   0.0000000000000000e+00   3.2322806135613004e-14   0.0000000000000000e+00   0.0000000000000000e+00   0.0000000000000000e+00   0.0000000000000000e+00   3.2322806135612858e-14   0.0000000000000000e+00   0.0000000000000000e+00   0.0000000000000000e+00   0.0000000000000000e+00   0.0000000000000000e+00   0.0000000000000000e+00   0.0000000000000000e+00   -3.2322806135612814e-14   3.2322806135612858e-14   0.0000000000000000e+00   0.0000000000000000e+00   0.0000000000000000e+00   0.0000000000000000e+00   0.0000000000000000e+00   -3.2322806135612701e-14   0.0000000000000000e+00   -3.2322806135612978e-14   3.2322806135612858e-14   0.0000000000000000e+00   0.0000000000000000e+00   0.0000000000000000e+00   -3.2322806135612814e-14   3.2322806135612858e-14   0.0000000000000000e+00   0.0000000000000000e+00   0.0000000000000000e+00   0.0000000000000000e+00   3.2322806135612858e-14   0.0000000000000000e+00   -3.2322806135613452e-14   0.0000000000000000e+00   0.0000000000000000e+00   0.0000000000000000e+00   0.0000000000000000e+00   0.0000000000000000e+00   3.2322806135613073e-14   0.0000000000000000e+00   0.0000000000000000e+00   0.0000000000000000e+00   0.0000000000000000e+00   -3.2322806135613205e-14   -3.2322806135612966e-14   0.0000000000000000e+00   0.0000000000000000e+00   0.0000000000000000e+00   -3.2322806135612675e-14   -3.2322806135612966e-14   0.0000000000000000e+00   0.0000000000000000e+00   3.2322806135613004e-14   0.0000000000000000e+00   0.0000000000000000e+00   3.2322806135612858e-14   -3.2322806135613180e-14   0.0000000000000000e+00   -3.2322806135612701e-14   -3.2322806135612953e-14   3.2322806135613067e-14   3.2322806135613218e-14   -3.2322806135612890e-14   0.0000000000000000e+00   3.2322806135613067e-14   -3.2322806135613092e-14   0.0000000000000000e+00   0.0000000000000000e+00   -3.2322806135612890e-14   0.0000000000000000e+00   -3.2322806135612814e-14   3.2322806135613319e-14   0.0000000000000000e+00   0.0000000000000000e+00   3.2322806135613067e-14   -3.2322806135612701e-14   0.0000000000000000e+00   0.0000000000000000e+00   0.0000000000000000e+00   3.2322806135612808e-14   0.0000000000000000e+00   0.0000000000000000e+00   3.2322806135613420e-14   0.0000000000000000e+00   0.0000000000000000e+00   0.0000000000000000e+00   0.0000000000000000e+00   0.0000000000000000e+00   3.2322806135612858e-14   0.0000000000000000e+00   0.0000000000000000e+00   0.0000000000000000e+00   3.2322806135613004e-14   3.2322806135613004e-14   3.2322806135613004e-14   3.2322806135613004e-14   0.0000000000000000e+00   3.2322806135613073e-14   0.0000000000000000e+00   0.0000000000000000e+00   3.2322806135613073e-14   3.2322806135613073e-14   -3.2322806135612966e-14   0.0000000000000000e+00   -3.2322806135613123e-14   3.2322806135613073e-14   -3.2322806135613205e-14   -3.2322806135613205e-14   -3.2322806135612966e-14   0.0000000000000000e+00   3.2322806135613004e-14   -3.2322806135613205e-14   0.0000000000000000e+00   -3.2322806135613205e-14   0.0000000000000000e+00   -3.2322806135612966e-14   3.2322806135613073e-14   -3.2322806135613243e-14   -3.2322806135613243e-14   -3.2322806135612966e-14   -3.2322806135613205e-14   -3.2322806135613205e-14   -3.2322806135612966e-14   3.2322806135613149e-14   3.2322806135613288e-14   3.2322806135613149e-14   3.2322806135613288e-14   0.0000000000000000e+00   0.0000000000000000e+00   -3.2322806135613243e-14   -3.2322806135613243e-14   -3.2322806135612966e-14   -3.2322806135613205e-14   3.2322806135613288e-14   -3.2322806135613597e-14   3.2322806135613288e-14   0.0000000000000000e+00   0.0000000000000000e+00   0.0000000000000000e+00   3.2322806135613288e-14   3.2322806135613288e-14   0.0000000000000000e+00   -3.2322806135613016e-14   -3.2322806135613243e-14   3.2322806135612858e-14   -3.2322806135612978e-14   0.0000000000000000e+00   0.0000000000000000e+00   0.0000000000000000e+00   0.0000000000000000e+00   0.0000000000000000e+00   0.0000000000000000e+00   0.0000000000000000e+00   3.2322806135612802e-14   0.0000000000000000e+00   0.0000000000000000e+00   0.0000000000000000e+00   -3.2322806135612486e-14   3.2322806135613073e-14   0.0000000000000000e+00   3.2322806135612808e-14   0.0000000000000000e+00   3.2322806135613155e-14   0.0000000000000000e+00   3.2322806135613067e-14   0.0000000000000000e+00   0.0000000000000000e+00   0.0000000000000000e+00   3.2322806135613218e-14   0.0000000000000000e+00   -3.2322806135612814e-14   -3.2322806135612814e-14   -3.2322806135612701e-14   3.2322806135612858e-14   0.0000000000000000e+00   -3.2322806135612978e-14   3.2322806135612669e-14   0.0000000000000000e+00   3.2322806135613155e-14   0.0000000000000000e+00   0.0000000000000000e+00   0.0000000000000000e+00   3.2322806135613073e-14   0.0000000000000000e+00   0.0000000000000000e+00   3.2322806135613004e-14   0.0000000000000000e+00   3.2322806135613004e-14   0.0000000000000000e+00   0.0000000000000000e+00   0.0000000000000000e+00   0.0000000000000000e+00   3.2322806135613149e-14   0.0000000000000000e+00   3.2322806135613149e-14   -3.2322806135613205e-14   0.0000000000000000e+00   3.2322806135613073e-14   3.2322806135613073e-14   3.2322806135613073e-14   -3.2322806135612966e-14   0.0000000000000000e+00   0.0000000000000000e+00   3.2322806135613004e-14   0.0000000000000000e+00   0.0000000000000000e+00   0.0000000000000000e+00   0.0000000000000000e+00   0.0000000000000000e+00   0.0000000000000000e+00   -3.2322806135613243e-14   3.2322806135613288e-14   0.0000000000000000e+00   -3.2322806135613123e-14   -3.2322806135613243e-14   3.2322806135613073e-14   -3.2322806135612966e-14   -3.2322806135613123e-14   -3.2322806135613243e-14   -3.2322806135613205e-14   3.2322806135613073e-14   -3.2322806135613193e-14   0.0000000000000000e+00   0.0000000000000000e+00   0.0000000000000000e+00   0.0000000000000000e+00   0.0000000000000000e+00   0.0000000000000000e+00   0.0000000000000000e+00   3.2322806135613288e-14   3.2322806135613288e-14   -3.2322806135613243e-14   -3.2322806135613243e-14   -3.2322806135613205e-14   -3.2322806135613205e-14   -3.2322806135612966e-14   -3.2322806135613205e-14   -3.2322806135613243e-14   0.0000000000000000e+00   -3.2322806135613193e-14   0.0000000000000000e+00   0.0000000000000000e+00   0.0000000000000000e+00   0.0000000000000000e+00   -3.2322806135612555e-14   0.0000000000000000e+00   0.0000000000000000e+00   3