<?xml version="1.0"?>
<VTKFile type="UnstructuredGrid"  version="0.1"  >
<UnstructuredGrid>
<Piece  NumberOfPoints="6382" NumberOfCells="12354">
<Points>
<DataArray  type="Float64"  NumberOfComponents="3"  format="ascii">0 -3 0  0 0 0  10 -3 0  10 0 0  5.2 0 0  5.2 -0.4 0  5.5 -0.4 0  5.5 -0.6000000000000001 0  4.5 -0.6000000000000001 0  4.5 -0.4 0  4.8 -0.4 0  4.8 0 0  0 -2.666666666666667 0  0 -2.333333333333333 0  0 -2 0  0 -1.666666666666667 0  0 -1.333333333333333 0  0 -1 0  0 -0.666666666666667 0  0 -0.3333333333333335 0  9.836518447033493 -3 0  9.676485174132324 -3 0  9.519716728676565 -3 0  9.366040597429432 -3 0  9.215293522901804 -3 0  9.067325347766827 -3 0  8.921978167503752 -3 0  8.779125793186953 -3 0  8.638633440048579 -3 0  8.500376249002967 -3 0  8.364235730108557 -3 0  8.230099119300583 -3 0  8.097858693472926 -3 0  7.96741165420296 -3 0  7.838659590098249 -3 0  7.711508416266758 -3 0  7.585867779025237 -3 0  7.461651037321721 -3 0  7.338774694871047 -3 0  7.217158563845377 -3 0  7.096725097152937 -3 0  6.977399455051415 -3 0  6.859109304538208 -3 0  6.741784490575633 -3 0  6.625356935727237 -3 0  6.509760461250432 -3 0  6.394930659317325 -3 0  6.2808046903675 -3 0  6.167321173775116 -3 0  6.054420032640893 -3 0  5.942042373994132 -3 0  5.830130346471836 -3 0  5.718627047087892 -3 0  5.607476358937133 -3 0  5.496622874861212 -3 0  5.386011773348871 -3 0  5.275588701244851 -3 0  5.1652996754838 -3 0  5.055090972556302 -3 0  4.944909027443701 -3 0  4.834700324516204 -3 0  4.724411298755151 -3 0  4.613988226651132 -3 0  4.50337712513879 -3 0  4.392523641062869 -3 0  4.281372952912111 -3 0  4.169869653528168 -3 0  4.05795762600587 -3 0  3.94557996735911 -3 0  3.832678826224885 -3 0  3.719195309632506 -3 0  3.605069340682676 -3 0  3.490239538749567 -3 0  3.374643064272765 -3 0  3.25821550942437 -3 0  3.140890695461794 -3 0  3.022600544948583 -3 0  2.903274902847057 -3 0  2.782841436154621 -3 0  2.661225305128949 -3 0  2.538348962678273 -3 0  2.414132220974763 -3 0  2.288491583733238 -3 0  2.161340409901745 -3 0  2.032588345797035 -3 0  1.902141306527067 -3 0  1.76990088069941 -3 0  1.63576426989143 -3 0  1.499623750997021 -3 0  1.361366559951406 -3 0  1.220874206813038 -3 0  1.078021832496241 -3 0  0.9326746522331657 -3 0  0.7847064770981866 -3 0  0.6339594025705644 -3 0  0.4802832713234277 -3 0  0.3235148258676688 -3 0  0.1634815529665037 -3 0  10 -0.3333333333333333 0  10 -0.6666666666666666 0  10 -1 0  10 -1.333333333333333 0  10 -1.666666666666667 0  10 -2 0  10 -2.333333333333333 0  10 -2.666666666666667 0  5.242711110725164 0 0  5.286293876642154 0 0  5.330766086609641 0 0  5.37614589213589 0 0  5.422451816439484 0 0  5.469702760205794 0 0  5.517918009017504 0 0  5.567117241892008 0 0  5.617320540096343 0 0  5.668548395644089 0 0  5.720821717893487 0 0  5.774161842649544 0 0  5.828590541642586 0 0  5.88413003019757 0 0  5.940802977381058 0 0  5.998632515893446 0 0  6.057642249375406 0 0  6.117856262977496 0 0  6.179299133651088 0 0  6.241995940085244 0 0  6.305972273082686 0 0  6.371254245606542 0 0  6.43786850326221 0 0  6.505842235920577 0 0  6.575203187664691 0 0  6.645979668539436 0 0  6.71820056760014 0 0  6.791895362764803 0 0  6.867094133292654 0 0  6.943827572794882 0 0  7.022127001289535 0 0  7.10202437703821 0 0  7.183552311040527 0 0  7.266744080707336 0 0  7.351633641831447 0 0  7.438255642584554 0 0  7.526645439439152 0 0  7.616839110330926 0 0  7.708873468012155 0 0  7.802786077905059 0 0  7.898615271449994 0 0  7.996400162886068 0 0  8.096180664647234 0 0  8.197997502517053 0 0  8.301892235188374 0 0  8.407907268711336 0 0  8.516085874431543 0 0  8.626472207031901 0 0  8.739111321743804 0 0  8.854049193814495 0 0  8.971332736524433 0 0  9.091009820696414 0 0  9.21312929427506 0 0  9.337741001971482 0 0  9.464895805719847 0 0  9.594645605970797 0 0  9.727043361679982 0 0  9.862143111819449 0 0  5.2 -0.01666666666666669 0  5.2 -0.03333333333333339 0  5.2 -0.05000000000000009 0  5.2 -0.06666666666666679 0  5.2 -0.0833333333333335 0  5.2 -0.1000000000000002 0  5.2 -0.1166666666666669 0  5.2 -0.1333333333333336 0  5.2 -0.1500000000000002 0  5.2 -0.1666666666666669 0  5.2 -0.1833333333333335 0  5.2 -0.2000000000000001 0  5.2 -0.2166666666666668 0  5.2 -0.2333333333333335 0  5.2 -0.2500000000000002 0  5.2 -0.2666666666666669 0  5.2 -0.2833333333333335 0  5.2 -0.3000000000000002 0  5.2 -0.3166666666666668 0  5.2 -0.3333333333333335 0  5.2 -0.3500000000000001 0  5.2 -0.3666666666666668 0  5.2 -0.3833333333333334 0  5.2125 -0.4 0  5.225 -0.4 0  5.2375 -0.4 0  5.25 -0.4 0  5.2625 -0.4 0  5.275 -0.4 0  5.2875 -0.4 0  5.3 -0.4 0  5.3125 -0.4 0  5.325 -0.4 0  5.337499999999999 -0.4 0  5.35 -0.4 0  5.3625 -0.4 0  5.375 -0.4 0  5.3875 -0.4 0  5.4 -0.4 0  5.4125 -0.4 0  5.425 -0.4 0  5.4375 -0.4 0  5.45 -0.4 0  5.4625 -0.4 0  5.475 -0.4 0  5.4875 -0.4 0  5.5 -0.4083333333333334 0  5.5 -0.4166666666666667 0  5.5 -0.425 0  5.5 -0.4333333333333334 0  5.5 -0.4416666666666668 0  5.5 -0.4500000000000001 0  5.5 -0.4583333333333334 0  5.5 -0.4666666666666668 0  5.5 -0.4750000000000001 0  5.5 -0.4833333333333335 0  5.5 -0.4916666666666668 0  5.5 -0.5000000000000002 0  5.5 -0.5083333333333335 0  5.5 -0.5166666666666668 0  5.5 -0.5250000000000002 0  5.5 -0.5333333333333335 0  5.5 -0.5416666666666669 0  5.5 -0.5500000000000002 0  5.5 -0.5583333333333335 0  5.5 -0.5666666666666668 0  5.5 -0.5750000000000002 0  5.5 -0.5833333333333335 0  5.5 -0.5916666666666668 0  5.479591836734694 -0.6000000000000001 0  5.459183673469388 -0.6000000000000001 0  5.438775510204081 -0.6000000000000001 0  5.418367346938775 -0.6000000000000001 0  5.397959183673469 -0.6000000000000001 0  5.377551020408164 -0.6000000000000001 0  5.357142857142857 -0.6000000000000001 0  5.336734693877551 -0.6000000000000001 0  5.316326530612245 -0.6000000000000001 0  5.295918367346939 -0.6000000000000001 0  5.275510204081633 -0.6000000000000001 0  5.255102040816326 -0.6000000000000001 0  5.23469387755102 -0.6000000000000001 0  5.214285714285714 -0.6000000000000001 0  5.193877551020408 -0.6000000000000001 0  5.173469387755102 -0.6000000000000001 0  5.153061224489796 -0.6000000000000001 0  5.13265306122449 -0.6000000000000001 0  5.112244897959184 -0.6000000000000001 0  5.091836734693878 -0.6000000000000001 0  5.071428571428571 -0.6000000000000001 0  5.051020408163265 -0.6000000000000001 0  5.030612244897959 -0.6000000000000001 0  5.010204081632653 -0.6000000000000001 0  4.989795918367347 -0.6000000000000001 0  4.969387755102041 -0.6000000000000001 0  4.948979591836735 -0.6000000000000001 0  4.928571428571429 -0.6000000000000001 0  4.908163265306122 -0.6000000000000001 0  4.887755102040816 -0.6000000000000001 0  4.86734693877551 -0.6000000000000001 0  4.846938775510204 -0.6000000000000001 0  4.826530612244898 -0.6000000000000001 0  4.806122448979592 -0.6000000000000001 0  4.785714285714286 -0.6000000000000001 0  4.76530612244898 -0.6000000000000001 0  4.744897959183674 -0.6000000000000001 0  4.724489795918368 -0.6000000000000001 0  4.704081632653061 -0.6000000000000001 0  4.683673469387755 -0.6000000000000001 0  4.663265306122449 -0.6000000000000001 0  4.642857142857143 -0.6000000000000001 0  4.622448979591836 -0.6000000000000001 0  4.602040816326531 -0.6000000000000001 0  4.581632653061225 -0.6000000000000001 0  4.561224489795919 -0.6000000000000001 0  4.540816326530612 -0.6000000000000001 0  4.520408163265306 -0.6000000000000001 0  4.5 -0.5916666666666668 0  4.5 -0.5833333333333334 0  4.5 -0.5750000000000001 0  4.5 -0.5666666666666668 0  4.5 -0.5583333333333333 0  4.5 -0.55 0  4.5 -0.5416666666666667 0  4.5 -0.5333333333333333 0  4.5 -0.525 0  4.5 -0.5166666666666666 0  4.5 -0.5083333333333333 0  4.5 -0.4999999999999999 0  4.5 -0.4916666666666666 0  4.5 -0.4833333333333332 0  4.5 -0.4749999999999999 0  4.5 -0.4666666666666666 0  4.5 -0.4583333333333333 0  4.5 -0.45 0  4.5 -0.4416666666666667 0  4.5 -0.4333333333333333 0  4.5 -0.425 0  4.5 -0.4166666666666667 0  4.5 -0.4083333333333334 0  4.5125 -0.4 0  4.525 -0.4 0  4.5375 -0.4 0  4.55 -0.4 0  4.5625 -0.4 0  4.575 -0.4 0  4.587499999999999 -0.4 0  4.6 -0.4 0  4.6125 -0.4 0  4.625 -0.4 0  4.637499999999999 -0.4 0  4.649999999999999 -0.4 0  4.6625 -0.4 0  4.675 -0.4 0  4.6875 -0.4 0  4.699999999999999 -0.4 0  4.712499999999999 -0.4 0  4.725 -0.4 0  4.7375 -0.4 0  4.75 -0.4 0  4.7625 -0.4 0  4.774999999999999 -0.4 0  4.7875 -0.4 0  4.8 -0.3833333333333333 0  4.8 -0.3666666666666666 0  4.8 -0.3499999999999999 0  4.8 -0.3333333333333333 0  4.8 -0.3166666666666665 0  4.8 -0.2999999999999998 0  4.8 -0.2833333333333331 0  4.8 -0.2666666666666664 0  4.8 -0.2499999999999998 0  4.8 -0.2333333333333331 0  4.8 -0.2166666666666665 0  4.8 -0.1999999999999999 0  4.8 -0.1833333333333332 0  4.8 -0.1666666666666665 0  4.8 -0.1499999999999998 0  4.8 -0.1333333333333331 0  4.8 -0.1166666666666665 0  4.8 -0.09999999999999987 0  4.8 -0.0833333333333332 0  4.8 -0.06666666666666654 0  4.8 -0.04999999999999988 0  4.8 -0.03333333333333327 0  4.8 -0.01666666666666661 0  0.1378568875240437 0 0  0.2729566377271358 0 0  0.4053543934976697 0 0  0.5351041938077431 0 0  0.6622589976130751 0 0  0.7868707053643811 0 0  0.9089901789958823 0 0  1.028667263218748 0 0  1.14595080597766 0 0  1.260888678095464 0 0  1.373527792852679 0 0  1.483914125496606 0 0  1.592092731258683 0 0  1.698107764821866 0 0  1.802002497531814 0 0  1.90381933543871 0 0  2.003599837235452 0 0  2.101384728705643 0 0  2.197213922283282 0 0  2.291126532207516 0 0  2.38316088991875 0 0  2.473354560839241 0 0  2.56174435771825 0 0  2.648366358500676 0 0  2.733255919649871 0 0  2.81644768934063 0 0  2.897975623365796 0 0  2.977872999136252 0 0  3.056172427651654 0 0  3.132905867173631 0 0  3.208104637720262 0 0  3.28179943290277 0 0  3.354020331980409 0 0  3.42479681287121 0 0  3.494157764630528 0 0  3.562131497303279 0 0  3.628745754972536 0 0  3.69402772750921 0 0  3.758004060518725 0 0  3.820700866964234 0 0  3.882143737648484 0 0  3.942357751260559 0 0  4.0013674
[...]
<CellData  Scalars="Plastic strain"> 
<DataArray  type="Float64"  Name="Plastic strain"  format="ascii">1.8696576777564117e-02   -6.0894431151091873e-17   3.6630609254352103e-02   3.0874307847972991e-02   0.0000000000000000e+00   0.0000000000000000e+00   6.0825461801172009e-01   0.0000000000000000e+00   1.5283527802422281e-01   2.5390511272703867e-02   4.8166267738155162e-04   8.2148871798388381e-02   0.0000000000000000e+00   7.3907406125725383e-02   2.3694735723516307e-02   3.5525548851839291e-04   4.5862141503260478e-01   7.8687020875542787e-02   -3.5480833695530982e-17   8.8719306541234097e-02   1.4505389422257247e+00   1.2096176534637942e-05   3.1253183711583848e-01   9.0643448578818209e-01   7.9264306937884887e-02   0.0000000000000000e+00   0.0000000000000000e+00   7.6922413206627516e-02   1.1231218626187736e-02   1.5376687239993896e-03   3.6592613780077887e-01   5.4958546141614599e-02   2.0360893037219049e-05   7.8703247965524294e-04   1.1893886748031485e-03   1.2357036442187993e-02   8.1032629863106345e-02   2.6950974281002578e-02   0.0000000000000000e+00   2.4954139208001025e-03   4.8645307170645652e-01   8.4681847090020484e-04   0.0000000000000000e+00   3.7350884642245202e-01   4.4181369987713097e-02   3.4307566318186944e-01   0.0000000000000000e+00   3.4568354609802888e-03   4.7877285207268756e-02   8.0212033267278993e-03   3.2173874811654286e-03   0.0000000000000000e+00   2.8479823851927981e-02   1.5872737084864303e-04   1.5936100695115783e-02   8.7216765689559894e-01   1.7776141406530901e+00   5.8360589370250138e-01   4.1543691841717822e-01   1.1628815665347542e-02   2.3194010960285300e-02   1.9942950034631021e-02   8.0288174890372288e-01   1.2206742937059280e-01   1.6029720846440704e-01   3.9601742377205207e-03   2.9850624390544183e-04   7.8332360730424447e-02   5.6207347505002003e-01   8.7626150741572319e-04   8.7571399399573549e-02   8.5156402197921491e-02   1.3566487371242753e-01   5.8174135847377078e-17   3.4720142270836555e-03   2.8737771714055418e-03   4.3070391975550931e-01   3.9810318717535594e-03   4.3828456996179481e-02   6.6686207128415107e-03   4.6554613528165517e-01   1.3405496467969827e-01   1.7665538062069552e-01   5.0477492583476051e-17   -4.8629336126843606e-17   0.0000000000000000e+00   2.2356020673750194e-03   1.3309948058022811e+00   0.0000000000000000e+00   1.1875096553050231e-02   4.7466444737613278e-01   0.0000000000000000e+00   1.7905032152150507e-01   1.4173567047110949e-01   3.2093260802480517e-01   5.5746995271322422e-03   0.0000000000000000e+00   1.3321277816867802e-01   3.2952354454328702e-17   1.2478643257491737e+00   4.3962659558845401e-17   8.0647058418720829e-01   1.0829116587585043e-03   -6.0018199359325165e-17   6.5228578241426929e-02   1.4785521256429413e-01   7.5505994534591004e-04   0.0000000000000000e+00   3.0353760225638560e-01   2.1396723542416587e-01   0.0000000000000000e+00   1.7637718149203646e-02   7.2967903652921906e-03   2.6995901587277815e-01   8.1672678567164661e-02   4.5970245881370358e-01   5.8498813601631371e-04   2.0719655644370896e+00   2.1929811172447980e-01   1.3223944837957701e-02   1.0276772610977869e+00   6.6886213155094060e-04   1.2106787087370714e-01   2.5317470074582138e-01   1.9415654337047224e-02   1.0321340837927734e-03   0.0000000000000000e+00   3.2711416745445240e-02   4.7016364421265139e-02   1.3605892488660707e+00   2.0783530347967222e-01   1.1276280635098581e-03   0.0000000000000000e+00   1.4554762764239723e-01   8.5326427785282308e-02   1.4287604306176186e-02   2.1463590565413918e-03   4.1097249292899301e-03   1.4698152556008901e+00   2.0322742085562666e-02   5.4265799521406095e-02   2.4604639447837112e-04   1.2867262310114593e+00   -4.3523272471561952e-17   7.0012414699432057e-04   6.6036260121154298e-03   1.8850230306397311e-01   2.2292417983375140e-02   2.3034689467599101e-01   4.2781675684463796e-02   6.1745031345826884e-01   3.8769916276133087e-01   1.0113072645203437e-03   3.1968088250328669e-01   3.4080412144531815e-03   7.6081064027591419e-02   4.4738684588733015e-02   8.5974763230875417e-01   1.1951717898897778e-01   1.3015818538483079e-04   2.3504026173442995e-03   1.3428633802089146e-02   4.1881783583882684e-02   0.0000000000000000e+00   2.6200282292830773e-01   9.0626588499855573e-04   5.3214278613548016e-04   2.8997622475220772e-03   8.0381467380459385e-04   3.1708193758001198e-03   1.2876057156871307e-06   0.0000000000000000e+00   1.6343157687953963e-01   0.0000000000000000e+00   5.0109818397313866e-01   0.0000000000000000e+00   7.0230258369401521e-01   1.7443970754164690e-03   1.0285534993799391e-02   5.5408077974083087e-03   4.4648048263044922e-02   2.0190995436053768e-03   7.1949872451230069e-03   0.0000000000000000e+00   2.9905633541783553e-02   1.8758483427549981e-02   0.0000000000000000e+00   3.6927082080877203e-07   5.7419663292533944e-02   4.9076408580843257e-02   0.0000000000000000e+00   0.0000000000000000e+00   1.0544686353606389e-01   -3.7115809635773628e-17   2.0850817230914490e-01   0.0000000000000000e+00   5.9128251382043986e-02   2.3653802859564410e-01   2.3283781467060846e-01   1.3903460072343176e-02   5.2370116310104832e-02   9.9884752835186635e-04   0.0000000000000000e+00   8.9648782011383205e-04   2.3988071603794681e-02   4.9568166545645032e-17   5.5114062011736515e-03   5.4763812406628687e-01   6.8067011519370108e-03   1.8021625032622921e-02   1.4800862123373390e-01   1.0224967619169835e-02   5.1585240262529031e-02   7.5881331257661262e-05   2.8471428381520784e-02   3.1920774830740078e-01   2.9984059701431837e-02   3.1552276011405644e-01   2.5523608034115988e+00   -3.8862401979310964e-17   0.0000000000000000e+00   3.9928152507217846e-01   3.7276415045809745e+00   5.7745617931781179e-02   5.3650150930982266e-01   3.1849243443428832e-01   5.3411678659139394e-01   1.2953619475237493e-01   8.5479302322251770e-03   3.8892323851368232e-01   3.7855766429325992e-17   5.6942550751204461e-17   5.0763902888854939e-01   4.4636360054156352e+00   2.4180800226709853e-01   6.1691319301412972e-02   0.0000000000000000e+00   3.9457037998068956e-01   5.0746022949636127e-01   7.1413737210104813e-02   -5.0180353862720218e-17   1.2183874821953987e-01   6.4398203545383836e-01   9.7689301556055826e-03   1.2709127066476592e-01   3.2605450500677369e-02   3.7821877687425243e-01   7.1001025719038963e-02   0.0000000000000000e+00   3.7663703469962673e-02   -3.6887564775271309e-17   8.9196840924643056e-02   6.7716451082476155e-03   0.0000000000000000e+00   1.1998397735743869e-03   8.5713659911235340e-01   5.4114059772348028e-03   3.8568416380301332e-17   5.7739688681123988e-02   1.0868725045866966e-04   5.6157410799745539e-04   3.0056627088436610e-01   7.4454683661126439e-02   6.4344485168536836e-01   1.1407201827369776e-01   5.2140140814044694e-03   4.2658883357793326e-01   7.4783324146025942e-01   7.2411790373614442e-03   5.3241423688511432e-04   1.5023238708206878e-02   6.5048629688997411e-02   5.8904832056422820e-03   1.5570794631507962e-01   4.3127723862798749e-02   1.3691518421871081e+00   1.0592678090045472e-02   2.3003826100505926e-03   5.2282496206666655e-03   1.0692948548720298e+00   3.7048638675582506e-03   4.1008029482512304e-01   9.2523092405670721e-04   5.4905174820642400e-01   4.3252495132119290e-02   7.8025517669053440e-07   5.1740844029080671e-17   5.7380903465988013e-03   3.3495938539365055e-01   2.5789328155452296e-01   1.0395654267022034e-02   2.2544531619912502e-04   0.0000000000000000e+00   6.0510363659666988e-17   0.0000000000000000e+00   2.4168757012698791e-01   3.9483207703582796e-01   3.0044218660651555e-03   6.7185507928582883e-02   2.6836483429451730e-01   -3.7241527169344365e-17   0.0000000000000000e+00   2.4485864375163199e-02   1.9402559398831409e-01   8.8744207216106277e-02   9.8438021967752853e-04   3.5679049144015335e-01   2.4303698136163513e-02   7.4232736512487948e-02   8.2045712663890227e-02   4.7435463724584118e-04   1.9625592309455387e-03   0.0000000000000000e+00   3.1755460803326212e-17   6.0493230285926869e-01   0.0000000000000000e+00   4.3921070797263273e-01   1.4491760919750854e-01   4.1314442238038623e-03   5.4435013461250883e-04   0.0000000000000000e+00   2.3689765278260766e-01   4.5085356937257671e-03   -4.8041416044165813e-17   3.8115856427372659e-03   9.4503421372370382e-03   3.0861095315901710e-01   8.3478364971624863e-02   0.0000000000000000e+00   2.4850183130800230e-01   5.3356475082812205e-01   1.3739520934317409e-01   2.9037352409313347e-05   9.8706974363798623e-03   3.4405984961432045e-17   5.3026327740073591e-02   0.0000000000000000e+00   7.7088657881010270e-02   6.3519861968891513e-03   1.3039085926689649e-02   3.5935131642050075e-02   4.4555875728049657e-02   0.0000000000000000e+00   9.3435487714281539e-04   2.8096122532479550e-01   1.1196039357931774e-01   1.3545326197457975e-03   3.1652290491775759e-02   2.9688272562631357e-01   2.1335778099714896e-04   3.4412637345062599e-02   3.0807792120977587e-03   1.1790514749551760e-01   7.2358627948451576e-03   5.9049332066832411e-03   1.4638759142373223e-01   2.8531477601460343e-02   0.0000000000000000e+00   1.3730666919664845e-02   9.2853308892682004e-03   4.3763070834446853e-02   4.8797139895040385e-03   6.2607246455430440e-04   0.0000000000000000e+00   0.0000000000000000e+00   2.3644134198423034e-03   1.0802187852065601e-01   7.2113078103127918e-03   6.6854048420852995e-04   8.8715328075048741e-02   5.1585930937992075e-01   1.2377303071376640e-01   7.4980173588034304e-05   3.9435310224163822e-01   7.0374416219597863e-02   2.0597451901625007e-02   9.5698979433732595e-02   1.5193832385137296e-03   2.7198379281628052e-02   2.2950842626635497e+00   3.6014441959215788e+00   2.5697450882305639e-01   3.2784612843565035e-17   4.8886377429324519e-17   5.7701008257758418e-04   1.1303213051462636e-03   6.7258968687780758e-04   2.7324325641539973e-03   3.8865799158672387e-01   4.4498237841980315e-02   3.2171444427072388e-05   3.8731513766971939e-02   3.0687623072015276e-02   9.0028654028120330e-05   0.0000000000000000e+00   5.2022034355711184e-02   0.0000000000000000e+00   -3.5060635529889376e-17   1.4067227927834797e-03   1.1128700740727145e-03   0.0000000000000000e+00   2.0726976134293487e-02   0.0000000000000000e+00   1.0683432852307296e-02   2.1593057286716861e-02   6.8310499913745756e-02   1.5574615518053159e-02   2.9837263134419457e-04   7.5101103926286292e-04   1.0260839078429173e-03   7.9981963202537462e-02   8.2337918385468847e-02   4.0419172612936055e-01   4.4117854100418796e-01   0.0000000000000000e+00   8.6236778655972304e-02   7.1553656172948774e-02   2.7767250453993964e-02   2.3180260380268381e-03   3.2066112349204118e-01   6.1472787749656775e-03   2.6151405293688584e-01   3.8086148676427605e-04   6.1415943052330702e-01   9.7912320049260759e-02   2.6410850819681107e-02   1.2419125322982594e+00   1.4119942356544257e-01   5.5087292984336454e-03   1.0143600589004091e-01   1.2924503595448824e+00   1.6688712591155153e-01   5.7720646963919618e-03   1.9995048704274595e-02   3.9997229525622078e-03   2.0069436118450301e-02   5.1696332907242052e-04   3.9871691567498202e-01   6.3299955871548297e-02   5.5073794632232529e-03   2.7498808442241313e-01   1.0289650151524951e-01   3.2065317939736805e-02   0.0000000000000000e+00   6.9584682133504105e-02   0.0000000000000000e+00   3.0501878913229530e-02   3.9403553304683601e+00   1.2834529004841387e-02   1.9578842940074800e-01   2.7274931955690657e-01   5.2675817844946835e-02   5.2104978188057391e-03   -3.6118270150306894e-17   2.0740885087774650e-03   1.5859963310928099e-01   8.6656960562663629e-02   3.9079352539285184e-01   2.7162887229630100e-02   -4.7163055601309666e-17   4.6615190004255075e-01   6.0000702384390258e-06   1.4259715572207837e-03   5.0165796244062766e-01   2.9589384922331142e-02   5.0451486951077409e-17   6.3783412595339331e-02   5.2461246379354740e-03   1.5776696459672596e-03   1.1644666098899893e-01   4.0761052732606814e-02   2.4807690476674818e-02   1.7109326559774835e-01   2.1694202430114512e-01   9.6026409788429731e-02   2.7398680527194816e+00   5.3807191673861830e-17   8.1421631075545176e-02   2.9612055302024516e-03   4.9290533746335546e-02   1.5678065710655355e-03   7.9162968486026941e-02   6.0173139140764853e-01   5.1158562733460663e-04   9.5423030261811936e-01   -3.8466297827346615e-17   -3.4086763514532773e-17   7.2413727396814301e-02   3.5664869291140128e-02   3.7003135152042577e-04   0.0000000000000000e+00   8.8753728081451613e-02   3.2840310659387045e-01   3.4131053694218448e-02   1.7830159804024920e-03   3.5837390813957037e-02   3.9667636752425423e-01   1.6271304564521163e-02   3.8775774898590581e-01   2.5275741508237571e-02   2.0060552093306060e-02   1.2203379279240046e-02   0.0000000000000000e+00   5.0214136276560402e-04   -3.9891998971708177e-17   1.0737460720791174e-01   2.3468218527549056e-03   1.0095106263128035e-02   0.0000000000000000e+00   5.5393579894240082e-04   5.5341415217930061e+00   1.7980592269666540e-01   2.9073031033272689e-01   1.2931033434857218e-02   2.3366958813852323e-02   -5.0695054364285746e-17   -3.5948809745278153e-17   8.1874238533487329e-03   1.4602625411952758e-01   9.0169504813542630e-03   3.4033889671241137e-02   1.0980809542134540e+00   0.0000000000000000e+00   3.3980087955060227e-17   2.5299232520752080e-01   1.5436058848286387e-03   0.0000000000000000e+00   0.0000000000000000e+00   4.3175182392699522e-03   7.0395488299068484e-02   9.1409136652312040e-02   3.4547424044391128e-17   1.9089524166924557e-01   2.4329453716999620e-02   1.7458099165633220e-01   9.7169530394373760e-02   1.1908240795248010e-01   2.6214823107635210e-01   5.2882331810920258e-01   3.4037390467503516e-02   1.4270623788257698e-04   4.4427939527589366e-01   2.8080714601511303e-01   1.2163072363558958e-03   7.4235473405111210e-03   5.1263940264357555e-01   1.2546879528498664e-01   6.5293858272494187e-01   6.8168761189546833e-03   8.3506866013512551e-02   1.6816656654812326e-01   2.1675423166997376e-01   0.0000000000000000e+00   2.0619966940266785e-02   2.8715304503148164e-03   5.1823022482203100e-02   7.0381145957793226e-02   1.3108772618279670e-02   0.0000000000000000e+00   9.9235828237389564e-02   0.0000000000000000e+00   1.0045196377141073e-01   2.0999317679988561e-03   4.6724136079051246e-17   9.9583360106174044e-03   2.0092329230834451e-02   8.6993508454131000e-04   3.4509729886913605e-06   5.6834026483229196e-02   1.5951179865298575e-02   1.7469983804265898e-02   4.9295074046676496e-01   0.0000000000000000e+00   5.6097084278175580e-03   0.0000000000000000e+00   1.0953144669981452e-01   4.1309443008334179e-01   3.8436294587927722e-01   8.2070073061073796e-03   2.0433444075184774e-02   9.1638712344923878e-03   4.9923596782053109e-01   3.5243325896088934e-01   1.3081318254630592e-02   1.7287079783126811e+00   1.1451421175157392e-01   2.6960538805275353e-01   3.7551029263044217e-01   3.7469653241760048e-02   5.1812792378716374e-06   2.9539635486386644e-03   0.0000000000000000e+00   2.6133891793904956e-01   3.3215134241353250e-02   2.6566491940211344e-02   1.2444840653243071e-02   2.4380844969590750e-02   1.6377667109272451e-02   1.7292204292708047e-02   0.0000000000000000e+00   0.0000000000000000e+00   2.7852755822045084e-03   8.5730333296861660e-01   1.9494220847179403e-02   6.9346899879683427e-02   3.2250870230111995e-03   3.6281676655010453e-01   5.5824772594098138e-01   0.0000000000000000e+00   0.0000000000000000e+00   3.5665711137998496e-04   -3.7766552749394344e-17   2.2663811215956481e-03   4.7653319969239640e-17   3.8318631420666860e-01   0.0000000000000000e+00   4.1941230600488255e-01   0.0000000000000000e+00   4.9928416520831069e-02   1.0694644304390137e-01   6.1918920549298706e-03   4.2219635125067580e-02   0.0000000000000000e+00   1.0866656528636968e-01   3.4697696791342203e-04   6.7847038111505081e-02   9.4232225529872649e-02   3.9630882062239924e-17   3.3553619220318930e-02   3.3440640134794681e-17   2.4413209881279582e-03   0.0000000000000000e+00   5.4902265299802515e-02   6.1873428237204368e-02   6.0008164927220393e-02   8.3976931866167698e-02   0.0000000000000000e+00   6.6736674450611910e-01   2.4161194208190534e-01   2.4262389662151381e-03   4.4981641389911994e-03   1.9989760764082165e-03   1.8009992826830362e-01   1.9461214583261452e-01   1.2081535746203562e-01   1.1125855495161317e-01   2.9846587972473506e-05   1.2901374220474812e-03   2.3909287359299750e-01   5.9199651422077573e-02   1.5619312482847663e-02   6.5639548914640056e-01   1.7054778691648901e-02   5.1148893673865090e-02   -6.0091089484331975e-17   3.9837758500614390e-01   3.0646357976492444e-01   -4.6885087379305267e-17   0.0000000000000000e+00   4.0461015394128526e-17   1.1496213856354724e+00   1.7956640150112158e-01   1.1195766039168181e-01   5.9173203730633261e-01   5.3572218072747563e-02   4.9985190777615497e-04   1.1310191993173357e-03   5.2916022915080855e-04   -3.7942870175932228e-17   1.2486802273427720e-01   0.0000000000000000e+00   2.1181997899659061e-01   1.1137230814544621e+00   9.1201760021010214e-02   1.8369862400093381e-01   4.7716230795864477e-03   1.9821694964834392e-03   1.5658885434117334e-01   8.4133811584692197e-01   2.6373874380905818e-05   -4.6639559217359230e-17   0.0000000000000000e+00   5.9006030762807260e-01   0.0000000000000000e+00   2.5054336397893512e-01   5.3547039595589196e-01   3.7366467426629825e-03   4.6755963639283791e-17   2.0371646607821814e-02   2.1044463355430221e-01   2.6052653898469079e-02   3.2014812708592805e-17   2.0915188341553481e-01   4.2026744458382968e-02   1.6881537124053775e-01   1.7739579615943452e-01   1.7496855931858361e-03   2.0599669753048571e-05   0.0000000000000000e+00   5.4081219436394334e-01   2.7962530473217052e-02   3.6364378121345620e-03   9.6020698125365289e-02   5.4405618940300750e-02   5.9219749558062619e-02   -4.0770680317118548e-17   8.4227175971816026e-01   1.8441215399035184e-02   6.6929093593206870e-05   0.0000000000000000e+00   1.3808654840787795e-02   6.5103168780176179e-01   3.4071077962672044e-17   1.3239344319529905e-01   2.1610575819772271e-01   0.0000000000000000e+00   8.9882795178223868e-02   5.8282765299615069e-17   6.0187728744493810e-02   1.1856701473736907e-03   1.8546084224484262e-02   0.0000000000000000e+00   9.3160830106569531e-02   3.2571214933421987e-02   2.2073263954139033e-01   9.2462826367109233e-03   0.0000000000000000e+00   2.5443872871596964e-02   4.2821529521156126e-01   8.8219496735344397e-04   4.1052054527171783e-01   5.6887896906793078e-01   3.9308519985411106e-01   6.0047912262154467e-02   4.3215325755447925e-01   1.7381386226138021e-01   5.3563918694692535e-02   0.0000000000000000e+00   8.4665691628992887e-02   2.4321067053915558e-02   1.0533835424600072e-02   0.0000000000000000e+00   0.0000000000000000e+00   3.1866598370695463e-02   1.4035178948669477e-01   2.0025397938734521e-01   1.5198619515235337e-01   1.5514773069696166e-02   8.9850937308033743e-02   1.9021369763354026e-01   2.6229744671224042e-01   4.9334341673925163e-02   8.2503057684549623e-03   0.0000000000000000e+00   2.5590869830436232e-02   4.1410390376638799e-17   -3.2146604098681220e-17   3.4931265436172372e-02   5.0818462436061451e-01   1.0754543916014457e-02   2.6030023033212030e-02   8.4265993097126513e-03   1.9283472126138856e-02   -5.4884493959314062e-17   3.8465899667566258e-03   0.0000000000000000e+00   2.6741992591502900e-01   0.0000000000000000e+00   7.6338908161589891e-02   1.9539141465748371e-03   4.7588654613547721e-02   2.2592738731300344e-02   2.9882801918449135e-03   9.4911548785567040e-02   9.4057233441679391e-02   -4.2399363392298159e-17   2.9218227764773088e-02   5.0847936463471041e-17   0.0000000000000000e+00   1.4949127495855207e-02   4.0048583993721831e-01   9.0230309718492669e-04   3.4833312115762991e-03   1.7941470016588908e-02   3.1451757648761278e-02   1.3660370139754433e-04   1.4836226899250591e+00   4.6958059531628837e-01   3.7738552664555217e-06   4.6474049407692524e-03   0.0000000000000000e+00   1.1282892115656527e-01   0.0000000000000000e+00   3.7464982265125818e-01   5.6224669917318212