<?xml version="1.0"?>
<VTKFile type="UnstructuredGrid"  version="0.1"  >
<UnstructuredGrid>
<Piece  NumberOfPoints="6382" NumberOfCells="12354">
<Points>
<DataArray  type="Float64"  NumberOfComponents="3"  format="ascii">0 -3 0  0 0 0  10 -3 0  10 0 0  5.2 0 0  5.2 -0.4 0  5.5 -0.4 0  5.5 -0.6000000000000001 0  4.5 -0.6000000000000001 0  4.5 -0.4 0  4.8 -0.4 0  4.8 0 0  0 -2.666666666666667 0  0 -2.333333333333333 0  0 -2 0  0 -1.666666666666667 0  0 -1.333333333333333 0  0 -1 0  0 -0.666666666666667 0  0 -0.3333333333333335 0  9.836518447033493 -3 0  9.676485174132324 -3 0  9.519716728676565 -3 0  9.366040597429432 -3 0  9.215293522901804 -3 0  9.067325347766827 -3 0  8.921978167503752 -3 0  8.779125793186953 -3 0  8.638633440048579 -3 0  8.500376249002967 -3 0  8.364235730108557 -3 0  8.230099119300583 -3 0  8.097858693472926 -3 0  7.96741165420296 -3 0  7.838659590098249 -3 0  7.711508416266758 -3 0  7.585867779025237 -3 0  7.461651037321721 -3 0  7.338774694871047 -3 0  7.217158563845377 -3 0  7.096725097152937 -3 0  6.977399455051415 -3 0  6.859109304538208 -3 0  6.741784490575633 -3 0  6.625356935727237 -3 0  6.509760461250432 -3 0  6.394930659317325 -3 0  6.2808046903675 -3 0  6.167321173775116 -3 0  6.054420032640893 -3 0  5.942042373994132 -3 0  5.830130346471836 -3 0  5.718627047087892 -3 0  5.607476358937133 -3 0  5.496622874861212 -3 0  5.386011773348871 -3 0  5.275588701244851 -3 0  5.1652996754838 -3 0  5.055090972556302 -3 0  4.944909027443701 -3 0  4.834700324516204 -3 0  4.724411298755151 -3 0  4.613988226651132 -3 0  4.50337712513879 -3 0  4.392523641062869 -3 0  4.281372952912111 -3 0  4.169869653528168 -3 0  4.05795762600587 -3 0  3.94557996735911 -3 0  3.832678826224885 -3 0  3.719195309632506 -3 0  3.605069340682676 -3 0  3.490239538749567 -3 0  3.374643064272765 -3 0  3.25821550942437 -3 0  3.140890695461794 -3 0  3.022600544948583 -3 0  2.903274902847057 -3 0  2.782841436154621 -3 0  2.661225305128949 -3 0  2.538348962678273 -3 0  2.414132220974763 -3 0  2.288491583733238 -3 0  2.161340409901745 -3 0  2.032588345797035 -3 0  1.902141306527067 -3 0  1.76990088069941 -3 0  1.63576426989143 -3 0  1.499623750997021 -3 0  1.361366559951406 -3 0  1.220874206813038 -3 0  1.078021832496241 -3 0  0.9326746522331657 -3 0  0.7847064770981866 -3 0  0.6339594025705644 -3 0  0.4802832713234277 -3 0  0.3235148258676688 -3 0  0.1634815529665037 -3 0  10 -0.3333333333333333 0  10 -0.6666666666666666 0  10 -1 0  10 -1.333333333333333 0  10 -1.666666666666667 0  10 -2 0  10 -2.333333333333333 0  10 -2.666666666666667 0  5.242711110725164 0 0  5.286293876642154 0 0  5.330766086609641 0 0  5.37614589213589 0 0  5.422451816439484 0 0  5.469702760205794 0 0  5.517918009017504 0 0  5.567117241892008 0 0  5.617320540096343 0 0  5.668548395644089 0 0  5.720821717893487 0 0  5.774161842649544 0 0  5.828590541642586 0 0  5.88413003019757 0 0  5.940802977381058 0 0  5.998632515893446 0 0  6.057642249375406 0 0  6.117856262977496 0 0  6.179299133651088 0 0  6.241995940085244 0 0  6.305972273082686 0 0  6.371254245606542 0 0  6.43786850326221 0 0  6.505842235920577 0 0  6.575203187664691 0 0  6.645979668539436 0 0  6.71820056760014 0 0  6.791895362764803 0 0  6.867094133292654 0 0  6.943827572794882 0 0  7.022127001289535 0 0  7.10202437703821 0 0  7.183552311040527 0 0  7.266744080707336 0 0  7.351633641831447 0 0  7.438255642584554 0 0  7.526645439439152 0 0  7.616839110330926 0 0  7.708873468012155 0 0  7.802786077905059 0 0  7.898615271449994 0 0  7.996400162886068 0 0  8.096180664647234 0 0  8.197997502517053 0 0  8.301892235188374 0 0  8.407907268711336 0 0  8.516085874431543 0 0  8.626472207031901 0 0  8.739111321743804 0 0  8.854049193814495 0 0  8.971332736524433 0 0  9.091009820696414 0 0  9.21312929427506 0 0  9.337741001971482 0 0  9.464895805719847 0 0  9.594645605970797 0 0  9.727043361679982 0 0  9.862143111819449 0 0  5.2 -0.01666666666666669 0  5.2 -0.03333333333333339 0  5.2 -0.05000000000000009 0  5.2 -0.06666666666666679 0  5.2 -0.0833333333333335 0  5.2 -0.1000000000000002 0  5.2 -0.1166666666666669 0  5.2 -0.1333333333333336 0  5.2 -0.1500000000000002 0  5.2 -0.1666666666666669 0  5.2 -0.1833333333333335 0  5.2 -0.2000000000000001 0  5.2 -0.2166666666666668 0  5.2 -0.2333333333333335 0  5.2 -0.2500000000000002 0  5.2 -0.2666666666666669 0  5.2 -0.2833333333333335 0  5.2 -0.3000000000000002 0  5.2 -0.3166666666666668 0  5.2 -0.3333333333333335 0  5.2 -0.3500000000000001 0  5.2 -0.3666666666666668 0  5.2 -0.3833333333333334 0  5.2125 -0.4 0  5.225 -0.4 0  5.2375 -0.4 0  5.25 -0.4 0  5.2625 -0.4 0  5.275 -0.4 0  5.2875 -0.4 0  5.3 -0.4 0  5.3125 -0.4 0  5.325 -0.4 0  5.337499999999999 -0.4 0  5.35 -0.4 0  5.3625 -0.4 0  5.375 -0.4 0  5.3875 -0.4 0  5.4 -0.4 0  5.4125 -0.4 0  5.425 -0.4 0  5.4375 -0.4 0  5.45 -0.4 0  5.4625 -0.4 0  5.475 -0.4 0  5.4875 -0.4 0  5.5 -0.4083333333333334 0  5.5 -0.4166666666666667 0  5.5 -0.425 0  5.5 -0.4333333333333334 0  5.5 -0.4416666666666668 0  5.5 -0.4500000000000001 0  5.5 -0.4583333333333334 0  5.5 -0.4666666666666668 0  5.5 -0.4750000000000001 0  5.5 -0.4833333333333335 0  5.5 -0.4916666666666668 0  5.5 -0.5000000000000002 0  5.5 -0.5083333333333335 0  5.5 -0.5166666666666668 0  5.5 -0.5250000000000002 0  5.5 -0.5333333333333335 0  5.5 -0.5416666666666669 0  5.5 -0.5500000000000002 0  5.5 -0.5583333333333335 0  5.5 -0.5666666666666668 0  5.5 -0.5750000000000002 0  5.5 -0.5833333333333335 0  5.5 -0.5916666666666668 0  5.479591836734694 -0.6000000000000001 0  5.459183673469388 -0.6000000000000001 0  5.438775510204081 -0.6000000000000001 0  5.418367346938775 -0.6000000000000001 0  5.397959183673469 -0.6000000000000001 0  5.377551020408164 -0.6000000000000001 0  5.357142857142857 -0.6000000000000001 0  5.336734693877551 -0.6000000000000001 0  5.316326530612245 -0.6000000000000001 0  5.295918367346939 -0.6000000000000001 0  5.275510204081633 -0.6000000000000001 0  5.255102040816326 -0.6000000000000001 0  5.23469387755102 -0.6000000000000001 0  5.214285714285714 -0.6000000000000001 0  5.193877551020408 -0.6000000000000001 0  5.173469387755102 -0.6000000000000001 0  5.153061224489796 -0.6000000000000001 0  5.13265306122449 -0.6000000000000001 0  5.112244897959184 -0.6000000000000001 0  5.091836734693878 -0.6000000000000001 0  5.071428571428571 -0.6000000000000001 0  5.051020408163265 -0.6000000000000001 0  5.030612244897959 -0.6000000000000001 0  5.010204081632653 -0.6000000000000001 0  4.989795918367347 -0.6000000000000001 0  4.969387755102041 -0.6000000000000001 0  4.948979591836735 -0.6000000000000001 0  4.928571428571429 -0.6000000000000001 0  4.908163265306122 -0.6000000000000001 0  4.887755102040816 -0.6000000000000001 0  4.86734693877551 -0.6000000000000001 0  4.846938775510204 -0.6000000000000001 0  4.826530612244898 -0.6000000000000001 0  4.806122448979592 -0.6000000000000001 0  4.785714285714286 -0.6000000000000001 0  4.76530612244898 -0.6000000000000001 0  4.744897959183674 -0.6000000000000001 0  4.724489795918368 -0.6000000000000001 0  4.704081632653061 -0.6000000000000001 0  4.683673469387755 -0.6000000000000001 0  4.663265306122449 -0.6000000000000001 0  4.642857142857143 -0.6000000000000001 0  4.622448979591836 -0.6000000000000001 0  4.602040816326531 -0.6000000000000001 0  4.581632653061225 -0.6000000000000001 0  4.561224489795919 -0.6000000000000001 0  4.540816326530612 -0.6000000000000001 0  4.520408163265306 -0.6000000000000001 0  4.5 -0.5916666666666668 0  4.5 -0.5833333333333334 0  4.5 -0.5750000000000001 0  4.5 -0.5666666666666668 0  4.5 -0.5583333333333333 0  4.5 -0.55 0  4.5 -0.5416666666666667 0  4.5 -0.5333333333333333 0  4.5 -0.525 0  4.5 -0.5166666666666666 0  4.5 -0.5083333333333333 0  4.5 -0.4999999999999999 0  4.5 -0.4916666666666666 0  4.5 -0.4833333333333332 0  4.5 -0.4749999999999999 0  4.5 -0.4666666666666666 0  4.5 -0.4583333333333333 0  4.5 -0.45 0  4.5 -0.4416666666666667 0  4.5 -0.4333333333333333 0  4.5 -0.425 0  4.5 -0.4166666666666667 0  4.5 -0.4083333333333334 0  4.5125 -0.4 0  4.525 -0.4 0  4.5375 -0.4 0  4.55 -0.4 0  4.5625 -0.4 0  4.575 -0.4 0  4.587499999999999 -0.4 0  4.6 -0.4 0  4.6125 -0.4 0  4.625 -0.4 0  4.637499999999999 -0.4 0  4.649999999999999 -0.4 0  4.6625 -0.4 0  4.675 -0.4 0  4.6875 -0.4 0  4.699999999999999 -0.4 0  4.712499999999999 -0.4 0  4.725 -0.4 0  4.7375 -0.4 0  4.75 -0.4 0  4.7625 -0.4 0  4.774999999999999 -0.4 0  4.7875 -0.4 0  4.8 -0.3833333333333333 0  4.8 -0.3666666666666666 0  4.8 -0.3499999999999999 0  4.8 -0.3333333333333333 0  4.8 -0.3166666666666665 0  4.8 -0.2999999999999998 0  4.8 -0.2833333333333331 0  4.8 -0.2666666666666664 0  4.8 -0.2499999999999998 0  4.8 -0.2333333333333331 0  4.8 -0.2166666666666665 0  4.8 -0.1999999999999999 0  4.8 -0.1833333333333332 0  4.8 -0.1666666666666665 0  4.8 -0.1499999999999998 0  4.8 -0.1333333333333331 0  4.8 -0.1166666666666665 0  4.8 -0.09999999999999987 0  4.8 -0.0833333333333332 0  4.8 -0.06666666666666654 0  4.8 -0.04999999999999988 0  4.8 -0.03333333333333327 0  4.8 -0.01666666666666661 0  0.1378568875240437 0 0  0.2729566377271358 0 0  0.4053543934976697 0 0  0.5351041938077431 0 0  0.6622589976130751 0 0  0.7868707053643811 0 0  0.9089901789958823 0 0  1.028667263218748 0 0  1.14595080597766 0 0  1.260888678095464 0 0  1.373527792852679 0 0  1.483914125496606 0 0  1.592092731258683 0 0  1.698107764821866 0 0  1.802002497531814 0 0  1.90381933543871 0 0  2.003599837235452 0 0  2.101384728705643 0 0  2.197213922283282 0 0  2.291126532207516 0 0  2.38316088991875 0 0  2.473354560839241 0 0  2.56174435771825 0 0  2.648366358500676 0 0  2.733255919649871 0 0  2.81644768934063 0 0  2.897975623365796 0 0  2.977872999136252 0 0  3.056172427651654 0 0  3.132905867173631 0 0  3.208104637720262 0 0  3.28179943290277 0 0  3.354020331980409 0 0  3.42479681287121 0 0  3.494157764630528 0 0  3.562131497303279 0 0  3.628745754972536 0 0  3.69402772750921 0 0  3.758004060518725 0 0  3.820700866964234 0 0  3.882143737648484 0 0  3.942357751260559 0 0  4.0013674
[...]
<PointData  Vectors="displacement"> 
<DataArray  type="Float64"  Name="displacement"  NumberOfComponents="3" format="ascii">0.0000000000000000e+00 0.0000000000000000e+00 0.0000000000000000e+00  -1.3736768531939796e-05 1.2018100299859204e-05 0.0000000000000000e+00  0.0000000000000000e+00 0.0000000000000000e+00 0.0000000000000000e+00  1.3740743005860207e-05 1.2014667143860742e-05 0.0000000000000000e+00  0.0000000000000000e+00 -3.4708856155967426e-04 0.0000000000000000e+00  0.0000000000000000e+00 -3.5924579431492634e-04 0.0000000000000000e+00  0.0000000000000000e+00 -3.4976134326152177e-04 0.0000000000000000e+00  0.0000000000000000e+00 -4.2987877641521480e-04 0.0000000000000000e+00  0.0000000000000000e+00 -4.2991924433197323e-04 0.0000000000000000e+00  0.0000000000000000e+00 -3.4975969612114906e-04 0.0000000000000000e+00  0.0000000000000000e+00 -3.5924453491953639e-04 0.0000000000000000e+00  0.0000000000000000e+00 -3.4708745849689913e-04 0.0000000000000000e+00  -9.3623815055539931e-06 -5.0432480744523562e-06 0.0000000000000000e+00  -1.7300981029245365e-05 -4.3205779314134557e-06 0.0000000000000000e+00  -2.2696427473907889e-05 -1.2689326339426117e-06 0.0000000000000000e+00  -2.5159704609277999e-05 2.7865919721714727e-06 0.0000000000000000e+00  -2.4926514732145773e-05 6.7164827069342745e-06 0.0000000000000000e+00  -2.2673111246492912e-05 9.7696222163457188e-06 0.0000000000000000e+00  -1.9418644875657251e-05 1.1507267913660503e-05 0.0000000000000000e+00  -1.6235527730105593e-05 1.2046713565473598e-05 0.0000000000000000e+00  0.0000000000000000e+00 0.0000000000000000e+00 0.0000000000000000e+00  0.0000000000000000e+00 0.0000000000000000e+00 0.0000000000000000e+00  0.0000000000000000e+00 0.0000000000000000e+00 0.0000000000000000e+00  0.0000000000000000e+00 0.0000000000000000e+00 0.0000000000000000e+00  0.0000000000000000e+00 0.0000000000000000e+00 0.0000000000000000e+00  0.0000000000000000e+00 0.0000000000000000e+00 0.0000000000000000e+00  0.0000000000000000e+00 0.0000000000000000e+00 0.0000000000000000e+00  0.0000000000000000e+00 0.0000000000000000e+00 0.0000000000000000e+00  0.0000000000000000e+00 0.0000000000000000e+00 0.0000000000000000e+00  0.0000000000000000e+00 0.0000000000000000e+00 0.0000000000000000e+00  0.0000000000000000e+00 0.0000000000000000e+00 0.0000000000000000e+00  0.0000000000000000e+00 0.0000000000000000e+00 0.0000000000000000e+00  0.0000000000000000e+00 0.0000000000000000e+00 0.0000000000000000e+00  0.0000000000000000e+00 0.0000000000000000e+00 0.0000000000000000e+00  0.0000000000000000e+00 0.0000000000000000e+00 0.0000000000000000e+00  0.0000000000000000e+00 0.0000000000000000e+00 0.0000000000000000e+00  0.0000000000000000e+00 0.0000000000000000e+00 0.0000000000000000e+00  0.0000000000000000e+00 0.0000000000000000e+00 0.0000000000000000e+00  0.0000000000000000e+00 0.0000000000000000e+00 0.0000000000000000e+00  0.0000000000000000e+00 0.0000000000000000e+00 0.0000000000000000e+00  0.0000000000000000e+00 0.0000000000000000e+00 0.0000000000000000e+00  0.0000000000000000e+00 0.0000000000000000e+00 0.0000000000000000e+00  0.0000000000000000e+00 0.0000000000000000e+00 0.0000000000000000e+00  0.0000000000000000e+00 0.0000000000000000e+00 0.0000000000000000e+00  0.0000000000000000e+00 0.0000000000000000e+00 0.0000000000000000e+00  0.0000000000000000e+00 0.0000000000000000e+00 0.0000000000000000e+00  0.0000000000000000e+00 0.0000000000000000e+00 0.0000000000000000e+00  0.0000000000000000e+00 0.0000000000000000e+00 0.0000000000000000e+00  0.0000000000000000e+00 0.0000000000000000e+00 0.0000000000000000e+00  0.0000000000000000e+00 0.0000000000000000e+00 0.0000000000000000e+00  0.0000000000000000e+00 0.0000000000000000e+00 0.0000000000000000e+00  0.0000000000000000e+00 0.0000000000000000e+00 0.0000000000000000e+00  0.0000000000000000e+00 0.0000000000000000e+00 0.0000000000000000e+00  0.0000000000000000e+00 0.0000000000000000e+00 0.0000000000000000e+00  0.0000000000000000e+00 0.0000000000000000e+00 0.0000000000000000e+00  0.0000000000000000e+00 0.0000000000000000e+00 0.0000000000000000e+00  0.0000000000000000e+00 0.0000000000000000e+00 0.0000000000000000e+00  0.0000000000000000e+00 0.0000000000000000e+00 0.0000000000000000e+00  0.0000000000000000e+00 0.0000000000000000e+00 0.0000000000000000e+00  0.0000000000000000e+00 0.0000000000000000e+00 0.0000000000000000e+00  0.0000000000000000e+00 0.0000000000000000e+00 0.0000000000000000e+00  0.0000000000000000e+00 0.0000000000000000e+00 0.0000000000000000e+00  0.0000000000000000e+00 0.0000000000000000e+00 0.0000000000000000e+00  0.0000000000000000e+00 0.0000000000000000e+00 0.0000000000000000e+00  0.0000000000000000e+00 0.0000000000000000e+00 0.0000000000000000e+00  0.0000000000000000e+00 0.0000000000000000e+00 0.0000000000000000e+00  0.0000000000000000e+00 0.0000000000000000e+00 0.0000000000000000e+00  0.0000000000000000e+00 0.0000000000000000e+00 0.0000000000000000e+00  0.0000000000000000e+00 0.0000000000000000e+00 0.0000000000000000e+00  0.0000000000000000e+00 0.0000000000000000e+00 0.0000000000000000e+00  0.0000000000000000e+00 0.0000000000000000e+00 0.0000000000000000e+00  0.0000000000000000e+00 0.0000000000000000e+00 0.0000000000000000e+00  0.0000000000000000e+00 0.0000000000000000e+00 0.0000000000000000e+00  0.0000000000000000e+00 0.0000000000000000e+00 0.0000000000000000e+00  0.0000000000000000e+00 0.0000000000000000e+00 0.0000000000000000e+00  0.0000000000000000e+00 0.0000000000000000e+00 0.0000000000000000e+00  0.0000000000000000e+00 0.0000000000000000e+00 0.0000000000000000e+00  0.0000000000000000e+00 0.0000000000000000e+00 0.0000000000000000e+00  0.0000000000000000e+00 0.0000000000000000e+00 0.0000000000000000e+00  0.0000000000000000e+00 0.0000000000000000e+00 0.0000000000000000e+00  0.0000000000000000e+00 0.0000000000000000e+00 0.0000000000000000e+00  0.0000000000000000e+00 0.0000000000000000e+00 0.0000000000000000e+00  0.0000000000000000e+00 0.0000000000000000e+00 0.0000000000000000e+00  0.0000000000000000e+00 0.0000000000000000e+00 0.0000000000000000e+00  0.0000000000000000e+00 0.0000000000000000e+00 0.0000000000000000e+00  0.0000000000000000e+00 0.0000000000000000e+00 0.0000000000000000e+00  0.0000000000000000e+00 0.0000000000000000e+00 0.0000000000000000e+00  0.0000000000000000e+00 0.0000000000000000e+00 0.0000000000000000e+00  0.0000000000000000e+00 0.0000000000000000e+00 0.0000000000000000e+00  0.0000000000000000e+00 0.0000000000000000e+00 0.0000000000000000e+00  0.0000000000000000e+00 0.0000000000000000e+00 0.0000000000000000e+00  0.0000000000000000e+00 0.0000000000000000e+00 0.0000000000000000e+00  0.0000000000000000e+00 0.0000000000000000e+00 0.0000000000000000e+00  0.0000000000000000e+00 0.0000000000000000e+00 0.0000000000000000e+00  0.0000000000000000e+00 0.0000000000000000e+00 0.0000000000000000e+00  0.0000000000000000e+00 0.0000000000000000e+00 0.0000000000000000e+00  0.0000000000000000e+00 0.0000000000000000e+00 0.0000000000000000e+00  0.0000000000000000e+00 0.0000000000000000e+00 0.0000000000000000e+00  1.6236497368103969e-05 1.2037807624744898e-05 0.0000000000000000e+00  1.9421755735643955e-05 1.1514912526180999e-05 0.0000000000000000e+00  2.2675449039015853e-05 9.7669477323102525e-06 0.0000000000000000e+00  2.4931516622461718e-05 6.7150055741156524e-06 0.0000000000000000e+00  2.5165678814371623e-05 2.7920725282583461e-06 0.0000000000000000e+00  2.2695718354440926e-05 -1.2823538953905592e-06 0.0000000000000000e+00  1.7295483274841332e-05 -4.3289508110684809e-06 0.0000000000000000e+00  9.3750571009380602e-06 -5.0427044519473532e-06 0.0000000000000000e+00  -6.0515389040877764e-06 -3.4674735460872531e-04 0.0000000000000000e+00  -1.2226726500756360e-05 -3.4569214954068440e-04 0.0000000000000000e+00  -1.8525629789694553e-05 -3.4386849544012978e-04 0.0000000000000000e+00  -2.4942982341162613e-05 -3.4121110793128501e-04 0.0000000000000000e+00  -3.1460526909898011e-05 -3.3764385410010080e-04 0.0000000000000000e+00  -3.8046634936094568e-05 -3.3308185152183909e-04 0.0000000000000000e+00  -4.4635951084076433e-05 -3.2743757627218338e-04 0.0000000000000000e+00  -5.1139723698585162e-05 -3.2063199581063186e-04 0.0000000000000000e+00  -5.7432836397507827e-05 -3.1261477513148527e-04 0.0000000000000000e+00  -6.3369141947677295e-05 -3.0337678983382899e-04 0.0000000000000000e+00  -6.8789094542187577e-05 -2.9296794436393865e-04 0.0000000000000000e+00  -7.3551788307408988e-05 -2.8149579209907046e-04 0.0000000000000000e+00  -7.7540728606496391e-05 -2.6911903872928530e-04 0.0000000000000000e+00  -8.0682532828117942e-05 -2.5602893177814140e-04 0.0000000000000000e+00  -8.2948250621593580e-05 -2.4242997708685859e-04 0.0000000000000000e+00  -8.4342462283056493e-05 -2.2852274952291164e-04 0.0000000000000000e+00  -8.4914919717203174e-05 -2.1449458092653352e-04 0.0000000000000000e+00  -8.4716713873437109e-05 -2.0050561250022948e-04 0.0000000000000000e+00  -8.3825513960919523e-05 -1.8669224654618277e-04 0.0000000000000000e+00  -8.2324198007676993e-05 -1.7316600251506421e-04 0.0000000000000000e+00  -8.0289571582714309e-05 -1.6001354859154372e-04 0.0000000000000000e+00  -7.7802680829496673e-05 -1.4730115536635549e-04 0.0000000000000000e+00  -7.4931715100659329e-05 -1.3507826819283666e-04 0.0000000000000000e+00  -7.1749355421201917e-05 -1.2338024023110918e-04 0.0000000000000000e+00  -6.8309023009896031e-05 -1.1223123996579962e-04 0.0000000000000000e+00  -6.4668305406981739e-05 -1.0164561184460433e-04 0.0000000000000000e+00  -6.0875689132903712e-05 -9.1630954446339090e-05 0.0000000000000000e+00  -5.6972770881203241e-05 -8.2188580638089292e-05 0.0000000000000000e+00  -5.2995816831535004e-05 -7.3317292829993167e-05 0.0000000000000000e+00  -4.8980686297389099e-05 -6.5010344099311263e-05 0.0000000000000000e+00  -4.4956439001957529e-05 -5.7259306159086779e-05 0.0000000000000000e+00  -4.0949515898029080e-05 -5.0053189119624465e-05 0.0000000000000000e+00  -3.6983488116489639e-05 -4.3379305193409640e-05 0.0000000000000000e+00  -3.3079517413892479e-05 -3.7223448863280589e-05 0.0000000000000000e+00  -2.9257412530638957e-05 -3.1569310815206121e-05 0.0000000000000000e+00  -2.5532625850441759e-05 -2.6401441022399576e-05 0.0000000000000000e+00  -2.1921504171767630e-05 -2.1701406079590189e-05 0.0000000000000000e+00  -1.8437468477900851e-05 -1.7450224731010470e-05 0.0000000000000000e+00  -1.5092754008698381e-05 -1.3628612692206481e-05 0.0000000000000000e+00  -1.1898220381984121e-05 -1.0216087395961904e-05 0.0000000000000000e+00  -8.8639281993860618e-06 -7.1917946533571238e-06 0.0000000000000000e+00  -5.9984543961631551e-06 -4.5333027005945573e-06 0.0000000000000000e+00  -3.3095637630237902e-06 -2.2175786372483408e-06 0.0000000000000000e+00  -8.0417788958363822e-07 -2.2095793199299880e-07 0.0000000000000000e+00  1.5117186484425336e-06 1.4814730519880793e-06 0.0000000000000000e+00  3.6328103160228859e-06 2.9155859970803754e-06 0.0000000000000000e+00  5.5542048906402754e-06 4.1086747558724636e-06 0.0000000000000000e+00  7.2732409569886162e-06 5.0901621238836467e-06 0.0000000000000000e+00  8.7857065499980517e-06 5.8895770183766804e-06 0.0000000000000000e+00  1.0090127571933525e-05 6.5401653424316068e-06 0.0000000000000000e+00  1.1186212534652159e-05 7.0770368789187270e-06 0.0000000000000000e+00  1.2074763654558304e-05 7.5377703908780822e-06 0.0000000000000000e+00  1.2760203978794108e-05 7.9634046364604600e-06 0.0000000000000000e+00  1.3250965693035915e-05 8.3972965863137945e-06 0.0000000000000000e+00  1.3562030213016005e-05 8.8851921310423013e-06 0.0000000000000000e+00  1.3718138432575475e-05 9.4707815677059899e-06 0.0000000000000000e+00  1.3761438140749111e-05 1.0190477389522121e-05 0.0000000000000000e+00  1.3743678357938646e-05 1.1060620973435874e-05 0.0000000000000000e+00  0.0000000000000000e+00 -3.4807833285081845e-04 0.0000000000000000e+00  0.0000000000000000e+00 -3.4902366512473725e-04 0.0000000000000000e+00  0.0000000000000000e+00 -3.4992485514190568e-04 0.0000000000000000e+00  0.0000000000000000e+00 -3.5078231210442472e-04 0.0000000000000000e+00  0.0000000000000000e+00 -3.5159659054487214e-04 0.0000000000000000e+00  0.0000000000000000e+00 -3.5236827736729063e-04 0.0000000000000000e+00  0.0000000000000000e+00 -3.5309799426964380e-04 0.0000000000000000e+00  0.0000000000000000e+00 -3.5378632023583170e-04 0.0000000000000000e+00  0.0000000000000000e+00 -3.5443377619967856e-04 0.0000000000000000e+00  0.0000000000000000e+00 -3.5504078649364906e-04 0.0000000000000000e+00  0.0000000000000000e+00 -3.5560768777263526e-04 0.0000000000000000e+00  0.0000000000000000e+00 -3.5613461799268901e-04 0.0000000000000000e+00  0.0000000000000000e+00 -3.5662168144518511e-04 0.0000000000000000e+00  0.0000000000000000e+00 -3.5706874345375699e-04 0.0000000000000000e+00  0.0000000000000000e+00 -3.5747555352669556e-04 0.0000000000000000e+00  0.0000000000000000e+00 -3.5784181679032219e-04 0.0000000000000000e+00  0.0000000000000000e+00 -3.5816696588292219e-04 0.0000000000000000e+00  0.0000000000000000e+00 -3.5845051848765918e-04 0.0000000000000000e+00  0.0000000000000000e+00 -3.5869184329507761e-04 0.0000000000000000e+00  0.0000000000000000e+00 -3.5889034751597791e-04 0.0000000000000000e+00  0.0000000000000000e+00 -3.5904542272558875e-04 0.0000000000000000e+00  0.0000000000000000e+00 -3.5915660383512108e-04 0.0000000000000000e+00  0.0000000000000000e+00 -3.5922347312431695e-04 0.0000000000000000e+00  0.0000000000000000e+00 -3.5922082409124646e-04 0.0000000000000000e+00  0.0000000000000000e+00 -3.5914597809846773e-04 0.0000000000000000e+00  0.0000000000000000e+00 -3.5902144511583130e-04 0.0000000000000000e+00  0.0000000000000000e+00 -3.5884754735574387e-04 0.0000000000000000e+00  0.0000000000000000e+00 -3.5862474823080673e-04 0.0000000000000000e+00  0.0000000000000000e+00 -3.5835367148283874e-04 0.0000000000000000e+00  0.0000000000000000e+00 -3.5803509005073497e-04 0.0000000000000000e+00  0.0000000000000000e+00 -3.5766998674490775e-04 0.0000000000000000e+00  0.0000000000000000e+00 -3.5725959245288614e-04 0.0000000000000000e+00  0.0000000000000000e+00 -3.5680538340893554e-04 0.0000000000000000e+00  0.0000000000000000e+00 -3.5630917053599008e-04 0.0000000000000000e+00  0.0000000000000000e+00 -3.5577317221260196e-04 0.0000000000000000e+00  0.0000000000000000e+00 -3.5520009176574633e-04 0.0000000000000000e+00  0.0000000000000000e+00 -3.5459330549938122e-04 0.0000000000000000e+00  0.0000000000000000e+00 -3.5395702088312120e-04 0.0000000000000000e+00  0.0000000000000000e+00 -3.5329661757938988e-04 0.0000000000000000e+00  0.0000000000000000e+00 -3.5261902509029034e-04 0.0000000000000000e+00  0.0000000000000000e+00 -3.5193349423557507e-04 0.0000000000000000e+00  0.0000000000000000e+00 -3.5125302864386673e-04 0.0000000000000000e+00  0.0000000000000000e+00 -3.5059628797258686e-04 0.0000000000000000e+00  0.0000000000000000e+00 -3.4999270295588098e-04 0.0000000000000000e+00  0.0000000000000000e+00 -3.4949472534306024e-04 0.0000000000000000e+00  0.0000000000000000e+00 -3.4922846480423361e-04 0.0000000000000000e+00  0.0000000000000000e+00 -3.5152814417953668e-04 0.0000000000000000e+00  0.0000000000000000e+00 -3.5289823605786757e-04 0.0000000000000000e+00  0.0000000000000000e+00 -3.5425450747062924e-04 0.0000000000000000e+00  0.0000000000000000e+00 -3.5564504342588401e-04 0.0000000000000000e+00  0.0000000000000000e+00 -3.5709031309004094e-04 0.0000000000000000e+00  0.0000000000000000e+00 -3.5860271562069759e-04 0.0000000000000000e+00  0.0000000000000000e+00 -3.6019253410814813e-04 0.0000000000000000e+00  0.0000000000000000e+00 -3.6186863799426863e-04 0.0000000000000000e+00  0.0000000000000000e+00 -3.6364064755600571e-04 0.0000000000000000e+00  0.0000000000000000e+00 -3.6551834351288920e-04 0.0000000000000000e+00  0.0000000000000000e+00 -3.6751426311976035e-04 0.0000000000000000e+00  0.0000000000000000e+00 -3.6963967720116732e-04 0.0000000000000000e+00  0.0000000000000000e+00 -3.7191207032199585e-04 0.0000000000000000e+00  0.0000000000000000e+00 -3.7434923553584642e-04 0.0000000000000000e+00  0.0000000000000000e+00 -3.7697552870093534e-04 0.0000000000000000e+00  0.0000000000000000e+00 -3.7981983857935558e-04 0.0000000000000000e+00  0.0000000000000000e+00 -3.8292083160681892e-04 0.0000000000000000e+00  0.0000000000000000e+00 -3.8633316001571275e-04 0.0000000000000000e+00  0.0000000000000000e+00 -3.9013001506625747e-04 0.0000000000000000e+00  0.0000000000000000e+00 -3.9442310446923510e-04 0.0000000000000000e+00  0.0000000000000000e+00 -3.9940277696418617e-04 0.0000000000000000e+00  0.0000000000000000e+00 -4.0540437134231182e-04 0.0000000000000000e+00  0.0000000000000000e+00 -4.1345506672512973e-04 0.0000000000000000e+00  -2.8883301803446781e-05 -4.8572484776857001e-04 0.0000000000000000e+00  -3.4375328513861874e-05 -5.2028470163054531e-04 0.0000000000000000e+00  -3.7050832711933898e-05 -5.4727443410760256e-04 0.0000000000000000e+00  -3.8246156270600551e-05 -5.7015459818563830e-04 0.0000000000000000e+00  -3.8493337674541675e-05 -5.9011774861845957e-04 0.0000000000000000e+00  -3.8139009330926265e-05 -6.0782981310210555e-04 0.0000000000000000e+00  -3.7347821718109280e-05 -6.2370225657452840e-04 0.0000000000000000e+00  -3.6221236770719598e-05 -6.3801169564047552e-04 0.0000000000000000e+00  -3.4834315195262630e-05 -6.5095672589037738e-04 0.0000000000000000e+00  -3.3237919578326532e-05 -6.6268650859523950e-04 0.0000000000000000e+00  -3.1471448639353299e-05 -6.7331595398068466e-04 0.0000000000000000e+00  -2.9564349633315914e-05 -6.8293531296717471e-04 0.0000000000000000e+00  -2.7539824349699740e-05 -6.9161720367819221e-04 0.0000000000000000e+00  -2.5416030566082734e-05 -6.9942002642403719e-04 0.0000000000000000e+00  -2.3208810100930120e-05 -7.0639236272153534e-04 0.0000000000000000e+00  -2.0932006523032737e-05 -7.1257412227564989e-04 0.0000000000000000e+00  -1.8594916937276336e-05 -7.1799748382741168e-04 0.0000000000000000e+00  -1.6207969240228742e-05 -7.2269015588019223e-04 0.0000000000000000e+00  -1.3780131858445353e-05 -7.2667485235420530e-04 0.0000000000000000e+00  -1.1318425357349094e-05 -7.2996950469248042e-04 0.0000000000000000e+00  -8.8303653751837558e-06 -7.3258859113886068e-04 0.0000000000000000e+00  -6.3214044758470147e-06 -7.3454330913999685e-04 0.0000000000000000e+00  -3.7984521268743594e-06 -7.3584211580288075e-04 0.0000000000000000e+00  -1.2674599220020390e-06 -7.3649016105720589e-04 0.0000000000000000e+00  1.2670147395666101e-06 -7.3649016584127075e-04 0.0000000000000000e+00  3.7984504412674475e-06 -7.3584215858371669e-04 0.0000000000000000e+00  6.3209556066772708e-06 -7.3454336631965705e-04 0.0000000000000000e+00  8.8299229274345904e-06 -7.3258857129320832e-04 0.0000000000000000e+00  1.1318148741704704e-05 -7.2996952695536456e-04 0.0000000000000000e+00  1.3779935220679544e-05 -7.2667509115350388e-04 0.0000000000000000e+00  1.6207413564308297e-05 -7.2269038491632549e-04 0.0000000000000000e+00  1.8594999072702110e-05 -7.1799768755853306e-04 0.0000000000000000e+00  2.0931013647905600e-05 -7.1257400166701776e-04 0.0000000000000000e+00  2.3208617564150733e-05 -7.0639237291277577e-04 0.0000000000000000e+00  2.5415601882073945e-05 -6.9941975604322093e-04 0.0000000000000000e+00  2.7539096106505182e-05 -6.9161691002827120e-04 0.0000000000000000e+00  2.9564247671751187e-05 -6.8293574349003350e-04 0.0000000000000000e+00  3.1472625173095942e-05 -6.7331707425913052e-04 0.0000000000000000e+00  3.3236804155617711e-05 -6.6268643066289326e-04 0.0000000000000000e+00  3.4832708320329176e-05 -6.5095621244892212e-04 0.0000000000000000e+00  3.6221389980465914e-05 -6.3801181274880767e-04 0.0000000000000000e+00  3.7347713670082164e-05 -6.2370267753064071e-04 0.0000000000000000e+00  3.8140982564732184e-05 -6.0782987646006332e-04 0.0000000000000000e+00  3.8488809027733689e-05 -5.9011225328180900e-04 0.0000000000000000e+00  3.8232269628153201e-05 -5.7014608773616913e-04 0.0000000000000000e+00  3.7060321381690751e-05 -5.4726921827833483e-04 0.0000000000000000e+00  3.4402639104379872e-05 -5.2024919383763960e-04 0.0000000000000000e+00  2.8790041271471857e-05 -4