<?xml version="1.0"?>
<VTKFile type="UnstructuredGrid"  version="0.1"  >
<UnstructuredGrid>
<Piece  NumberOfPoints="1250" NumberOfCells="2352">
<Points>
<DataArray  type="Float64"  NumberOfComponents="3"  format="ascii">0 0 0  0.0336 0 0  0.0336 0.07729999999999999 0  0 0.07729999999999999 0  0.001400000000000002 0 0  0.002800000000000005 0 0  0.004200000000000008 0 0  0.005600000000000009 0 0  0.007000000000000011 0 0  0.008400000000000013 0 0  0.009800000000000019 0 0  0.01120000000000002 0 0  0.01260000000000003 0 0  0.01400000000000003 0 0  0.01540000000000004 0 0  0.01680000000000005 0 0  0.01820000000000004 0 0  0.01960000000000004 0 0  0.02100000000000004 0 0  0.02240000000000003 0 0  0.02380000000000003 0 0  0.02520000000000002 0 0  0.02660000000000002 0 0  0.02800000000000001 0 0  0.02940000000000001 0 0  0.03080000000000001 0 0  0.0322 0 0  0.0336 0.001577551020408161 0  0.0336 0.003155102040816321 0  0.0336 0.004732653061224482 0  0.0336 0.006310204081632642 0  0.0336 0.007887755102040803 0  0.0336 0.009465306122448964 0  0.0336 0.01104285714285712 0  0.0336 0.01262040816326528 0  0.0336 0.01419795918367344 0  0.0336 0.0157755102040816 0  0.0336 0.01735306122448976 0  0.0336 0.01893061224489792 0  0.0336 0.02050816326530608 0  0.0336 0.02208571428571425 0  0.0336 0.02366326530612241 0  0.0336 0.02524081632653058 0  0.0336 0.02681836734693874 0  0.0336 0.02839591836734691 0  0.0336 0.02997346938775507 0  0.0336 0.03155102040816323 0  0.0336 0.0331285714285714 0  0.0336 0.03470612244897956 0  0.0336 0.03628367346938772 0  0.0336 0.03786122448979588 0  0.0336 0.03943877551020405 0  0.0336 0.04101632653061221 0  0.0336 0.04259387755102037 0  0.0336 0.04417142857142854 0  0.0336 0.04574897959183671 0  0.0336 0.04732653061224486 0  0.0336 0.04890408163265302 0  0.0336 0.05048163265306119 0  0.0336 0.05205918367346936 0  0.0336 0.05363673469387752 0  0.0336 0.05521428571428568 0  0.0336 0.05679183673469385 0  0.0336 0.05836938775510202 0  0.0336 0.05994693877551018 0  0.0336 0.06152448979591834 0  0.0336 0.0631020408163265 0  0.0336 0.06467959183673468 0  0.0336 0.06625714285714283 0  0.0336 0.06783469387755101 0  0.0336 0.06941224489795916 0  0.0336 0.07098979591836733 0  0.0336 0.07256734693877549 0  0.0336 0.07414489795918365 0  0.0336 0.07572244897959182 0  0.03219999999999999 0.07729999999999999 0  0.03079999999999999 0.07729999999999999 0  0.02939999999999999 0.07729999999999999 0  0.02799999999999999 0.07729999999999999 0  0.02659999999999999 0.07729999999999999 0  0.02519999999999999 0.07729999999999999 0  0.02379999999999998 0.07729999999999999 0  0.02239999999999998 0.07729999999999999 0  0.02099999999999997 0.07729999999999999 0  0.01959999999999996 0.07729999999999999 0  0.01819999999999996 0.07729999999999999 0  0.01679999999999995 0.07729999999999999 0  0.01539999999999996 0.07729999999999999 0  0.01399999999999996 0.07729999999999999 0  0.01259999999999996 0.07729999999999999 0  0.01119999999999997 0.07729999999999999 0  0.009799999999999972 0.07729999999999999 0  0.008399999999999977 0.07729999999999999 0  0.006999999999999978 0.07729999999999999 0  0.005599999999999983 0.07729999999999999 0  0.004199999999999988 0.07729999999999999 0  0.00279999999999999 0.07729999999999999 0  0.001399999999999998 0.07729999999999999 0  0 0.07572244897959184 0  0 0.07414489795918368 0  0 0.07256734693877551 0  0 0.07098979591836735 0  0 0.06941224489795919 0  0 0.06783469387755103 0  0 0.06625714285714288 0  0 0.06467959183673472 0  0 0.06310204081632656 0  0 0.0615244897959184 0  0 0.05994693877551023 0  0 0.05836938775510207 0  0 0.05679183673469392 0  0 0.05521428571428574 0  0 0.05363673469387759 0  0 0.05205918367346941 0  0 0.05048163265306126 0  0 0.04890408163265308 0  0 0.04732653061224493 0  0 0.04574897959183676 0  0 0.0441714285714286 0  0 0.04259387755102043 0  0 0.04101632653061228 0  0 0.03943877551020411 0  0 0.03786122448979595 0  0 0.03628367346938779 0  0 0.03470612244897962 0  0 0.03312857142857146 0  0 0.03155102040816329 0  0 0.02997346938775513 0  0 0.02839591836734697 0  0 0.0268183673469388 0  0 0.02524081632653064 0  0 0.02366326530612247 0  0 0.02208571428571431 0  0 0.02050816326530614 0  0 0.01893061224489798 0  0 0.01735306122448981 0  0 0.01577551020408165 0  0 0.01419795918367349 0  0 0.01262040816326532 0  0 0.01104285714285716 0  0 0.009465306122448988 0  0 0.00788775510204083 0  0 0.006310204081632659 0  0 0.004732653061224501 0  0 0.003155102040816343 0  0 0.001577551020408172 0  0.001400000000000004 0.001577551020408172 0  0.001400000000000004 0.003155102040816329 0  0.001400000000000002 0.004732653061224501 0  0.001400000000000002 0.006310204081632645 0  0.001400000000000005 0.007887755102040823 0  0.001400000000000002 0.009465306122448981 0  0.001400000000000002 0.01104285714285717 0  0.001400000000000004 0.01262040816326531 0  0.0014 0.01419795918367349 0  0.001400000000000002 0.01577551020408166 0  0.001400000000000005 0.0173530612244898 0  0.001400000000000002 0.01893061224489797 0  0.001400000000000002 0.02050816326530613 0  0.001400000000000002 0.02208571428571431 0  0.001400000000000002 0.02366326530612247 0  0.001400000000000002 0.02524081632653063 0  0.001400000000000002 0.0268183673469388 0  0.001400000000000002 0.02839591836734696 0  0.001400000000000002 0.02997346938775513 0  0.001400000000000002 0.03155102040816328 0  0.001400000000000002 0.03312857142857147 0  0.001399999999999997 0.03470612244897962 0  0.001400000000000005 0.03628367346938778 0  0.001400000000000002 0.03786122448979594 0  0.001400000000000002 0.03943877551020411 0  0.001400000000000002 0.04101632653061228 0  0.001400000000000002 0.04259387755102043 0  0.001400000000000002 0.0441714285714286 0  0.0014 0.04574897959183676 0  0.001400000000000002 0.04732653061224492 0  0.001400000000000004 0.04890408163265308 0  0.001400000000000002 0.05048163265306126 0  0.001400000000000002 0.05205918367346941 0  0.0014 0.05363673469387758 0  0.001400000000000004 0.05521428571428574 0  0.001399999999999998 0.05679183673469391 0  0.001400000000000002 0.05836938775510207 0  0.0014 0.05994693877551023 0  0.001400000000000002 0.0615244897959184 0  0.001400000000000002 0.06310204081632656 0  0.001400000000000002 0.06467959183673472 0  0.0014 0.06625714285714286 0  0.001400000000000002 0.06783469387755102 0  0.001399999999999998 0.06941224489795919 0  0.001400000000000002 0.07098979591836735 0  0.0014 0.07256734693877552 0  0.001400000000000002 0.07414489795918368 0  0.001400000000000002 0.07572244897959184 0  0.002800000000000006 0.001577551020408165 0  0.002800000000000004 0.003155102040816343 0  0.002800000000000002 0.004732653061224487 0  0.002800000000000002 0.006310204081632652 0  0.002800000000000002 0.007887755102040813 0  0.0028 0.009465306122448981 0  0.002799999999999997 0.01104285714285715 0  0.0028 0.01262040816326532 0  0.0028 0.01419795918367348 0  0.0028 0.01577551020408165 0  0.002799999999999997 0.0173530612244898 0  0.0028 0.01893061224489797 0  0.002800000000000004 0.02050816326530613 0  0.0028 0.0220857142857143 0  0.0028 0.02366326530612247 0  0.002800000000000004 0.02524081632653064 0  0.0028 0.0268183673469388 0  0.0028 0.02839591836734696 0  0.002799999999999995 0.02997346938775512 0  0.002799999999999997 0.03155102040816328 0  0.002799999999999995 0.03312857142857146 0  0.0028 0.03470612244897962 0  0.002799999999999995 0.03628367346938778 0  0.002799999999999997 0.03786122448979594 0  0.002799999999999997 0.03943877551020411 0  0.002799999999999997 0.04101632653061228 0  0.002799999999999997 0.04259387755102043 0  0.002799999999999995 0.0441714285714286 0  0.002799999999999997 0.04574897959183676 0  0.002799999999999997 0.04732653061224493 0  0.002799999999999995 0.04890408163265308 0  0.002799999999999993 0.05048163265306124 0  0.002799999999999995 0.05205918367346941 0  0.002799999999999995 0.05363673469387757 0  0.002799999999999992 0.05521428571428574 0  0.002799999999999997 0.05679183673469391 0  0.002799999999999993 0.05836938775510207 0  0.002799999999999993 0.05994693877551022 0  0.002799999999999992 0.0615244897959184 0  0.002799999999999988 0.06310204081632655 0  0.002799999999999992 0.0646795918367347 0  0.002799999999999992 0.06625714285714286 0  0.00279999999999999 0.06783469387755103 0  0.00279999999999999 0.06941224489795919 0  0.002799999999999988 0.07098979591836735 0  0.00279999999999999 0.07256734693877552 0  0.002799999999999988 0.07414489795918368 0  0.00279999999999999 0.07572244897959184 0  0.004200000000000006 0.001577551020408172 0  0.004200000000000006 0.003155102040816329 0  0.004200000000000008 0.00473265306122448 0  0.004200000000000009 0.006310204081632652 0  0.004200000000000008 0.00788775510204082 0  0.004200000000000008 0.009465306122448978 0  0.004200000000000006 0.01104285714285716 0  0.004200000000000006 0.01262040816326532 0  0.004200000000000004 0.01419795918367349 0  0.004200000000000002 0.01577551020408165 0  0.004200000000000004 0.0173530612244898 0  0.004200000000000006 0.01893061224489797 0  0.004200000000000006 0.02050816326530613 0  0.004200000000000002 0.0220857142857143 0  0.004200000000000004 0.02366326530612247 0  0.004199999999999999 0.02524081632653062 0  0.004200000000000004 0.0268183673469388 0  0.004200000000000004 0.02839591836734696 0  0.004200000000000002 0.02997346938775512 0  0.004199999999999999 0.03155102040816328 0  0.004200000000000001 0.03312857142857145 0  0.004200000000000001 0.03470612244897962 0  0.004199999999999995 0.03628367346938778 0  0.004199999999999999 0.03786122448979594 0  0.004199999999999999 0.0394387755102041 0  0.004199999999999997 0.04101632653061227 0  0.004199999999999999 0.04259387755102043 0  0.004199999999999999 0.04417142857142859 0  0.004199999999999999 0.04574897959183676 0  0.004199999999999999 0.04732653061224492 0  0.004199999999999997 0.04890408163265308 0  0.004199999999999997 0.05048163265306124 0  0.004199999999999999 0.05205918367346941 0  0.004199999999999992 0.05363673469387757 0  0.0
[...]
<PointData  Vectors="displacement"> 
<DataArray  type="Float64"  Name="displacement"  NumberOfComponents="3" format="ascii">0.0000000000000000e+00 0.0000000000000000e+00 0.0000000000000000e+00  0.0000000000000000e+00 0.0000000000000000e+00 0.0000000000000000e+00  7.9269681077055168e-04 -6.6309458279214493e-03 0.0000000000000000e+00  -7.8450840930262083e-04 -6.6293588178798603e-03 0.0000000000000000e+00  0.0000000000000000e+00 0.0000000000000000e+00 0.0000000000000000e+00  0.0000000000000000e+00 0.0000000000000000e+00 0.0000000000000000e+00  0.0000000000000000e+00 0.0000000000000000e+00 0.0000000000000000e+00  0.0000000000000000e+00 0.0000000000000000e+00 0.0000000000000000e+00  0.0000000000000000e+00 0.0000000000000000e+00 0.0000000000000000e+00  0.0000000000000000e+00 0.0000000000000000e+00 0.0000000000000000e+00  0.0000000000000000e+00 0.0000000000000000e+00 0.0000000000000000e+00  0.0000000000000000e+00 0.0000000000000000e+00 0.0000000000000000e+00  0.0000000000000000e+00 0.0000000000000000e+00 0.0000000000000000e+00  0.0000000000000000e+00 0.0000000000000000e+00 0.0000000000000000e+00  0.0000000000000000e+00 0.0000000000000000e+00 0.0000000000000000e+00  0.0000000000000000e+00 0.0000000000000000e+00 0.0000000000000000e+00  0.0000000000000000e+00 0.0000000000000000e+00 0.0000000000000000e+00  0.0000000000000000e+00 0.0000000000000000e+00 0.0000000000000000e+00  0.0000000000000000e+00 0.0000000000000000e+00 0.0000000000000000e+00  0.0000000000000000e+00 0.0000000000000000e+00 0.0000000000000000e+00  0.0000000000000000e+00 0.0000000000000000e+00 0.0000000000000000e+00  0.0000000000000000e+00 0.0000000000000000e+00 0.0000000000000000e+00  0.0000000000000000e+00 0.0000000000000000e+00 0.0000000000000000e+00  0.0000000000000000e+00 0.0000000000000000e+00 0.0000000000000000e+00  0.0000000000000000e+00 0.0000000000000000e+00 0.0000000000000000e+00  0.0000000000000000e+00 0.0000000000000000e+00 0.0000000000000000e+00  0.0000000000000000e+00 0.0000000000000000e+00 0.0000000000000000e+00  2.5747956896315222e-04 -2.3554322018845685e-04 0.0000000000000000e+00  3.9953082816195963e-04 -3.7825612597597584e-04 0.0000000000000000e+00  4.9954553606850502e-04 -5.0371594793176375e-04 0.0000000000000000e+00  5.7456207605990027e-04 -6.2306580906435264e-04 0.0000000000000000e+00  6.3194540048464856e-04 -7.4018319477094660e-04 0.0000000000000000e+00  6.7602518596891932e-04 -8.5708915071055548e-04 0.0000000000000000e+00  7.0980936245567479e-04 -9.7488845682555973e-04 0.0000000000000000e+00  7.3553337182168945e-04 -1.0941714767316760e-03 0.0000000000000000e+00  7.5492042869276126e-04 -1.2152260405071857e-03 0.0000000000000000e+00  7.6932855538290525e-04 -1.3381540966239495e-03 0.0000000000000000e+00  7.7984129371257290e-04 -1.4629408452657303e-03 0.0000000000000000e+00  7.8732804573165957e-04 -1.5894986608261117e-03 0.0000000000000000e+00  7.9248699078558846e-04 -1.7176963941109770e-03 0.0000000000000000e+00  7.9587735066040085e-04 -1.8473794820189279e-03 0.0000000000000000e+00  7.9794470628102843e-04 -1.9783838879308948e-03 0.0000000000000000e+00  7.9904147569526455e-04 -2.1105456970951560e-03 0.0000000000000000e+00  7.9944380568828621e-04 -2.2437075547287002e-03 0.0000000000000000e+00  7.9936565765097341e-04 -2.3777227736370577e-03 0.0000000000000000e+00  7.9897060514532803e-04 -2.5124577176644375e-03 0.0000000000000000e+00  7.9838171193806452e-04 -2.6477929212593500e-03 0.0000000000000000e+00  7.9768977351735431e-04 -2.7836233010633043e-03 0.0000000000000000e+00  7.9696015350139366e-04 -2.9198577361656038e-03 0.0000000000000000e+00  7.9623841285325126e-04 -3.0564182310453959e-03 0.0000000000000000e+00  7.9555490563969580e-04 -3.1932388247439213e-03 0.0000000000000000e+00  7.9492849555832081e-04 -3.3302643688991138e-03 0.0000000000000000e+00  7.9436953029315082e-04 -3.4674492642655453e-03 0.0000000000000000e+00  7.9388219491430257e-04 -3.6047562189964631e-03 0.0000000000000000e+00  7.9346635065091894e-04 -3.7421550712543276e-03 0.0000000000000000e+00  7.9311895139321583e-04 -3.8796217027382701e-03 0.0000000000000000e+00  7.9283511729536719e-04 -4.0171370576619946e-03 0.0000000000000000e+00  7.9260893295308890e-04 -4.1546862728633798e-03 0.0000000000000000e+00  7.9243402688988860e-04 -4.2922579184444956e-03 0.0000000000000000e+00  7.9230397953426008e-04 -4.4298433440838917e-03 0.0000000000000000e+00  7.9221259849493377e-04 -4.5674361234720766e-03 0.0000000000000000e+00  7.9215409269641195e-04 -4.7050315878167251e-03 0.0000000000000000e+00  7.9212317075105809e-04 -4.8426264387388205e-03 0.0000000000000000e+00  7.9211508373091448e-04 -4.9802184308920085e-03 0.0000000000000000e+00  7.9212562817120079e-04 -5.1178061150988436e-03 0.0000000000000000e+00  7.9215112160184594e-04 -5.2553886335719993e-03 0.0000000000000000e+00  7.9218836009330542e-04 -5.3929655597832731e-03 0.0000000000000000e+00  7.9223456517990673e-04 -5.5305367767039537e-03 0.0000000000000000e+00  7.9228732610984987e-04 -5.6681023884506089e-03 0.0000000000000000e+00  7.9234454280269141e-04 -5.8056626618489936e-03 0.0000000000000000e+00  7.9240437554975560e-04 -5.9432179961222478e-03 0.0000000000000000e+00  7.9246521028201501e-04 -6.0807689208667417e-03 0.0000000000000000e+00  7.9252565547724288e-04 -6.2183161246808453e-03 0.0000000000000000e+00  7.9258460590291284e-04 -6.3558605178601780e-03 0.0000000000000000e+00  7.9264147052193811e-04 -6.4934033115748415e-03 0.0000000000000000e+00  7.2697067832543257e-04 -6.6308969966789779e-03 0.0000000000000000e+00  6.6124466402317148e-04 -6.6308492319339437e-03 0.0000000000000000e+00  5.9551966543119764e-04 -6.6308030721828051e-03 0.0000000000000000e+00  5.2979652404331582e-04 -6.6307581587577158e-03 0.0000000000000000e+00  4.6407578030508025e-04 -6.6307137213097549e-03 0.0000000000000000e+00  3.9835768723698087e-04 -6.6306688318217236e-03 0.0000000000000000e+00  3.3264225745296278e-04 -6.6306225421324753e-03 0.0000000000000000e+00  2.6692931012889718e-04 -6.6305739664548500e-03 0.0000000000000000e+00  2.0121851343385928e-04 -6.6305223331837651e-03 0.0000000000000000e+00  1.3550942204077003e-04 -6.6304670176100143e-03 0.0000000000000000e+00  6.9801510066198647e-05 -6.6304075621474497e-03 0.0000000000000000e+00  4.0942002003764727e-06 -6.6303436882189917e-03 0.0000000000000000e+00  -6.1613109889948630e-05 -6.6302753024196810e-03 0.0000000000000000e+00  -1.2732102257854072e-04 -6.6302024984275744e-03 0.0000000000000000e+00  -1.9303011529353022e-04 -6.6301255551394749e-03 0.0000000000000000e+00  -2.5874091410551853e-04 -6.6300449305558796e-03 0.0000000000000000e+00  -3.2445386458336355e-04 -6.6299612499454421e-03 0.0000000000000000e+00  -3.9016929883692151e-04 -6.6298752856699325e-03 0.0000000000000000e+00  -4.5588739799062872e-04 -6.6297879245086049e-03 0.0000000000000000e+00  -5.2160814975103222e-04 -6.6297001157875641e-03 0.0000000000000000e+00  -5.8733130145347976e-04 -6.6296127883284390e-03 0.0000000000000000e+00  -6.5305631255207065e-04 -6.6295267107830446e-03 0.0000000000000000e+00  -7.1878233606280557e-04 -6.6294422367047150e-03 0.0000000000000000e+00  -7.8460210590854769e-04 -6.4918162554645688e-03 0.0000000000000000e+00  -7.8469427811813861e-04 -6.3542734705687495e-03 0.0000000000000000e+00  -7.8478437276916369e-04 -6.2167290836123530e-03 0.0000000000000000e+00  -7.8487296934057562e-04 -6.0791818840152251e-03 0.0000000000000000e+00  -7.8496117233200862e-04 -5.9416309621222107e-03 0.0000000000000000e+00  -7.8505037507857695e-04 -5.8040756299371499e-03 0.0000000000000000e+00  -7.8514219308682730e-04 -5.6665153583931446e-03 0.0000000000000000e+00  -7.8523846689532953e-04 -5.5289497487391558e-03 0.0000000000000000e+00  -7.8534129693412296e-04 -5.3913785346015606e-03 0.0000000000000000e+00  -7.8545309392778989e-04 -5.2538016123337122e-03 0.0000000000000000e+00  -7.8557663598482499e-04 -5.1162190994848995e-03 0.0000000000000000e+00  -7.8571512634875024e-04 -4.9786314231843867e-03 0.0000000000000000e+00  -7.8587224644133952e-04 -4.8410394419303553e-03 0.0000000000000000e+00  -7.8605219825586461e-04 -4.7034446057521761e-03 0.0000000000000000e+00  -7.8625972874061026e-04 -4.5658491610247876e-03 0.0000000000000000e+00  -7.8650012668759312e-04 -4.4282564073751893e-03 0.0000000000000000e+00  -7.8677917982955905e-04 -4.2906710151165706e-03 0.0000000000000000e+00  -7.8710307631114213e-04 -4.1530994124212997e-03 0.0000000000000000e+00  -7.8747823036717942e-04 -4.0155502519072742e-03 0.0000000000000000e+00  -7.8791100682543038e-04 -3.8780349663256044e-03 0.0000000000000000e+00  -7.8840731286108998e-04 -3.7405684224157227e-03 0.0000000000000000e+00  -7.8897201817925962e-04 -3.6031696804934722e-03 0.0000000000000000e+00  -7.8960815641667629e-04 -3.4658628646517240e-03 0.0000000000000000e+00  -7.9031585098700177e-04 -3.3286781442011873e-03 0.0000000000000000e+00  -7.9109089783142188e-04 -3.1916528207016036e-03 0.0000000000000000e+00  -7.9192292560464330e-04 -3.0548325060843502e-03 0.0000000000000000e+00  -7.9279304079323985e-04 -2.9182723653123910e-03 0.0000000000000000e+00  -7.9367085122004964e-04 -2.7820383810375866e-03 0.0000000000000000e+00  -7.9451074640384868e-04 -2.6462085769846603e-03 0.0000000000000000e+00  -7.9524729726311474e-04 -2.5108741104032024e-03 0.0000000000000000e+00  -7.9578962030236111e-04 -2.3761401108453612e-03 0.0000000000000000e+00  -7.9601453165315374e-04 -2.2421261014912452e-03 0.0000000000000000e+00  -7.9575829182059919e-04 -2.1089657885666837e-03 0.0000000000000000e+00  -7.9480670801911144e-04 -1.9768059414675375e-03 0.0000000000000000e+00  -7.9288330871442531e-04 -1.8458040064719852e-03 0.0000000000000000e+00  -7.8963521828546328e-04 -1.7161239918392528e-03 0.0000000000000000e+00  -7.8461620965364451e-04 -1.5879300150034911e-03 0.0000000000000000e+00  -7.7726614747164263e-04 -1.4613766804659756e-03 0.0000000000000000e+00  -7.6688555975162984e-04 -1.3365950936080149e-03 0.0000000000000000e+00  -7.5260321479653745e-04 -1.2136726754156631e-03 0.0000000000000000e+00  -7.3333298537152239e-04 -1.0926237391292396e-03 0.0000000000000000e+00  -7.0771323025415071e-04 -9.7334537916859368e-04 0.0000000000000000e+00  -6.7401584924285825e-04 -8.5554805985631633e-04 0.0000000000000000e+00  -6.2999970380028412e-04 -7.3863877551622243e-04 0.0000000000000000e+00  -5.7265539776014073e-04 -6.2151186471164598e-04 0.0000000000000000e+00  -4.9768776812291512e-04 -5.0216945275994510e-04 0.0000000000000000e+00  -3.9792207304061315e-04 -3.7677403346450132e-04 0.0000000000000000e+00  -2.5637984887499579e-04 -2.3226771941172014e-04 0.0000000000000000e+00  -1.8038794210635341e-04 -1.3845089189911446e-04 0.0000000000000000e+00  -3.2968210037174979e-04 -2.9201322465865370e-04 0.0000000000000000e+00  -4.3565831675016864e-04 -4.3396245324387806e-04 0.0000000000000000e+00  -5.1339794141868060e-04 -5.6703543355904188e-04 0.0000000000000000e+00  -5.7183566537572471e-04 -6.9529397455027028e-04 0.0000000000000000e+00  -6.1609298693794375e-04 -8.2124152970335768e-04 0.0000000000000000e+00  -6.4955767722476741e-04 -9.4637295555269427e-04 0.0000000000000000e+00  -6.7467845456017721e-04 -1.0715925833682791e-03 0.0000000000000000e+00  -6.9330963227007541e-04 -1.1974398050092711e-03 0.0000000000000000e+00  -7.0689301254818590e-04 -1.3242195840180221e-03 0.0000000000000000e+00  -7.1656636137339439e-04 -1.4520831312242384e-03 0.0000000000000000e+00  -7.2323386637954828e-04 -1.5810802103256346e-03 0.0000000000000000e+00  -7.2761525799990446e-04 -1.7111943207893522e-03 0.0000000000000000e+00  -7.3028212004935280e-04 -1.8423669875824247e-03 0.0000000000000000e+00  -7.3168597919600730e-04 -1.9745147792722120e-03 0.0000000000000000e+00  -7.3218075456092679e-04 -2.1075412731393138e-03 0.0000000000000000e+00  -7.3204108459833995e-04 -2.2413454019209276e-03 0.0000000000000000e+00  -7.3147746967563109e-04 -2.3758271586327142e-03 0.0000000000000000e+00  -7.3064884813023561e-04 -2.5108913541690855e-03 0.0000000000000000e+00  -7.2967304273986885e-04 -2.6464499391924494e-03 0.0000000000000000e+00  -7.2863540978910406e-04 -2.7824232758287414e-03 0.0000000000000000e+00  -7.2759595930412153e-04 -2.9187406535239892e-03 0.0000000000000000e+00  -7.2659517334426420e-04 -3.0553402747458209e-03 0.0000000000000000e+00  -7.2565871905502452e-04 -3.1921688830293536e-03 0.0000000000000000e+00  -7.2480122900776551e-04 -3.3291811640163531e-03 0.0000000000000000e+00  -7.2402930042808167e-04 -3.4663390169983464e-03 0.0000000000000000e+00  -7.2334384598498756e-04 -3.6036107682645242e-03 0.0000000000000000e+00  -7.2274191138256387e-04 -3.7409703769597045e-03 0.0000000000000000e+00  -7.2221805893145417e-04 -3.8783966681459050e-03 0.0000000000000000e+00  -7.2176540159017526e-04 -4.0158726154895753e-03 0.0000000000000000e+00  -7.2137635869718667e-04 -4.1533846867581664e-03 0.0000000000000000e+00  -7.2104319278591688e-04 -4.2909222585091472e-03 0.0000000000000000e+00  -7.2075837647181602e-04 -4.4284771014896172e-03 0.0000000000000000e+00  -7.2051482937050490e-04 -4.5660429349166729e-03 0.0000000000000000e+00  -7.2030605726655357e-04 -4.7036150456315875e-03 0.0000000000000000e+00  -7.2012621920021524e-04 -4.8411899668328560e-03 0.0000000000000000e+00  -7.1997014266076082e-04 -4.9787652104678684e-03 0.0000000000000000e+00  -7.1983330255531882e-04 -5.1163390472214101e-03 0.0000000000000000e+00  -7.1971177595505156e-04 -5.2539103282428943e-03 0.0000000000000000e+00  -7.1960218171946084e-04 -5.3914783431950070e-03 0.0000000000000000e+00  -7.1950161191346943e-04 -5.5290427098006320e-03 0.0000000000000000e+00  -7.1940756047532721e-04 -5.6666032907356830e-03 0.0000000000000000e+00  -7.1931785400989538e-04 -5.8041601343716007e-03 0.0000000000000000e+00  -7.1923059029604974e-04 -5.9417134363487214e-03 0.0000000000000000e+00  -7.1914409321883230e-04 -6.0792635188816838e-03 0.0000000000000000e+00  -7.1905690131821855e-04 -6.2168108230573798e-03 0.0000000000000000e+00  -7.1896782853756304e-04 -6.3543559043863860e-03 0.0000000000000000e+00  -7.1887618360204732e-04 -6.4918994238725904e-03 0.0000000000000000e+00  -1.3884865010025389e-04 -1.1283993648000015e-04 0.0000000000000000e+00  -2.6951066789389832e-04 -2.4676571375924244e-04 0.0000000000000000e+00  -3.7303572688839645e-04 -3.8585597028719770e-04 0.0000000000000000e+00  -4.5147119838547374e-04 -5.2283979710801261e-04 0.0000000000000000e+00  -5.1065999634453119e-04 -6.5686157047353843e-04 0.0000000000000000e+00  -5.5530653256903367e-04 -7.8871227461205879e-04 0.0000000000000000e+00  -5.8883666790179011e-04 -9.1930221272410525e-04 0.0000000000000000e+00  -6.1379132768129261e-04 -1.0493508264567239e-03 0.0000000000000000e+00  -6.3210690796573115e-04 -1.1793678135406018e-03 0.0000000000000000e+00  -6.4528838118977283e-04 -1.3096912615832058e-03 0.0000000000000000e+00  -6.5451944505958727e-04 -1.4405299803279875e-03 0.0000000000000000e+00  -6.6073645818495643e-04 -1.5719989621796090e-03 0.0000000000000000e+00  -6.6468082704054224e-04 -1.7041468952374338e-03 0.0000000000000000e+00  -6.6693797747438836e-04 -1.8369769148571054e-03 0.0000000000000000e+00  -6.6796752241508471e-04 -1.9704620397137836e-03 0.0000000000000000e+00  -6.6812731175631154e-04 -2.1045565287083541e-03 0.0000000000000000e+00  -6.6769298342340836e-04 -2.2392041293750596e-03 0.0000000000000000e+00  -6.6687403660134253e-04 -2.3743439636339778e-03 0.0000000000000000e+00  -6.6582710912267478e-04 -2.5099146234013789e-03 0.0000000000000000e+00  -6.6466694586573725e-04 -2.6458569175540013e-03 0.0000000000000000e+00  -6.6347542955155151e-04 -2.7821156121776683e-03 0.0000000000000000e+00  -6.6230897363905026e-04 -2.9186404293697218e-03 0.0000000000000000e+00  -6.6120452909094064e-04 -3.0553865100639579e-03 0.0000000000000000e+00  -6.6018442164762704e-04 -3.1923144992429624e-03 0.0000000000000000e+00  -6.5926020806543668e-04 -3.3293903746001020e-03 0.0000000000000000e+00  -6.5843571558021831e-04 -3.4665851101369858e-03 0.0000000000000000e+00  -6.5770940724168365e-04 -3.6038742427893658e-03 0.0000000000000000e+00  -6.5707619613072986e-04 -3.7412373917740009e-03 0.0000000000000000e+00  -6.5652881361085086e-04 -3.8786577659940579e-03 0.0000000000000000e+00  -6.5605882062239030e-04 -4.0161216837611841e-03 0.0000000000000000e+00  -6.5565733659259443e-04 -4.1536181206540904e-03 0.0000000000000000e+00  -6.5531554778012460e-04 -4.2911382950122853e-03 0.0000000000000000e+00  -6.5502504574448052e-04 -4.4286752959238817e-03 0.0000000000000000e+00  -6.5477803704035609e-04 -4.5662237552501076e-03 0.0000000000000000e+00  -6.5456745707126744e-04 -4.7037795629411520e-03 0.0000000000000000e+00  -6.5438701416607552e-04 -4.8413396233987441e-03 0.0000000000000000e+00  -6.5423118423086713e-04 -4.9789016497358606e-03 0.0000000000000000e+00  -6.5409517164381477e-04 -5.1164639923174651e-03 0.0000000000000000e+00  -6.5397484828158103e-04 -5.2540254978118784e-03 0.0000000000000000e+00  -6.5386667959467016e-04 -5.3915853950376050e-03 0.0000000000000000e+00  -6.5376764442695644e-04 -5.5291432040664472e-03 0.0000000000000000e+00  -6.5367515381006087e-04 -5.6666986652575881e-03 0.0000000000000000e+00  -6.5358697338800621e-04 -5.8042516850652388e-03 0.0000000000000000e+00  -6.5350115480773934e-04 -5.9418022955158439e-03 0.0000000000000000e+00  -6.5341598415262709e-04 -6.0793506242843316e-03 0.0000000000000000e+00  -6.5332996172730448e-04 -6.2168968734544082e-03 0.0000000000000000e+00  -6.5324183792672046e-04 -6.3544413136420444e-03 0.0000000000000000e+00  -6.5315073258733858e-04 -6.4919843383481890e-03 0.0000000000000000e+00  -1.1264502123571555e-04 -1.0316205512928974e-04 0.0000000000000000e+00  -2.2252717239184842e-04 -2.2400176743208569e-04 0.0000000000000000e+00  -3.1648399596439494e-04 -3.5530320192684965e-04 0.0000000000000000e+00  -3.9138907683443456e-04 -4.9023128195783440e-04 0.0000000000000000e+00  -4.4932516257695443e-04 -6.2553406839489540e-04 0.0000000000000000e+00  -4.9346554646668766e-04 -7.6021656526317890e-04 0.0000000000000000e+00  -5.2669900871090531e-04 -8.9420857298159171e-04 0.0000000000000000e+00  -5.5138995549255368e-04 -1.0277284211629685e-03 0.0000000000000000e+00  -5.6942609848616079e-04 -1.1610378521507989e-03 0.0000000000000000e+00  -5.8230839959030369e-04 -1.2943599017247326e-03 0.0000000000000000e+00  -5.9123039234065290e-04 -1.4278592022961480e-03 0.0000000000000000e+00  -5.9714055911565353e-04 -1.5616448272317573e-03 0.0000000000000000e+00  -6.0079064305278661e-04 -1.6957801201796512e-03 0.0000000000000000e+00  -6.0277352198254337e-04 -1.8302935383191761e-03 0.0000000000000000e+00  -6.0355343968458990e-04 -1.9651883640173628e-03 0.0000000000000000e+00  -6.0349052408967729e-04 -2.1004506750661807e-03 0.0000000000000000e+00  -6.0286089444422104e-04 -2.2360555672571716e-03 0.0000000000000000e+00  -6.0187325071512764e-04 -2.3719718403857355e-03 0.0000000000000000e+00  -6.0068258294739810e-04 -2.5081654155036884e-03 0.0000000000000000e+00  -5.9940147977900033e-04 -2.6446017429914963e-03 0.0000000000000000e+00  -5.9810941515044244e-04 -2.7812474290449629e-03 0.0000000000000000e+00  -5.9686032595331507e-04 -2.9180712702728501e-03 0.0000000000000000e+00  -5.9568874628550229e-04 -3.0550448497336431e-03 0.0000000000000000e+00  -5.9461472772356688e-04 -3.1921428157022703e-03 0.0000000000000000e+00  -5.9364774499432512e-04 -3.3293429374671064e-03 0.0000000000000000e+00  -5.9278976025640571e-04 -3.4666260103257095e-03 0.0000000000000000e+00  -5.9203759575134627e-04 -3.6039756641329801e-03 0.0000000000000000e+00  -5.9138474335973458e-04 -3.7413781156186905e-03 0.0000000000000000e+00  -5.9082272041295907e-04 -3.8788218936111917e-03 0.0000000000000000e+00  -5.9034206389749005e-04 -4.0162975577214544e-03 0.0000000000000000e+00  -5.8993303990284649e-04 -4.1537974244760210e-03 0.0000000000000000e+00  -5.8958613174740857e-04 -4.2913153099337917e-03 0.0000000000000000e+00  -5.8929235857895618e-04 -4.4288462941447096e-03 0.0000000000000000e+00  -5.8904346627175637e-04 -4.5663865101332720e-03 0.0000000000000000e+00  -5.8883202399069730e-04 -4.7039329581920076e-03 0.0000000000000000e+00  -5.8865145271511728e-04 -4.8414833449681822