<?xml version="1.0"?>
<VTKFile type="UnstructuredGrid"  version="0.1"  >
<UnstructuredGrid>
<Piece  NumberOfPoints="6382" NumberOfCells="12354">
<Points>
<DataArray  type="Float64"  NumberOfComponents="3"  format="ascii">0 -3 0  0 0 0  10 -3 0  10 0 0  5.2 0 0  5.2 -0.4 0  5.5 -0.4 0  5.5 -0.6000000000000001 0  4.5 -0.6000000000000001 0  4.5 -0.4 0  4.8 -0.4 0  4.8 0 0  0 -2.666666666666667 0  0 -2.333333333333333 0  0 -2 0  0 -1.666666666666667 0  0 -1.333333333333333 0  0 -1 0  0 -0.666666666666667 0  0 -0.3333333333333335 0  9.836518447033493 -3 0  9.676485174132324 -3 0  9.519716728676565 -3 0  9.366040597429432 -3 0  9.215293522901804 -3 0  9.067325347766827 -3 0  8.921978167503752 -3 0  8.779125793186953 -3 0  8.638633440048579 -3 0  8.500376249002967 -3 0  8.364235730108557 -3 0  8.230099119300583 -3 0  8.097858693472926 -3 0  7.96741165420296 -3 0  7.838659590098249 -3 0  7.711508416266758 -3 0  7.585867779025237 -3 0  7.461651037321721 -3 0  7.338774694871047 -3 0  7.217158563845377 -3 0  7.096725097152937 -3 0  6.977399455051415 -3 0  6.859109304538208 -3 0  6.741784490575633 -3 0  6.625356935727237 -3 0  6.509760461250432 -3 0  6.394930659317325 -3 0  6.2808046903675 -3 0  6.167321173775116 -3 0  6.054420032640893 -3 0  5.942042373994132 -3 0  5.830130346471836 -3 0  5.718627047087892 -3 0  5.607476358937133 -3 0  5.496622874861212 -3 0  5.386011773348871 -3 0  5.275588701244851 -3 0  5.1652996754838 -3 0  5.055090972556302 -3 0  4.944909027443701 -3 0  4.834700324516204 -3 0  4.724411298755151 -3 0  4.613988226651132 -3 0  4.50337712513879 -3 0  4.392523641062869 -3 0  4.281372952912111 -3 0  4.169869653528168 -3 0  4.05795762600587 -3 0  3.94557996735911 -3 0  3.832678826224885 -3 0  3.719195309632506 -3 0  3.605069340682676 -3 0  3.490239538749567 -3 0  3.374643064272765 -3 0  3.25821550942437 -3 0  3.140890695461794 -3 0  3.022600544948583 -3 0  2.903274902847057 -3 0  2.782841436154621 -3 0  2.661225305128949 -3 0  2.538348962678273 -3 0  2.414132220974763 -3 0  2.288491583733238 -3 0  2.161340409901745 -3 0  2.032588345797035 -3 0  1.902141306527067 -3 0  1.76990088069941 -3 0  1.63576426989143 -3 0  1.499623750997021 -3 0  1.361366559951406 -3 0  1.220874206813038 -3 0  1.078021832496241 -3 0  0.9326746522331657 -3 0  0.7847064770981866 -3 0  0.6339594025705644 -3 0  0.4802832713234277 -3 0  0.3235148258676688 -3 0  0.1634815529665037 -3 0  10 -0.3333333333333333 0  10 -0.6666666666666666 0  10 -1 0  10 -1.333333333333333 0  10 -1.666666666666667 0  10 -2 0  10 -2.333333333333333 0  10 -2.666666666666667 0  5.242711110725164 0 0  5.286293876642154 0 0  5.330766086609641 0 0  5.37614589213589 0 0  5.422451816439484 0 0  5.469702760205794 0 0  5.517918009017504 0 0  5.567117241892008 0 0  5.617320540096343 0 0  5.668548395644089 0 0  5.720821717893487 0 0  5.774161842649544 0 0  5.828590541642586 0 0  5.88413003019757 0 0  5.940802977381058 0 0  5.998632515893446 0 0  6.057642249375406 0 0  6.117856262977496 0 0  6.179299133651088 0 0  6.241995940085244 0 0  6.305972273082686 0 0  6.371254245606542 0 0  6.43786850326221 0 0  6.505842235920577 0 0  6.575203187664691 0 0  6.645979668539436 0 0  6.71820056760014 0 0  6.791895362764803 0 0  6.867094133292654 0 0  6.943827572794882 0 0  7.022127001289535 0 0  7.10202437703821 0 0  7.183552311040527 0 0  7.266744080707336 0 0  7.351633641831447 0 0  7.438255642584554 0 0  7.526645439439152 0 0  7.616839110330926 0 0  7.708873468012155 0 0  7.802786077905059 0 0  7.898615271449994 0 0  7.996400162886068 0 0  8.096180664647234 0 0  8.197997502517053 0 0  8.301892235188374 0 0  8.407907268711336 0 0  8.516085874431543 0 0  8.626472207031901 0 0  8.739111321743804 0 0  8.854049193814495 0 0  8.971332736524433 0 0  9.091009820696414 0 0  9.21312929427506 0 0  9.337741001971482 0 0  9.464895805719847 0 0  9.594645605970797 0 0  9.727043361679982 0 0  9.862143111819449 0 0  5.2 -0.01666666666666669 0  5.2 -0.03333333333333339 0  5.2 -0.05000000000000009 0  5.2 -0.06666666666666679 0  5.2 -0.0833333333333335 0  5.2 -0.1000000000000002 0  5.2 -0.1166666666666669 0  5.2 -0.1333333333333336 0  5.2 -0.1500000000000002 0  5.2 -0.1666666666666669 0  5.2 -0.1833333333333335 0  5.2 -0.2000000000000001 0  5.2 -0.2166666666666668 0  5.2 -0.2333333333333335 0  5.2 -0.2500000000000002 0  5.2 -0.2666666666666669 0  5.2 -0.2833333333333335 0  5.2 -0.3000000000000002 0  5.2 -0.3166666666666668 0  5.2 -0.3333333333333335 0  5.2 -0.3500000000000001 0  5.2 -0.3666666666666668 0  5.2 -0.3833333333333334 0  5.2125 -0.4 0  5.225 -0.4 0  5.2375 -0.4 0  5.25 -0.4 0  5.2625 -0.4 0  5.275 -0.4 0  5.2875 -0.4 0  5.3 -0.4 0  5.3125 -0.4 0  5.325 -0.4 0  5.337499999999999 -0.4 0  5.35 -0.4 0  5.3625 -0.4 0  5.375 -0.4 0  5.3875 -0.4 0  5.4 -0.4 0  5.4125 -0.4 0  5.425 -0.4 0  5.4375 -0.4 0  5.45 -0.4 0  5.4625 -0.4 0  5.475 -0.4 0  5.4875 -0.4 0  5.5 -0.4083333333333334 0  5.5 -0.4166666666666667 0  5.5 -0.425 0  5.5 -0.4333333333333334 0  5.5 -0.4416666666666668 0  5.5 -0.4500000000000001 0  5.5 -0.4583333333333334 0  5.5 -0.4666666666666668 0  5.5 -0.4750000000000001 0  5.5 -0.4833333333333335 0  5.5 -0.4916666666666668 0  5.5 -0.5000000000000002 0  5.5 -0.5083333333333335 0  5.5 -0.5166666666666668 0  5.5 -0.5250000000000002 0  5.5 -0.5333333333333335 0  5.5 -0.5416666666666669 0  5.5 -0.5500000000000002 0  5.5 -0.5583333333333335 0  5.5 -0.5666666666666668 0  5.5 -0.5750000000000002 0  5.5 -0.5833333333333335 0  5.5 -0.5916666666666668 0  5.479591836734694 -0.6000000000000001 0  5.459183673469388 -0.6000000000000001 0  5.438775510204081 -0.6000000000000001 0  5.418367346938775 -0.6000000000000001 0  5.397959183673469 -0.6000000000000001 0  5.377551020408164 -0.6000000000000001 0  5.357142857142857 -0.6000000000000001 0  5.336734693877551 -0.6000000000000001 0  5.316326530612245 -0.6000000000000001 0  5.295918367346939 -0.6000000000000001 0  5.275510204081633 -0.6000000000000001 0  5.255102040816326 -0.6000000000000001 0  5.23469387755102 -0.6000000000000001 0  5.214285714285714 -0.6000000000000001 0  5.193877551020408 -0.6000000000000001 0  5.173469387755102 -0.6000000000000001 0  5.153061224489796 -0.6000000000000001 0  5.13265306122449 -0.6000000000000001 0  5.112244897959184 -0.6000000000000001 0  5.091836734693878 -0.6000000000000001 0  5.071428571428571 -0.6000000000000001 0  5.051020408163265 -0.6000000000000001 0  5.030612244897959 -0.6000000000000001 0  5.010204081632653 -0.6000000000000001 0  4.989795918367347 -0.6000000000000001 0  4.969387755102041 -0.6000000000000001 0  4.948979591836735 -0.6000000000000001 0  4.928571428571429 -0.6000000000000001 0  4.908163265306122 -0.6000000000000001 0  4.887755102040816 -0.6000000000000001 0  4.86734693877551 -0.6000000000000001 0  4.846938775510204 -0.6000000000000001 0  4.826530612244898 -0.6000000000000001 0  4.806122448979592 -0.6000000000000001 0  4.785714285714286 -0.6000000000000001 0  4.76530612244898 -0.6000000000000001 0  4.744897959183674 -0.6000000000000001 0  4.724489795918368 -0.6000000000000001 0  4.704081632653061 -0.6000000000000001 0  4.683673469387755 -0.6000000000000001 0  4.663265306122449 -0.6000000000000001 0  4.642857142857143 -0.6000000000000001 0  4.622448979591836 -0.6000000000000001 0  4.602040816326531 -0.6000000000000001 0  4.581632653061225 -0.6000000000000001 0  4.561224489795919 -0.6000000000000001 0  4.540816326530612 -0.6000000000000001 0  4.520408163265306 -0.6000000000000001 0  4.5 -0.5916666666666668 0  4.5 -0.5833333333333334 0  4.5 -0.5750000000000001 0  4.5 -0.5666666666666668 0  4.5 -0.5583333333333333 0  4.5 -0.55 0  4.5 -0.5416666666666667 0  4.5 -0.5333333333333333 0  4.5 -0.525 0  4.5 -0.5166666666666666 0  4.5 -0.5083333333333333 0  4.5 -0.4999999999999999 0  4.5 -0.4916666666666666 0  4.5 -0.4833333333333332 0  4.5 -0.4749999999999999 0  4.5 -0.4666666666666666 0  4.5 -0.4583333333333333 0  4.5 -0.45 0  4.5 -0.4416666666666667 0  4.5 -0.4333333333333333 0  4.5 -0.425 0  4.5 -0.4166666666666667 0  4.5 -0.4083333333333334 0  4.5125 -0.4 0  4.525 -0.4 0  4.5375 -0.4 0  4.55 -0.4 0  4.5625 -0.4 0  4.575 -0.4 0  4.587499999999999 -0.4 0  4.6 -0.4 0  4.6125 -0.4 0  4.625 -0.4 0  4.637499999999999 -0.4 0  4.649999999999999 -0.4 0  4.6625 -0.4 0  4.675 -0.4 0  4.6875 -0.4 0  4.699999999999999 -0.4 0  4.712499999999999 -0.4 0  4.725 -0.4 0  4.7375 -0.4 0  4.75 -0.4 0  4.7625 -0.4 0  4.774999999999999 -0.4 0  4.7875 -0.4 0  4.8 -0.3833333333333333 0  4.8 -0.3666666666666666 0  4.8 -0.3499999999999999 0  4.8 -0.3333333333333333 0  4.8 -0.3166666666666665 0  4.8 -0.2999999999999998 0  4.8 -0.2833333333333331 0  4.8 -0.2666666666666664 0  4.8 -0.2499999999999998 0  4.8 -0.2333333333333331 0  4.8 -0.2166666666666665 0  4.8 -0.1999999999999999 0  4.8 -0.1833333333333332 0  4.8 -0.1666666666666665 0  4.8 -0.1499999999999998 0  4.8 -0.1333333333333331 0  4.8 -0.1166666666666665 0  4.8 -0.09999999999999987 0  4.8 -0.0833333333333332 0  4.8 -0.06666666666666654 0  4.8 -0.04999999999999988 0  4.8 -0.03333333333333327 0  4.8 -0.01666666666666661 0  0.1378568875240437 0 0  0.2729566377271358 0 0  0.4053543934976697 0 0  0.5351041938077431 0 0  0.6622589976130751 0 0  0.7868707053643811 0 0  0.9089901789958823 0 0  1.028667263218748 0 0  1.14595080597766 0 0  1.260888678095464 0 0  1.373527792852679 0 0  1.483914125496606 0 0  1.592092731258683 0 0  1.698107764821866 0 0  1.802002497531814 0 0  1.90381933543871 0 0  2.003599837235452 0 0  2.101384728705643 0 0  2.197213922283282 0 0  2.291126532207516 0 0  2.38316088991875 0 0  2.473354560839241 0 0  2.56174435771825 0 0  2.648366358500676 0 0  2.733255919649871 0 0  2.81644768934063 0 0  2.897975623365796 0 0  2.977872999136252 0 0  3.056172427651654 0 0  3.132905867173631 0 0  3.208104637720262 0 0  3.28179943290277 0 0  3.354020331980409 0 0  3.42479681287121 0 0  3.494157764630528 0 0  3.562131497303279 0 0  3.628745754972536 0 0  3.69402772750921 0 0  3.758004060518725 0 0  3.820700866964234 0 0  3.882143737648484 0 0  3.942357751260559 0 0  4.0013674
[...]
<PointData  Vectors="displacement"> 
<DataArray  type="Float64"  Name="displacement"  NumberOfComponents="3" format="ascii">0.0000000000000000e+00 0.0000000000000000e+00 0.0000000000000000e+00  -4.1748011138594275e-04 4.2441838693838787e-05 0.0000000000000000e+00  0.0000000000000000e+00 0.0000000000000000e+00 0.0000000000000000e+00  4.1820416061950417e-04 4.2499858764491519e-05 0.0000000000000000e+00  0.0000000000000000e+00 -3.4053870436719360e-03 0.0000000000000000e+00  0.0000000000000000e+00 -3.4918771956128371e-03 0.0000000000000000e+00  0.0000000000000000e+00 -3.4257699741361827e-03 0.0000000000000000e+00  0.0000000000000000e+00 -4.3397874003701983e-03 0.0000000000000000e+00  0.0000000000000000e+00 -4.2814367775348182e-03 0.0000000000000000e+00  0.0000000000000000e+00 -3.4182498269094102e-03 0.0000000000000000e+00  0.0000000000000000e+00 -3.4842412108058497e-03 0.0000000000000000e+00  0.0000000000000000e+00 -3.3980482137462389e-03 0.0000000000000000e+00  -1.3805262894935074e-04 -9.0493591067490649e-05 0.0000000000000000e+00  -2.5542442801516115e-04 -1.0251406813898931e-04 0.0000000000000000e+00  -3.4525654930662374e-04 -8.3285186284611719e-05 0.0000000000000000e+00  -4.0322236204767419e-04 -4.8538324390960140e-05 0.0000000000000000e+00  -4.3128297142813830e-04 -1.1562132563446613e-05 0.0000000000000000e+00  -4.3618557039560516e-04 1.8701910677094796e-05 0.0000000000000000e+00  -4.2854668607888416e-04 3.6658734873037809e-05 0.0000000000000000e+00  -4.1989526423979583e-04 4.2594993196175808e-05 0.0000000000000000e+00  0.0000000000000000e+00 0.0000000000000000e+00 0.0000000000000000e+00  0.0000000000000000e+00 0.0000000000000000e+00 0.0000000000000000e+00  0.0000000000000000e+00 0.0000000000000000e+00 0.0000000000000000e+00  0.0000000000000000e+00 0.0000000000000000e+00 0.0000000000000000e+00  0.0000000000000000e+00 0.0000000000000000e+00 0.0000000000000000e+00  0.0000000000000000e+00 0.0000000000000000e+00 0.0000000000000000e+00  0.0000000000000000e+00 0.0000000000000000e+00 0.0000000000000000e+00  0.0000000000000000e+00 0.0000000000000000e+00 0.0000000000000000e+00  0.0000000000000000e+00 0.0000000000000000e+00 0.0000000000000000e+00  0.0000000000000000e+00 0.0000000000000000e+00 0.0000000000000000e+00  0.0000000000000000e+00 0.0000000000000000e+00 0.0000000000000000e+00  0.0000000000000000e+00 0.0000000000000000e+00 0.0000000000000000e+00  0.0000000000000000e+00 0.0000000000000000e+00 0.0000000000000000e+00  0.0000000000000000e+00 0.0000000000000000e+00 0.0000000000000000e+00  0.0000000000000000e+00 0.0000000000000000e+00 0.0000000000000000e+00  0.0000000000000000e+00 0.0000000000000000e+00 0.0000000000000000e+00  0.0000000000000000e+00 0.0000000000000000e+00 0.0000000000000000e+00  0.0000000000000000e+00 0.0000000000000000e+00 0.0000000000000000e+00  0.0000000000000000e+00 0.0000000000000000e+00 0.0000000000000000e+00  0.0000000000000000e+00 0.0000000000000000e+00 0.0000000000000000e+00  0.0000000000000000e+00 0.0000000000000000e+00 0.0000000000000000e+00  0.0000000000000000e+00 0.0000000000000000e+00 0.0000000000000000e+00  0.0000000000000000e+00 0.0000000000000000e+00 0.0000000000000000e+00  0.0000000000000000e+00 0.0000000000000000e+00 0.0000000000000000e+00  0.0000000000000000e+00 0.0000000000000000e+00 0.0000000000000000e+00  0.0000000000000000e+00 0.0000000000000000e+00 0.0000000000000000e+00  0.0000000000000000e+00 0.0000000000000000e+00 0.0000000000000000e+00  0.0000000000000000e+00 0.0000000000000000e+00 0.0000000000000000e+00  0.0000000000000000e+00 0.0000000000000000e+00 0.0000000000000000e+00  0.0000000000000000e+00 0.0000000000000000e+00 0.0000000000000000e+00  0.0000000000000000e+00 0.0000000000000000e+00 0.0000000000000000e+00  0.0000000000000000e+00 0.0000000000000000e+00 0.0000000000000000e+00  0.0000000000000000e+00 0.0000000000000000e+00 0.0000000000000000e+00  0.0000000000000000e+00 0.0000000000000000e+00 0.0000000000000000e+00  0.0000000000000000e+00 0.0000000000000000e+00 0.0000000000000000e+00  0.0000000000000000e+00 0.0000000000000000e+00 0.0000000000000000e+00  0.0000000000000000e+00 0.0000000000000000e+00 0.0000000000000000e+00  0.0000000000000000e+00 0.0000000000000000e+00 0.0000000000000000e+00  0.0000000000000000e+00 0.0000000000000000e+00 0.0000000000000000e+00  0.0000000000000000e+00 0.0000000000000000e+00 0.0000000000000000e+00  0.0000000000000000e+00 0.0000000000000000e+00 0.0000000000000000e+00  0.0000000000000000e+00 0.0000000000000000e+00 0.0000000000000000e+00  0.0000000000000000e+00 0.0000000000000000e+00 0.0000000000000000e+00  0.0000000000000000e+00 0.0000000000000000e+00 0.0000000000000000e+00  0.0000000000000000e+00 0.0000000000000000e+00 0.0000000000000000e+00  0.0000000000000000e+00 0.0000000000000000e+00 0.0000000000000000e+00  0.0000000000000000e+00 0.0000000000000000e+00 0.0000000000000000e+00  0.0000000000000000e+00 0.0000000000000000e+00 0.0000000000000000e+00  0.0000000000000000e+00 0.0000000000000000e+00 0.0000000000000000e+00  0.0000000000000000e+00 0.0000000000000000e+00 0.0000000000000000e+00  0.0000000000000000e+00 0.0000000000000000e+00 0.0000000000000000e+00  0.0000000000000000e+00 0.0000000000000000e+00 0.0000000000000000e+00  0.0000000000000000e+00 0.0000000000000000e+00 0.0000000000000000e+00  0.0000000000000000e+00 0.0000000000000000e+00 0.0000000000000000e+00  0.0000000000000000e+00 0.0000000000000000e+00 0.0000000000000000e+00  0.0000000000000000e+00 0.0000000000000000e+00 0.0000000000000000e+00  0.0000000000000000e+00 0.0000000000000000e+00 0.0000000000000000e+00  0.0000000000000000e+00 0.0000000000000000e+00 0.0000000000000000e+00  0.0000000000000000e+00 0.0000000000000000e+00 0.0000000000000000e+00  0.0000000000000000e+00 0.0000000000000000e+00 0.0000000000000000e+00  0.0000000000000000e+00 0.0000000000000000e+00 0.0000000000000000e+00  0.0000000000000000e+00 0.0000000000000000e+00 0.0000000000000000e+00  0.0000000000000000e+00 0.0000000000000000e+00 0.0000000000000000e+00  0.0000000000000000e+00 0.0000000000000000e+00 0.0000000000000000e+00  0.0000000000000000e+00 0.0000000000000000e+00 0.0000000000000000e+00  0.0000000000000000e+00 0.0000000000000000e+00 0.0000000000000000e+00  0.0000000000000000e+00 0.0000000000000000e+00 0.0000000000000000e+00  0.0000000000000000e+00 0.0000000000000000e+00 0.0000000000000000e+00  0.0000000000000000e+00 0.0000000000000000e+00 0.0000000000000000e+00  0.0000000000000000e+00 0.0000000000000000e+00 0.0000000000000000e+00  0.0000000000000000e+00 0.0000000000000000e+00 0.0000000000000000e+00  0.0000000000000000e+00 0.0000000000000000e+00 0.0000000000000000e+00  0.0000000000000000e+00 0.0000000000000000e+00 0.0000000000000000e+00  0.0000000000000000e+00 0.0000000000000000e+00 0.0000000000000000e+00  0.0000000000000000e+00 0.0000000000000000e+00 0.0000000000000000e+00  0.0000000000000000e+00 0.0000000000000000e+00 0.0000000000000000e+00  0.0000000000000000e+00 0.0000000000000000e+00 0.0000000000000000e+00  0.0000000000000000e+00 0.0000000000000000e+00 0.0000000000000000e+00  4.2058069672395732e-04 4.2610464735629435e-05 0.0000000000000000e+00  4.2927473911207888e-04 3.6805339908579809e-05 0.0000000000000000e+00  4.3691291486123285e-04 1.8736290556725413e-05 0.0000000000000000e+00  4.3203379600390278e-04 -1.1571911754969633e-05 0.0000000000000000e+00  4.0393837846049369e-04 -4.8525697001752498e-05 0.0000000000000000e+00  3.4580030610672314e-04 -8.3564526985019711e-05 0.0000000000000000e+00  2.5577212793353196e-04 -1.0277815770705813e-04 0.0000000000000000e+00  1.3842891534201771e-04 -9.0591161523256535e-05 0.0000000000000000e+00  -4.8828370314482387e-05 -3.4026226032978437e-03 0.0000000000000000e+00  -9.8901997535638694e-05 -3.3940158311956520e-03 0.0000000000000000e+00  -1.5046370316570910e-04 -3.3789515614181384e-03 0.0000000000000000e+00  -2.0373336961707528e-04 -3.3565688310872605e-03 0.0000000000000000e+00  -2.5878105104493881e-04 -3.3257310744738986e-03 0.0000000000000000e+00  -3.1544758105618716e-04 -3.2850760313093935e-03 0.0000000000000000e+00  -3.7311923934456385e-04 -3.2330784895804369e-03 0.0000000000000000e+00  -4.3075442230790099e-04 -3.1683008524132227e-03 0.0000000000000000e+00  -4.8677475361527266e-04 -3.0897160736381864e-03 0.0000000000000000e+00  -5.3929521657844091e-04 -2.9969369846198223e-03 0.0000000000000000e+00  -5.8627934180586442e-04 -2.8904534032482463e-03 0.0000000000000000e+00  -6.2599406151928061e-04 -2.7715842927766776e-03 0.0000000000000000e+00  -6.5708658621000640e-04 -2.6423315339229639e-03 0.0000000000000000e+00  -6.7880033714863336e-04 -2.5050935211435778e-03 0.0000000000000000e+00  -6.9095540962522376e-04 -2.3623964325420158e-03 0.0000000000000000e+00  -6.9378395448200885e-04 -2.2166640649651848e-03 0.0000000000000000e+00  -6.8804797736502486e-04 -2.0701063802363081e-03 0.0000000000000000e+00  -6.7448465840486431e-04 -1.9245631528227493e-03 0.0000000000000000e+00  -6.5411712946005407e-04 -1.7815545701369312e-03 0.0000000000000000e+00  -6.2798234195641503e-04 -1.6422809574988715e-03 0.0000000000000000e+00  -5.9701157026001114e-04 -1.5076368492855101e-03 0.0000000000000000e+00  -5.6214612239195163e-04 -1.3782710437392851e-03 0.0000000000000000e+00  -5.2415771424978684e-04 -1.2546370523076388e-03 0.0000000000000000e+00  -4.8382982829125765e-04 -1.1370269745301378e-03 0.0000000000000000e+00  -4.4172735841752856e-04 -1.0256141534192198e-03 0.0000000000000000e+00  -3.9843132703604888e-04 -9.2046708346603357e-04 0.0000000000000000e+00  -3.5440992524660565e-04 -8.2158827955830451e-04 0.0000000000000000e+00  -3.1005700613971328e-04 -7.2892164514931428e-04 0.0000000000000000e+00  -2.6569042866530303e-04 -6.4238933753550372e-04 0.0000000000000000e+00  -2.2162861315941482e-04 -5.6186782731528525e-04 0.0000000000000000e+00  -1.7810660703575809e-04 -4.8721803194508865e-04 0.0000000000000000e+00  -1.3533621825122908e-04 -4.1828722809865567e-04 0.0000000000000000e+00  -9.3498215080438829e-05 -3.5491099449803454e-04 0.0000000000000000e+00  -5.2749713940748710e-05 -2.9691592547620573e-04 0.0000000000000000e+00  -1.3227860141488238e-05 -2.4411397365511607e-04 0.0000000000000000e+00  2.4957672032526546e-05 -1.9633218480222738e-04 0.0000000000000000e+00  6.1698231675972871e-05 -1.5337334526131869e-04 0.0000000000000000e+00  9.6912720190373250e-05 -1.1503805293357260e-04 0.0000000000000000e+00  1.3051865511782846e-04 -8.1129711458597739e-05 0.0000000000000000e+00  1.6245768036657714e-04 -5.1443761173997220e-05 0.0000000000000000e+00  1.9266380441391632e-04 -2.5775815820963159e-05 0.0000000000000000e+00  2.2109398015920475e-04 -3.9100333404038891e-06 0.0000000000000000e+00  2.4770366674365377e-04 1.4373125359144148e-05 0.0000000000000000e+00  2.7245542646981260e-04 2.9295473187469774e-05 0.0000000000000000e+00  2.9531779187896113e-04 4.1088308496098035e-05 0.0000000000000000e+00  3.1626183567133343e-04 4.9989702043359344e-05 0.0000000000000000e+00  3.3525877310225860e-04 5.6249749975044710e-05 0.0000000000000000e+00  3.5229813931754407e-04 6.0137770498754714e-05 0.0000000000000000e+00  3.6734741661052707e-04 6.1923005238103269e-05 0.0000000000000000e+00  3.8039676833132317e-04 6.1911656705443833e-05 0.0000000000000000e+00  3.9144100040553213e-04 6.0430103149167412e-05 0.0000000000000000e+00  4.0047942166004219e-04 5.7832009818284177e-05 0.0000000000000000e+00  4.0753981696648193e-04 5.4511866644968815e-05 0.0000000000000000e+00  4.1268277022001059e-04 5.0895863371360874e-05 0.0000000000000000e+00  4.1602817434756306e-04 4.7447086682118929e-05 0.0000000000000000e+00  4.1778994575688438e-04 4.4626167414875897e-05 0.0000000000000000e+00  4.1835813235319115e-04 4.2843258283135462e-05 0.0000000000000000e+00  4.1823607190976926e-04 4.2331570712477533e-05 0.0000000000000000e+00  0.0000000000000000e+00 -3.4133637611846392e-03 0.0000000000000000e+00  0.0000000000000000e+00 -3.4209577327206429e-03 0.0000000000000000e+00  0.0000000000000000e+00 -3.4281516178204393e-03 0.0000000000000000e+00  0.0000000000000000e+00 -3.4349341851793030e-03 0.0000000000000000e+00  0.0000000000000000e+00 -3.4412978560703416e-03 0.0000000000000000e+00  0.0000000000000000e+00 -3.4472394817950014e-03 0.0000000000000000e+00  0.0000000000000000e+00 -3.4527591150179493e-03 0.0000000000000000e+00  0.0000000000000000e+00 -3.4578597030134202e-03 0.0000000000000000e+00  0.0000000000000000e+00 -3.4625466038839940e-03 0.0000000000000000e+00  0.0000000000000000e+00 -3.4668276947645389e-03 0.0000000000000000e+00  0.0000000000000000e+00 -3.4707124386770169e-03 0.0000000000000000e+00  0.0000000000000000e+00 -3.4742124285489524e-03 0.0000000000000000e+00  0.0000000000000000e+00 -3.4773405754827346e-03 0.0000000000000000e+00  0.0000000000000000e+00 -3.4801116272944652e-03 0.0000000000000000e+00  0.0000000000000000e+00 -3.4825416825454425e-03 0.0000000000000000e+00  0.0000000000000000e+00 -3.4846471441065101e-03 0.0000000000000000e+00  0.0000000000000000e+00 -3.4864465787036777e-03 0.0000000000000000e+00  0.0000000000000000e+00 -3.4879577821602743e-03 0.0000000000000000e+00  0.0000000000000000e+00 -3.4891987773848577e-03 0.0000000000000000e+00  0.0000000000000000e+00 -3.4901866352805471e-03 0.0000000000000000e+00  0.0000000000000000e+00 -3.4909370611428047e-03 0.0000000000000000e+00  0.0000000000000000e+00 -3.4914628390657360e-03 0.0000000000000000e+00  0.0000000000000000e+00 -3.4917741612622128e-03 0.0000000000000000e+00  0.0000000000000000e+00 -3.4916621699501637e-03 0.0000000000000000e+00  0.0000000000000000e+00 -3.4910176933231236e-03 0.0000000000000000e+00  0.0000000000000000e+00 -3.4899456747384647e-03 0.0000000000000000e+00  0.0000000000000000e+00 -3.4884493485727408e-03 0.0000000000000000e+00  0.0000000000000000e+00 -3.4865334005988288e-03 0.0000000000000000e+00  0.0000000000000000e+00 -3.4842040891899864e-03 0.0000000000000000e+00  0.0000000000000000e+00 -3.4814696580427666e-03 0.0000000000000000e+00  0.0000000000000000e+00 -3.4783402762521430e-03 0.0000000000000000e+00  0.0000000000000000e+00 -3.4748288133661827e-03 0.0000000000000000e+00  0.0000000000000000e+00 -3.4709511363067800e-03 0.0000000000000000e+00  0.0000000000000000e+00 -3.4667268964477635e-03 0.0000000000000000e+00  0.0000000000000000e+00 -3.4621805351894353e-03 0.0000000000000000e+00  0.0000000000000000e+00 -3.4573423266323552e-03 0.0000000000000000e+00  0.0000000000000000e+00 -3.4522503247348992e-03 0.0000000000000000e+00  0.0000000000000000e+00 -3.4469529285764780e-03 0.0000000000000000e+00  0.0000000000000000e+00 -3.4415123358251913e-03 0.0000000000000000e+00  0.0000000000000000e+00 -3.4360105516628532e-03 0.0000000000000000e+00  0.0000000000000000e+00 -3.4305582513119454e-03 0.0000000000000000e+00  0.0000000000000000e+00 -3.4253110526418426e-03 0.0000000000000000e+00  0.0000000000000000e+00 -3.4204961052803125e-03 0.0000000000000000e+00  0.0000000000000000e+00 -3.4164797166076075e-03 0.0000000000000000e+00  0.0000000000000000e+00 -3.4139099854706657e-03 0.0000000000000000e+00  0.0000000000000000e+00 -3.4143528449472427e-03 0.0000000000000000e+00  0.0000000000000000e+00 -3.4416065302498603e-03 0.0000000000000000e+00  0.0000000000000000e+00 -3.4537507702819721e-03 0.0000000000000000e+00  0.0000000000000000e+00 -3.4656716515835354e-03 0.0000000000000000e+00  0.0000000000000000e+00 -3.4778200992908754e-03 0.0000000000000000e+00  0.0000000000000000e+00 -3.4903764184246473e-03 0.0000000000000000e+00  0.0000000000000000e+00 -3.5034400634392482e-03 0.0000000000000000e+00  0.0000000000000000e+00 -3.5170928086675347e-03 0.0000000000000000e+00  0.0000000000000000e+00 -3.5313970472256994e-03 0.0000000000000000e+00  0.0000000000000000e+00 -3.5464197543590508e-03 0.0000000000000000e+00  0.0000000000000000e+00 -3.5622227215063350e-03 0.0000000000000000e+00  0.0000000000000000e+00 -3.5788871538076617e-03 0.0000000000000000e+00  0.0000000000000000e+00 -3.5964718135041295e-03 0.0000000000000000e+00  0.0000000000000000e+00 -3.6150818116474697e-03 0.0000000000000000e+00  0.0000000000000000e+00 -3.6348066880522805e-03 0.0000000000000000e+00  0.0000000000000000e+00 -3.6557723653836355e-03 0.0000000000000000e+00  0.0000000000000000e+00 -3.6781118447689791e-03 0.0000000000000000e+00  0.0000000000000000e+00 -3.7019950339366200e-03 0.0000000000000000e+00  0.0000000000000000e+00 -3.7276568476743072e-03 0.0000000000000000e+00  0.0000000000000000e+00 -3.7553831967167919e-03 0.0000000000000000e+00  0.0000000000000000e+00 -3.7856518213215296e-03 0.0000000000000000e+00  0.0000000000000000e+00 -3.8197049095776824e-03 0.0000000000000000e+00  0.0000000000000000e+00 -3.8565125705833990e-03 0.0000000000000000e+00  0.0000000000000000e+00 -3.9592839185826371e-03 0.0000000000000000e+00  -9.5856582263918364e-04 -7.9214575089425979e-03 0.0000000000000000e+00  -9.2330770728210772e-04 -8.1819801771228964e-03 0.0000000000000000e+00  -8.9553491157538865e-04 -8.4237480547480845e-03 0.0000000000000000e+00  -8.6085173366053243e-04 -8.6384866731731031e-03 0.0000000000000000e+00  -8.2397658779138449e-04 -8.8289991323388817e-03 0.0000000000000000e+00  -7.8574099310679466e-04 -8.9997836694776859e-03 0.0000000000000000e+00  -7.4655653738580220e-04 -9.1538801102852441e-03 0.0000000000000000e+00  -7.0665997781759707e-04 -9.2935242859915283e-03 0.0000000000000000e+00  -6.6619172267682551e-04 -9.4204272054850477e-03 0.0000000000000000e+00  -6.2522307536943254e-04 -9.5358791579384372e-03 0.0000000000000000e+00  -5.8381306173051260e-04 -9.6408758538792348e-03 0.0000000000000000e+00  -5.4200815096206313e-04 -9.7361983416926149e-03 0.0000000000000000e+00  -4.9985288306825932e-04 -9.8224733475828739e-03 0.0000000000000000e+00  -4.5738478794704233e-04 -9.9002106055249995e-03 0.0000000000000000e+00  -4.1464265164499340e-04 -9.9698328489343496e-03 0.0000000000000000e+00  -3.7166264416780317e-04 -1.0031689977430700e-02 0.0000000000000000e+00  -3.2846823826847548e-04 -1.0086063245928799e-02 0.0000000000000000e+00  -2.8509213559414011e-04 -1.0133195910731415e-02 0.0000000000000000e+00  -2.4156307313657549e-04 -1.0173287852929277e-02 0.0000000000000000e+00  -1.9790405599051227e-04 -1.0206497507658415e-02 0.0000000000000000e+00  -1.5414249366801585e-04 -1.0232952149611943e-02 0.0000000000000000e+00  -1.1029788077500568e-04 -1.0252749559831477e-02 0.0000000000000000e+00  -6.6398211146435321e-05 -1.0265964393673782e-02 0.0000000000000000e+00  -2.2467391956577780e-05 -1.0272643227406975e-02 0.0000000000000000e+00  2.1477031086981094e-05 -1.0272809938958670e-02 0.0000000000000000e+00  6.5408056027173536e-05 -1.0266465520787351e-02 0.0000000000000000e+00  1.0930181098791913e-04 -1.0253585692168032e-02 0.0000000000000000e+00  1.5314023854762557e-04 -1.0234124586693125e-02 0.0000000000000000e+00  1.9689383880022802e-04 -1.0208010438617394e-02 0.0000000000000000e+00  2.4054158673018593e-04 -1.0175145797936554e-02 0.0000000000000000e+00  2.8405311118045881e-04 -1.0135402841702177e-02 0.0000000000000000e+00  3.2741201923549993e-04 -1.0088628431832966e-02 0.0000000000000000e+00  3.7057617288898276e-04 -1.0034622021128290e-02 0.0000000000000000e+00  4.1353079200043692e-04 -9.9731511253431885e-03 0.0000000000000000e+00  4.5624051558607834e-04 -9.9039294797273591e-03 0.0000000000000000e+00  4.9867241430854659e-04 -9.8266152057373719e-03 0.0000000000000000e+00  5.4079306326416184e-04 -9.7407929666195169e-03 0.0000000000000000e+00  5.8257144475329739e-04 -9.6459523976007260e-03 0.0000000000000000e+00  6.2395232989672766e-04 -9.5414509499407336e-03 0.0000000000000000e+00  6.6492053861042411e-04 -9.4265264330343941e-03 0.0000000000000000e+00  7.0541750369289063e-04 -9.3001723181576450e-03 0.0000000000000000e+00  7.4537911735768185e-04 -9.1611039499552051e-03 0.0000000000000000e+00  7.8476147372660767e-04 -9.0075609880228558e-03 0.0000000000000000e+00  8.2340961745137799e-04 -8.8371638487157803e-03 0.0000000000000000e+00  8.6121468926589329e-04 -8.6465011230690073e-03 0.0000000000000000e+00  8.9763545536344967e-04 -8.4301206680501284e-03 0.0000000000000000e+00  9.2977620141773600e-04 -8.1815171439337565e-03 0.0000000000000000e+00  9.5870763949531298e-04 -7.898893