<?xml version="1.0"?>
<VTKFile type="UnstructuredGrid"  version="0.1"  >
<UnstructuredGrid>
<Piece  NumberOfPoints="1250" NumberOfCells="2352">
<Points>
<DataArray  type="Float64"  NumberOfComponents="3"  format="ascii">0 0 0  0.0336 0 0  0.0336 0.07729999999999999 0  0 0.07729999999999999 0  0.001400000000000002 0 0  0.002800000000000005 0 0  0.004200000000000008 0 0  0.005600000000000009 0 0  0.007000000000000011 0 0  0.008400000000000013 0 0  0.009800000000000019 0 0  0.01120000000000002 0 0  0.01260000000000003 0 0  0.01400000000000003 0 0  0.01540000000000004 0 0  0.01680000000000005 0 0  0.01820000000000004 0 0  0.01960000000000004 0 0  0.02100000000000004 0 0  0.02240000000000003 0 0  0.02380000000000003 0 0  0.02520000000000002 0 0  0.02660000000000002 0 0  0.02800000000000001 0 0  0.02940000000000001 0 0  0.03080000000000001 0 0  0.0322 0 0  0.0336 0.001577551020408161 0  0.0336 0.003155102040816321 0  0.0336 0.004732653061224482 0  0.0336 0.006310204081632642 0  0.0336 0.007887755102040803 0  0.0336 0.009465306122448964 0  0.0336 0.01104285714285712 0  0.0336 0.01262040816326528 0  0.0336 0.01419795918367344 0  0.0336 0.0157755102040816 0  0.0336 0.01735306122448976 0  0.0336 0.01893061224489792 0  0.0336 0.02050816326530608 0  0.0336 0.02208571428571425 0  0.0336 0.02366326530612241 0  0.0336 0.02524081632653058 0  0.0336 0.02681836734693874 0  0.0336 0.02839591836734691 0  0.0336 0.02997346938775507 0  0.0336 0.03155102040816323 0  0.0336 0.0331285714285714 0  0.0336 0.03470612244897956 0  0.0336 0.03628367346938772 0  0.0336 0.03786122448979588 0  0.0336 0.03943877551020405 0  0.0336 0.04101632653061221 0  0.0336 0.04259387755102037 0  0.0336 0.04417142857142854 0  0.0336 0.04574897959183671 0  0.0336 0.04732653061224486 0  0.0336 0.04890408163265302 0  0.0336 0.05048163265306119 0  0.0336 0.05205918367346936 0  0.0336 0.05363673469387752 0  0.0336 0.05521428571428568 0  0.0336 0.05679183673469385 0  0.0336 0.05836938775510202 0  0.0336 0.05994693877551018 0  0.0336 0.06152448979591834 0  0.0336 0.0631020408163265 0  0.0336 0.06467959183673468 0  0.0336 0.06625714285714283 0  0.0336 0.06783469387755101 0  0.0336 0.06941224489795916 0  0.0336 0.07098979591836733 0  0.0336 0.07256734693877549 0  0.0336 0.07414489795918365 0  0.0336 0.07572244897959182 0  0.03219999999999999 0.07729999999999999 0  0.03079999999999999 0.07729999999999999 0  0.02939999999999999 0.07729999999999999 0  0.02799999999999999 0.07729999999999999 0  0.02659999999999999 0.07729999999999999 0  0.02519999999999999 0.07729999999999999 0  0.02379999999999998 0.07729999999999999 0  0.02239999999999998 0.07729999999999999 0  0.02099999999999997 0.07729999999999999 0  0.01959999999999996 0.07729999999999999 0  0.01819999999999996 0.07729999999999999 0  0.01679999999999995 0.07729999999999999 0  0.01539999999999996 0.07729999999999999 0  0.01399999999999996 0.07729999999999999 0  0.01259999999999996 0.07729999999999999 0  0.01119999999999997 0.07729999999999999 0  0.009799999999999972 0.07729999999999999 0  0.008399999999999977 0.07729999999999999 0  0.006999999999999978 0.07729999999999999 0  0.005599999999999983 0.07729999999999999 0  0.004199999999999988 0.07729999999999999 0  0.00279999999999999 0.07729999999999999 0  0.001399999999999998 0.07729999999999999 0  0 0.07572244897959184 0  0 0.07414489795918368 0  0 0.07256734693877551 0  0 0.07098979591836735 0  0 0.06941224489795919 0  0 0.06783469387755103 0  0 0.06625714285714288 0  0 0.06467959183673472 0  0 0.06310204081632656 0  0 0.0615244897959184 0  0 0.05994693877551023 0  0 0.05836938775510207 0  0 0.05679183673469392 0  0 0.05521428571428574 0  0 0.05363673469387759 0  0 0.05205918367346941 0  0 0.05048163265306126 0  0 0.04890408163265308 0  0 0.04732653061224493 0  0 0.04574897959183676 0  0 0.0441714285714286 0  0 0.04259387755102043 0  0 0.04101632653061228 0  0 0.03943877551020411 0  0 0.03786122448979595 0  0 0.03628367346938779 0  0 0.03470612244897962 0  0 0.03312857142857146 0  0 0.03155102040816329 0  0 0.02997346938775513 0  0 0.02839591836734697 0  0 0.0268183673469388 0  0 0.02524081632653064 0  0 0.02366326530612247 0  0 0.02208571428571431 0  0 0.02050816326530614 0  0 0.01893061224489798 0  0 0.01735306122448981 0  0 0.01577551020408165 0  0 0.01419795918367349 0  0 0.01262040816326532 0  0 0.01104285714285716 0  0 0.009465306122448988 0  0 0.00788775510204083 0  0 0.006310204081632659 0  0 0.004732653061224501 0  0 0.003155102040816343 0  0 0.001577551020408172 0  0.001400000000000004 0.001577551020408172 0  0.001400000000000004 0.003155102040816329 0  0.001400000000000002 0.004732653061224501 0  0.001400000000000002 0.006310204081632645 0  0.001400000000000005 0.007887755102040823 0  0.001400000000000002 0.009465306122448981 0  0.001400000000000002 0.01104285714285717 0  0.001400000000000004 0.01262040816326531 0  0.0014 0.01419795918367349 0  0.001400000000000002 0.01577551020408166 0  0.001400000000000005 0.0173530612244898 0  0.001400000000000002 0.01893061224489797 0  0.001400000000000002 0.02050816326530613 0  0.001400000000000002 0.02208571428571431 0  0.001400000000000002 0.02366326530612247 0  0.001400000000000002 0.02524081632653063 0  0.001400000000000002 0.0268183673469388 0  0.001400000000000002 0.02839591836734696 0  0.001400000000000002 0.02997346938775513 0  0.001400000000000002 0.03155102040816328 0  0.001400000000000002 0.03312857142857147 0  0.001399999999999997 0.03470612244897962 0  0.001400000000000005 0.03628367346938778 0  0.001400000000000002 0.03786122448979594 0  0.001400000000000002 0.03943877551020411 0  0.001400000000000002 0.04101632653061228 0  0.001400000000000002 0.04259387755102043 0  0.001400000000000002 0.0441714285714286 0  0.0014 0.04574897959183676 0  0.001400000000000002 0.04732653061224492 0  0.001400000000000004 0.04890408163265308 0  0.001400000000000002 0.05048163265306126 0  0.001400000000000002 0.05205918367346941 0  0.0014 0.05363673469387758 0  0.001400000000000004 0.05521428571428574 0  0.001399999999999998 0.05679183673469391 0  0.001400000000000002 0.05836938775510207 0  0.0014 0.05994693877551023 0  0.001400000000000002 0.0615244897959184 0  0.001400000000000002 0.06310204081632656 0  0.001400000000000002 0.06467959183673472 0  0.0014 0.06625714285714286 0  0.001400000000000002 0.06783469387755102 0  0.001399999999999998 0.06941224489795919 0  0.001400000000000002 0.07098979591836735 0  0.0014 0.07256734693877552 0  0.001400000000000002 0.07414489795918368 0  0.001400000000000002 0.07572244897959184 0  0.002800000000000006 0.001577551020408165 0  0.002800000000000004 0.003155102040816343 0  0.002800000000000002 0.004732653061224487 0  0.002800000000000002 0.006310204081632652 0  0.002800000000000002 0.007887755102040813 0  0.0028 0.009465306122448981 0  0.002799999999999997 0.01104285714285715 0  0.0028 0.01262040816326532 0  0.0028 0.01419795918367348 0  0.0028 0.01577551020408165 0  0.002799999999999997 0.0173530612244898 0  0.0028 0.01893061224489797 0  0.002800000000000004 0.02050816326530613 0  0.0028 0.0220857142857143 0  0.0028 0.02366326530612247 0  0.002800000000000004 0.02524081632653064 0  0.0028 0.0268183673469388 0  0.0028 0.02839591836734696 0  0.002799999999999995 0.02997346938775512 0  0.002799999999999997 0.03155102040816328 0  0.002799999999999995 0.03312857142857146 0  0.0028 0.03470612244897962 0  0.002799999999999995 0.03628367346938778 0  0.002799999999999997 0.03786122448979594 0  0.002799999999999997 0.03943877551020411 0  0.002799999999999997 0.04101632653061228 0  0.002799999999999997 0.04259387755102043 0  0.002799999999999995 0.0441714285714286 0  0.002799999999999997 0.04574897959183676 0  0.002799999999999997 0.04732653061224493 0  0.002799999999999995 0.04890408163265308 0  0.002799999999999993 0.05048163265306124 0  0.002799999999999995 0.05205918367346941 0  0.002799999999999995 0.05363673469387757 0  0.002799999999999992 0.05521428571428574 0  0.002799999999999997 0.05679183673469391 0  0.002799999999999993 0.05836938775510207 0  0.002799999999999993 0.05994693877551022 0  0.002799999999999992 0.0615244897959184 0  0.002799999999999988 0.06310204081632655 0  0.002799999999999992 0.0646795918367347 0  0.002799999999999992 0.06625714285714286 0  0.00279999999999999 0.06783469387755103 0  0.00279999999999999 0.06941224489795919 0  0.002799999999999988 0.07098979591836735 0  0.00279999999999999 0.07256734693877552 0  0.002799999999999988 0.07414489795918368 0  0.00279999999999999 0.07572244897959184 0  0.004200000000000006 0.001577551020408172 0  0.004200000000000006 0.003155102040816329 0  0.004200000000000008 0.00473265306122448 0  0.004200000000000009 0.006310204081632652 0  0.004200000000000008 0.00788775510204082 0  0.004200000000000008 0.009465306122448978 0  0.004200000000000006 0.01104285714285716 0  0.004200000000000006 0.01262040816326532 0  0.004200000000000004 0.01419795918367349 0  0.004200000000000002 0.01577551020408165 0  0.004200000000000004 0.0173530612244898 0  0.004200000000000006 0.01893061224489797 0  0.004200000000000006 0.02050816326530613 0  0.004200000000000002 0.0220857142857143 0  0.004200000000000004 0.02366326530612247 0  0.004199999999999999 0.02524081632653062 0  0.004200000000000004 0.0268183673469388 0  0.004200000000000004 0.02839591836734696 0  0.004200000000000002 0.02997346938775512 0  0.004199999999999999 0.03155102040816328 0  0.004200000000000001 0.03312857142857145 0  0.004200000000000001 0.03470612244897962 0  0.004199999999999995 0.03628367346938778 0  0.004199999999999999 0.03786122448979594 0  0.004199999999999999 0.0394387755102041 0  0.004199999999999997 0.04101632653061227 0  0.004199999999999999 0.04259387755102043 0  0.004199999999999999 0.04417142857142859 0  0.004199999999999999 0.04574897959183676 0  0.004199999999999999 0.04732653061224492 0  0.004199999999999997 0.04890408163265308 0  0.004199999999999997 0.05048163265306124 0  0.004199999999999999 0.05205918367346941 0  0.004199999999999992 0.05363673469387757 0  0.0
[...]
<PointData  Vectors="displacement"> 
<DataArray  type="Float64"  Name="displacement"  NumberOfComponents="3" format="ascii">0.0000000000000000e+00 0.0000000000000000e+00 0.0000000000000000e+00  0.0000000000000000e+00 0.0000000000000000e+00 0.0000000000000000e+00  2.3269487025871561e-03 -1.9465034527125013e-02 0.0000000000000000e+00  -2.3029117821437707e-03 -1.9460375884743641e-02 0.0000000000000000e+00  0.0000000000000000e+00 0.0000000000000000e+00 0.0000000000000000e+00  0.0000000000000000e+00 0.0000000000000000e+00 0.0000000000000000e+00  0.0000000000000000e+00 0.0000000000000000e+00 0.0000000000000000e+00  0.0000000000000000e+00 0.0000000000000000e+00 0.0000000000000000e+00  0.0000000000000000e+00 0.0000000000000000e+00 0.0000000000000000e+00  0.0000000000000000e+00 0.0000000000000000e+00 0.0000000000000000e+00  0.0000000000000000e+00 0.0000000000000000e+00 0.0000000000000000e+00  0.0000000000000000e+00 0.0000000000000000e+00 0.0000000000000000e+00  0.0000000000000000e+00 0.0000000000000000e+00 0.0000000000000000e+00  0.0000000000000000e+00 0.0000000000000000e+00 0.0000000000000000e+00  0.0000000000000000e+00 0.0000000000000000e+00 0.0000000000000000e+00  0.0000000000000000e+00 0.0000000000000000e+00 0.0000000000000000e+00  0.0000000000000000e+00 0.0000000000000000e+00 0.0000000000000000e+00  0.0000000000000000e+00 0.0000000000000000e+00 0.0000000000000000e+00  0.0000000000000000e+00 0.0000000000000000e+00 0.0000000000000000e+00  0.0000000000000000e+00 0.0000000000000000e+00 0.0000000000000000e+00  0.0000000000000000e+00 0.0000000000000000e+00 0.0000000000000000e+00  0.0000000000000000e+00 0.0000000000000000e+00 0.0000000000000000e+00  0.0000000000000000e+00 0.0000000000000000e+00 0.0000000000000000e+00  0.0000000000000000e+00 0.0000000000000000e+00 0.0000000000000000e+00  0.0000000000000000e+00 0.0000000000000000e+00 0.0000000000000000e+00  0.0000000000000000e+00 0.0000000000000000e+00 0.0000000000000000e+00  0.0000000000000000e+00 0.0000000000000000e+00 0.0000000000000000e+00  7.5582712179512220e-04 -6.9143332377907981e-04 0.0000000000000000e+00  1.1728163020239169e-03 -1.1103647568973217e-03 0.0000000000000000e+00  1.4664078639431619e-03 -1.4786500407030579e-03 0.0000000000000000e+00  1.6866177071437401e-03 -1.8289996330600495e-03 0.0000000000000000e+00  1.8550655304551294e-03 -2.1727958298116976e-03 0.0000000000000000e+00  1.9844610297799557e-03 -2.5159713778925199e-03 0.0000000000000000e+00  2.0836339349507896e-03 -2.8617693410043369e-03 0.0000000000000000e+00  2.1591463495413861e-03 -3.2119227220190967e-03 0.0000000000000000e+00  2.2160567422919897e-03 -3.5672764414891745e-03 0.0000000000000000e+00  2.2583515658018065e-03 -3.9281297675093788e-03 0.0000000000000000e+00  2.2892115396082944e-03 -4.2944392554578603e-03 0.0000000000000000e+00  2.3111887794063021e-03 -4.6659476817802956e-03 0.0000000000000000e+00  2.3263327794033665e-03 -5.0422700601326720e-03 0.0000000000000000e+00  2.3362851261327015e-03 -5.4229526730237747e-03 0.0000000000000000e+00  2.3423538152126566e-03 -5.8075139936040882e-03 0.0000000000000000e+00  2.3455733641383689e-03 -6.1954728527637169e-03 0.0000000000000000e+00  2.3467543973437425e-03 -6.5863673380751071e-03 0.0000000000000000e+00  2.3465249950407178e-03 -6.9797668516448216e-03 0.0000000000000000e+00  2.3453653247822647e-03 -7.3752791066929611e-03 0.0000000000000000e+00  2.3436366382706773e-03 -7.7725534140199778e-03 0.0000000000000000e+00  2.3416054641970398e-03 -8.1712813031219224e-03 0.0000000000000000e+00  2.3394636764083104e-03 -8.5711952900351402e-03 0.0000000000000000e+00  2.3373450183767266e-03 -8.9720664201661561e-03 0.0000000000000000e+00  2.3353385939757013e-03 -9.3737010661844259e-03 0.0000000000000000e+00  2.3334997772852749e-03 -9.7759373409625830e-03 0.0000000000000000e+00  2.3318589437649972e-03 -1.0178641388651152e-02 0.0000000000000000e+00  2.3304283786206997e-03 -1.0581703739635467e-02 0.0000000000000000e+00  2.3292076744927653e-03 -1.0985035854327922e-02 0.0000000000000000e+00  2.3281878895750562e-03 -1.1388566933845311e-02 0.0000000000000000e+00  2.3273546991588487e-03 -1.1792241040234306e-02 0.0000000000000000e+00  2.3266907386702900e-03 -1.2196014542922261e-02 0.0000000000000000e+00  2.3261773047428933e-03 -1.2599853889628124e-02 0.0000000000000000e+00  2.3257955528280449e-03 -1.3003733687472799e-02 0.0000000000000000e+00  2.3255273052610547e-03 -1.3407635072128454e-02 0.0000000000000000e+00  2.3253555624331975e-03 -1.3811544338430494e-02 0.0000000000000000e+00  2.3252647915614150e-03 -1.4215451804040513e-02 0.0000000000000000e+00  2.3252410522442792e-03 -1.4619350877780518e-02 0.0000000000000000e+00  2.3252720052787286e-03 -1.5023237305613489e-02 0.0000000000000000e+00  2.3253468408332644e-03 -1.5427108569518566e-02 0.0000000000000000e+00  2.3254561538243847e-03 -1.5830963417429077e-02 0.0000000000000000e+00  2.3255917881109204e-03 -1.6234801505809138e-02 0.0000000000000000e+00  2.3257466669698444e-03 -1.6638623140291253e-02 0.0000000000000000e+00  2.3259146256488917e-03 -1.7042429104138133e-02 0.0000000000000000e+00  2.3260902637129129e-03 -1.7446220569262840e-02 0.0000000000000000e+00  2.3262688430883151e-03 -1.7849999090286998e-02 0.0000000000000000e+00  2.3264462789840392e-03 -1.8253766688580007e-02 0.0000000000000000e+00  2.3266193270078408e-03 -1.8657526036299985e-02 0.0000000000000000e+00  2.3267862521798763e-03 -1.9061280688817225e-02 0.0000000000000000e+00  2.1340107008934197e-03 -1.9464891183800272e-02 0.0000000000000000e+00  1.9410730460061372e-03 -1.9464750971161578e-02 0.0000000000000000e+00  1.7481383727200193e-03 -1.9464615469956568e-02 0.0000000000000000e+00  1.5552091512265581e-03 -1.9464483627321581e-02 0.0000000000000000e+00  1.3622869679949642e-03 -1.9464353181909776e-02 0.0000000000000000e+00  1.1693725657627989e-03 -1.9464221409541623e-02 0.0000000000000000e+00  9.7646598155809927e-04 -1.9464085526905397e-02 0.0000000000000000e+00  7.8356668457455272e-04 -1.9463942933787160e-02 0.0000000000000000e+00  5.9067370072782928e-04 -1.9463791365152645e-02 0.0000000000000000e+00  3.9778572276747028e-04 -1.9463628987178041e-02 0.0000000000000000e+00  2.0490120697114734e-04 -1.9463454456626585e-02 0.0000000000000000e+00  1.2018458655346712e-05 -1.9463266955739772e-02 0.0000000000000000e+00  -1.8086429031947832e-04 -1.9463066210328842e-02 0.0000000000000000e+00  -3.7374880821179710e-04 -1.9462852495384219e-02 0.0000000000000000e+00  -5.6663679005257276e-04 -1.9462626629602967e-02 0.0000000000000000e+00  -7.5952978011356966e-04 -1.9462389957438181e-02 0.0000000000000000e+00  -9.5242908635498542e-04 -1.9462144314355889e-02 0.0000000000000000e+00  -1.1453356836799451e-03 -1.9461891967611583e-02 0.0000000000000000e+00  -1.3382501037763114e-03 -1.9461635520331508e-02 0.0000000000000000e+00  -1.5311723105568492e-03 -1.9461377759247129e-02 0.0000000000000000e+00  -1.7241015623285511e-03 -1.9461121410899312e-02 0.0000000000000000e+00  -1.9170362723276396e-03 -1.9460868731653098e-02 0.0000000000000000e+00  -2.1099739542462474e-03 -1.9460620759358595e-02 0.0000000000000000e+00  -2.3031868270192925e-03 -1.9056621911201974e-02 0.0000000000000000e+00  -2.3034573970539584e-03 -1.8652867284572324e-02 0.0000000000000000e+00  -2.3037218684489645e-03 -1.8249107955119678e-02 0.0000000000000000e+00  -2.3039819422554270e-03 -1.7845340369205525e-02 0.0000000000000000e+00  -2.3042408607142108e-03 -1.7441561856551831e-02 0.0000000000000000e+00  -2.3045027139380696e-03 -1.7037770397556978e-02 0.0000000000000000e+00  -2.3047722442204152e-03 -1.6633964439153607e-02 0.0000000000000000e+00  -2.3050548544325321e-03 -1.6230142810814474e-02 0.0000000000000000e+00  -2.3053567103529225e-03 -1.5826304730604118e-02 0.0000000000000000e+00  -2.3056848886247169e-03 -1.5422449894269477e-02 0.0000000000000000e+00  -2.3060475443405955e-03 -1.5018578646874560e-02 0.0000000000000000e+00  -2.3064540805702457e-03 -1.4614692242250477e-02 0.0000000000000000e+00  -2.3069153040679111e-03 -1.4210793200504772e-02 0.0000000000000000e+00  -2.3074435497170637e-03 -1.3806885778175276e-02 0.0000000000000000e+00  -2.3080527521078314e-03 -1.3402976569459388e-02 0.0000000000000000e+00  -2.3087584364038776e-03 -1.2999075260358955e-02 0.0000000000000000e+00  -2.3095775924013248e-03 -1.2595195560503009e-02 0.0000000000000000e+00  -2.3105283852989391e-03 -1.2191356339687856e-02 0.0000000000000000e+00  -2.3116296439796295e-03 -1.1787582997533790e-02 0.0000000000000000e+00  -2.3129000522926235e-03 -1.1383909094697274e-02 0.0000000000000000e+00  -2.3143569506554290e-03 -1.0980378272252138e-02 0.0000000000000000e+00  -2.3160146340088319e-03 -1.0577046481448108e-02 0.0000000000000000e+00  -2.3178820075445369e-03 -1.0173984538170724e-02 0.0000000000000000e+00  -2.3199594335413611e-03 -9.7712810039449656e-03 0.0000000000000000e+00  -2.3222345710524638e-03 -9.3690453768978041e-03 0.0000000000000000e+00  -2.3246769751610157e-03 -8.9674115501181349e-03 0.0000000000000000e+00  -2.3272311842630843e-03 -8.5665414594649665e-03 0.0000000000000000e+00  -2.3298079826128124e-03 -8.1666287959486147e-03 0.0000000000000000e+00  -2.3322734813782152e-03 -7.7679025969545484e-03 0.0000000000000000e+00  -2.3344356145457964e-03 -7.3706304531186706e-03 0.0000000000000000e+00  -2.3360275950804160e-03 -6.9751209705456617e-03 0.0000000000000000e+00  -2.3366878187231202e-03 -6.5817250076029461e-03 0.0000000000000000e+00  -2.3359356308276088e-03 -6.1908350567598915e-03 0.0000000000000000e+00  -2.3331422719265215e-03 -5.8028819572107969e-03 0.0000000000000000e+00  -2.3274961642902338e-03 -5.4183278899658056e-03 0.0000000000000000e+00  -2.3179614472246188e-03 -5.0376542986245729e-03 0.0000000000000000e+00  -2.3032282283377129e-03 -4.6613429472680034e-03 0.0000000000000000e+00  -2.2816522393518815e-03 -4.2898476749159585e-03 0.0000000000000000e+00  -2.2511801915286603e-03 -3.9235533393006741e-03 0.0000000000000000e+00  -2.2092545982734272e-03 -3.5627165633166972e-03 0.0000000000000000e+00  -2.1526871506064847e-03 -3.2073793632501194e-03 0.0000000000000000e+00  -2.0774807726813304e-03 -2.8572396614301807e-03 0.0000000000000000e+00  -1.9785626542288583e-03 -2.5114475305457805e-03 0.0000000000000000e+00  -1.8493539692200430e-03 -2.1682622119990769e-03 0.0000000000000000e+00  -1.6810206837473900e-03 -1.8244380544759921e-03 0.0000000000000000e+00  -1.4609544161026560e-03 -1.4741103290694148e-03 0.0000000000000000e+00  -1.1680938273126986e-03 -1.1060140982344301e-03 0.0000000000000000e+00  -7.5259891121365373e-04 -6.8181814407952104e-04 0.0000000000000000e+00  -5.2952589457023471e-04 -4.0642036009092296e-04 0.0000000000000000e+00  -9.6777648818798358e-04 -8.5720011109470279e-04 0.0000000000000000e+00  -1.2788679620729941e-03 -1.2738897821029146e-03 0.0000000000000000e+00  -1.5070713764224709e-03 -1.6645233694796595e-03 0.0000000000000000e+00  -1.6786143725544117e-03 -2.0410242478732426e-03 0.0000000000000000e+00  -1.8085310261725085e-03 -2.4107412646129280e-03 0.0000000000000000e+00  -1.9067660847563771e-03 -2.7780625469448288e-03 0.0000000000000000e+00  -1.9805077214506105e-03 -3.1456427447260401e-03 0.0000000000000000e+00  -2.0351992431151119e-03 -3.5150652340592537e-03 0.0000000000000000e+00  -2.0750730368346883e-03 -3.8872252305042791e-03 0.0000000000000000e+00  -2.1034689962892892e-03 -4.2625666110128321e-03 0.0000000000000000e+00  -2.1230413496944067e-03 -4.6412354561169156e-03 0.0000000000000000e+00  -2.1359028541283096e-03 -5.0231833287684574e-03 0.0000000000000000e+00  -2.1437313846605121e-03 -5.4082385764513330e-03 0.0000000000000000e+00  -2.1478523905425775e-03 -5.7961562875406929e-03 0.0000000000000000e+00  -2.1493047956459978e-03 -6.1866534146989456e-03 0.0000000000000000e+00  -2.1488947967235128e-03 -6.5794332766062535e-03 0.0000000000000000e+00  -2.1472403142084079e-03 -6.9742023043731036e-03 0.0000000000000000e+00  -2.1448079090267045e-03 -7.3706810719153439e-03 0.0000000000000000e+00  -2.1419434480420213e-03 -7.7686111118226283e-03 0.0000000000000000e+00  -2.1388974932510076e-03 -8.1677586484001207e-03 0.0000000000000000e+00  -2.1358462031176111e-03 -8.5679161119571294e-03 0.0000000000000000e+00  -2.1329084120740964e-03 -8.9689020968341127e-03 0.0000000000000000e+00  -2.1301594656120749e-03 -9.3705602695373837e-03 0.0000000000000000e+00  -2.1276423174087689e-03 -9.7727576104992171e-03 0.0000000000000000e+00  -2.1253763335135028e-03 -1.0175382275704418e-02 0.0000000000000000e+00  -2.1233641930514520e-03 -1.0578341287485771e-02 0.0000000000000000e+00  -2.1215972237345962e-03 -1.0981558203332908e-02 0.0000000000000000e+00  -2.1200594633135326e-03 -1.1384970864556919e-02 0.0000000000000000e+00  -2.1187306949890699e-03 -1.1788529290630272e-02 0.0000000000000000e+00  -2.1175886658515216e-03 -1.2192193757902588e-02 0.0000000000000000e+00  -2.1166106626925676e-03 -1.2595933081429663e-02 0.0000000000000000e+00  -2.1157745889962731e-03 -1.2999723104372331e-02 0.0000000000000000e+00  -2.1150596604084886e-03 -1.3403545389593690e-02 0.0000000000000000e+00  -2.1144468132645688e-03 -1.3807386101692309e-02 0.0000000000000000e+00  -2.1139189015213816e-03 -1.4211235063928301e-02 0.0000000000000000e+00  -2.1134607413571152e-03 -1.4615084972663330e-02 0.0000000000000000e+00  -2.1130590494346231e-03 -1.5018930751520502e-02 0.0000000000000000e+00  -2.1127023100595819e-03 -1.5422769028067442e-02 0.0000000000000000e+00  -2.1123805979485922e-03 -1.5826597717120420e-02 0.0000000000000000e+00  -2.1120853769051365e-03 -1.6230415696511118e-02 0.0000000000000000e+00  -2.1118092904253648e-03 -1.6634222563126921e-02 0.0000000000000000e+00  -2.1115459585429076e-03 -1.7038018458961385e-02 0.0000000000000000e+00  -2.1112897973183304e-03 -1.7441803958313580e-02 0.0000000000000000e+00  -2.1110358865432128e-03 -1.7845580007039372e-02 0.0000000000000000e+00  -2.1107799361252204e-03 -1.8249347899942224e-02 0.0000000000000000e+00  -2.1105184644142050e-03 -1.8653109267714480e-02 0.0000000000000000e+00  -2.1102494421840826e-03 -1.9056866050722359e-02 0.0000000000000000e+00  -4.0758797287491870e-04 -3.3123981353804617e-04 0.0000000000000000e+00  -7.9114421865623735e-04 -7.2437677264805707e-04 0.0000000000000000e+00  -1.0950403595755454e-03 -1.1326739772946114e-03 0.0000000000000000e+00  -1.3252864210669384e-03 -1.5347877915105296e-03 0.0000000000000000e+00  -1.4990341828176922e-03 -1.9282065455835022e-03 0.0000000000000000e+00  -1.6300933697992648e-03 -2.3152521609578480e-03 0.0000000000000000e+00  -1.7285205412599053e-03 -2.6985968179964147e-03 0.0000000000000000e+00  -1.8017745425480871e-03 -3.0803524260502131e-03 0.0000000000000000e+00  -1.8555396330604331e-03 -3.4620151945867401e-03 0.0000000000000000e+00  -1.8942336351051607e-03 -3.8445775743246920e-03 0.0000000000000000e+00  -1.9213312742068311e-03 -4.2286525228980645e-03 0.0000000000000000e+00  -1.9395812159619032e-03 -4.6145775986560361e-03 0.0000000000000000e+00  -1.9511598471185761e-03 -5.0024957247289913e-03 0.0000000000000000e+00  -1.9577856758114286e-03 -5.3924161049028526e-03 0.0000000000000000e+00  -1.9608078883792280e-03 -5.7842595359337366e-03 0.0000000000000000e+00  -1.9612769474130990e-03 -6.1778917455629478e-03 0.0000000000000000e+00  -1.9600019835971033e-03 -6.5731476055845570e-03 0.0000000000000000e+00  -1.9575979784096928e-03 -6.9698484093768552e-03 0.0000000000000000e+00  -1.9545247396819329e-03 -7.3678138945005092e-03 0.0000000000000000e+00  -1.9511190991534468e-03 -7.7668703063678785e-03 0.0000000000000000e+00  -1.9476214222310989e-03 -8.1668555067147663e-03 0.0000000000000000e+00  -1.9441973097136963e-03 -8.5676219055688500e-03 0.0000000000000000e+00  -1.9409552305562790e-03 -8.9690378198648262e-03 0.0000000000000000e+00  -1.9379607216097161e-03 -9.3709877235838360e-03 0.0000000000000000e+00  -1.9352477075458038e-03 -9.7733717447934937e-03 0.0000000000000000e+00  -1.9328274231536467e-03 -1.0176104678143703e-02 0.0000000000000000e+00  -1.9306953567404654e-03 -1.0579114712703914e-02 0.0000000000000000e+00  -1.9288365757372777e-03 -1.0982342021013636e-02 0.0000000000000000e+00  -1.9272297431788593e-03 -1.1385737313078971e-02 0.0000000000000000e+00  -1.9258500863417005e-03 -1.1789260426524407e-02 0.0000000000000000e+00  -1.9246715364477191e-03 -1.2192878999339065e-02 0.0000000000000000e+00  -1.9236682209013720e-03 -1.2596567253100219e-02 0.0000000000000000e+00  -1.9228154568611915e-03 -1.3000304900937485e-02 0.0000000000000000e+00  -1.9220903667941820e-03 -1.3404076184766084e-02 0.0000000000000000e+00  -1.9214722126913088e-03 -1.3807869039601080e-02 0.0000000000000000e+00  -1.9209425254534237e-03 -1.4211674378363697e-02 0.0000000000000000e+00  -1.9204850891919416e-03 -1.4615485487933941e-02 0.0000000000000000e+00  -1.9200858264363375e-03 -1.5019297525834783e-02 0.0000000000000000e+00  -1.9197326191471374e-03 -1.5423107106479667e-02 0.0000000000000000e+00  -1.9194150917113057e-03 -1.5826911966077769e-02 0.0000000000000000e+00  -1.9191243755737578e-03 -1.6230710695807598e-02 0.0000000000000000e+00  -1.9188528708595836e-03 -1.6634502533497724e-02 0.0000000000000000e+00  -1.9185940186528434e-03 -1.7038287204545983e-02 0.0000000000000000e+00  -1.9183420995945808e-03 -1.7442064802965510e-02 0.0000000000000000e+00  -1.9180920825101586e-03 -1.7845835703543970e-02 0.0000000000000000e+00  -1.9178395650680223e-03 -1.8249600499494843e-02 0.0000000000000000e+00  -1.9175808790726989e-03 -1.8653359985206935e-02 0.0000000000000000e+00  -1.9173134408183251e-03 -1.9057115315795941e-02 0.0000000000000000e+00  -3.3066764298224631e-04 -3.0283054892790012e-04 0.0000000000000000e+00  -6.5322492540829252e-04 -6.5755357536512139e-04 0.0000000000000000e+00  -9.2903366557284023e-04 -1.0429868185594096e-03 0.0000000000000000e+00  -1.1489163223203501e-03 -1.4390660212309904e-03 0.0000000000000000e+00  -1.3189867675644916e-03 -1.8362451685139571e-03 0.0000000000000000e+00  -1.4485601525310984e-03 -2.2316034657724453e-03 0.0000000000000000e+00  -1.5461164449253814e-03 -2.6249348432684154e-03 0.0000000000000000e+00  -1.6185963209617968e-03 -3.0168802040588939e-03 0.0000000000000000e+00  -1.6715411278139598e-03 -3.4082078885715379e-03 0.0000000000000000e+00  -1.7093569149260808e-03 -3.7995726147401704e-03 0.0000000000000000e+00  -1.7355472807415802e-03 -4.1914576583530223e-03 0.0000000000000000e+00  -1.7528964799842775e-03 -4.5841832025188276e-03 0.0000000000000000e+00  -1.7636112425093622e-03 -4.9779351914948930e-03 0.0000000000000000e+00  -1.7694319516256961e-03 -5.3727971608721952e-03 0.0000000000000000e+00  -1.7717213874606853e-03 -5.7687787459862194e-03 0.0000000000000000e+00  -1.7715366997465328e-03 -6.1658390784198351e-03 0.0000000000000000e+00  -1.7696884320775577e-03 -6.5639050522707989e-03 0.0000000000000000e+00  -1.7667892198404860e-03 -6.9628850798417385e-03 0.0000000000000000e+00  -1.7632940338125761e-03 -7.3626791229299150e-03 0.0000000000000000e+00  -1.7595333761246405e-03 -7.7631857616844453e-03 0.0000000000000000e+00  -1.7557405412472009e-03 -8.1643069691317103e-03 0.0000000000000000e+00  -1.7520738600555715e-03 -8.5659511482200218e-03 0.0000000000000000e+00  -1.7486347068370928e-03 -8.9680348814758903e-03 0.0000000000000000e+00  -1.7454819426713491e-03 -9.3704837493192722e-03 0.0000000000000000e+00  -1.7426433804660919e-03 -9.7732324938547572e-03 0.0000000000000000e+00  -1.7401247801063281e-03 -1.0176224739988074e-02 0.0000000000000000e+00  -1.7379168133333464e-03 -1.0579412433422314e-02 0.0000000000000000e+00  -1.7360003756675818e-03 -1.0982755113590039e-02 0.0000000000000000e+00  -1.7343505663721453e-03 -1.1386219107051896e-02 0.0000000000000000e+00  -1.7329396069234444e-03 -1.1789776701698153e-02 0.0000000000000000e+00  -1.7317389235842657e-03 -1.2193405342816398e-02 0.0000000000000000e+00  -1.7307205802892052e-03 -1.2597086877547275e-02 0.0000000000000000e+00  -1.7298582138914255e-03 -1.3000806863456737e-02 0.0000000000000000e+00  -1.7291275945379696e-03 -1.3404553949100584e-02 0.0000000000000000e+00  -1.7285069091322164e-03 -1.3808319328885909e-02 0.0000000000000000e+00  -1.7279768450651255e-03 -1.4212096270712737