<?xml version="1.0"?>
<VTKFile type="UnstructuredGrid"  version="0.1"  >
<UnstructuredGrid>
<Piece  NumberOfPoints="1250" NumberOfCells="2352">
<Points>
<DataArray  type="Float64"  NumberOfComponents="3"  format="ascii">0 0 0  0.0336 0 0  0.0336 0.07729999999999999 0  0 0.07729999999999999 0  0.001400000000000002 0 0  0.002800000000000005 0 0  0.004200000000000008 0 0  0.005600000000000009 0 0  0.007000000000000011 0 0  0.008400000000000013 0 0  0.009800000000000019 0 0  0.01120000000000002 0 0  0.01260000000000003 0 0  0.01400000000000003 0 0  0.01540000000000004 0 0  0.01680000000000005 0 0  0.01820000000000004 0 0  0.01960000000000004 0 0  0.02100000000000004 0 0  0.02240000000000003 0 0  0.02380000000000003 0 0  0.02520000000000002 0 0  0.02660000000000002 0 0  0.02800000000000001 0 0  0.02940000000000001 0 0  0.03080000000000001 0 0  0.0322 0 0  0.0336 0.001577551020408161 0  0.0336 0.003155102040816321 0  0.0336 0.004732653061224482 0  0.0336 0.006310204081632642 0  0.0336 0.007887755102040803 0  0.0336 0.009465306122448964 0  0.0336 0.01104285714285712 0  0.0336 0.01262040816326528 0  0.0336 0.01419795918367344 0  0.0336 0.0157755102040816 0  0.0336 0.01735306122448976 0  0.0336 0.01893061224489792 0  0.0336 0.02050816326530608 0  0.0336 0.02208571428571425 0  0.0336 0.02366326530612241 0  0.0336 0.02524081632653058 0  0.0336 0.02681836734693874 0  0.0336 0.02839591836734691 0  0.0336 0.02997346938775507 0  0.0336 0.03155102040816323 0  0.0336 0.0331285714285714 0  0.0336 0.03470612244897956 0  0.0336 0.03628367346938772 0  0.0336 0.03786122448979588 0  0.0336 0.03943877551020405 0  0.0336 0.04101632653061221 0  0.0336 0.04259387755102037 0  0.0336 0.04417142857142854 0  0.0336 0.04574897959183671 0  0.0336 0.04732653061224486 0  0.0336 0.04890408163265302 0  0.0336 0.05048163265306119 0  0.0336 0.05205918367346936 0  0.0336 0.05363673469387752 0  0.0336 0.05521428571428568 0  0.0336 0.05679183673469385 0  0.0336 0.05836938775510202 0  0.0336 0.05994693877551018 0  0.0336 0.06152448979591834 0  0.0336 0.0631020408163265 0  0.0336 0.06467959183673468 0  0.0336 0.06625714285714283 0  0.0336 0.06783469387755101 0  0.0336 0.06941224489795916 0  0.0336 0.07098979591836733 0  0.0336 0.07256734693877549 0  0.0336 0.07414489795918365 0  0.0336 0.07572244897959182 0  0.03219999999999999 0.07729999999999999 0  0.03079999999999999 0.07729999999999999 0  0.02939999999999999 0.07729999999999999 0  0.02799999999999999 0.07729999999999999 0  0.02659999999999999 0.07729999999999999 0  0.02519999999999999 0.07729999999999999 0  0.02379999999999998 0.07729999999999999 0  0.02239999999999998 0.07729999999999999 0  0.02099999999999997 0.07729999999999999 0  0.01959999999999996 0.07729999999999999 0  0.01819999999999996 0.07729999999999999 0  0.01679999999999995 0.07729999999999999 0  0.01539999999999996 0.07729999999999999 0  0.01399999999999996 0.07729999999999999 0  0.01259999999999996 0.07729999999999999 0  0.01119999999999997 0.07729999999999999 0  0.009799999999999972 0.07729999999999999 0  0.008399999999999977 0.07729999999999999 0  0.006999999999999978 0.07729999999999999 0  0.005599999999999983 0.07729999999999999 0  0.004199999999999988 0.07729999999999999 0  0.00279999999999999 0.07729999999999999 0  0.001399999999999998 0.07729999999999999 0  0 0.07572244897959184 0  0 0.07414489795918368 0  0 0.07256734693877551 0  0 0.07098979591836735 0  0 0.06941224489795919 0  0 0.06783469387755103 0  0 0.06625714285714288 0  0 0.06467959183673472 0  0 0.06310204081632656 0  0 0.0615244897959184 0  0 0.05994693877551023 0  0 0.05836938775510207 0  0 0.05679183673469392 0  0 0.05521428571428574 0  0 0.05363673469387759 0  0 0.05205918367346941 0  0 0.05048163265306126 0  0 0.04890408163265308 0  0 0.04732653061224493 0  0 0.04574897959183676 0  0 0.0441714285714286 0  0 0.04259387755102043 0  0 0.04101632653061228 0  0 0.03943877551020411 0  0 0.03786122448979595 0  0 0.03628367346938779 0  0 0.03470612244897962 0  0 0.03312857142857146 0  0 0.03155102040816329 0  0 0.02997346938775513 0  0 0.02839591836734697 0  0 0.0268183673469388 0  0 0.02524081632653064 0  0 0.02366326530612247 0  0 0.02208571428571431 0  0 0.02050816326530614 0  0 0.01893061224489798 0  0 0.01735306122448981 0  0 0.01577551020408165 0  0 0.01419795918367349 0  0 0.01262040816326532 0  0 0.01104285714285716 0  0 0.009465306122448988 0  0 0.00788775510204083 0  0 0.006310204081632659 0  0 0.004732653061224501 0  0 0.003155102040816343 0  0 0.001577551020408172 0  0.001400000000000004 0.001577551020408172 0  0.001400000000000004 0.003155102040816329 0  0.001400000000000002 0.004732653061224501 0  0.001400000000000002 0.006310204081632645 0  0.001400000000000005 0.007887755102040823 0  0.001400000000000002 0.009465306122448981 0  0.001400000000000002 0.01104285714285717 0  0.001400000000000004 0.01262040816326531 0  0.0014 0.01419795918367349 0  0.001400000000000002 0.01577551020408166 0  0.001400000000000005 0.0173530612244898 0  0.001400000000000002 0.01893061224489797 0  0.001400000000000002 0.02050816326530613 0  0.001400000000000002 0.02208571428571431 0  0.001400000000000002 0.02366326530612247 0  0.001400000000000002 0.02524081632653063 0  0.001400000000000002 0.0268183673469388 0  0.001400000000000002 0.02839591836734696 0  0.001400000000000002 0.02997346938775513 0  0.001400000000000002 0.03155102040816328 0  0.001400000000000002 0.03312857142857147 0  0.001399999999999997 0.03470612244897962 0  0.001400000000000005 0.03628367346938778 0  0.001400000000000002 0.03786122448979594 0  0.001400000000000002 0.03943877551020411 0  0.001400000000000002 0.04101632653061228 0  0.001400000000000002 0.04259387755102043 0  0.001400000000000002 0.0441714285714286 0  0.0014 0.04574897959183676 0  0.001400000000000002 0.04732653061224492 0  0.001400000000000004 0.04890408163265308 0  0.001400000000000002 0.05048163265306126 0  0.001400000000000002 0.05205918367346941 0  0.0014 0.05363673469387758 0  0.001400000000000004 0.05521428571428574 0  0.001399999999999998 0.05679183673469391 0  0.001400000000000002 0.05836938775510207 0  0.0014 0.05994693877551023 0  0.001400000000000002 0.0615244897959184 0  0.001400000000000002 0.06310204081632656 0  0.001400000000000002 0.06467959183673472 0  0.0014 0.06625714285714286 0  0.001400000000000002 0.06783469387755102 0  0.001399999999999998 0.06941224489795919 0  0.001400000000000002 0.07098979591836735 0  0.0014 0.07256734693877552 0  0.001400000000000002 0.07414489795918368 0  0.001400000000000002 0.07572244897959184 0  0.002800000000000006 0.001577551020408165 0  0.002800000000000004 0.003155102040816343 0  0.002800000000000002 0.004732653061224487 0  0.002800000000000002 0.006310204081632652 0  0.002800000000000002 0.007887755102040813 0  0.0028 0.009465306122448981 0  0.002799999999999997 0.01104285714285715 0  0.0028 0.01262040816326532 0  0.0028 0.01419795918367348 0  0.0028 0.01577551020408165 0  0.002799999999999997 0.0173530612244898 0  0.0028 0.01893061224489797 0  0.002800000000000004 0.02050816326530613 0  0.0028 0.0220857142857143 0  0.0028 0.02366326530612247 0  0.002800000000000004 0.02524081632653064 0  0.0028 0.0268183673469388 0  0.0028 0.02839591836734696 0  0.002799999999999995 0.02997346938775512 0  0.002799999999999997 0.03155102040816328 0  0.002799999999999995 0.03312857142857146 0  0.0028 0.03470612244897962 0  0.002799999999999995 0.03628367346938778 0  0.002799999999999997 0.03786122448979594 0  0.002799999999999997 0.03943877551020411 0  0.002799999999999997 0.04101632653061228 0  0.002799999999999997 0.04259387755102043 0  0.002799999999999995 0.0441714285714286 0  0.002799999999999997 0.04574897959183676 0  0.002799999999999997 0.04732653061224493 0  0.002799999999999995 0.04890408163265308 0  0.002799999999999993 0.05048163265306124 0  0.002799999999999995 0.05205918367346941 0  0.002799999999999995 0.05363673469387757 0  0.002799999999999992 0.05521428571428574 0  0.002799999999999997 0.05679183673469391 0  0.002799999999999993 0.05836938775510207 0  0.002799999999999993 0.05994693877551022 0  0.002799999999999992 0.0615244897959184 0  0.002799999999999988 0.06310204081632655 0  0.002799999999999992 0.0646795918367347 0  0.002799999999999992 0.06625714285714286 0  0.00279999999999999 0.06783469387755103 0  0.00279999999999999 0.06941224489795919 0  0.002799999999999988 0.07098979591836735 0  0.00279999999999999 0.07256734693877552 0  0.002799999999999988 0.07414489795918368 0  0.00279999999999999 0.07572244897959184 0  0.004200000000000006 0.001577551020408172 0  0.004200000000000006 0.003155102040816329 0  0.004200000000000008 0.00473265306122448 0  0.004200000000000009 0.006310204081632652 0  0.004200000000000008 0.00788775510204082 0  0.004200000000000008 0.009465306122448978 0  0.004200000000000006 0.01104285714285716 0  0.004200000000000006 0.01262040816326532 0  0.004200000000000004 0.01419795918367349 0  0.004200000000000002 0.01577551020408165 0  0.004200000000000004 0.0173530612244898 0  0.004200000000000006 0.01893061224489797 0  0.004200000000000006 0.02050816326530613 0  0.004200000000000002 0.0220857142857143 0  0.004200000000000004 0.02366326530612247 0  0.004199999999999999 0.02524081632653062 0  0.004200000000000004 0.0268183673469388 0  0.004200000000000004 0.02839591836734696 0  0.004200000000000002 0.02997346938775512 0  0.004199999999999999 0.03155102040816328 0  0.004200000000000001 0.03312857142857145 0  0.004200000000000001 0.03470612244897962 0  0.004199999999999995 0.03628367346938778 0  0.004199999999999999 0.03786122448979594 0  0.004199999999999999 0.0394387755102041 0  0.004199999999999997 0.04101632653061227 0  0.004199999999999999 0.04259387755102043 0  0.004199999999999999 0.04417142857142859 0  0.004199999999999999 0.04574897959183676 0  0.004199999999999999 0.04732653061224492 0  0.004199999999999997 0.04890408163265308 0  0.004199999999999997 0.05048163265306124 0  0.004199999999999999 0.05205918367346941 0  0.004199999999999992 0.05363673469387757 0  0.0
[...]
<PointData  Vectors="displacement"> 
<DataArray  type="Float64"  Name="displacement"  NumberOfComponents="3" format="ascii">0.0000000000000000e+00 0.0000000000000000e+00 0.0000000000000000e+00  0.0000000000000000e+00 0.0000000000000000e+00 0.0000000000000000e+00  1.8155314053148227e-03 -1.5187004960723807e-02 0.0000000000000000e+00  -1.7967773245301886e-03 -1.5183370195789090e-02 0.0000000000000000e+00  0.0000000000000000e+00 0.0000000000000000e+00 0.0000000000000000e+00  0.0000000000000000e+00 0.0000000000000000e+00 0.0000000000000000e+00  0.0000000000000000e+00 0.0000000000000000e+00 0.0000000000000000e+00  0.0000000000000000e+00 0.0000000000000000e+00 0.0000000000000000e+00  0.0000000000000000e+00 0.0000000000000000e+00 0.0000000000000000e+00  0.0000000000000000e+00 0.0000000000000000e+00 0.0000000000000000e+00  0.0000000000000000e+00 0.0000000000000000e+00 0.0000000000000000e+00  0.0000000000000000e+00 0.0000000000000000e+00 0.0000000000000000e+00  0.0000000000000000e+00 0.0000000000000000e+00 0.0000000000000000e+00  0.0000000000000000e+00 0.0000000000000000e+00 0.0000000000000000e+00  0.0000000000000000e+00 0.0000000000000000e+00 0.0000000000000000e+00  0.0000000000000000e+00 0.0000000000000000e+00 0.0000000000000000e+00  0.0000000000000000e+00 0.0000000000000000e+00 0.0000000000000000e+00  0.0000000000000000e+00 0.0000000000000000e+00 0.0000000000000000e+00  0.0000000000000000e+00 0.0000000000000000e+00 0.0000000000000000e+00  0.0000000000000000e+00 0.0000000000000000e+00 0.0000000000000000e+00  0.0000000000000000e+00 0.0000000000000000e+00 0.0000000000000000e+00  0.0000000000000000e+00 0.0000000000000000e+00 0.0000000000000000e+00  0.0000000000000000e+00 0.0000000000000000e+00 0.0000000000000000e+00  0.0000000000000000e+00 0.0000000000000000e+00 0.0000000000000000e+00  0.0000000000000000e+00 0.0000000000000000e+00 0.0000000000000000e+00  0.0000000000000000e+00 0.0000000000000000e+00 0.0000000000000000e+00  0.0000000000000000e+00 0.0000000000000000e+00 0.0000000000000000e+00  5.8971127085112964e-04 -5.3946995591553639e-04 0.0000000000000000e+00  9.1505447740326026e-04 -8.6632854659020222e-04 0.0000000000000000e+00  1.1441204213182711e-03 -1.1536720097792871e-03 0.0000000000000000e+00  1.3159324967824538e-03 -1.4270216917281434e-03 0.0000000000000000e+00  1.4473588204649609e-03 -1.6952582847981053e-03 0.0000000000000000e+00  1.5483157485096008e-03 -1.9630106354985213e-03 0.0000000000000000e+00  1.6256924107857398e-03 -2.2328090462780665e-03 0.0000000000000000e+00  1.6846086903014742e-03 -2.5060056402566107e-03 0.0000000000000000e+00  1.7290113044255658e-03 -2.7832596411618317e-03 0.0000000000000000e+00  1.7620105623288220e-03 -3.0648045438808878e-03 0.0000000000000000e+00  1.7860881243097016e-03 -3.3506064520604679e-03 0.0000000000000000e+00  1.8032352015147335e-03 -3.6404646747955510e-03 0.0000000000000000e+00  1.8150508498640827e-03 -3.9340788381254221e-03 0.0000000000000000e+00  1.8228158676419071e-03 -4.2310949426888067e-03 0.0000000000000000e+00  1.8275507789020839e-03 -4.5311372917130055e-03 0.0000000000000000e+00  1.8300627346573011e-03 -4.8338304675408453e-03 0.0000000000000000e+00  1.8309842001252221e-03 -5.1388140769596177e-03 0.0000000000000000e+00  1.8308052159107643e-03 -5.4457521589755470e-03 0.0000000000000000e+00  1.8299004182365779e-03 -5.7543386436834315e-03 0.0000000000000000e+00  1.8285516628264290e-03 -6.0642999164330818e-03 0.0000000000000000e+00  1.8269669006370968e-03 -6.3753953024356961e-03 0.0000000000000000e+00  1.8252958354392874e-03 -6.6874161054119386e-03 0.0000000000000000e+00  1.8236428165355138e-03 -7.0001836904592159e-03 0.0000000000000000e+00  1.8220773645303084e-03 -7.3135469857042350e-03 0.0000000000000000e+00  1.8206426833762297e-03 -7.6273796836080696e-03 0.0000000000000000e+00  1.8193624726076511e-03 -7.9415773471892617e-03 0.0000000000000000e+00  1.8182463173851660e-03 -8.2560545660891119e-03 0.0000000000000000e+00  1.8172938998787457e-03 -8.5707422599700343e-03 0.0000000000000000e+00  1.8164982435143692e-03 -8.8855851901429427e-03 0.0000000000000000e+00  1.8158481718709455e-03 -9.2005397127101849e-03 0.0000000000000000e+00  1.8153301367644771e-03 -9.5155717862359431e-03 0.0000000000000000e+00  1.8149295454584755e-03 -9.8306552325668952e-03 0.0000000000000000e+00  1.8146316950633640e-03 -1.0145770239676480e-02 0.0000000000000000e+00  1.8144224030055927e-03 -1.0460902089242975e-02 0.0000000000000000e+00  1.8142884058541780e-03 -1.0776040088225887e-02 0.0000000000000000e+00  1.8142175846245347e-03 -1.1091176682273262e-02 0.0000000000000000e+00  1.8141990627397265e-03 -1.1406306728817662e-02 0.0000000000000000e+00  1.8142232129094524e-03 -1.1721426908775257e-02 0.0000000000000000e+00  1.8142816010893546e-03 -1.2036535257536360e-02 0.0000000000000000e+00  1.8143668892472518e-03 -1.2351630798213794e-02 0.0000000000000000e+00  1.8144727138004724e-03 -1.2666713262774061e-02 0.0000000000000000e+00  1.8145935533497339e-03 -1.2981782889677693e-02 0.0000000000000000e+00  1.8147245980333761e-03 -1.3296840290041738e-02 0.0000000000000000e+00  1.8148616343250758e-03 -1.3611886378215957e-02 0.0000000000000000e+00  1.8150009654860945e-03 -1.3926922367146901e-02 0.0000000000000000e+00  1.8151394044816508e-03 -1.4241949833946940e-02 0.0000000000000000e+00  1.8152744199727384e-03 -1.4556970863486699e-02 0.0000000000000000e+00  1.8154046582937683e-03 -1.4871988229736417e-02 0.0000000000000000e+00  1.6649973600372913e-03 -1.5186893121426497e-02 0.0000000000000000e+00  1.5144635853450166e-03 -1.5186783724752359e-02 0.0000000000000000e+00  1.3639321369569473e-03 -1.5186678004031978e-02 0.0000000000000000e+00  1.2134049421653468e-03 -1.5186575137800293e-02 0.0000000000000000e+00  1.0628832387648722e-03 -1.5186473361709765e-02 0.0000000000000000e+00  9.1236760625406266e-04 -1.5186370550301658e-02 0.0000000000000000e+00  7.6185807352292356e-04 -1.5186264531981089e-02 0.0000000000000000e+00  6.1135422642587017e-04 -1.5186153278009724e-02 0.0000000000000000e+00  4.6085530496304156e-04 -1.5186035021163018e-02 0.0000000000000000e+00  3.1036028919177228e-04 -1.5185908330655366e-02 0.0000000000000000e+00  1.5986797466936584e-04 -1.5185772158466882e-02 0.0000000000000000e+00  9.3770391702240035e-06 -1.5185625866566190e-02 0.0000000000000000e+00  -1.4111389684310147e-04 -1.5185469241025798e-02 0.0000000000000000e+00  -2.9160621300084502e-04 -1.5185302496398682e-02 0.0000000000000000e+00  -4.4210123179969248e-04 -1.5185126271448485e-02 0.0000000000000000e+00  -5.9260015811102025e-04 -1.5184941615144096e-02 0.0000000000000000e+00  -7.4310401243124621e-04 -1.5184749959552431e-02 0.0000000000000000e+00  -8.9361355539907192e-04 -1.5184553073631063e-02 0.0000000000000000e+00  -1.0441292018478850e-03 -1.5184352988390576e-02 0.0000000000000000e+00  -1.1946509236217115e-03 -1.5184151878093971e-02 0.0000000000000000e+00  -1.3451781420369951e-03 -1.5183951870042393e-02 0.0000000000000000e+00  -1.4957096190692510e-03 -1.5183754724696448e-02 0.0000000000000000e+00  -1.6462434148519012e-03 -1.5183561251807339e-02 0.0000000000000000e+00  -1.7969919199825085e-03 -1.4868353359289550e-02 0.0000000000000000e+00  -1.7972030240754799e-03 -1.4553336013237840e-02 0.0000000000000000e+00  -1.7974093698891577e-03 -1.4238314997950608e-02 0.0000000000000000e+00  -1.7976122846172671e-03 -1.3923287540808805e-02 0.0000000000000000e+00  -1.7978142979202646e-03 -1.3608251558408670e-02 0.0000000000000000e+00  -1.7980186009850237e-03 -1.3293205475017075e-02 0.0000000000000000e+00  -1.7982288938426681e-03 -1.2978148078900163e-02 0.0000000000000000e+00  -1.7984493919202436e-03 -1.2663078456789417e-02 0.0000000000000000e+00  -1.7986849058800988e-03 -1.2347995998603306e-02 0.0000000000000000e+00  -1.7989409570591806e-03 -1.2032900466957597e-02 0.0000000000000000e+00  -1.7992239082221084e-03 -1.1717792131078047e-02 0.0000000000000000e+00  -1.7995410958298477e-03 -1.1402671969228489e-02 0.0000000000000000e+00  -1.7999009515258194e-03 -1.1087541947646674e-02 0.0000000000000000e+00  -1.8003130992300918e-03 -1.0772405387367618e-02 0.0000000000000000e+00  -1.8007884109855169e-03 -1.0457267433314564e-02 0.0000000000000000e+00  -1.8013389998318711e-03 -1.0142135642697741e-02 0.0000000000000000e+00  -1.8019781215441546e-03 -9.8270207120409025e-03 0.0000000000000000e+00  -1.8027199489697551e-03 -9.5119373639323754e-03 0.0000000000000000e+00  -1.8035791727755589e-03 -9.1969054156583237e-03 0.0000000000000000e+00  -1.8045703704703015e-03 -8.8819510519067557e-03 0.0000000000000000e+00  -1.8057070713907218e-03 -8.5671083223067043e-03 0.0000000000000000e+00  -1.8070004287323767e-03 -8.2524208811299380e-03 0.0000000000000000e+00  -1.8084573905019824e-03 -7.9379439803310952e-03 0.0000000000000000e+00  -1.8100782393566373e-03 -7.6237467173637403e-03 0.0000000000000000e+00  -1.8118533466455096e-03 -7.3099145248324412e-03 0.0000000000000000e+00  -1.8137589586422807e-03 -6.9965518687735758e-03 0.0000000000000000e+00  -1.8157518031065233e-03 -6.6837850947474757e-03 0.0000000000000000e+00  -1.8177622721486095e-03 -6.3717653243116389e-03 0.0000000000000000e+00  -1.8196859030534744e-03 -6.0606712569646181e-03 0.0000000000000000e+00  -1.8213728421182802e-03 -5.7507116722135447e-03 0.0000000000000000e+00  -1.8226149368211063e-03 -5.4421273506455913e-03 0.0000000000000000e+00  -1.8231300563665044e-03 -5.1351920388990760e-03 0.0000000000000000e+00  -1.8225431844919749e-03 -4.8302119673621843e-03 0.0000000000000000e+00  -1.8203637506240850e-03 -4.5275232852964040e-03 0.0000000000000000e+00  -1.8159585457649952e-03 -4.2274865954678919e-03 0.0000000000000000e+00  -1.8085193709115955e-03 -3.9304775296961584e-03 0.0000000000000000e+00  -1.7970242221097155e-03 -3.6368719698465220e-03 0.0000000000000000e+00  -1.7801902087251583e-03 -3.3470240100993186e-03 0.0000000000000000e+00  -1.7564153142696705e-03 -3.0612339240698081e-03 0.0000000000000000e+00  -1.7237041371144827e-03 -2.7797019340163706e-03 0.0000000000000000e+00  -1.6795690955281812e-03 -2.5024608218765097e-03 0.0000000000000000e+00  -1.6208915918722853e-03 -2.2292749006763341e-03 0.0000000000000000e+00  -1.5437137192335381e-03 -1.9594810403159727e-03 0.0000000000000000e+00  -1.4429025474134677e-03 -1.6917210665048042e-03 0.0000000000000000e+00  -1.3115655884183160e-03 -1.4234626578878867e-03 0.0000000000000000e+00  -1.1398655334427497e-03 -1.1501300369662658e-03 0.0000000000000000e+00  -9.1136990922200908e-04 -8.6293407664445954e-04 0.0000000000000000e+00  -5.8719255710077138e-04 -5.3196800252359089e-04 0.0000000000000000e+00  -4.1314657708227669e-04 -3.1709720402698863e-04 0.0000000000000000e+00  -7.5507835891591029e-04 -6.6880448228269062e-04 0.0000000000000000e+00  -9.9779808029872518e-04 -9.9391400581657512e-04 0.0000000000000000e+00  -1.1758468980878822e-03 -1.2986940575061287e-03 0.0000000000000000e+00  -1.3096881368281929e-03 -1.5924474900989288e-03 0.0000000000000000e+00  -1.4110516797609996e-03 -1.8809080196430831e-03 0.0000000000000000e+00  -1.4876966155791885e-03 -2.1674993498141306e-03 0.0000000000000000e+00  -1.5452312991538154e-03 -2.4542926909401348e-03 0.0000000000000000e+00  -1.5879027061667845e-03 -2.7425234243759430e-03 0.0000000000000000e+00  -1.6190130287392077e-03 -3.0328900150088786e-03 0.0000000000000000e+00  -1.6411681179840131e-03 -3.3257387844166544e-03 0.0000000000000000e+00  -1.6564388552561455e-03 -3.6211837075198431e-03 0.0000000000000000e+00  -1.6664736554188677e-03 -3.9191869927754450e-03 0.0000000000000000e+00  -1.6725816297901558e-03 -4.2196147134950538e-03 0.0000000000000000e+00  -1.6757969200937529e-03 -4.5222757847845569e-03 0.0000000000000000e+00  -1.6769301152843429e-03 -4.8269493675124273e-03 0.0000000000000000e+00  -1.6766102260151602e-03 -5.1334039850445042e-03 0.0000000000000000e+00  -1.6753193660308562e-03 -5.4414105891263352e-03 0.0000000000000000e+00  -1.6734215553945925e-03 -5.7507511659999526e-03 0.0000000000000000e+00  -1.6711866462746849e-03 -6.0612240542792638e-03 0.0000000000000000e+00  -1.6688101320970902e-03 -6.3726468575430271e-03 0.0000000000000000e+00  -1.6664294551798344e-03 -6.6848576258127798e-03 0.0000000000000000e+00  -1.6641373324975425e-03 -6.9977148228047145e-03 0.0000000000000000e+00  -1.6619925500931173e-03 -7.3110964740347407e-03 0.0000000000000000e+00  -1.6600286212751629e-03 -7.6248987950049635e-03 0.0000000000000000e+00  -1.6582606558184273e-03 -7.9390345228024274e-03 0.0000000000000000e+00  -1.6566907440293658e-03 -8.2534311144120583e-03 0.0000000000000000e+00  -1.6553121196173234e-03 -8.5680289278752108e-03 0.0000000000000000e+00  -1.6541123285195814e-03 -8.8827794657532835e-03 0.0000000000000000e+00  -1.6530755971895172e-03 -9.1976437322500784e-03 0.0000000000000000e+00  -1.6521845634668252e-03 -9.5125907341878178e-03 0.0000000000000000e+00  -1.6514215060571020e-03 -9.8275961404561962e-03 0.0000000000000000e+00  -1.6507691848215427e-03 -1.0142641103411464e-02 0.0000000000000000e+00  -1.6502113833959198e-03 -1.0457711238034724e-02 0.0000000000000000e+00  -1.6497332279319923e-03 -1.0772795749672107e-02 0.0000000000000000e+00  -1.6493213407477582e-03 -1.1087886698229861e-02 0.0000000000000000e+00  -1.6489638751250979e-03 -1.1402978385264880e-02 0.0000000000000000e+00  -1.6486504671416259e-03 -1.1718066850087508e-02 0.0000000000000000e+00  -1.6483721320248452e-03 -1.2033149461459301e-02 0.0000000000000000e+00  -1.6481211258723243e-03 -1.2348224592478653e-02 0.0000000000000000e+00  -1.6478907885746923e-03 -1.2663291367607663e-02 0.0000000000000000e+00  -1.6476753804421345e-03 -1.2978349472329880e-02 0.0000000000000000e+00  -1.6474699236986886e-03 -1.3293399017431493e-02 0.0000000000000000e+00  -1.6472700616443584e-03 -1.3608440450992004e-02 0.0000000000000000e+00  -1.6470719554352096e-03 -1.3923474510986848e-02 0.0000000000000000e+00  -1.6468722578563463e-03 -1.4238502207647316e-02 0.0000000000000000e+00  -1.6466682524554528e-03 -1.4553524813271820e-02 0.0000000000000000e+00  -1.6464583559902021e-03 -1.4868543841772474e-02 0.0000000000000000e+00  -3.1800819861669893e-04 -2.5843985451869897e-04 0.0000000000000000e+00  -6.1726636840212803e-04 -5.6517308635178898e-04 0.0000000000000000e+00  -8.5437214867983456e-04 -8.8373464162547861e-04 0.0000000000000000e+00  -1.0340146801731244e-03 -1.1974717933763636e-03 0.0000000000000000e+00  -1.1695761206599817e-03 -1.5044248872135230e-03 0.0000000000000000e+00  -1.2718310907225327e-03 -1.8064055321759288e-03 0.0000000000000000e+00  -1.3486259168072137e-03 -2.1054986162389899e-03 0.0000000000000000e+00  -1.4057801375925044e-03 -2.4033518928523968e-03 0.0000000000000000e+00  -1.4477287246955502e-03 -2.7011327342380425e-03 0.0000000000000000e+00  -1.4779185504667179e-03 -2.9996154700775461e-03 0.0000000000000000e+00  -1.4990606644911049e-03 -3.2992783420413901e-03 0.0000000000000000e+00  -1.5132996300362784e-03 -3.6003847198305804e-03 0.0000000000000000e+00  -1.5223335070925915e-03 -3.9030461148984925e-03 0.0000000000000000e+00  -1.5275031096991113e-03 -4.2072697082209589e-03 0.0000000000000000e+00  -1.5298610997245459e-03 -4.5129937038604403e-03 0.0000000000000000e+00  -1.5302270688608713e-03 -4.8201133399447729e-03 0.0000000000000000e+00  -1.5292323168725763e-03 -5.1284997801814159e-03 0.0000000000000000e+00  -1.5273566644736169e-03 -5.4380135941292538e-03 0.0000000000000000e+00  -1.5249588628288907e-03 -5.7485141374674928e-03 0.0000000000000000e+00  -1.5223017147242570e-03 -6.0598658434299476e-03 0.0000000000000000e+00  -1.5195727580046327e-03 -6.3719422085357618e-03 0.0000000000000000e+00  -1.5169011976888670e-03 -6.6846280801691697e-03 0.0000000000000000e+00  -1.5143716634012222e-03 -6.9978207165979009e-03 0.0000000000000000e+00  -1.5120352882890787e-03 -7.3114299821369078e-03 0.0000000000000000e+00  -1.5099185410524102e-03 -7.6253779547290632e-03 0.0000000000000000e+00  -1.5080301872959024e-03 -7.9395981554748266e-03 0.0000000000000000e+00  -1.5063667069076063e-03 -8.2540345560657633e-03 0.0000000000000000e+00  -1.5049164492018333e-03 -8.5686404779337921e-03 0.0000000000000000e+00  -1.5036627666562652e-03 -8.8833774640506985e-03 0.0000000000000000e+00  -1.5025863311020082e-03 -9.1982141789367020e-03 0.0000000000000000e+00  -1.5016668031627590e-03 -9.5131253731107722e-03 0.0000000000000000e+00  -1.5008839965277077e-03 -9.8280909337376092e-03 0.0000000000000000e+00  -1.5002186531557094e-03 -1.0143095032599652e-02 0.0000000000000000e+00  -1.4996529235429981e-03 -1.0458125374927459e-02 0.0000000000000000e+00  -1.4991706274847234e-03 -1.0773172547381141e-02 0.0000000000000000e+00  -1.4987573550244054e-03 -1.1088229460042082e-02 0.0000000000000000e+00  -1.4984004542050178e-03 -1.1403290875201283e-02 0.0000000000000000e+00  -1.4980889415056005e-03 -1.1718353014662380e-02 0.0000000000000000e+00  -1.4978133621920580e-03 -1.2033413236923777e-02 0.0000000000000000e+00  -1.4975656210058693e-03 -1.2348469775731086e-02 0.0000000000000000e+00  -1.4973387985249360e-03 -1.2663521531893913e-02 0.0000000000000000e+00  -1.4971269651765243e-03 -1.2978567910751046e-02 0.0000000000000000e+00  -1.4969250035646825e-03 -1.3293608698052442e-02 0.0000000000000000e+00  -1.4967284513324212e-03 -1.3608643967148989e-02 0.0000000000000000e+00  -1.4965333830577721e-03 -1.3923674010457465e-02 0.0000000000000000e+00  -1.4963363639545759e-03 -1.4238699290814736e-02 0.0000000000000000e+00  -1.4961345320241683e-03 -1.4553720428018673e-02 0.0000000000000000e+00  -1.4959258714081281e-03 -1.4868738323313389e-02 0.0000000000000000e+00  -2.5799343573340420e-04 -2.3627438432836462e-04 0.0000000000000000e+00  -5.0965900773614753e-04 -5.1303630605411220e-04 0.0000000000000000e+00  -7.2485044237003012e-04 -8.1375894634856064e-04 0.0000000000000000e+00  -8.9640724049171833e-04 -1.1227877748066107e-03 0.0000000000000000e+00  -1.0290995659019879e-03 -1.4326748018076109e-03 0.0000000000000000e+00  -1.1301952838429720e-03 -1.7411411656026992e-03 0.0000000000000000e+00  -1.2063106328539018e-03 -2.0480260865061517e-03 0.0000000000000000e+00  -1.2628608658053970e-03 -2.3538296097602635e-03 0.0000000000000000e+00  -1.3041694513713771e-03 -2.6591512097646382e-03 0.0000000000000000e+00  -1.3336740764808409e-03 -2.9645017104017062e-03 0.0000000000000000e+00  -1.3541083179412921e-03 -3.2702581730007460e-03 0.0000000000000000e+00  -1.3676445063614262e-03 -3.5766704107564880e-03 0.0000000000000000e+00  -1.3760043760238632e-03 -3.8838835010564982e-03 0.0000000000000000e+00  -1.3805458084113406e-03 -4.1919626200212093e-03 0.0000000000000000e+00  -1.3823320715353516e-03 -4.5009152853299544e-03 0.0000000000000000e+00  -1.3821879745276157e-03 -4.8107096106353060e-03 0.0000000000000000e+00  -1.3807459195331498e-03 -5.1212885572662773e-03 0.0000000000000000e+00  -1.3784838967987399e-03 -5.4325806666897618e-03 0.0000000000000000e+00  -1.3757568835242268e-03 -5.7445078871211962e-03 0.0000000000000000e+00  -1.3728227440094737e-03 -6.0569910887868185e-03 0.0000000000000000e+00  -1.3698634992149977e-03 -6.3699537891028207e-03 0.0000000000000000e+00  -1.3670026820215390e-03 -6.6833245222376551e-03 0.0000000000000000e+00  -1.3643193866532846e-03 -6.9970382042285010e-03 0.0000000000000000e+00  -1.3618595376888138e-03 -7.3110367714469653e-03 0.0000000000000000e+00  -1.3596448353088981e-03 -7.6252693083922350e-03 0.0000000000000000e+00  -1.3576797734897522e-03 -7.9396918301006501e-03 0.0000000000000000e+00  -1.3559570741394145e-03 -8.2542668436592307e-03 0.0000000000000000e+00  -1.3544618315650370e-03 -8.5689627809329531e-03 0.0000000000000000e+00  -1.3531746177191577e-03 -8.8837533692383615e-03 0.0000000000000000e+00  -1.3520737592482041e-03 -9.1986169870392851e-03 0.0000000000000000e+00  -1.3511369623572069e-03 -9.5135360367029683e-03 0.0000000000000000e+00  -1.3503424307753573e-03 -9.8284963550094775e-03 0.0000000000000000e+00  -1.3496695954540235e-03 -1.0143486673686095e-02 0.0000000000000000e+00  -1.3490995517826565e-03 -1.0458498136111513e-02 0.0000000000000000e+00  -1.3486152807518045e-03 -1.0773523871987972e-02 0.0000000000000000e+00  -1.3482017142818874e-03 -1.1088558628797917