<?xml version="1.0"?>
<VTKFile type="UnstructuredGrid"  version="0.1"  >
<UnstructuredGrid>
<Piece  NumberOfPoints="6382" NumberOfCells="12354">
<Points>
<DataArray  type="Float64"  NumberOfComponents="3"  format="ascii">0 -3 0  0 0 0  10 -3 0  10 0 0  5.2 0 0  5.2 -0.4 0  5.5 -0.4 0  5.5 -0.6000000000000001 0  4.5 -0.6000000000000001 0  4.5 -0.4 0  4.8 -0.4 0  4.8 0 0  0 -2.666666666666667 0  0 -2.333333333333333 0  0 -2 0  0 -1.666666666666667 0  0 -1.333333333333333 0  0 -1 0  0 -0.666666666666667 0  0 -0.3333333333333335 0  9.836518447033493 -3 0  9.676485174132324 -3 0  9.519716728676565 -3 0  9.366040597429432 -3 0  9.215293522901804 -3 0  9.067325347766827 -3 0  8.921978167503752 -3 0  8.779125793186953 -3 0  8.638633440048579 -3 0  8.500376249002967 -3 0  8.364235730108557 -3 0  8.230099119300583 -3 0  8.097858693472926 -3 0  7.96741165420296 -3 0  7.838659590098249 -3 0  7.711508416266758 -3 0  7.585867779025237 -3 0  7.461651037321721 -3 0  7.338774694871047 -3 0  7.217158563845377 -3 0  7.096725097152937 -3 0  6.977399455051415 -3 0  6.859109304538208 -3 0  6.741784490575633 -3 0  6.625356935727237 -3 0  6.509760461250432 -3 0  6.394930659317325 -3 0  6.2808046903675 -3 0  6.167321173775116 -3 0  6.054420032640893 -3 0  5.942042373994132 -3 0  5.830130346471836 -3 0  5.718627047087892 -3 0  5.607476358937133 -3 0  5.496622874861212 -3 0  5.386011773348871 -3 0  5.275588701244851 -3 0  5.1652996754838 -3 0  5.055090972556302 -3 0  4.944909027443701 -3 0  4.834700324516204 -3 0  4.724411298755151 -3 0  4.613988226651132 -3 0  4.50337712513879 -3 0  4.392523641062869 -3 0  4.281372952912111 -3 0  4.169869653528168 -3 0  4.05795762600587 -3 0  3.94557996735911 -3 0  3.832678826224885 -3 0  3.719195309632506 -3 0  3.605069340682676 -3 0  3.490239538749567 -3 0  3.374643064272765 -3 0  3.25821550942437 -3 0  3.140890695461794 -3 0  3.022600544948583 -3 0  2.903274902847057 -3 0  2.782841436154621 -3 0  2.661225305128949 -3 0  2.538348962678273 -3 0  2.414132220974763 -3 0  2.288491583733238 -3 0  2.161340409901745 -3 0  2.032588345797035 -3 0  1.902141306527067 -3 0  1.76990088069941 -3 0  1.63576426989143 -3 0  1.499623750997021 -3 0  1.361366559951406 -3 0  1.220874206813038 -3 0  1.078021832496241 -3 0  0.9326746522331657 -3 0  0.7847064770981866 -3 0  0.6339594025705644 -3 0  0.4802832713234277 -3 0  0.3235148258676688 -3 0  0.1634815529665037 -3 0  10 -0.3333333333333333 0  10 -0.6666666666666666 0  10 -1 0  10 -1.333333333333333 0  10 -1.666666666666667 0  10 -2 0  10 -2.333333333333333 0  10 -2.666666666666667 0  5.242711110725164 0 0  5.286293876642154 0 0  5.330766086609641 0 0  5.37614589213589 0 0  5.422451816439484 0 0  5.469702760205794 0 0  5.517918009017504 0 0  5.567117241892008 0 0  5.617320540096343 0 0  5.668548395644089 0 0  5.720821717893487 0 0  5.774161842649544 0 0  5.828590541642586 0 0  5.88413003019757 0 0  5.940802977381058 0 0  5.998632515893446 0 0  6.057642249375406 0 0  6.117856262977496 0 0  6.179299133651088 0 0  6.241995940085244 0 0  6.305972273082686 0 0  6.371254245606542 0 0  6.43786850326221 0 0  6.505842235920577 0 0  6.575203187664691 0 0  6.645979668539436 0 0  6.71820056760014 0 0  6.791895362764803 0 0  6.867094133292654 0 0  6.943827572794882 0 0  7.022127001289535 0 0  7.10202437703821 0 0  7.183552311040527 0 0  7.266744080707336 0 0  7.351633641831447 0 0  7.438255642584554 0 0  7.526645439439152 0 0  7.616839110330926 0 0  7.708873468012155 0 0  7.802786077905059 0 0  7.898615271449994 0 0  7.996400162886068 0 0  8.096180664647234 0 0  8.197997502517053 0 0  8.301892235188374 0 0  8.407907268711336 0 0  8.516085874431543 0 0  8.626472207031901 0 0  8.739111321743804 0 0  8.854049193814495 0 0  8.971332736524433 0 0  9.091009820696414 0 0  9.21312929427506 0 0  9.337741001971482 0 0  9.464895805719847 0 0  9.594645605970797 0 0  9.727043361679982 0 0  9.862143111819449 0 0  5.2 -0.01666666666666669 0  5.2 -0.03333333333333339 0  5.2 -0.05000000000000009 0  5.2 -0.06666666666666679 0  5.2 -0.0833333333333335 0  5.2 -0.1000000000000002 0  5.2 -0.1166666666666669 0  5.2 -0.1333333333333336 0  5.2 -0.1500000000000002 0  5.2 -0.1666666666666669 0  5.2 -0.1833333333333335 0  5.2 -0.2000000000000001 0  5.2 -0.2166666666666668 0  5.2 -0.2333333333333335 0  5.2 -0.2500000000000002 0  5.2 -0.2666666666666669 0  5.2 -0.2833333333333335 0  5.2 -0.3000000000000002 0  5.2 -0.3166666666666668 0  5.2 -0.3333333333333335 0  5.2 -0.3500000000000001 0  5.2 -0.3666666666666668 0  5.2 -0.3833333333333334 0  5.2125 -0.4 0  5.225 -0.4 0  5.2375 -0.4 0  5.25 -0.4 0  5.2625 -0.4 0  5.275 -0.4 0  5.2875 -0.4 0  5.3 -0.4 0  5.3125 -0.4 0  5.325 -0.4 0  5.337499999999999 -0.4 0  5.35 -0.4 0  5.3625 -0.4 0  5.375 -0.4 0  5.3875 -0.4 0  5.4 -0.4 0  5.4125 -0.4 0  5.425 -0.4 0  5.4375 -0.4 0  5.45 -0.4 0  5.4625 -0.4 0  5.475 -0.4 0  5.4875 -0.4 0  5.5 -0.4083333333333334 0  5.5 -0.4166666666666667 0  5.5 -0.425 0  5.5 -0.4333333333333334 0  5.5 -0.4416666666666668 0  5.5 -0.4500000000000001 0  5.5 -0.4583333333333334 0  5.5 -0.4666666666666668 0  5.5 -0.4750000000000001 0  5.5 -0.4833333333333335 0  5.5 -0.4916666666666668 0  5.5 -0.5000000000000002 0  5.5 -0.5083333333333335 0  5.5 -0.5166666666666668 0  5.5 -0.5250000000000002 0  5.5 -0.5333333333333335 0  5.5 -0.5416666666666669 0  5.5 -0.5500000000000002 0  5.5 -0.5583333333333335 0  5.5 -0.5666666666666668 0  5.5 -0.5750000000000002 0  5.5 -0.5833333333333335 0  5.5 -0.5916666666666668 0  5.479591836734694 -0.6000000000000001 0  5.459183673469388 -0.6000000000000001 0  5.438775510204081 -0.6000000000000001 0  5.418367346938775 -0.6000000000000001 0  5.397959183673469 -0.6000000000000001 0  5.377551020408164 -0.6000000000000001 0  5.357142857142857 -0.6000000000000001 0  5.336734693877551 -0.6000000000000001 0  5.316326530612245 -0.6000000000000001 0  5.295918367346939 -0.6000000000000001 0  5.275510204081633 -0.6000000000000001 0  5.255102040816326 -0.6000000000000001 0  5.23469387755102 -0.6000000000000001 0  5.214285714285714 -0.6000000000000001 0  5.193877551020408 -0.6000000000000001 0  5.173469387755102 -0.6000000000000001 0  5.153061224489796 -0.6000000000000001 0  5.13265306122449 -0.6000000000000001 0  5.112244897959184 -0.6000000000000001 0  5.091836734693878 -0.6000000000000001 0  5.071428571428571 -0.6000000000000001 0  5.051020408163265 -0.6000000000000001 0  5.030612244897959 -0.6000000000000001 0  5.010204081632653 -0.6000000000000001 0  4.989795918367347 -0.6000000000000001 0  4.969387755102041 -0.6000000000000001 0  4.948979591836735 -0.6000000000000001 0  4.928571428571429 -0.6000000000000001 0  4.908163265306122 -0.6000000000000001 0  4.887755102040816 -0.6000000000000001 0  4.86734693877551 -0.6000000000000001 0  4.846938775510204 -0.6000000000000001 0  4.826530612244898 -0.6000000000000001 0  4.806122448979592 -0.6000000000000001 0  4.785714285714286 -0.6000000000000001 0  4.76530612244898 -0.6000000000000001 0  4.744897959183674 -0.6000000000000001 0  4.724489795918368 -0.6000000000000001 0  4.704081632653061 -0.6000000000000001 0  4.683673469387755 -0.6000000000000001 0  4.663265306122449 -0.6000000000000001 0  4.642857142857143 -0.6000000000000001 0  4.622448979591836 -0.6000000000000001 0  4.602040816326531 -0.6000000000000001 0  4.581632653061225 -0.6000000000000001 0  4.561224489795919 -0.6000000000000001 0  4.540816326530612 -0.6000000000000001 0  4.520408163265306 -0.6000000000000001 0  4.5 -0.5916666666666668 0  4.5 -0.5833333333333334 0  4.5 -0.5750000000000001 0  4.5 -0.5666666666666668 0  4.5 -0.5583333333333333 0  4.5 -0.55 0  4.5 -0.5416666666666667 0  4.5 -0.5333333333333333 0  4.5 -0.525 0  4.5 -0.5166666666666666 0  4.5 -0.5083333333333333 0  4.5 -0.4999999999999999 0  4.5 -0.4916666666666666 0  4.5 -0.4833333333333332 0  4.5 -0.4749999999999999 0  4.5 -0.4666666666666666 0  4.5 -0.4583333333333333 0  4.5 -0.45 0  4.5 -0.4416666666666667 0  4.5 -0.4333333333333333 0  4.5 -0.425 0  4.5 -0.4166666666666667 0  4.5 -0.4083333333333334 0  4.5125 -0.4 0  4.525 -0.4 0  4.5375 -0.4 0  4.55 -0.4 0  4.5625 -0.4 0  4.575 -0.4 0  4.587499999999999 -0.4 0  4.6 -0.4 0  4.6125 -0.4 0  4.625 -0.4 0  4.637499999999999 -0.4 0  4.649999999999999 -0.4 0  4.6625 -0.4 0  4.675 -0.4 0  4.6875 -0.4 0  4.699999999999999 -0.4 0  4.712499999999999 -0.4 0  4.725 -0.4 0  4.7375 -0.4 0  4.75 -0.4 0  4.7625 -0.4 0  4.774999999999999 -0.4 0  4.7875 -0.4 0  4.8 -0.3833333333333333 0  4.8 -0.3666666666666666 0  4.8 -0.3499999999999999 0  4.8 -0.3333333333333333 0  4.8 -0.3166666666666665 0  4.8 -0.2999999999999998 0  4.8 -0.2833333333333331 0  4.8 -0.2666666666666664 0  4.8 -0.2499999999999998 0  4.8 -0.2333333333333331 0  4.8 -0.2166666666666665 0  4.8 -0.1999999999999999 0  4.8 -0.1833333333333332 0  4.8 -0.1666666666666665 0  4.8 -0.1499999999999998 0  4.8 -0.1333333333333331 0  4.8 -0.1166666666666665 0  4.8 -0.09999999999999987 0  4.8 -0.0833333333333332 0  4.8 -0.06666666666666654 0  4.8 -0.04999999999999988 0  4.8 -0.03333333333333327 0  4.8 -0.01666666666666661 0  0.1378568875240437 0 0  0.2729566377271358 0 0  0.4053543934976697 0 0  0.5351041938077431 0 0  0.6622589976130751 0 0  0.7868707053643811 0 0  0.9089901789958823 0 0  1.028667263218748 0 0  1.14595080597766 0 0  1.260888678095464 0 0  1.373527792852679 0 0  1.483914125496606 0 0  1.592092731258683 0 0  1.698107764821866 0 0  1.802002497531814 0 0  1.90381933543871 0 0  2.003599837235452 0 0  2.101384728705643 0 0  2.197213922283282 0 0  2.291126532207516 0 0  2.38316088991875 0 0  2.473354560839241 0 0  2.56174435771825 0 0  2.648366358500676 0 0  2.733255919649871 0 0  2.81644768934063 0 0  2.897975623365796 0 0  2.977872999136252 0 0  3.056172427651654 0 0  3.132905867173631 0 0  3.208104637720262 0 0  3.28179943290277 0 0  3.354020331980409 0 0  3.42479681287121 0 0  3.494157764630528 0 0  3.562131497303279 0 0  3.628745754972536 0 0  3.69402772750921 0 0  3.758004060518725 0 0  3.820700866964234 0 0  3.882143737648484 0 0  3.942357751260559 0 0  4.0013674
[...]
<PointData  Vectors="displacement"> 
<DataArray  type="Float64"  Name="displacement"  NumberOfComponents="3" format="ascii">0.0000000000000000e+00 0.0000000000000000e+00 0.0000000000000000e+00  -5.3828254080516955e-05 5.0211592935827950e-05 0.0000000000000000e+00  0.0000000000000000e+00 0.0000000000000000e+00 0.0000000000000000e+00  5.3905396134160677e-05 5.0184888635213726e-05 0.0000000000000000e+00  0.0000000000000000e+00 -1.4118320698724650e-03 0.0000000000000000e+00  0.0000000000000000e+00 -1.4617023632372240e-03 0.0000000000000000e+00  0.0000000000000000e+00 -1.4218115362421113e-03 0.0000000000000000e+00  0.0000000000000000e+00 -1.7775376360185389e-03 0.0000000000000000e+00  0.0000000000000000e+00 -1.7769584413222029e-03 0.0000000000000000e+00  0.0000000000000000e+00 -1.4215780347230367e-03 0.0000000000000000e+00  0.0000000000000000e+00 -1.4614751379498584e-03 0.0000000000000000e+00  0.0000000000000000e+00 -1.4116080751971221e-03 0.0000000000000000e+00  -3.7984765174656934e-05 -2.0286156097969523e-05 0.0000000000000000e+00  -7.0209144798485246e-05 -1.7109492020371939e-05 0.0000000000000000e+00  -9.2020828943405051e-05 -4.4479420637696955e-06 0.0000000000000000e+00  -1.0182236970033954e-04 1.2279208191676406e-05 0.0000000000000000e+00  -1.0058541047301276e-04 2.8450570076115878e-05 0.0000000000000000e+00  -9.1089062156157955e-05 4.0994830152682010e-05 0.0000000000000000e+00  -7.7516148736229585e-05 4.8123693276870807e-05 0.0000000000000000e+00  -6.4261957090136989e-05 5.0331202148296254e-05 0.0000000000000000e+00  0.0000000000000000e+00 0.0000000000000000e+00 0.0000000000000000e+00  0.0000000000000000e+00 0.0000000000000000e+00 0.0000000000000000e+00  0.0000000000000000e+00 0.0000000000000000e+00 0.0000000000000000e+00  0.0000000000000000e+00 0.0000000000000000e+00 0.0000000000000000e+00  0.0000000000000000e+00 0.0000000000000000e+00 0.0000000000000000e+00  0.0000000000000000e+00 0.0000000000000000e+00 0.0000000000000000e+00  0.0000000000000000e+00 0.0000000000000000e+00 0.0000000000000000e+00  0.0000000000000000e+00 0.0000000000000000e+00 0.0000000000000000e+00  0.0000000000000000e+00 0.0000000000000000e+00 0.0000000000000000e+00  0.0000000000000000e+00 0.0000000000000000e+00 0.0000000000000000e+00  0.0000000000000000e+00 0.0000000000000000e+00 0.0000000000000000e+00  0.0000000000000000e+00 0.0000000000000000e+00 0.0000000000000000e+00  0.0000000000000000e+00 0.0000000000000000e+00 0.0000000000000000e+00  0.0000000000000000e+00 0.0000000000000000e+00 0.0000000000000000e+00  0.0000000000000000e+00 0.0000000000000000e+00 0.0000000000000000e+00  0.0000000000000000e+00 0.0000000000000000e+00 0.0000000000000000e+00  0.0000000000000000e+00 0.0000000000000000e+00 0.0000000000000000e+00  0.0000000000000000e+00 0.0000000000000000e+00 0.0000000000000000e+00  0.0000000000000000e+00 0.0000000000000000e+00 0.0000000000000000e+00  0.0000000000000000e+00 0.0000000000000000e+00 0.0000000000000000e+00  0.0000000000000000e+00 0.0000000000000000e+00 0.0000000000000000e+00  0.0000000000000000e+00 0.0000000000000000e+00 0.0000000000000000e+00  0.0000000000000000e+00 0.0000000000000000e+00 0.0000000000000000e+00  0.0000000000000000e+00 0.0000000000000000e+00 0.0000000000000000e+00  0.0000000000000000e+00 0.0000000000000000e+00 0.0000000000000000e+00  0.0000000000000000e+00 0.0000000000000000e+00 0.0000000000000000e+00  0.0000000000000000e+00 0.0000000000000000e+00 0.0000000000000000e+00  0.0000000000000000e+00 0.0000000000000000e+00 0.0000000000000000e+00  0.0000000000000000e+00 0.0000000000000000e+00 0.0000000000000000e+00  0.0000000000000000e+00 0.0000000000000000e+00 0.0000000000000000e+00  0.0000000000000000e+00 0.0000000000000000e+00 0.0000000000000000e+00  0.0000000000000000e+00 0.0000000000000000e+00 0.0000000000000000e+00  0.0000000000000000e+00 0.0000000000000000e+00 0.0000000000000000e+00  0.0000000000000000e+00 0.0000000000000000e+00 0.0000000000000000e+00  0.0000000000000000e+00 0.0000000000000000e+00 0.0000000000000000e+00  0.0000000000000000e+00 0.0000000000000000e+00 0.0000000000000000e+00  0.0000000000000000e+00 0.0000000000000000e+00 0.0000000000000000e+00  0.0000000000000000e+00 0.0000000000000000e+00 0.0000000000000000e+00  0.0000000000000000e+00 0.0000000000000000e+00 0.0000000000000000e+00  0.0000000000000000e+00 0.0000000000000000e+00 0.0000000000000000e+00  0.0000000000000000e+00 0.0000000000000000e+00 0.0000000000000000e+00  0.0000000000000000e+00 0.0000000000000000e+00 0.0000000000000000e+00  0.0000000000000000e+00 0.0000000000000000e+00 0.0000000000000000e+00  0.0000000000000000e+00 0.0000000000000000e+00 0.0000000000000000e+00  0.0000000000000000e+00 0.0000000000000000e+00 0.0000000000000000e+00  0.0000000000000000e+00 0.0000000000000000e+00 0.0000000000000000e+00  0.0000000000000000e+00 0.0000000000000000e+00 0.0000000000000000e+00  0.0000000000000000e+00 0.0000000000000000e+00 0.0000000000000000e+00  0.0000000000000000e+00 0.0000000000000000e+00 0.0000000000000000e+00  0.0000000000000000e+00 0.0000000000000000e+00 0.0000000000000000e+00  0.0000000000000000e+00 0.0000000000000000e+00 0.0000000000000000e+00  0.0000000000000000e+00 0.0000000000000000e+00 0.0000000000000000e+00  0.0000000000000000e+00 0.0000000000000000e+00 0.0000000000000000e+00  0.0000000000000000e+00 0.0000000000000000e+00 0.0000000000000000e+00  0.0000000000000000e+00 0.0000000000000000e+00 0.0000000000000000e+00  0.0000000000000000e+00 0.0000000000000000e+00 0.0000000000000000e+00  0.0000000000000000e+00 0.0000000000000000e+00 0.0000000000000000e+00  0.0000000000000000e+00 0.0000000000000000e+00 0.0000000000000000e+00  0.0000000000000000e+00 0.0000000000000000e+00 0.0000000000000000e+00  0.0000000000000000e+00 0.0000000000000000e+00 0.0000000000000000e+00  0.0000000000000000e+00 0.0000000000000000e+00 0.0000000000000000e+00  0.0000000000000000e+00 0.0000000000000000e+00 0.0000000000000000e+00  0.0000000000000000e+00 0.0000000000000000e+00 0.0000000000000000e+00  0.0000000000000000e+00 0.0000000000000000e+00 0.0000000000000000e+00  0.0000000000000000e+00 0.0000000000000000e+00 0.0000000000000000e+00  0.0000000000000000e+00 0.0000000000000000e+00 0.0000000000000000e+00  0.0000000000000000e+00 0.0000000000000000e+00 0.0000000000000000e+00  0.0000000000000000e+00 0.0000000000000000e+00 0.0000000000000000e+00  0.0000000000000000e+00 0.0000000000000000e+00 0.0000000000000000e+00  0.0000000000000000e+00 0.0000000000000000e+00 0.0000000000000000e+00  0.0000000000000000e+00 0.0000000000000000e+00 0.0000000000000000e+00  0.0000000000000000e+00 0.0000000000000000e+00 0.0000000000000000e+00  0.0000000000000000e+00 0.0000000000000000e+00 0.0000000000000000e+00  0.0000000000000000e+00 0.0000000000000000e+00 0.0000000000000000e+00  0.0000000000000000e+00 0.0000000000000000e+00 0.0000000000000000e+00  0.0000000000000000e+00 0.0000000000000000e+00 0.0000000000000000e+00  0.0000000000000000e+00 0.0000000000000000e+00 0.0000000000000000e+00  0.0000000000000000e+00 0.0000000000000000e+00 0.0000000000000000e+00  6.4323098010722125e-05 5.0281820361600735e-05 0.0000000000000000e+00  7.7582233676312706e-05 4.8142389519998085e-05 0.0000000000000000e+00  9.1148003809586505e-05 4.0970208223607297e-05 0.0000000000000000e+00  1.0065036434017232e-04 2.8430074079502499e-05 0.0000000000000000e+00  1.0188521489245088e-04 1.2286505076260326e-05 0.0000000000000000e+00  9.2048811750930346e-05 -4.5178575460286648e-06 0.0000000000000000e+00  7.0208582869507816e-05 -1.7157167543598243e-05 0.0000000000000000e+00  3.8048433737432315e-05 -2.0294109915985147e-05 0.0000000000000000e+00  -2.4634836156074025e-05 -1.4104460135144145e-03 0.0000000000000000e+00  -4.9765410024910782e-05 -1.4061617910988522e-03 0.0000000000000000e+00  -7.5385085939812379e-05 -1.3987649711133987e-03 0.0000000000000000e+00  -1.0146608792544729e-04 -1.3880027885471277e-03 0.0000000000000000e+00  -1.2793165428807610e-04 -1.3735842227376473e-03 0.0000000000000000e+00  -1.5465653288167076e-04 -1.3551863696714306e-03 0.0000000000000000e+00  -1.8138852057628991e-04 -1.3324760225516862e-03 0.0000000000000000e+00  -2.0778836293644648e-04 -1.3051476949801626e-03 0.0000000000000000e+00  -2.3337617337144782e-04 -1.2729982686719441e-03 0.0000000000000000e+00  -2.5758580877400367e-04 -1.2359747197582709e-03 0.0000000000000000e+00  -2.7978900686164923e-04 -1.1942465748080091e-03 0.0000000000000000e+00  -2.9941935205010851e-04 -1.1482076842330403e-03 0.0000000000000000e+00  -3.1599493015803951e-04 -1.0984582558000108e-03 0.0000000000000000e+00  -3.2919716356766130e-04 -1.0457378039948229e-03 0.0000000000000000e+00  -3.3888154564806294e-04 -9.9085047166009698e-04 0.0000000000000000e+00  -3.4503908616511546e-04 -9.3459765281695523e-04 0.0000000000000000e+00  -3.4784479729828890e-04 -8.7773814864811647e-04 0.0000000000000000e+00  -3.4748795122798771e-04 -8.2092844433933189e-04 0.0000000000000000e+00  -3.4426857412637600e-04 -7.6473449908892339e-04 0.0000000000000000e+00  -3.3851459875083151e-04 -7.0962406430894940e-04 0.0000000000000000e+00  -3.3053397163481513e-04 -6.5596459566875313e-04 0.0000000000000000e+00  -3.2065552837783892e-04 -6.0404040559868064e-04 0.0000000000000000e+00  -3.0915815863460011e-04 -5.5406599307614678e-04 0.0000000000000000e+00  -2.9634154319787783e-04 -5.0619724931701159e-04 0.0000000000000000e+00  -2.8242699743777252e-04 -4.6054252572843793e-04 0.0000000000000000e+00  -2.6765417622997032e-04 -4.1716878077944852e-04 0.0000000000000000e+00  -2.5222584781724872e-04 -3.7611391028413672e-04 0.0000000000000000e+00  -2.3631601768246251e-04 -3.3738877553906530e-04 0.0000000000000000e+00  -2.2007755744327630e-04 -3.0099306252597528e-04 0.0000000000000000e+00  -2.0366071048073681e-04 -2.6690258575794726e-04 0.0000000000000000e+00  -1.8718816772235648e-04 -2.3508582433684114e-04 0.0000000000000000e+00  -1.7077128588275828e-04 -2.0549986872948415e-04 0.0000000000000000e+00  -1.5450942018211688e-04 -1.7809440539804809e-04 0.0000000000000000e+00  -1.3849174502747087e-04 -1.5281247940079852e-04 0.0000000000000000e+00  -1.2280181921557522e-04 -1.2958814351189739e-04 0.0000000000000000e+00  -1.0750465490464727e-04 -1.0835866400033897e-04 0.0000000000000000e+00  -9.2669058697344623e-05 -8.9048837543404400e-05 0.0000000000000000e+00  -7.8351597396143793e-05 -7.1581044233034408e-05 0.0000000000000000e+00  -6.4603549047462664e-05 -5.5876247505336320e-05 0.0000000000000000e+00  -5.1470653589975991e-05 -4.1850353540151555e-05 0.0000000000000000e+00  -3.8994971695958322e-05 -2.9417652928573082e-05 0.0000000000000000e+00  -2.7212536608691326e-05 -1.8485856341071852e-05 0.0000000000000000e+00  -1.6155807501823397e-05 -8.9601625787309740e-06 0.0000000000000000e+00  -5.8537041514289009e-06 -7.4310615386354311e-07 0.0000000000000000e+00  3.6688065644818440e-06 6.2679474439475359e-06 0.0000000000000000e+00  1.2389605389225801e-05 1.2179597838888112e-05 0.0000000000000000e+00  2.0288399646815383e-05 1.7104304955161151e-05 0.0000000000000000e+00  2.7354159651956104e-05 2.1163284925537185e-05 0.0000000000000000e+00  3.3569558929786158e-05 2.4478180913879985e-05 0.0000000000000000e+00  3.8928622825206865e-05 2.7185888079758022e-05 0.0000000000000000e+00  4.3430323669006455e-05 2.9430908907280952e-05 0.0000000000000000e+00  4.7078202911217782e-05 3.1367837759075524e-05 0.0000000000000000e+00  4.9890783852172757e-05 3.3165371968775278e-05 0.0000000000000000e+00  5.1903139050188899e-05 3.5001596530675075e-05 0.0000000000000000e+00  5.3177312612650450e-05 3.7064221424808789e-05 0.0000000000000000e+00  5.3815471600019607e-05 3.9532248687185652e-05 0.0000000000000000e+00  5.3991240404747974e-05 4.2554465271165006e-05 0.0000000000000000e+00  5.3917415651396615e-05 4.6196866632723893e-05 0.0000000000000000e+00  0.0000000000000000e+00 -1.4158617313536324e-03 0.0000000000000000e+00  0.0000000000000000e+00 -1.4197115608116616e-03 0.0000000000000000e+00  0.0000000000000000e+00 -1.4233833374097504e-03 0.0000000000000000e+00  0.0000000000000000e+00 -1.4268791264976642e-03 0.0000000000000000e+00  0.0000000000000000e+00 -1.4302014968393959e-03 0.0000000000000000e+00  0.0000000000000000e+00 -1.4333530216439655e-03 0.0000000000000000e+00  0.0000000000000000e+00 -1.4363363279730021e-03 0.0000000000000000e+00  0.0000000000000000e+00 -1.4391537797495023e-03 0.0000000000000000e+00  0.0000000000000000e+00 -1.4418074246376309e-03 0.0000000000000000e+00  0.0000000000000000e+00 -1.4442988307515354e-03 0.0000000000000000e+00  0.0000000000000000e+00 -1.4466291411437419e-03 0.0000000000000000e+00  0.0000000000000000e+00 -1.4487985982008769e-03 0.0000000000000000e+00  0.0000000000000000e+00 -1.4508072466849181e-03 0.0000000000000000e+00  0.0000000000000000e+00 -1.4526540617173049e-03 0.0000000000000000e+00  0.0000000000000000e+00 -1.4543374708547185e-03 0.0000000000000000e+00  0.0000000000000000e+00 -1.4558556919719203e-03 0.0000000000000000e+00  0.0000000000000000e+00 -1.4572057068511313e-03 0.0000000000000000e+00  0.0000000000000000e+00 -1.4583848675050908e-03 0.0000000000000000e+00  0.0000000000000000e+00 -1.4593898768573948e-03 0.0000000000000000e+00  0.0000000000000000e+00 -1.4602176234332416e-03 0.0000000000000000e+00  0.0000000000000000e+00 -1.4608649690931177e-03 0.0000000000000000e+00  0.0000000000000000e+00 -1.4613294825163998e-03 0.0000000000000000e+00  0.0000000000000000e+00 -1.4616090227987555e-03 0.0000000000000000e+00  0.0000000000000000e+00 -1.4616008417756294e-03 0.0000000000000000e+00  0.0000000000000000e+00 -1.4612965310467664e-03 0.0000000000000000e+00  0.0000000000000000e+00 -1.4607901657714224e-03 0.0000000000000000e+00  0.0000000000000000e+00 -1.4600830008624436e-03 0.0000000000000000e+00  0.0000000000000000e+00 -1.4591768399524428e-03 0.0000000000000000e+00  0.0000000000000000e+00 -1.4580741124945785e-03 0.0000000000000000e+00  0.0000000000000000e+00 -1.4567778112076510e-03 0.0000000000000000e+00  0.0000000000000000e+00 -1.4552917526677476e-03 0.0000000000000000e+00  0.0000000000000000e+00 -1.4536207117111588e-03 0.0000000000000000e+00  0.0000000000000000e+00 -1.4517703983500123e-03 0.0000000000000000e+00  0.0000000000000000e+00 -1.4497478090015207e-03 0.0000000000000000e+00  0.0000000000000000e+00 -1.4475614981742228e-03 0.0000000000000000e+00  0.0000000000000000e+00 -1.4452218682724381e-03 0.0000000000000000e+00  0.0000000000000000e+00 -1.4427418957182619e-03 0.0000000000000000e+00  0.0000000000000000e+00 -1.4401377033604079e-03 0.0000000000000000e+00  0.0000000000000000e+00 -1.4374298769011680e-03 0.0000000000000000e+00  0.0000000000000000e+00 -1.4346448291554443e-03 0.0000000000000000e+00  0.0000000000000000e+00 -1.4318177248032744e-03 0.0000000000000000e+00  0.0000000000000000e+00 -1.4289979082248425e-03 0.0000000000000000e+00  0.0000000000000000e+00 -1.4262558841033994e-03 0.0000000000000000e+00  0.0000000000000000e+00 -1.4237022043806309e-03 0.0000000000000000e+00  0.0000000000000000e+00 -1.4215334471117432e-03 0.0000000000000000e+00  0.0000000000000000e+00 -1.4202195102468321e-03 0.0000000000000000e+00  0.0000000000000000e+00 -1.4286267849534203e-03 0.0000000000000000e+00  0.0000000000000000e+00 -1.4339186712499185e-03 0.0000000000000000e+00  0.0000000000000000e+00 -1.4391566170541437e-03 0.0000000000000000e+00  0.0000000000000000e+00 -1.4445222176083464e-03 0.0000000000000000e+00  0.0000000000000000e+00 -1.4500914796206344e-03 0.0000000000000000e+00  0.0000000000000000e+00 -1.4559097378267971e-03 0.0000000000000000e+00  0.0000000000000000e+00 -1.4620131549900645e-03 0.0000000000000000e+00  0.0000000000000000e+00 -1.4684325059285707e-03 0.0000000000000000e+00  0.0000000000000000e+00 -1.4751999766469753e-03 0.0000000000000000e+00  0.0000000000000000e+00 -1.4823477918430453e-03 0.0000000000000000e+00  0.0000000000000000e+00 -1.4899156592562044e-03 0.0000000000000000e+00  0.0000000000000000e+00 -1.4979392936516384e-03 0.0000000000000000e+00  0.0000000000000000e+00 -1.5064712007804646e-03 0.0000000000000000e+00  0.0000000000000000e+00 -1.5155637022569628e-03 0.0000000000000000e+00  0.0000000000000000e+00 -1.5252849025208688e-03 0.0000000000000000e+00  0.0000000000000000e+00 -1.5357120142077329e-03 0.0000000000000000e+00  0.0000000000000000e+00 -1.5469419442509843e-03 0.0000000000000000e+00  0.0000000000000000e+00 -1.5590985139715102e-03 0.0000000000000000e+00  0.0000000000000000e+00 -1.5723277740048492e-03 0.0000000000000000e+00  0.0000000000000000e+00 -1.5868184821608738e-03 0.0000000000000000e+00  0.0000000000000000e+00 -1.6028121705215638e-03 0.0000000000000000e+00  0.0000000000000000e+00 -1.6205873070634618e-03 0.0000000000000000e+00  0.0000000000000000e+00 -1.6491950487261368e-03 0.0000000000000000e+00  -1.8246938993188517e-04 -2.0131546522892682e-03 0.0000000000000000e+00  -1.9230203656355071e-04 -2.1504000215746967e-03 0.0000000000000000e+00  -1.9524255060093441e-04 -2.2603060680125610e-03 0.0000000000000000e+00  -1.9427706003915984e-04 -2.3539201583727609e-03 0.0000000000000000e+00  -1.9085553685663234e-04 -2.4356936353861786e-03 0.0000000000000000e+00  -1.8582936579936360e-04 -2.5082942276836427e-03 0.0000000000000000e+00  -1.7959171084751575e-04 -2.5733821705844016e-03 0.0000000000000000e+00  -1.7239612255911754e-04 -2.6320773391241836e-03 0.0000000000000000e+00  -1.6443770377401516e-04 -2.6851897710479587e-03 0.0000000000000000e+00  -1.5585257444975697e-04 -2.7333251772906114e-03 0.0000000000000000e+00  -1.4675046054184082e-04 -2.7769516678555883e-03 0.0000000000000000e+00  -1.3721478195798272e-04 -2.8164373245513599e-03 0.0000000000000000e+00  -1.2731302384589292e-04 -2.8520781992725759e-03 0.0000000000000000e+00  -1.1709864321130916e-04 -2.8841131489260288e-03 0.0000000000000000e+00  -1.0661955361432736e-04 -2.9127404508573719e-03 0.0000000000000000e+00  -9.5918182135260865e-05 -2.9381233674798655e-03 0.0000000000000000e+00  -8.5022903333341167e-05 -2.9603933620006781e-03 0.0000000000000000e+00  -7.3966615481642204e-05 -2.9796637187163178e-03 0.0000000000000000e+00  -6.2777749261582274e-05 -2.9960273453245039e-03 0.0000000000000000e+00  -5.1478636148467112e-05 -3.0095577284778808e-03 0.0000000000000000e+00  -4.0093556355699090e-05 -3.0203141449605900e-03 0.0000000000000000e+00  -2.8639980064105519e-05 -3.0283423256822293e-03 0.0000000000000000e+00  -1.7140522747107220e-05 -3.0336768893391756e-03 0.0000000000000000e+00  -5.6146053265894448e-06 -3.0363390388462707e-03 0.0000000000000000e+00  5.9230158199104467e-06 -3.0363397999703346e-03 0.0000000000000000e+00  1.7450889419087361e-05 -3.0336793499141932e-03 0.0000000000000000e+00  2.8949750447549094e-05 -3.0283463343431108e-03 0.0000000000000000e+00  4.0404671783418012e-05 -3.0203193788810689e-03 0.0000000000000000e+00  5.1792119662501413e-05 -3.0095647652155595e-03 0.0000000000000000e+00  6.3093868393396743e-05 -2.9960367619793074e-03 0.0000000000000000e+00  7.4284383122209355e-05 -2.9796746427729753e-03 0.0000000000000000e+00  8.5346353107982882e-05 -2.9604059093656103e-03 0.0000000000000000e+00  9.6242033160417423e-05 -2.9381362545451372e-03 0.0000000000000000e+00  1.0695091632322484e-04 -2.9127556784667380e-03 0.0000000000000000e+00  1.1743493209682855e-04 -2.8841291842238198e-03 0.0000000000000000e+00  1.2765473691773324e-04 -2.8520960979183173e-03 0.0000000000000000e+00  1.3756572700791687e-04 -2.8164599604646712e-03 0.0000000000000000e+00  1.4711413656962787e-04 -2.7769791154346095e-03 0.0000000000000000e+00  1.5621850857789550e-04 -2.7333500205334736e-03 0.0000000000000000e+00  1.6481357853103675e-04 -2.6852156884890673e-03 0.0000000000000000e+00  1.7278967475072371e-04 -2.6321079891563426e-03 0.0000000000000000e+00  1.7999748331080960e-04 -2.5734182862241109e-03 0.0000000000000000e+00  1.8625776380389172e-04 -2.5083313180109556e-03 0.0000000000000000e+00  1.9127604082611112e-04 -2.4357155963667483e-03 0.0000000000000000e+00  1.9467007461950733e-04 -2.3539455098742536e-03 0.0000000000000000e+00  1.9565390851914219e-04 -2.2603865340609015e-03 0.0000000000000000e+00  1.9253664912980933e-04 -2.1505592431537760e-03 0.0000000000000000e+00  1.8061317218343194e-04 -2