<?xml version="1.0"?>
<VTKFile type="UnstructuredGrid"  version="0.1"  >
<UnstructuredGrid>
<Piece  NumberOfPoints="6382" NumberOfCells="12354">
<Points>
<DataArray  type="Float64"  NumberOfComponents="3"  format="ascii">0 -3 0  0 0 0  10 -3 0  10 0 0  5.2 0 0  5.2 -0.4 0  5.5 -0.4 0  5.5 -0.6000000000000001 0  4.5 -0.6000000000000001 0  4.5 -0.4 0  4.8 -0.4 0  4.8 0 0  0 -2.666666666666667 0  0 -2.333333333333333 0  0 -2 0  0 -1.666666666666667 0  0 -1.333333333333333 0  0 -1 0  0 -0.666666666666667 0  0 -0.3333333333333335 0  9.836518447033493 -3 0  9.676485174132324 -3 0  9.519716728676565 -3 0  9.366040597429432 -3 0  9.215293522901804 -3 0  9.067325347766827 -3 0  8.921978167503752 -3 0  8.779125793186953 -3 0  8.638633440048579 -3 0  8.500376249002967 -3 0  8.364235730108557 -3 0  8.230099119300583 -3 0  8.097858693472926 -3 0  7.96741165420296 -3 0  7.838659590098249 -3 0  7.711508416266758 -3 0  7.585867779025237 -3 0  7.461651037321721 -3 0  7.338774694871047 -3 0  7.217158563845377 -3 0  7.096725097152937 -3 0  6.977399455051415 -3 0  6.859109304538208 -3 0  6.741784490575633 -3 0  6.625356935727237 -3 0  6.509760461250432 -3 0  6.394930659317325 -3 0  6.2808046903675 -3 0  6.167321173775116 -3 0  6.054420032640893 -3 0  5.942042373994132 -3 0  5.830130346471836 -3 0  5.718627047087892 -3 0  5.607476358937133 -3 0  5.496622874861212 -3 0  5.386011773348871 -3 0  5.275588701244851 -3 0  5.1652996754838 -3 0  5.055090972556302 -3 0  4.944909027443701 -3 0  4.834700324516204 -3 0  4.724411298755151 -3 0  4.613988226651132 -3 0  4.50337712513879 -3 0  4.392523641062869 -3 0  4.281372952912111 -3 0  4.169869653528168 -3 0  4.05795762600587 -3 0  3.94557996735911 -3 0  3.832678826224885 -3 0  3.719195309632506 -3 0  3.605069340682676 -3 0  3.490239538749567 -3 0  3.374643064272765 -3 0  3.25821550942437 -3 0  3.140890695461794 -3 0  3.022600544948583 -3 0  2.903274902847057 -3 0  2.782841436154621 -3 0  2.661225305128949 -3 0  2.538348962678273 -3 0  2.414132220974763 -3 0  2.288491583733238 -3 0  2.161340409901745 -3 0  2.032588345797035 -3 0  1.902141306527067 -3 0  1.76990088069941 -3 0  1.63576426989143 -3 0  1.499623750997021 -3 0  1.361366559951406 -3 0  1.220874206813038 -3 0  1.078021832496241 -3 0  0.9326746522331657 -3 0  0.7847064770981866 -3 0  0.6339594025705644 -3 0  0.4802832713234277 -3 0  0.3235148258676688 -3 0  0.1634815529665037 -3 0  10 -0.3333333333333333 0  10 -0.6666666666666666 0  10 -1 0  10 -1.333333333333333 0  10 -1.666666666666667 0  10 -2 0  10 -2.333333333333333 0  10 -2.666666666666667 0  5.242711110725164 0 0  5.286293876642154 0 0  5.330766086609641 0 0  5.37614589213589 0 0  5.422451816439484 0 0  5.469702760205794 0 0  5.517918009017504 0 0  5.567117241892008 0 0  5.617320540096343 0 0  5.668548395644089 0 0  5.720821717893487 0 0  5.774161842649544 0 0  5.828590541642586 0 0  5.88413003019757 0 0  5.940802977381058 0 0  5.998632515893446 0 0  6.057642249375406 0 0  6.117856262977496 0 0  6.179299133651088 0 0  6.241995940085244 0 0  6.305972273082686 0 0  6.371254245606542 0 0  6.43786850326221 0 0  6.505842235920577 0 0  6.575203187664691 0 0  6.645979668539436 0 0  6.71820056760014 0 0  6.791895362764803 0 0  6.867094133292654 0 0  6.943827572794882 0 0  7.022127001289535 0 0  7.10202437703821 0 0  7.183552311040527 0 0  7.266744080707336 0 0  7.351633641831447 0 0  7.438255642584554 0 0  7.526645439439152 0 0  7.616839110330926 0 0  7.708873468012155 0 0  7.802786077905059 0 0  7.898615271449994 0 0  7.996400162886068 0 0  8.096180664647234 0 0  8.197997502517053 0 0  8.301892235188374 0 0  8.407907268711336 0 0  8.516085874431543 0 0  8.626472207031901 0 0  8.739111321743804 0 0  8.854049193814495 0 0  8.971332736524433 0 0  9.091009820696414 0 0  9.21312929427506 0 0  9.337741001971482 0 0  9.464895805719847 0 0  9.594645605970797 0 0  9.727043361679982 0 0  9.862143111819449 0 0  5.2 -0.01666666666666669 0  5.2 -0.03333333333333339 0  5.2 -0.05000000000000009 0  5.2 -0.06666666666666679 0  5.2 -0.0833333333333335 0  5.2 -0.1000000000000002 0  5.2 -0.1166666666666669 0  5.2 -0.1333333333333336 0  5.2 -0.1500000000000002 0  5.2 -0.1666666666666669 0  5.2 -0.1833333333333335 0  5.2 -0.2000000000000001 0  5.2 -0.2166666666666668 0  5.2 -0.2333333333333335 0  5.2 -0.2500000000000002 0  5.2 -0.2666666666666669 0  5.2 -0.2833333333333335 0  5.2 -0.3000000000000002 0  5.2 -0.3166666666666668 0  5.2 -0.3333333333333335 0  5.2 -0.3500000000000001 0  5.2 -0.3666666666666668 0  5.2 -0.3833333333333334 0  5.2125 -0.4 0  5.225 -0.4 0  5.2375 -0.4 0  5.25 -0.4 0  5.2625 -0.4 0  5.275 -0.4 0  5.2875 -0.4 0  5.3 -0.4 0  5.3125 -0.4 0  5.325 -0.4 0  5.337499999999999 -0.4 0  5.35 -0.4 0  5.3625 -0.4 0  5.375 -0.4 0  5.3875 -0.4 0  5.4 -0.4 0  5.4125 -0.4 0  5.425 -0.4 0  5.4375 -0.4 0  5.45 -0.4 0  5.4625 -0.4 0  5.475 -0.4 0  5.4875 -0.4 0  5.5 -0.4083333333333334 0  5.5 -0.4166666666666667 0  5.5 -0.425 0  5.5 -0.4333333333333334 0  5.5 -0.4416666666666668 0  5.5 -0.4500000000000001 0  5.5 -0.4583333333333334 0  5.5 -0.4666666666666668 0  5.5 -0.4750000000000001 0  5.5 -0.4833333333333335 0  5.5 -0.4916666666666668 0  5.5 -0.5000000000000002 0  5.5 -0.5083333333333335 0  5.5 -0.5166666666666668 0  5.5 -0.5250000000000002 0  5.5 -0.5333333333333335 0  5.5 -0.5416666666666669 0  5.5 -0.5500000000000002 0  5.5 -0.5583333333333335 0  5.5 -0.5666666666666668 0  5.5 -0.5750000000000002 0  5.5 -0.5833333333333335 0  5.5 -0.5916666666666668 0  5.479591836734694 -0.6000000000000001 0  5.459183673469388 -0.6000000000000001 0  5.438775510204081 -0.6000000000000001 0  5.418367346938775 -0.6000000000000001 0  5.397959183673469 -0.6000000000000001 0  5.377551020408164 -0.6000000000000001 0  5.357142857142857 -0.6000000000000001 0  5.336734693877551 -0.6000000000000001 0  5.316326530612245 -0.6000000000000001 0  5.295918367346939 -0.6000000000000001 0  5.275510204081633 -0.6000000000000001 0  5.255102040816326 -0.6000000000000001 0  5.23469387755102 -0.6000000000000001 0  5.214285714285714 -0.6000000000000001 0  5.193877551020408 -0.6000000000000001 0  5.173469387755102 -0.6000000000000001 0  5.153061224489796 -0.6000000000000001 0  5.13265306122449 -0.6000000000000001 0  5.112244897959184 -0.6000000000000001 0  5.091836734693878 -0.6000000000000001 0  5.071428571428571 -0.6000000000000001 0  5.051020408163265 -0.6000000000000001 0  5.030612244897959 -0.6000000000000001 0  5.010204081632653 -0.6000000000000001 0  4.989795918367347 -0.6000000000000001 0  4.969387755102041 -0.6000000000000001 0  4.948979591836735 -0.6000000000000001 0  4.928571428571429 -0.6000000000000001 0  4.908163265306122 -0.6000000000000001 0  4.887755102040816 -0.6000000000000001 0  4.86734693877551 -0.6000000000000001 0  4.846938775510204 -0.6000000000000001 0  4.826530612244898 -0.6000000000000001 0  4.806122448979592 -0.6000000000000001 0  4.785714285714286 -0.6000000000000001 0  4.76530612244898 -0.6000000000000001 0  4.744897959183674 -0.6000000000000001 0  4.724489795918368 -0.6000000000000001 0  4.704081632653061 -0.6000000000000001 0  4.683673469387755 -0.6000000000000001 0  4.663265306122449 -0.6000000000000001 0  4.642857142857143 -0.6000000000000001 0  4.622448979591836 -0.6000000000000001 0  4.602040816326531 -0.6000000000000001 0  4.581632653061225 -0.6000000000000001 0  4.561224489795919 -0.6000000000000001 0  4.540816326530612 -0.6000000000000001 0  4.520408163265306 -0.6000000000000001 0  4.5 -0.5916666666666668 0  4.5 -0.5833333333333334 0  4.5 -0.5750000000000001 0  4.5 -0.5666666666666668 0  4.5 -0.5583333333333333 0  4.5 -0.55 0  4.5 -0.5416666666666667 0  4.5 -0.5333333333333333 0  4.5 -0.525 0  4.5 -0.5166666666666666 0  4.5 -0.5083333333333333 0  4.5 -0.4999999999999999 0  4.5 -0.4916666666666666 0  4.5 -0.4833333333333332 0  4.5 -0.4749999999999999 0  4.5 -0.4666666666666666 0  4.5 -0.4583333333333333 0  4.5 -0.45 0  4.5 -0.4416666666666667 0  4.5 -0.4333333333333333 0  4.5 -0.425 0  4.5 -0.4166666666666667 0  4.5 -0.4083333333333334 0  4.5125 -0.4 0  4.525 -0.4 0  4.5375 -0.4 0  4.55 -0.4 0  4.5625 -0.4 0  4.575 -0.4 0  4.587499999999999 -0.4 0  4.6 -0.4 0  4.6125 -0.4 0  4.625 -0.4 0  4.637499999999999 -0.4 0  4.649999999999999 -0.4 0  4.6625 -0.4 0  4.675 -0.4 0  4.6875 -0.4 0  4.699999999999999 -0.4 0  4.712499999999999 -0.4 0  4.725 -0.4 0  4.7375 -0.4 0  4.75 -0.4 0  4.7625 -0.4 0  4.774999999999999 -0.4 0  4.7875 -0.4 0  4.8 -0.3833333333333333 0  4.8 -0.3666666666666666 0  4.8 -0.3499999999999999 0  4.8 -0.3333333333333333 0  4.8 -0.3166666666666665 0  4.8 -0.2999999999999998 0  4.8 -0.2833333333333331 0  4.8 -0.2666666666666664 0  4.8 -0.2499999999999998 0  4.8 -0.2333333333333331 0  4.8 -0.2166666666666665 0  4.8 -0.1999999999999999 0  4.8 -0.1833333333333332 0  4.8 -0.1666666666666665 0  4.8 -0.1499999999999998 0  4.8 -0.1333333333333331 0  4.8 -0.1166666666666665 0  4.8 -0.09999999999999987 0  4.8 -0.0833333333333332 0  4.8 -0.06666666666666654 0  4.8 -0.04999999999999988 0  4.8 -0.03333333333333327 0  4.8 -0.01666666666666661 0  0.1378568875240437 0 0  0.2729566377271358 0 0  0.4053543934976697 0 0  0.5351041938077431 0 0  0.6622589976130751 0 0  0.7868707053643811 0 0  0.9089901789958823 0 0  1.028667263218748 0 0  1.14595080597766 0 0  1.260888678095464 0 0  1.373527792852679 0 0  1.483914125496606 0 0  1.592092731258683 0 0  1.698107764821866 0 0  1.802002497531814 0 0  1.90381933543871 0 0  2.003599837235452 0 0  2.101384728705643 0 0  2.197213922283282 0 0  2.291126532207516 0 0  2.38316088991875 0 0  2.473354560839241 0 0  2.56174435771825 0 0  2.648366358500676 0 0  2.733255919649871 0 0  2.81644768934063 0 0  2.897975623365796 0 0  2.977872999136252 0 0  3.056172427651654 0 0  3.132905867173631 0 0  3.208104637720262 0 0  3.28179943290277 0 0  3.354020331980409 0 0  3.42479681287121 0 0  3.494157764630528 0 0  3.562131497303279 0 0  3.628745754972536 0 0  3.69402772750921 0 0  3.758004060518725 0 0  3.820700866964234 0 0  3.882143737648484 0 0  3.942357751260559 0 0  4.0013674
[...]
<PointData  Vectors="displacement"> 
<DataArray  type="Float64"  Name="displacement"  NumberOfComponents="3" format="ascii">0.0000000000000000e+00 0.0000000000000000e+00 0.0000000000000000e+00  -9.1945330142534698e-02 -2.3561646015174707e-02 0.0000000000000000e+00  0.0000000000000000e+00 0.0000000000000000e+00 0.0000000000000000e+00  9.1121011129663115e-02 -2.3367837285569619e-02 0.0000000000000000e+00  0.0000000000000000e+00 -2.3695221014488430e-02 0.0000000000000000e+00  0.0000000000000000e+00 -2.0571927366145697e-02 0.0000000000000000e+00  0.0000000000000000e+00 -2.2280583615096435e-02 0.0000000000000000e+00  0.0000000000000000e+00 -7.4206197317151959e-02 0.0000000000000000e+00  0.0000000000000000e+00 -6.1498038582667648e-02 0.0000000000000000e+00  0.0000000000000000e+00 -2.2104522181499255e-02 0.0000000000000000e+00  0.0000000000000000e+00 -2.0323768036743468e-02 0.0000000000000000e+00  0.0000000000000000e+00 -2.3599694891249190e-02 0.0000000000000000e+00  -3.3120584155924136e-02 -2.2069130905553812e-02 0.0000000000000000e+00  -4.1223328431347205e-02 -2.2516165585291431e-02 0.0000000000000000e+00  -4.8880539394566137e-02 -2.3058181120338611e-02 0.0000000000000000e+00  -5.6353473236027206e-02 -2.3363165730055504e-02 0.0000000000000000e+00  -6.3679199863982600e-02 -2.3523305615324057e-02 0.0000000000000000e+00  -7.0880173832445895e-02 -2.3583240302677420e-02 0.0000000000000000e+00  -7.7972469587761772e-02 -2.3585003209106295e-02 0.0000000000000000e+00  -8.4979831957591082e-02 -2.3568575492553829e-02 0.0000000000000000e+00  0.0000000000000000e+00 0.0000000000000000e+00 0.0000000000000000e+00  0.0000000000000000e+00 0.0000000000000000e+00 0.0000000000000000e+00  0.0000000000000000e+00 0.0000000000000000e+00 0.0000000000000000e+00  0.0000000000000000e+00 0.0000000000000000e+00 0.0000000000000000e+00  0.0000000000000000e+00 0.0000000000000000e+00 0.0000000000000000e+00  0.0000000000000000e+00 0.0000000000000000e+00 0.0000000000000000e+00  0.0000000000000000e+00 0.0000000000000000e+00 0.0000000000000000e+00  0.0000000000000000e+00 0.0000000000000000e+00 0.0000000000000000e+00  0.0000000000000000e+00 0.0000000000000000e+00 0.0000000000000000e+00  0.0000000000000000e+00 0.0000000000000000e+00 0.0000000000000000e+00  0.0000000000000000e+00 0.0000000000000000e+00 0.0000000000000000e+00  0.0000000000000000e+00 0.0000000000000000e+00 0.0000000000000000e+00  0.0000000000000000e+00 0.0000000000000000e+00 0.0000000000000000e+00  0.0000000000000000e+00 0.0000000000000000e+00 0.0000000000000000e+00  0.0000000000000000e+00 0.0000000000000000e+00 0.0000000000000000e+00  0.0000000000000000e+00 0.0000000000000000e+00 0.0000000000000000e+00  0.0000000000000000e+00 0.0000000000000000e+00 0.0000000000000000e+00  0.0000000000000000e+00 0.0000000000000000e+00 0.0000000000000000e+00  0.0000000000000000e+00 0.0000000000000000e+00 0.0000000000000000e+00  0.0000000000000000e+00 0.0000000000000000e+00 0.0000000000000000e+00  0.0000000000000000e+00 0.0000000000000000e+00 0.0000000000000000e+00  0.0000000000000000e+00 0.0000000000000000e+00 0.0000000000000000e+00  0.0000000000000000e+00 0.0000000000000000e+00 0.0000000000000000e+00  0.0000000000000000e+00 0.0000000000000000e+00 0.0000000000000000e+00  0.0000000000000000e+00 0.0000000000000000e+00 0.0000000000000000e+00  0.0000000000000000e+00 0.0000000000000000e+00 0.0000000000000000e+00  0.0000000000000000e+00 0.0000000000000000e+00 0.0000000000000000e+00  0.0000000000000000e+00 0.0000000000000000e+00 0.0000000000000000e+00  0.0000000000000000e+00 0.0000000000000000e+00 0.0000000000000000e+00  0.0000000000000000e+00 0.0000000000000000e+00 0.0000000000000000e+00  0.0000000000000000e+00 0.0000000000000000e+00 0.0000000000000000e+00  0.0000000000000000e+00 0.0000000000000000e+00 0.0000000000000000e+00  0.0000000000000000e+00 0.0000000000000000e+00 0.0000000000000000e+00  0.0000000000000000e+00 0.0000000000000000e+00 0.0000000000000000e+00  0.0000000000000000e+00 0.0000000000000000e+00 0.0000000000000000e+00  0.0000000000000000e+00 0.0000000000000000e+00 0.0000000000000000e+00  0.0000000000000000e+00 0.0000000000000000e+00 0.0000000000000000e+00  0.0000000000000000e+00 0.0000000000000000e+00 0.0000000000000000e+00  0.0000000000000000e+00 0.0000000000000000e+00 0.0000000000000000e+00  0.0000000000000000e+00 0.0000000000000000e+00 0.0000000000000000e+00  0.0000000000000000e+00 0.0000000000000000e+00 0.0000000000000000e+00  0.0000000000000000e+00 0.0000000000000000e+00 0.0000000000000000e+00  0.0000000000000000e+00 0.0000000000000000e+00 0.0000000000000000e+00  0.0000000000000000e+00 0.0000000000000000e+00 0.0000000000000000e+00  0.0000000000000000e+00 0.0000000000000000e+00 0.0000000000000000e+00  0.0000000000000000e+00 0.0000000000000000e+00 0.0000000000000000e+00  0.0000000000000000e+00 0.0000000000000000e+00 0.0000000000000000e+00  0.0000000000000000e+00 0.0000000000000000e+00 0.0000000000000000e+00  0.0000000000000000e+00 0.0000000000000000e+00 0.0000000000000000e+00  0.0000000000000000e+00 0.0000000000000000e+00 0.0000000000000000e+00  0.0000000000000000e+00 0.0000000000000000e+00 0.0000000000000000e+00  0.0000000000000000e+00 0.0000000000000000e+00 0.0000000000000000e+00  0.0000000000000000e+00 0.0000000000000000e+00 0.0000000000000000e+00  0.0000000000000000e+00 0.0000000000000000e+00 0.0000000000000000e+00  0.0000000000000000e+00 0.0000000000000000e+00 0.0000000000000000e+00  0.0000000000000000e+00 0.0000000000000000e+00 0.0000000000000000e+00  0.0000000000000000e+00 0.0000000000000000e+00 0.0000000000000000e+00  0.0000000000000000e+00 0.0000000000000000e+00 0.0000000000000000e+00  0.0000000000000000e+00 0.0000000000000000e+00 0.0000000000000000e+00  0.0000000000000000e+00 0.0000000000000000e+00 0.0000000000000000e+00  0.0000000000000000e+00 0.0000000000000000e+00 0.0000000000000000e+00  0.0000000000000000e+00 0.0000000000000000e+00 0.0000000000000000e+00  0.0000000000000000e+00 0.0000000000000000e+00 0.0000000000000000e+00  0.0000000000000000e+00 0.0000000000000000e+00 0.0000000000000000e+00  0.0000000000000000e+00 0.0000000000000000e+00 0.0000000000000000e+00  0.0000000000000000e+00 0.0000000000000000e+00 0.0000000000000000e+00  0.0000000000000000e+00 0.0000000000000000e+00 0.0000000000000000e+00  0.0000000000000000e+00 0.0000000000000000e+00 0.0000000000000000e+00  0.0000000000000000e+00 0.0000000000000000e+00 0.0000000000000000e+00  0.0000000000000000e+00 0.0000000000000000e+00 0.0000000000000000e+00  0.0000000000000000e+00 0.0000000000000000e+00 0.0000000000000000e+00  0.0000000000000000e+00 0.0000000000000000e+00 0.0000000000000000e+00  0.0000000000000000e+00 0.0000000000000000e+00 0.0000000000000000e+00  0.0000000000000000e+00 0.0000000000000000e+00 0.0000000000000000e+00  0.0000000000000000e+00 0.0000000000000000e+00 0.0000000000000000e+00  0.0000000000000000e+00 0.0000000000000000e+00 0.0000000000000000e+00  0.0000000000000000e+00 0.0000000000000000e+00 0.0000000000000000e+00  0.0000000000000000e+00 0.0000000000000000e+00 0.0000000000000000e+00  8.4206180938518921e-02 -2.3374092978932975e-02 0.0000000000000000e+00  7.7251415540162696e-02 -2.3392890420113468e-02 0.0000000000000000e+00  7.0211328727176003e-02 -2.3393471421972043e-02 0.0000000000000000e+00  6.3061212009663123e-02 -2.3341322826008953e-02 0.0000000000000000e+00  5.5779873531192001e-02 -2.3193788308258773e-02 0.0000000000000000e+00  4.8339694852390327e-02 -2.2907042091695862e-02 0.0000000000000000e+00  4.0719904266946952e-02 -2.2389222246432479e-02 0.0000000000000000e+00  3.2776130019677933e-02 -2.1723683615373166e-02 0.0000000000000000e+00  5.1943492251314946e-04 -2.3688412134477484e-02 0.0000000000000000e+00  1.0856475532658237e-03 -2.3640089531646716e-02 0.0000000000000000e+00  1.7247398049982500e-03 -2.3542235738562414e-02 0.0000000000000000e+00  2.3620285002901344e-03 -2.3498232262701691e-02 0.0000000000000000e+00  2.9536654625467716e-03 -2.3559489483331485e-02 0.0000000000000000e+00  3.5051698911518154e-03 -2.3724214063515641e-02 0.0000000000000000e+00  4.0230669226814517e-03 -2.3977274876302548e-02 0.0000000000000000e+00  4.4941244390244942e-03 -2.4310731725978241e-02 0.0000000000000000e+00  4.9111039891726231e-03 -2.4724271890408898e-02 0.0000000000000000e+00  5.2892385250731073e-03 -2.5226826187417332e-02 0.0000000000000000e+00  5.6394172845534900e-03 -2.5775575395736192e-02 0.0000000000000000e+00  5.9708908374868606e-03 -2.6308083313282125e-02 0.0000000000000000e+00  6.2958631528991062e-03 -2.6772357117116542e-02 0.0000000000000000e+00  6.8106443549545686e-03 -2.7353544925813641e-02 0.0000000000000000e+00  7.4442655672658656e-03 -2.7372603377670713e-02 0.0000000000000000e+00  1.1557050454108085e-02 -2.2093786819249752e-02 0.0000000000000000e+00  2.8422588952177828e-02 -5.3993015101967985e-03 0.0000000000000000e+00  5.2104453158411078e-02 1.6902381797686376e-02 0.0000000000000000e+00  7.3381757554779936e-02 3.6976250414176869e-02 0.0000000000000000e+00  8.5639964331951604e-02 4.7972558715716394e-02 0.0000000000000000e+00  8.9184569647659431e-02 5.0169944311695351e-02 0.0000000000000000e+00  8.9792659438591896e-02 4.9441271819376811e-02 0.0000000000000000e+00  9.0057918804411219e-02 4.8338167521726379e-02 0.0000000000000000e+00  9.0307410149207998e-02 4.7169891409965456e-02 0.0000000000000000e+00  9.0544098567733156e-02 4.5938864374870853e-02 0.0000000000000000e+00  9.0762443856713004e-02 4.4645544381813188e-02 0.0000000000000000e+00  9.0959610219333770e-02 4.3292108740533880e-02 0.0000000000000000e+00  9.1133801829419228e-02 4.1881276097967796e-02 0.0000000000000000e+00  9.1284455011333060e-02 4.0415944769922760e-02 0.0000000000000000e+00  9.1411112342109815e-02 3.8899045602041514e-02 0.0000000000000000e+00  9.1514320059988302e-02 3.7333545974167964e-02 0.0000000000000000e+00  9.1594816304660154e-02 3.5722098340960129e-02 0.0000000000000000e+00  9.1653704760759319e-02 3.4067179430705169e-02 0.0000000000000000e+00  9.1692329213447041e-02 3.2371021519202035e-02 0.0000000000000000e+00  9.1712512875069957e-02 3.0635584806097314e-02 0.0000000000000000e+00  9.1715749069488567e-02 2.8862445208292634e-02 0.0000000000000000e+00  9.1704048067795141e-02 2.7052897178633638e-02 0.0000000000000000e+00  9.1679629524943615e-02 2.5207968282041991e-02 0.0000000000000000e+00  9.1644291587575824e-02 2.3328270692457492e-02 0.0000000000000000e+00  9.1600491935790784e-02 2.1414098097203092e-02 0.0000000000000000e+00  9.1550075475755124e-02 1.9465373824511814e-02 0.0000000000000000e+00  9.1495443581842348e-02 1.7481640965988275e-02 0.0000000000000000e+00  9.1438614483476649e-02 1.5462125304149832e-02 0.0000000000000000e+00  9.1381624756877652e-02 1.3405651711354782e-02 0.0000000000000000e+00  9.1326396613469418e-02 1.1310681721460004e-02 0.0000000000000000e+00  9.1274662110909871e-02 9.1753272802926264e-03 0.0000000000000000e+00  9.1227942931009998e-02 6.9973900354586196e-03 0.0000000000000000e+00  9.1187535839582723e-02 4.7743632349206717e-03 0.0000000000000000e+00  9.1154318872990525e-02 2.5035324639773220e-03 0.0000000000000000e+00  9.1128881196573003e-02 1.8199788536464449e-04 0.0000000000000000e+00  9.1111321236602802e-02 -2.1931830826467189e-03 0.0000000000000000e+00  9.1101306762675902e-02 -4.6249036229207476e-03 0.0000000000000000e+00  9.1097984182994612e-02 -7.1158219563955240e-03 0.0000000000000000e+00  9.1099991623872889e-02 -9.6681917525223166e-03 0.0000000000000000e+00  9.1105501810345990e-02 -1.2283618237521280e-02 0.0000000000000000e+00  9.1112323190933528e-02 -1.4962722280531672e-02 0.0000000000000000e+00  9.1118072051121879e-02 -1.7704859262191550e-02 0.0000000000000000e+00  9.1121080810686178e-02 -2.0507850402528158e-02 0.0000000000000000e+00  0.0000000000000000e+00 -2.3535277345997110e-02 0.0000000000000000e+00  0.0000000000000000e+00 -2.3371027377253786e-02 0.0000000000000000e+00  0.0000000000000000e+00 -2.3201617024817496e-02 0.0000000000000000e+00  0.0000000000000000e+00 -2.3017196198268634e-02 0.0000000000000000e+00  0.0000000000000000e+00 -2.2808217329015085e-02 0.0000000000000000e+00  0.0000000000000000e+00 -2.2577875947734357e-02 0.0000000000000000e+00  0.0000000000000000e+00 -2.2337639601377000e-02 0.0000000000000000e+00  0.0000000000000000e+00 -2.2098062201740942e-02 0.0000000000000000e+00  0.0000000000000000e+00 -2.1870254643826605e-02 0.0000000000000000e+00  0.0000000000000000e+00 -2.1661715181494304e-02 0.0000000000000000e+00  0.0000000000000000e+00 -2.1477165778111471e-02 0.0000000000000000e+00  0.0000000000000000e+00 -2.1315679271996839e-02 0.0000000000000000e+00  0.0000000000000000e+00 -2.1174298478683670e-02 0.0000000000000000e+00  0.0000000000000000e+00 -2.1050265251541217e-02 0.0000000000000000e+00  0.0000000000000000e+00 -2.0942450010395415e-02 0.0000000000000000e+00  0.0000000000000000e+00 -2.0849975654665606e-02 0.0000000000000000e+00  0.0000000000000000e+00 -2.0772664173023939e-02 0.0000000000000000e+00  0.0000000000000000e+00 -2.0710023627773279e-02 0.0000000000000000e+00  0.0000000000000000e+00 -2.0661793627443852e-02 0.0000000000000000e+00  0.0000000000000000e+00 -2.0627430085214771e-02 0.0000000000000000e+00  0.0000000000000000e+00 -2.0603364908900253e-02 0.0000000000000000e+00  0.0000000000000000e+00 -2.0585972419860925e-02 0.0000000000000000e+00  0.0000000000000000e+00 -2.0575450868257170e-02 0.0000000000000000e+00  0.0000000000000000e+00 -2.0576221516497035e-02 0.0000000000000000e+00  0.0000000000000000e+00 -2.0589103610024619e-02 0.0000000000000000e+00  0.0000000000000000e+00 -2.0610575238497540e-02 0.0000000000000000e+00  0.0000000000000000e+00 -2.0640639292445324e-02 0.0000000000000000e+00  0.0000000000000000e+00 -2.0679301912507796e-02 0.0000000000000000e+00  0.0000000000000000e+00 -2.0726572513980402e-02 0.0000000000000000e+00  0.0000000000000000e+00 -2.0782475640665713e-02 0.0000000000000000e+00  0.0000000000000000e+00 -2.0847041176161766e-02 0.0000000000000000e+00  0.0000000000000000e+00 -2.0920318848898688e-02 0.0000000000000000e+00  0.0000000000000000e+00 -2.1002401758562751e-02 0.0000000000000000e+00  0.0000000000000000e+00 -2.1093458839946753e-02 0.0000000000000000e+00  0.0000000000000000e+00 -2.1193796763617372e-02 0.0000000000000000e+00  0.0000000000000000e+00 -2.1303920890572172e-02 0.0000000000000000e+00  0.0000000000000000e+00 -2.1424533959490469e-02 0.0000000000000000e+00  0.0000000000000000e+00 -2.1556173975938085e-02 0.0000000000000000e+00  0.0000000000000000e+00 -2.1675221147605048e-02 0.0000000000000000e+00  0.0000000000000000e+00 -2.1771230880885405e-02 0.0000000000000000e+00  0.0000000000000000e+00 -2.1860993011208005e-02 0.0000000000000000e+00  0.0000000000000000e+00 -2.1944171750474650e-02 0.0000000000000000e+00  0.0000000000000000e+00 -2.2023092632413740e-02 0.0000000000000000e+00  0.0000000000000000e+00 -2.2092314880338210e-02 0.0000000000000000e+00  0.0000000000000000e+00 -2.2154861124851186e-02 0.0000000000000000e+00  0.0000000000000000e+00 -2.2198875744850105e-02 0.0000000000000000e+00  0.0000000000000000e+00 -2.1859179667290108e-02 0.0000000000000000e+00  0.0000000000000000e+00 -2.1759996022728646e-02 0.0000000000000000e+00  0.0000000000000000e+00 -2.1699638504802762e-02 0.0000000000000000e+00  0.0000000000000000e+00 -2.1665316000463848e-02 0.0000000000000000e+00  0.0000000000000000e+00 -2.1630892034074117e-02 0.0000000000000000e+00  0.0000000000000000e+00 -2.1602226467161045e-02 0.0000000000000000e+00  0.0000000000000000e+00 -2.1577083619329380e-02 0.0000000000000000e+00  0.0000000000000000e+00 -2.1555184157214601e-02 0.0000000000000000e+00  0.0000000000000000e+00 -2.1536226991109502e-02 0.0000000000000000e+00  0.0000000000000000e+00 -2.1520128690952531e-02 0.0000000000000000e+00  0.0000000000000000e+00 -2.1506938896361651e-02 0.0000000000000000e+00  0.0000000000000000e+00 -2.1496457227010039e-02 0.0000000000000000e+00  0.0000000000000000e+00 -2.1488692967604462e-02 0.0000000000000000e+00  0.0000000000000000e+00 -2.1483614693946169e-02 0.0000000000000000e+00  0.0000000000000000e+00 -2.1481363291344476e-02 0.0000000000000000e+00  0.0000000000000000e+00 -2.1482291648177214e-02 0.0000000000000000e+00  0.0000000000000000e+00 -2.1487210732332646e-02 0.0000000000000000e+00  0.0000000000000000e+00 -2.1496964665224303e-02 0.0000000000000000e+00  0.0000000000000000e+00 -2.1512534005053006e-02 0.0000000000000000e+00  0.0000000000000000e+00 -2.1535905720842140e-02 0.0000000000000000e+00  0.0000000000000000e+00 -2.1572232255143330e-02 0.0000000000000000e+00  0.0000000000000000e+00 -2.1713696440505366e-02 0.0000000000000000e+00  0.0000000000000000e+00 -3.4341999878052587e-02 0.0000000000000000e+00  5.5848994437359334e-03 -3.7219824951470881e-01 0.0000000000000000e+00  6.2402459781425845e-03 -4.3233553951733728e-01 0.0000000000000000e+00  6.5049906033770389e-03 -4.6049938788706241e-01 0.0000000000000000e+00  4.5754091449845494e-03 -4.7368739089454920e-01 0.0000000000000000e+00  4.4891332856685506e-03 -4.8443747790704256e-01 0.0000000000000000e+00  4.0604446788166104e-03 -4.9225497100822324e-01 0.0000000000000000e+00  3.3482069993626741e-03 -4.9811577023419062e-01 0.0000000000000000e+00  2.6263987913569993e-03 -5.0255809035086185e-01 0.0000000000000000e+00  2.0643019777737241e-03 -5.0606299766770479e-01 0.0000000000000000e+00  1.5879258457003292e-03 -5.0880792004007924e-01 0.0000000000000000e+00  1.1240839907246934e-03 -5.1093622391466953e-01 0.0000000000000000e+00  7.5136704721549764e-04 -5.1263927857527514e-01 0.0000000000000000e+00  4.7461073691837808e-04 -5.1403104504658137e-01 0.0000000000000000e+00  2.7584776253707576e-04 -5.1518232591802982e-01 0.0000000000000000e+00  1.2199767857882764e-04 -5.1612027165334062e-01 0.0000000000000000e+00  -1.1172283631080010e-05 -5.1687821212144547e-01 0.0000000000000000e+00  -1.3806010951512087e-04 -5.1749561055440840e-01 0.0000000000000000e+00  -2.6134518360141555e-04 -5.1799976658166946e-01 0.0000000000000000e+00  -3.6380889237403884e-04 -5.1838476575973791e-01 0.0000000000000000e+00  -4.6101580448952356e-04 -5.1867499510065362e-01 0.0000000000000000e+00  -5.6969487070150269e-04 -5.1890087759239034e-01 0.0000000000000000e+00  -6.8500298779744073e-04 -5.1906865764652477e-01 0.0000000000000000e+00  -8.0050693364980795e-04 -5.1918292272829902e-01 0.0000000000000000e+00  -9.1175595738946305e-04 -5.1924531445674715e-01 0.0000000000000000e+00  -1.0188443472770243e-03 -5.1924962532689400e-01 0.0000000000000000e+00  -1.1226845632339023e-03 -5.1918934655233184e-01 0.0000000000000000e+00  -1.2257109531396959e-03 -5.1906305270459174e-01 0.0000000000000000e+00  -1.3302257571938384e-03 -5.1887289217953436e-01 0.0000000000000000e+00  -1.4461897072802223e-03 -5.1862872866345899e-01 0.0000000000000000e+00  -1.5780349205175245e-03 -5.1833446498644775e-01 0.0000000000000000e+00  -1.6987118517005364e-03 -5.1795334263294279e-01 0.0000000000000000e+00  -1.8134078479668939e-03 -5.1747164272007473e-01 0.0000000000000000e+00  -1.9247861167552419e-03 -5.1686927204793631e-01 0.0000000000000000e+00  -2.0287287751557196e-03 -5.1611509469276251e-01 0.0000000000000000e+00  -2.1806263541342334e-03 -5.1519682102001796e-01 0.0000000000000000e+00  -2.3871943380659316e-03 -5.1405890355576833e-01 0.0000000000000000e+00  -2.6408283210344989e-03 -5.1261098170310282e-01 0.0000000000000000e+00  -2.9309742527767408e-03 -5.1076039616327007e-01 0.0000000000000000e+00  -3.3008544997269289e-03 -5.0848066963286820e-01 0.0000000000000000e+00  -3.8488188664956321e-03 -5.0567973034696334e-01 0.0000000000000000e+00  -4.5314818564090569e-03 -5.0211867704834345e-01 0.0000000000000000e+00  -5.3660046986870914e-03 -4.9757509038270509e-01 0.0000000000000000e+00  -6.1397939113749505e-03 -4.9166841328867955e-01 0.0000000000000000e+00  -6.5845490192588500e-03 -4.8346861344719488e-01 0.0000000000000000e+00  -8.0547200681224587e-03 -4.7287744064404114e-01 0.0000000000000000e+00  -8.3594953406045565e-03 -4.5692284498714747e-01 0.0000000000000000e+00  -8.6971763331888385e-03 -4.3103573657263339e-01 0.0000000000000000e+00  -6.6927085764052867e-03 -3.7236755155679058e-01 0.0000000000000000e+