<?xml version="1.0"?>
<VTKFile type="UnstructuredGrid"  version="0.1"  >
<UnstructuredGrid>
<Piece  NumberOfPoints="1250" NumberOfCells="2352">
<Points>
<DataArray  type="Float64"  NumberOfComponents="3"  format="ascii">0 0 0  0.0336 0 0  0.0336 0.07729999999999999 0  0 0.07729999999999999 0  0.001400000000000002 0 0  0.002800000000000005 0 0  0.004200000000000008 0 0  0.005600000000000009 0 0  0.007000000000000011 0 0  0.008400000000000013 0 0  0.009800000000000019 0 0  0.01120000000000002 0 0  0.01260000000000003 0 0  0.01400000000000003 0 0  0.01540000000000004 0 0  0.01680000000000005 0 0  0.01820000000000004 0 0  0.01960000000000004 0 0  0.02100000000000004 0 0  0.02240000000000003 0 0  0.02380000000000003 0 0  0.02520000000000002 0 0  0.02660000000000002 0 0  0.02800000000000001 0 0  0.02940000000000001 0 0  0.03080000000000001 0 0  0.0322 0 0  0.0336 0.001577551020408161 0  0.0336 0.003155102040816321 0  0.0336 0.004732653061224482 0  0.0336 0.006310204081632642 0  0.0336 0.007887755102040803 0  0.0336 0.009465306122448964 0  0.0336 0.01104285714285712 0  0.0336 0.01262040816326528 0  0.0336 0.01419795918367344 0  0.0336 0.0157755102040816 0  0.0336 0.01735306122448976 0  0.0336 0.01893061224489792 0  0.0336 0.02050816326530608 0  0.0336 0.02208571428571425 0  0.0336 0.02366326530612241 0  0.0336 0.02524081632653058 0  0.0336 0.02681836734693874 0  0.0336 0.02839591836734691 0  0.0336 0.02997346938775507 0  0.0336 0.03155102040816323 0  0.0336 0.0331285714285714 0  0.0336 0.03470612244897956 0  0.0336 0.03628367346938772 0  0.0336 0.03786122448979588 0  0.0336 0.03943877551020405 0  0.0336 0.04101632653061221 0  0.0336 0.04259387755102037 0  0.0336 0.04417142857142854 0  0.0336 0.04574897959183671 0  0.0336 0.04732653061224486 0  0.0336 0.04890408163265302 0  0.0336 0.05048163265306119 0  0.0336 0.05205918367346936 0  0.0336 0.05363673469387752 0  0.0336 0.05521428571428568 0  0.0336 0.05679183673469385 0  0.0336 0.05836938775510202 0  0.0336 0.05994693877551018 0  0.0336 0.06152448979591834 0  0.0336 0.0631020408163265 0  0.0336 0.06467959183673468 0  0.0336 0.06625714285714283 0  0.0336 0.06783469387755101 0  0.0336 0.06941224489795916 0  0.0336 0.07098979591836733 0  0.0336 0.07256734693877549 0  0.0336 0.07414489795918365 0  0.0336 0.07572244897959182 0  0.03219999999999999 0.07729999999999999 0  0.03079999999999999 0.07729999999999999 0  0.02939999999999999 0.07729999999999999 0  0.02799999999999999 0.07729999999999999 0  0.02659999999999999 0.07729999999999999 0  0.02519999999999999 0.07729999999999999 0  0.02379999999999998 0.07729999999999999 0  0.02239999999999998 0.07729999999999999 0  0.02099999999999997 0.07729999999999999 0  0.01959999999999996 0.07729999999999999 0  0.01819999999999996 0.07729999999999999 0  0.01679999999999995 0.07729999999999999 0  0.01539999999999996 0.07729999999999999 0  0.01399999999999996 0.07729999999999999 0  0.01259999999999996 0.07729999999999999 0  0.01119999999999997 0.07729999999999999 0  0.009799999999999972 0.07729999999999999 0  0.008399999999999977 0.07729999999999999 0  0.006999999999999978 0.07729999999999999 0  0.005599999999999983 0.07729999999999999 0  0.004199999999999988 0.07729999999999999 0  0.00279999999999999 0.07729999999999999 0  0.001399999999999998 0.07729999999999999 0  0 0.07572244897959184 0  0 0.07414489795918368 0  0 0.07256734693877551 0  0 0.07098979591836735 0  0 0.06941224489795919 0  0 0.06783469387755103 0  0 0.06625714285714288 0  0 0.06467959183673472 0  0 0.06310204081632656 0  0 0.0615244897959184 0  0 0.05994693877551023 0  0 0.05836938775510207 0  0 0.05679183673469392 0  0 0.05521428571428574 0  0 0.05363673469387759 0  0 0.05205918367346941 0  0 0.05048163265306126 0  0 0.04890408163265308 0  0 0.04732653061224493 0  0 0.04574897959183676 0  0 0.0441714285714286 0  0 0.04259387755102043 0  0 0.04101632653061228 0  0 0.03943877551020411 0  0 0.03786122448979595 0  0 0.03628367346938779 0  0 0.03470612244897962 0  0 0.03312857142857146 0  0 0.03155102040816329 0  0 0.02997346938775513 0  0 0.02839591836734697 0  0 0.0268183673469388 0  0 0.02524081632653064 0  0 0.02366326530612247 0  0 0.02208571428571431 0  0 0.02050816326530614 0  0 0.01893061224489798 0  0 0.01735306122448981 0  0 0.01577551020408165 0  0 0.01419795918367349 0  0 0.01262040816326532 0  0 0.01104285714285716 0  0 0.009465306122448988 0  0 0.00788775510204083 0  0 0.006310204081632659 0  0 0.004732653061224501 0  0 0.003155102040816343 0  0 0.001577551020408172 0  0.001400000000000004 0.001577551020408172 0  0.001400000000000004 0.003155102040816329 0  0.001400000000000002 0.004732653061224501 0  0.001400000000000002 0.006310204081632645 0  0.001400000000000005 0.007887755102040823 0  0.001400000000000002 0.009465306122448981 0  0.001400000000000002 0.01104285714285717 0  0.001400000000000004 0.01262040816326531 0  0.0014 0.01419795918367349 0  0.001400000000000002 0.01577551020408166 0  0.001400000000000005 0.0173530612244898 0  0.001400000000000002 0.01893061224489797 0  0.001400000000000002 0.02050816326530613 0  0.001400000000000002 0.02208571428571431 0  0.001400000000000002 0.02366326530612247 0  0.001400000000000002 0.02524081632653063 0  0.001400000000000002 0.0268183673469388 0  0.001400000000000002 0.02839591836734696 0  0.001400000000000002 0.02997346938775513 0  0.001400000000000002 0.03155102040816328 0  0.001400000000000002 0.03312857142857147 0  0.001399999999999997 0.03470612244897962 0  0.001400000000000005 0.03628367346938778 0  0.001400000000000002 0.03786122448979594 0  0.001400000000000002 0.03943877551020411 0  0.001400000000000002 0.04101632653061228 0  0.001400000000000002 0.04259387755102043 0  0.001400000000000002 0.0441714285714286 0  0.0014 0.04574897959183676 0  0.001400000000000002 0.04732653061224492 0  0.001400000000000004 0.04890408163265308 0  0.001400000000000002 0.05048163265306126 0  0.001400000000000002 0.05205918367346941 0  0.0014 0.05363673469387758 0  0.001400000000000004 0.05521428571428574 0  0.001399999999999998 0.05679183673469391 0  0.001400000000000002 0.05836938775510207 0  0.0014 0.05994693877551023 0  0.001400000000000002 0.0615244897959184 0  0.001400000000000002 0.06310204081632656 0  0.001400000000000002 0.06467959183673472 0  0.0014 0.06625714285714286 0  0.001400000000000002 0.06783469387755102 0  0.001399999999999998 0.06941224489795919 0  0.001400000000000002 0.07098979591836735 0  0.0014 0.07256734693877552 0  0.001400000000000002 0.07414489795918368 0  0.001400000000000002 0.07572244897959184 0  0.002800000000000006 0.001577551020408165 0  0.002800000000000004 0.003155102040816343 0  0.002800000000000002 0.004732653061224487 0  0.002800000000000002 0.006310204081632652 0  0.002800000000000002 0.007887755102040813 0  0.0028 0.009465306122448981 0  0.002799999999999997 0.01104285714285715 0  0.0028 0.01262040816326532 0  0.0028 0.01419795918367348 0  0.0028 0.01577551020408165 0  0.002799999999999997 0.0173530612244898 0  0.0028 0.01893061224489797 0  0.002800000000000004 0.02050816326530613 0  0.0028 0.0220857142857143 0  0.0028 0.02366326530612247 0  0.002800000000000004 0.02524081632653064 0  0.0028 0.0268183673469388 0  0.0028 0.02839591836734696 0  0.002799999999999995 0.02997346938775512 0  0.002799999999999997 0.03155102040816328 0  0.002799999999999995 0.03312857142857146 0  0.0028 0.03470612244897962 0  0.002799999999999995 0.03628367346938778 0  0.002799999999999997 0.03786122448979594 0  0.002799999999999997 0.03943877551020411 0  0.002799999999999997 0.04101632653061228 0  0.002799999999999997 0.04259387755102043 0  0.002799999999999995 0.0441714285714286 0  0.002799999999999997 0.04574897959183676 0  0.002799999999999997 0.04732653061224493 0  0.002799999999999995 0.04890408163265308 0  0.002799999999999993 0.05048163265306124 0  0.002799999999999995 0.05205918367346941 0  0.002799999999999995 0.05363673469387757 0  0.002799999999999992 0.05521428571428574 0  0.002799999999999997 0.05679183673469391 0  0.002799999999999993 0.05836938775510207 0  0.002799999999999993 0.05994693877551022 0  0.002799999999999992 0.0615244897959184 0  0.002799999999999988 0.06310204081632655 0  0.002799999999999992 0.0646795918367347 0  0.002799999999999992 0.06625714285714286 0  0.00279999999999999 0.06783469387755103 0  0.00279999999999999 0.06941224489795919 0  0.002799999999999988 0.07098979591836735 0  0.00279999999999999 0.07256734693877552 0  0.002799999999999988 0.07414489795918368 0  0.00279999999999999 0.07572244897959184 0  0.004200000000000006 0.001577551020408172 0  0.004200000000000006 0.003155102040816329 0  0.004200000000000008 0.00473265306122448 0  0.004200000000000009 0.006310204081632652 0  0.004200000000000008 0.00788775510204082 0  0.004200000000000008 0.009465306122448978 0  0.004200000000000006 0.01104285714285716 0  0.004200000000000006 0.01262040816326532 0  0.004200000000000004 0.01419795918367349 0  0.004200000000000002 0.01577551020408165 0  0.004200000000000004 0.0173530612244898 0  0.004200000000000006 0.01893061224489797 0  0.004200000000000006 0.02050816326530613 0  0.004200000000000002 0.0220857142857143 0  0.004200000000000004 0.02366326530612247 0  0.004199999999999999 0.02524081632653062 0  0.004200000000000004 0.0268183673469388 0  0.004200000000000004 0.02839591836734696 0  0.004200000000000002 0.02997346938775512 0  0.004199999999999999 0.03155102040816328 0  0.004200000000000001 0.03312857142857145 0  0.004200000000000001 0.03470612244897962 0  0.004199999999999995 0.03628367346938778 0  0.004199999999999999 0.03786122448979594 0  0.004199999999999999 0.0394387755102041 0  0.004199999999999997 0.04101632653061227 0  0.004199999999999999 0.04259387755102043 0  0.004199999999999999 0.04417142857142859 0  0.004199999999999999 0.04574897959183676 0  0.004199999999999999 0.04732653061224492 0  0.004199999999999997 0.04890408163265308 0  0.004199999999999997 0.05048163265306124 0  0.004199999999999999 0.05205918367346941 0  0.004199999999999992 0.05363673469387757 0  0.0
[...]
<PointData  Vectors="displacement"> 
<DataArray  type="Float64"  Name="displacement"  NumberOfComponents="3" format="ascii">0.0000000000000000e+00 0.0000000000000000e+00 0.0000000000000000e+00  0.0000000000000000e+00 0.0000000000000000e+00 0.0000000000000000e+00  4.6283265403125372e-03 -3.8716167575930542e-02 0.0000000000000000e+00  -4.5805168414050183e-03 -3.8706901485039205e-02 0.0000000000000000e+00  0.0000000000000000e+00 0.0000000000000000e+00 0.0000000000000000e+00  0.0000000000000000e+00 0.0000000000000000e+00 0.0000000000000000e+00  0.0000000000000000e+00 0.0000000000000000e+00 0.0000000000000000e+00  0.0000000000000000e+00 0.0000000000000000e+00 0.0000000000000000e+00  0.0000000000000000e+00 0.0000000000000000e+00 0.0000000000000000e+00  0.0000000000000000e+00 0.0000000000000000e+00 0.0000000000000000e+00  0.0000000000000000e+00 0.0000000000000000e+00 0.0000000000000000e+00  0.0000000000000000e+00 0.0000000000000000e+00 0.0000000000000000e+00  0.0000000000000000e+00 0.0000000000000000e+00 0.0000000000000000e+00  0.0000000000000000e+00 0.0000000000000000e+00 0.0000000000000000e+00  0.0000000000000000e+00 0.0000000000000000e+00 0.0000000000000000e+00  0.0000000000000000e+00 0.0000000000000000e+00 0.0000000000000000e+00  0.0000000000000000e+00 0.0000000000000000e+00 0.0000000000000000e+00  0.0000000000000000e+00 0.0000000000000000e+00 0.0000000000000000e+00  0.0000000000000000e+00 0.0000000000000000e+00 0.0000000000000000e+00  0.0000000000000000e+00 0.0000000000000000e+00 0.0000000000000000e+00  0.0000000000000000e+00 0.0000000000000000e+00 0.0000000000000000e+00  0.0000000000000000e+00 0.0000000000000000e+00 0.0000000000000000e+00  0.0000000000000000e+00 0.0000000000000000e+00 0.0000000000000000e+00  0.0000000000000000e+00 0.0000000000000000e+00 0.0000000000000000e+00  0.0000000000000000e+00 0.0000000000000000e+00 0.0000000000000000e+00  0.0000000000000000e+00 0.0000000000000000e+00 0.0000000000000000e+00  0.0000000000000000e+00 0.0000000000000000e+00 0.0000000000000000e+00  1.5033484510430836e-03 -1.3752684791650228e-03 0.0000000000000000e+00  2.3327445128168652e-03 -2.2085277032793532e-03 0.0000000000000000e+00  2.9167013557551639e-03 -2.9410511798600180e-03 0.0000000000000000e+00  3.3547011537695226e-03 -3.6379003690536183e-03 0.0000000000000000e+00  3.6897457254108749e-03 -4.3217147823728565e-03 0.0000000000000000e+00  3.9471147954965391e-03 -5.0042947186655007e-03 0.0000000000000000e+00  4.1443707936934943e-03 -5.6920906672725440e-03 0.0000000000000000e+00  4.2945658161209687e-03 -6.3885495899502764e-03 0.0000000000000000e+00  4.4077612126908732e-03 -7.0953520429622085e-03 0.0000000000000000e+00  4.4918860814302042e-03 -7.8130932738375777e-03 0.0000000000000000e+00  4.5532669084519277e-03 -8.5416868707461225e-03 0.0000000000000000e+00  4.5969798799183233e-03 -9.2806212132116456e-03 0.0000000000000000e+00  4.6271014623300967e-03 -1.0029130559165277e-02 0.0000000000000000e+00  4.6468967893412202e-03 -1.0786312459531123e-02 0.0000000000000000e+00  4.6589674786101784e-03 -1.1551209152113964e-02 0.0000000000000000e+00  4.6653711968031100e-03 -1.2322863586266644e-02 0.0000000000000000e+00  4.6677202848270146e-03 -1.3100357013094813e-02 0.0000000000000000e+00  4.6672640011254322e-03 -1.3882832968656561e-02 0.0000000000000000e+00  4.6649574042377778e-03 -1.4669511190235851e-02 0.0000000000000000e+00  4.6615190277697139e-03 -1.5459694153161022e-02 0.0000000000000000e+00  4.6574790002166973e-03 -1.6252768306209971e-02 0.0000000000000000e+00  4.6532189607688202e-03 -1.7048201620839570e-02 0.0000000000000000e+00  4.6490049266620839e-03 -1.7845538703847415e-02 0.0000000000000000e+00  4.6450141264798659e-03 -1.8644394428345312e-02 0.0000000000000000e+00  4.6413566998758761e-03 -1.9444446799057918e-02 0.0000000000000000e+00  4.6380930639729461e-03 -2.0245429575229710e-02 0.0000000000000000e+00  4.6352476541804861e-03 -2.1047125020594110e-02 0.0000000000000000e+00  4.6328196602557336e-03 -2.1849357028938466e-02 0.0000000000000000e+00  4.6307912968480344e-03 -2.2651984780506028e-02 0.0000000000000000e+00  4.6291340719543002e-03 -2.3454897014092937e-02 0.0000000000000000e+00  4.6278134472463274e-03 -2.4258006948010717e-02 0.0000000000000000e+00  4.6267922215226477e-03 -2.5061247846403730e-02 0.0000000000000000e+00  4.6260329127689832e-03 -2.5864569202556347e-02 0.0000000000000000e+00  4.6254993654105125e-03 -2.6667933495113167e-02 0.0000000000000000e+00  4.6251577670386648e-03 -2.7471313464351298e-02 0.0000000000000000e+00  4.6249772227772478e-03 -2.8274689851993211e-02 0.0000000000000000e+00  4.6249300050146382e-03 -2.9078049548113466e-02 0.0000000000000000e+00  4.6249915709403455e-03 -2.9881384091385622e-02 0.0000000000000000e+00  4.6251404196807309e-03 -3.0684688473438578e-02 0.0000000000000000e+00  4.6253578444213576e-03 -3.1487960203897970e-02 0.0000000000000000e+00  4.6256276225078033e-03 -3.2291198599467094e-02 0.0000000000000000e+00  4.6259356782602165e-03 -3.3094404268052401e-02 0.0000000000000000e+00  4.6262697499185870e-03 -3.3897578767572017e-02 0.0000000000000000e+00  4.6266190959580534e-03 -3.4700724428973928e-02 0.0000000000000000e+00  4.6269742922981855e-03 -3.5503844344417577e-02 0.0000000000000000e+00  4.6273272142446711e-03 -3.6306942534428954e-02 0.0000000000000000e+00  4.6276714086656828e-03 -3.7110024313959898e-02 0.0000000000000000e+00  4.6280034246672461e-03 -3.7913096754680971e-02 0.0000000000000000e+00  4.2445707347458783e-03 -3.8715882464482397e-02 0.0000000000000000e+00  3.8608156189810592e-03 -3.8715603580003227e-02 0.0000000000000000e+00  3.4770664336537288e-03 -3.8715334066617382e-02 0.0000000000000000e+00  3.0933280920018998e-03 -3.8715071830167515e-02 0.0000000000000000e+00  2.7096037495302648e-03 -3.8714812372809944e-02 0.0000000000000000e+00  2.3258948835520031e-03 -3.8714550276121584e-02 0.0000000000000000e+00  1.9422015677162834e-03 -3.8714280004064877e-02 0.0000000000000000e+00  1.5585227462435133e-03 -3.8713996384785718e-02 0.0000000000000000e+00  1.1748564816692611e-03 -3.8713694913106028e-02 0.0000000000000000e+00  7.9120017385799683e-04 -3.8713371941530135e-02 0.0000000000000000e+00  4.0755075232904662e-04 -3.8713024798345347e-02 0.0000000000000000e+00  2.3904846338278187e-05 -3.8712651857020983e-02 0.0000000000000000e+00  -3.5974106096329665e-04 -3.8712252572192581e-02 0.0000000000000000e+00  -7.4339048666120539e-04 -3.8711827490819202e-02 0.0000000000000000e+00  -1.1270468021906603e-03 -3.8711378241298201e-02 0.0000000000000000e+00  -1.5107130791251699e-03 -3.8710907497761626e-02 0.0000000000000000e+00  -1.8943919190119417e-03 -3.8710418910971510e-02 0.0000000000000000e+00  -2.2780852609440025e-03 -3.8709916990524042e-02 0.0000000000000000e+00  -2.6617941624543567e-03 -3.8709406914065790e-02 0.0000000000000000e+00  -3.0455185517650951e-03 -3.8708894224436387e-02 0.0000000000000000e+00  -3.4292569536406772e-03 -3.8708384344755542e-02 0.0000000000000000e+00  -3.8130062119905118e-03 -3.8707881762958078e-02 0.0000000000000000e+00  -4.1967613815209323e-03 -3.8707388543339293e-02 0.0000000000000000e+00  -4.5810639086849439e-03 -3.7903830394807984e-02 0.0000000000000000e+00  -4.5816020754572374e-03 -3.7100758005577536e-02 0.0000000000000000e+00  -4.5821281119682311e-03 -3.6297676262380549e-02 0.0000000000000000e+00  -4.5826454016272824e-03 -3.5494578096990866e-02 0.0000000000000000e+00  -4.5831603932871053e-03 -3.4691458198196141e-02 0.0000000000000000e+00  -4.5836812222269166e-03 -3.3888312548986603e-02 0.0000000000000000e+00  -4.5842173209204203e-03 -3.3085138060294193e-02 0.0000000000000000e+00  -4.5847794357379715e-03 -3.2281932403927328e-02 0.0000000000000000e+00  -4.5853798304807793e-03 -3.1478694024607852e-02 0.0000000000000000e+00  -4.5860325806697756e-03 -3.0675422317172997e-02 0.0000000000000000e+00  -4.5867539068739308e-03 -2.9872117967958928e-02 0.0000000000000000e+00  -4.5875625119021837e-03 -2.9068783470849513e-02 0.0000000000000000e+00  -4.5884798905074806e-03 -2.8265423838366287e-02 0.0000000000000000e+00  -4.5895305769085883e-03 -2.7462047536809801e-02 0.0000000000000000e+00  -4.5907422871584013e-03 -2.6658667682111187e-02 0.0000000000000000e+00  -4.5921459009780549e-03 -2.5855303539834496e-02 0.0000000000000000e+00  -4.5937752112587349e-03 -2.5051982378582562e-02 0.0000000000000000e+00  -4.5956663487804125e-03 -2.4248741730587581e-02 0.0000000000000000e+00  -4.5978567643980908e-03 -2.3445632115973464e-02 0.0000000000000000e+00  -4.6003836204932128e-03 -2.2642720287254680e-02 0.0000000000000000e+00  -4.6032814073467508e-03 -2.1840093047006667e-02 0.0000000000000000e+00  -4.6065785577530122e-03 -2.1037861682879976e-02 0.0000000000000000e+00  -4.6102927842361606e-03 -2.0236167048449136e-02 0.0000000000000000e+00  -4.6144248073727414e-03 -1.9435185293560552e-02 0.0000000000000000e+00  -4.6189500808838744e-03 -1.8635134211192013e-02 0.0000000000000000e+00  -4.6238080494954347e-03 -1.7836280116168710e-02 0.0000000000000000e+00  -4.6288883994677257e-03 -1.7038945100693745e-02 0.0000000000000000e+00  -4.6340136797018410e-03 -1.6243514418315067e-02 0.0000000000000000e+00  -4.6389175838396557e-03 -1.5450443626909312e-02 0.0000000000000000e+00  -4.6432180904697187e-03 -1.4660264967191796e-02 0.0000000000000000e+00  -4.6463845572474053e-03 -1.3873592260096041e-02 0.0000000000000000e+00  -4.6476977493279861e-03 -1.3091123366770428e-02 0.0000000000000000e+00  -4.6462016393380478e-03 -1.2313638959049637e-02 0.0000000000000000e+00  -4.6406456177875708e-03 -1.1541995980825628e-02 0.0000000000000000e+00  -4.6294154476538832e-03 -1.0777113715206477e-02 0.0000000000000000e+00  -4.6104507906332970e-03 -1.0019949758802488e-02 0.0000000000000000e+00  -4.5811462563637700e-03 -9.2714623456647133e-03 0.0000000000000000e+00  -4.5382313771721973e-03 -8.5325541665908829e-03 0.0000000000000000e+00  -4.4776221391941654e-03 -7.8039907078396153e-03 0.0000000000000000e+00  -4.3942316734887302e-03 -7.0862823951682065e-03 0.0000000000000000e+00  -4.2817183984588982e-03 -6.3795127994313991e-03 0.0000000000000000e+00  -4.1321320863220755e-03 -5.6830810848225288e-03 0.0000000000000000e+00  -3.9353828617078382e-03 -4.9952967365799487e-03 0.0000000000000000e+00  -3.6783853673496660e-03 -4.3126973667233339e-03 0.0000000000000000e+00  -3.3435686127282504e-03 -3.6288273391224929e-03 0.0000000000000000e+00  -2.9058543880722551e-03 -2.9320216435336035e-03 0.0000000000000000e+00  -2.3233514587208156e-03 -2.1998741953893129e-03 0.0000000000000000e+00  -1.4969275047216348e-03 -1.3561437810812175e-03 0.0000000000000000e+00  -1.0532328232660535e-03 -8.0837456237863189e-04 0.0000000000000000e+00  -1.9249180699123286e-03 -1.7049804407487682e-03 0.0000000000000000e+00  -2.5436824300572236e-03 -2.5337807753914570e-03 0.0000000000000000e+00  -2.9975815289281444e-03 -3.3107552733605680e-03 0.0000000000000000e+00  -3.3387824333224259e-03 -4.0596196578576802e-03 0.0000000000000000e+00  -3.5971880850243373e-03 -4.7949908669772537e-03 0.0000000000000000e+00  -3.7925786960537711e-03 -5.5255969340330009e-03 0.0000000000000000e+00  -3.9392516217862349e-03 -6.2567179867626440e-03 0.0000000000000000e+00  -4.0480336593826374e-03 -6.9915033776341892e-03 0.0000000000000000e+00  -4.1273430732644070e-03 -7.7317337002336187e-03 0.0000000000000000e+00  -4.1838229486630910e-03 -8.4782918306956744e-03 0.0000000000000000e+00  -4.2227525746666491e-03 -9.2314683248037807e-03 0.0000000000000000e+00  -4.2483342483208624e-03 -9.9911668407370573e-03 0.0000000000000000e+00  -4.2639052815771905e-03 -1.0757045959754633e-02 0.0000000000000000e+00  -4.2721020075623655e-03 -1.1528618549943357e-02 0.0000000000000000e+00  -4.2749908572735319e-03 -1.2305321627038330e-02 0.0000000000000000e+00  -4.2741753649111897e-03 -1.3086565088634183e-02 0.0000000000000000e+00  -4.2708845810074825e-03 -1.3871765022983621e-02 0.0000000000000000e+00  -4.2660465003713103e-03 -1.4660365648534656e-02 0.0000000000000000e+00  -4.2603490559951435e-03 -1.5451852870767816e-02 0.0000000000000000e+00  -4.2542906184437441e-03 -1.6245761707257118e-02 0.0000000000000000e+00  -4.2482215688377191e-03 -1.7041679299606777e-02 0.0000000000000000e+00  -4.2423782701687101e-03 -1.7839244829966492e-02 0.0000000000000000e+00  -4.2369105854475030e-03 -1.8638147349299361e-02 0.0000000000000000e+00  -4.2319039500101170e-03 -1.9438122280223433e-02 0.0000000000000000e+00  -4.2273968831414675e-03 -2.0238947163763434e-02 0.0000000000000000e+00  -4.2233947136509744e-03 -2.1040437066317565e-02 0.0000000000000000e+00  -4.2198801922624565e-03 -2.1842439942892637e-02 0.0000000000000000e+00  -4.2168215698864522e-03 -2.2644832159173338e-02 0.0000000000000000e+00  -4.2141786350871997e-03 -2.3447514303341219e-02 0.0000000000000000e+00  -4.2119071265828041e-03 -2.4250407364619114e-02 0.0000000000000000e+00  -4.2099618675523094e-03 -2.5053449315810338e-02 0.0000000000000000e+00  -4.2082989077827093e-03 -2.5856592108696310e-02 0.0000000000000000e+00  -4.2068769069652043e-03 -2.6659799071609123e-02 0.0000000000000000e+00  -4.2056579472613161e-03 -2.7463042685783277e-02 0.0000000000000000e+00  -4.2046079250028434e-03 -2.8266302709571364e-02 0.0000000000000000e+00  -4.2036966394013459e-03 -2.9069564615956427e-02 0.0000000000000000e+00  -4.2028976697532638e-03 -2.9872818307969066e-02 0.0000000000000000e+00  -4.2021881112160476e-03 -3.0676057077804159e-02 0.0000000000000000e+00  -4.2015482222919447e-03 -3.1479276778008422e-02 0.0000000000000000e+00  -4.2009610243922742e-03 -3.2282475176576751e-02 0.0000000000000000e+00  -4.2004118853500479e-03 -3.3085651471713655e-02 0.0000000000000000e+00  -4.1998881153420351e-03 -3.3888805945845944e-02 0.0000000000000000e+00  -4.1993786078513467e-03 -3.4691939741260780e-02 0.0000000000000000e+00  -4.1988735765293604e-03 -3.5495054739275805e-02 0.0000000000000000e+00  -4.1983644883352884e-03 -3.6298153515269382e-02 0.0000000000000000e+00  -4.1978444182287147e-03 -3.7101239312706501e-02 0.0000000000000000e+00  -4.1973093300566727e-03 -3.7904315990996910e-02 0.0000000000000000e+00  -8.1069695703691377e-04 -6.5883962912511218e-04 0.0000000000000000e+00  -1.5735945447997407e-03 -1.4407933609812721e-03 0.0000000000000000e+00  -2.1780473086062623e-03 -2.2529009878057204e-03 0.0000000000000000e+00  -2.6360092550891242e-03 -3.0527097831142902e-03 0.0000000000000000e+00  -2.9815954625274223e-03 -3.8352240082484270e-03 0.0000000000000000e+00  -3.2422736256445960e-03 -4.6050619904765121e-03 0.0000000000000000e+00  -3.4380463512970597e-03 -5.3675387259048543e-03 0.0000000000000000e+00  -3.5837493648482556e-03 -6.1268548254404106e-03 0.0000000000000000e+00  -3.6906887207024540e-03 -6.8859862661559161e-03 0.0000000000000000e+00  -3.7676515159782114e-03 -7.6469070434368805e-03 0.0000000000000000e+00  -3.8215490179276581e-03 -8.4108363367531372e-03 0.0000000000000000e+00  -3.8578483526272756e-03 -9.1784455533706309e-03 0.0000000000000000e+00  -3.8808783772355765e-03 -9.9500189689662819e-03 0.0000000000000000e+00  -3.8940572233169303e-03 -1.0725574889971421e-02 0.0000000000000000e+00  -3.9000684373253786e-03 -1.1504955780263611e-02 0.0000000000000000e+00  -3.9010014008982069e-03 -1.2287894570844787e-02 0.0000000000000000e+00  -3.8984654838575676e-03 -1.3074062819898740e-02 0.0000000000000000e+00  -3.8936838911221286e-03 -1.3863105077991109e-02 0.0000000000000000e+00  -3.8875711855207227e-03 -1.4654662801149146e-02 0.0000000000000000e+00  -3.8807973290849048e-03 -1.5448390389588621e-02 0.0000000000000000e+00  -3.8738404112503046e-03 -1.6243965348520337e-02 0.0000000000000000e+00  -3.8670298138255396e-03 -1.7041094119867466e-02 0.0000000000000000e+00  -3.8605812827541496e-03 -1.7839514784566062e-02 0.0000000000000000e+00  -3.8546251715527047e-03 -1.8638997560095072e-02 0.0000000000000000e+00  -3.8492289567661998e-03 -1.9439343800083511e-02 0.0000000000000000e+00  -3.8444149845136247e-03 -2.0240384030153696e-02 0.0000000000000000e+00  -3.8401742809884630e-03 -2.1041975417575645e-02 0.0000000000000000e+00  -3.8364771451469127e-03 -2.1843998964873015e-02 0.0000000000000000e+00  -3.8332811375306739e-03 -2.2646356633706264e-02 0.0000000000000000e+00  -3.8305369849204545e-03 -2.3448968540669152e-02 0.0000000000000000e+00  -3.8281928362301821e-03 -2.4251770317366431e-02 0.0000000000000000e+00  -3.8261972305830066e-03 -2.5054710690232018e-02 0.0000000000000000e+00  -3.8245010735360090e-03 -2.5857749308457821e-02 0.0000000000000000e+00  -3.8230588614246597e-03 -2.6660854829039946e-02 0.0000000000000000e+00  -3.8218293461210963e-03 -2.7464003254590898e-02 0.0000000000000000e+00  -3.8207757923841568e-03 -2.8267176510811037e-02 0.0000000000000000e+00  -3.8198659466332509e-03 -2.9070361245230977e-02 0.0000000000000000e+00  -3.8190718086248050e-03 -2.9873547826110673e-02 0.0000000000000000e+00  -3.8183692754451414e-03 -3.0676729519481277e-02 0.0000000000000000e+00  -3.8177377098859138e-03 -3.1479901822637942e-02 0.0000000000000000e+00  -3.8171594722936002e-03 -3.2283061933419233e-02 0.0000000000000000e+00  -3.8166194464334903e-03 -3.3086208335857840e-02 0.0000000000000000e+00  -3.8161045865497106e-03 -3.3889340483767003e-02 0.0000000000000000e+00  -3.8156035167744365e-03 -3.4692458564139911e-02 0.0000000000000000e+00  -3.8151062300460343e-03 -3.5495563322433359e-02 0.0000000000000000e+00  -3.8146039700786630e-03 -3.6298655938555406e-02 0.0000000000000000e+00  -3.8140894407912166e-03 -3.7101737992554160e-02 0.0000000000000000e+00  -3.8135575031643387e-03 -3.7904811781967473e-02 0.0000000000000000e+00  -6.5770157560204108e-04 -6.0233328962581252e-04 0.0000000000000000e+00  -1.2992715549329558e-03 -1.3078812872646681e-03 0.0000000000000000e+00  -1.8478581699855026e-03 -2.0745122435082406e-03 0.0000000000000000e+00  -2.2852071905492149e-03 -2.8623181301407098e-03 0.0000000000000000e+00  -2.6234791750457871e-03 -3.6523118186925340e-03 0.0000000000000000e+00  -2.8812020616277019e-03 -4.4386838165363278e-03 0.0000000000000000e+00  -3.0752425992470770e-03 -5.2210242486986280e-03 0.0000000000000000e+00  -3.2194058691656412e-03 -6.0006078784027540e-03 0.0000000000000000e+00  -3.3247136718056306e-03 -6.7789629432026214e-03 0.0000000000000000e+00  -3.3999296879297152e-03 -7.5573916842632876e-03 0.0000000000000000e+00  -3.4520226133429323e-03 -8.3368553424382989e-03 0.0000000000000000e+00  -3.4865303612871689e-03 -9.1179907654493925e-03 0.0000000000000000e+00  -3.5078421416941757e-03 -9.9011677984677145e-03 0.0000000000000000e+00  -3.5194195960903674e-03 -1.0686552594701682e-02 0.0000000000000000e+00  -3.5239733091247641e-03 -1.1474164318939455e-02 0.0000000000000000e+00  -3.5236059632317413e-03 -1.2263921683450266e-02 0.0000000000000000e+00  -3.5199297385274803e-03 -1.3055679279791184e-02 0.0000000000000000e+00  -3.5141631735284328e-03 -1.3849254939025684e-02 0.0000000000000000e+00  -3.5072112101102474e-03 -1.4644449684069196e-02 0.0000000000000000e+00  -3.4997312206429950e-03 -1.5441061789723808e-02 0.0000000000000000e+00  -3.4921872303922239e-03 -1.6238896279261759e-02 0.0000000000000000e+00  -3.4848941612088320e-03 -1.7037770965140711e-02 0.0000000000000000e+00  -3.4780536476643454e-03 -1.7837519929089191e-02 0.0000000000000000e+00  -3.4717827650928793e-03 -1.8637995149744721e-02 0.0000000000000000e+00  -3.4661368336735884e-03 -1.9439066828436165e-02 0.0000000000000000e+00  -3.4611273098810488e-03 -2.0240622834481560e-02 0.0000000000000000e+00  -3.4567356397061720e-03 -2.1042567587356235e-02 0.0000000000000000e+00  -3.4529238241291656e-03 -2.1844820610546999e-02 0.0000000000000000e+00  -3.4496423353107260e-03 -2.2647314927212885e-02 0.0000000000000000e+00  -3.4468359214621688e-03 -2.3449995417663117e-02 0.0000000000000000e+00  -3.4444477491061718e-03 -2.4252817220326888e-02 0.0000000000000000e+00  -3.4424222531016652e-03 -2.5055744228967430e-02 0.0000000000000000e+00  -3.4407069968598802e-03 -2.5858747717424722e-02 0.0000000000000000e+00  -3.4392537869370283e-03 -2.6661805107551485e-02 0.0000000000000000e+00  -3.4380192368442214e-03 -2.7464898884926699e-02 0.0000000000000000e+00  -3.4369649335898515e-03 -2.8268015659329512