<?xml version="1.0"?>
<VTKFile type="UnstructuredGrid"  version="0.1"  >
<UnstructuredGrid>
<Piece  NumberOfPoints="6382" NumberOfCells="12354">
<Points>
<DataArray  type="Float64"  NumberOfComponents="3"  format="ascii">0 -3 0  0 0 0  10 -3 0  10 0 0  5.2 0 0  5.2 -0.4 0  5.5 -0.4 0  5.5 -0.6000000000000001 0  4.5 -0.6000000000000001 0  4.5 -0.4 0  4.8 -0.4 0  4.8 0 0  0 -2.666666666666667 0  0 -2.333333333333333 0  0 -2 0  0 -1.666666666666667 0  0 -1.333333333333333 0  0 -1 0  0 -0.666666666666667 0  0 -0.3333333333333335 0  9.836518447033493 -3 0  9.676485174132324 -3 0  9.519716728676565 -3 0  9.366040597429432 -3 0  9.215293522901804 -3 0  9.067325347766827 -3 0  8.921978167503752 -3 0  8.779125793186953 -3 0  8.638633440048579 -3 0  8.500376249002967 -3 0  8.364235730108557 -3 0  8.230099119300583 -3 0  8.097858693472926 -3 0  7.96741165420296 -3 0  7.838659590098249 -3 0  7.711508416266758 -3 0  7.585867779025237 -3 0  7.461651037321721 -3 0  7.338774694871047 -3 0  7.217158563845377 -3 0  7.096725097152937 -3 0  6.977399455051415 -3 0  6.859109304538208 -3 0  6.741784490575633 -3 0  6.625356935727237 -3 0  6.509760461250432 -3 0  6.394930659317325 -3 0  6.2808046903675 -3 0  6.167321173775116 -3 0  6.054420032640893 -3 0  5.942042373994132 -3 0  5.830130346471836 -3 0  5.718627047087892 -3 0  5.607476358937133 -3 0  5.496622874861212 -3 0  5.386011773348871 -3 0  5.275588701244851 -3 0  5.1652996754838 -3 0  5.055090972556302 -3 0  4.944909027443701 -3 0  4.834700324516204 -3 0  4.724411298755151 -3 0  4.613988226651132 -3 0  4.50337712513879 -3 0  4.392523641062869 -3 0  4.281372952912111 -3 0  4.169869653528168 -3 0  4.05795762600587 -3 0  3.94557996735911 -3 0  3.832678826224885 -3 0  3.719195309632506 -3 0  3.605069340682676 -3 0  3.490239538749567 -3 0  3.374643064272765 -3 0  3.25821550942437 -3 0  3.140890695461794 -3 0  3.022600544948583 -3 0  2.903274902847057 -3 0  2.782841436154621 -3 0  2.661225305128949 -3 0  2.538348962678273 -3 0  2.414132220974763 -3 0  2.288491583733238 -3 0  2.161340409901745 -3 0  2.032588345797035 -3 0  1.902141306527067 -3 0  1.76990088069941 -3 0  1.63576426989143 -3 0  1.499623750997021 -3 0  1.361366559951406 -3 0  1.220874206813038 -3 0  1.078021832496241 -3 0  0.9326746522331657 -3 0  0.7847064770981866 -3 0  0.6339594025705644 -3 0  0.4802832713234277 -3 0  0.3235148258676688 -3 0  0.1634815529665037 -3 0  10 -0.3333333333333333 0  10 -0.6666666666666666 0  10 -1 0  10 -1.333333333333333 0  10 -1.666666666666667 0  10 -2 0  10 -2.333333333333333 0  10 -2.666666666666667 0  5.242711110725164 0 0  5.286293876642154 0 0  5.330766086609641 0 0  5.37614589213589 0 0  5.422451816439484 0 0  5.469702760205794 0 0  5.517918009017504 0 0  5.567117241892008 0 0  5.617320540096343 0 0  5.668548395644089 0 0  5.720821717893487 0 0  5.774161842649544 0 0  5.828590541642586 0 0  5.88413003019757 0 0  5.940802977381058 0 0  5.998632515893446 0 0  6.057642249375406 0 0  6.117856262977496 0 0  6.179299133651088 0 0  6.241995940085244 0 0  6.305972273082686 0 0  6.371254245606542 0 0  6.43786850326221 0 0  6.505842235920577 0 0  6.575203187664691 0 0  6.645979668539436 0 0  6.71820056760014 0 0  6.791895362764803 0 0  6.867094133292654 0 0  6.943827572794882 0 0  7.022127001289535 0 0  7.10202437703821 0 0  7.183552311040527 0 0  7.266744080707336 0 0  7.351633641831447 0 0  7.438255642584554 0 0  7.526645439439152 0 0  7.616839110330926 0 0  7.708873468012155 0 0  7.802786077905059 0 0  7.898615271449994 0 0  7.996400162886068 0 0  8.096180664647234 0 0  8.197997502517053 0 0  8.301892235188374 0 0  8.407907268711336 0 0  8.516085874431543 0 0  8.626472207031901 0 0  8.739111321743804 0 0  8.854049193814495 0 0  8.971332736524433 0 0  9.091009820696414 0 0  9.21312929427506 0 0  9.337741001971482 0 0  9.464895805719847 0 0  9.594645605970797 0 0  9.727043361679982 0 0  9.862143111819449 0 0  5.2 -0.01666666666666669 0  5.2 -0.03333333333333339 0  5.2 -0.05000000000000009 0  5.2 -0.06666666666666679 0  5.2 -0.0833333333333335 0  5.2 -0.1000000000000002 0  5.2 -0.1166666666666669 0  5.2 -0.1333333333333336 0  5.2 -0.1500000000000002 0  5.2 -0.1666666666666669 0  5.2 -0.1833333333333335 0  5.2 -0.2000000000000001 0  5.2 -0.2166666666666668 0  5.2 -0.2333333333333335 0  5.2 -0.2500000000000002 0  5.2 -0.2666666666666669 0  5.2 -0.2833333333333335 0  5.2 -0.3000000000000002 0  5.2 -0.3166666666666668 0  5.2 -0.3333333333333335 0  5.2 -0.3500000000000001 0  5.2 -0.3666666666666668 0  5.2 -0.3833333333333334 0  5.2125 -0.4 0  5.225 -0.4 0  5.2375 -0.4 0  5.25 -0.4 0  5.2625 -0.4 0  5.275 -0.4 0  5.2875 -0.4 0  5.3 -0.4 0  5.3125 -0.4 0  5.325 -0.4 0  5.337499999999999 -0.4 0  5.35 -0.4 0  5.3625 -0.4 0  5.375 -0.4 0  5.3875 -0.4 0  5.4 -0.4 0  5.4125 -0.4 0  5.425 -0.4 0  5.4375 -0.4 0  5.45 -0.4 0  5.4625 -0.4 0  5.475 -0.4 0  5.4875 -0.4 0  5.5 -0.4083333333333334 0  5.5 -0.4166666666666667 0  5.5 -0.425 0  5.5 -0.4333333333333334 0  5.5 -0.4416666666666668 0  5.5 -0.4500000000000001 0  5.5 -0.4583333333333334 0  5.5 -0.4666666666666668 0  5.5 -0.4750000000000001 0  5.5 -0.4833333333333335 0  5.5 -0.4916666666666668 0  5.5 -0.5000000000000002 0  5.5 -0.5083333333333335 0  5.5 -0.5166666666666668 0  5.5 -0.5250000000000002 0  5.5 -0.5333333333333335 0  5.5 -0.5416666666666669 0  5.5 -0.5500000000000002 0  5.5 -0.5583333333333335 0  5.5 -0.5666666666666668 0  5.5 -0.5750000000000002 0  5.5 -0.5833333333333335 0  5.5 -0.5916666666666668 0  5.479591836734694 -0.6000000000000001 0  5.459183673469388 -0.6000000000000001 0  5.438775510204081 -0.6000000000000001 0  5.418367346938775 -0.6000000000000001 0  5.397959183673469 -0.6000000000000001 0  5.377551020408164 -0.6000000000000001 0  5.357142857142857 -0.6000000000000001 0  5.336734693877551 -0.6000000000000001 0  5.316326530612245 -0.6000000000000001 0  5.295918367346939 -0.6000000000000001 0  5.275510204081633 -0.6000000000000001 0  5.255102040816326 -0.6000000000000001 0  5.23469387755102 -0.6000000000000001 0  5.214285714285714 -0.6000000000000001 0  5.193877551020408 -0.6000000000000001 0  5.173469387755102 -0.6000000000000001 0  5.153061224489796 -0.6000000000000001 0  5.13265306122449 -0.6000000000000001 0  5.112244897959184 -0.6000000000000001 0  5.091836734693878 -0.6000000000000001 0  5.071428571428571 -0.6000000000000001 0  5.051020408163265 -0.6000000000000001 0  5.030612244897959 -0.6000000000000001 0  5.010204081632653 -0.6000000000000001 0  4.989795918367347 -0.6000000000000001 0  4.969387755102041 -0.6000000000000001 0  4.948979591836735 -0.6000000000000001 0  4.928571428571429 -0.6000000000000001 0  4.908163265306122 -0.6000000000000001 0  4.887755102040816 -0.6000000000000001 0  4.86734693877551 -0.6000000000000001 0  4.846938775510204 -0.6000000000000001 0  4.826530612244898 -0.6000000000000001 0  4.806122448979592 -0.6000000000000001 0  4.785714285714286 -0.6000000000000001 0  4.76530612244898 -0.6000000000000001 0  4.744897959183674 -0.6000000000000001 0  4.724489795918368 -0.6000000000000001 0  4.704081632653061 -0.6000000000000001 0  4.683673469387755 -0.6000000000000001 0  4.663265306122449 -0.6000000000000001 0  4.642857142857143 -0.6000000000000001 0  4.622448979591836 -0.6000000000000001 0  4.602040816326531 -0.6000000000000001 0  4.581632653061225 -0.6000000000000001 0  4.561224489795919 -0.6000000000000001 0  4.540816326530612 -0.6000000000000001 0  4.520408163265306 -0.6000000000000001 0  4.5 -0.5916666666666668 0  4.5 -0.5833333333333334 0  4.5 -0.5750000000000001 0  4.5 -0.5666666666666668 0  4.5 -0.5583333333333333 0  4.5 -0.55 0  4.5 -0.5416666666666667 0  4.5 -0.5333333333333333 0  4.5 -0.525 0  4.5 -0.5166666666666666 0  4.5 -0.5083333333333333 0  4.5 -0.4999999999999999 0  4.5 -0.4916666666666666 0  4.5 -0.4833333333333332 0  4.5 -0.4749999999999999 0  4.5 -0.4666666666666666 0  4.5 -0.4583333333333333 0  4.5 -0.45 0  4.5 -0.4416666666666667 0  4.5 -0.4333333333333333 0  4.5 -0.425 0  4.5 -0.4166666666666667 0  4.5 -0.4083333333333334 0  4.5125 -0.4 0  4.525 -0.4 0  4.5375 -0.4 0  4.55 -0.4 0  4.5625 -0.4 0  4.575 -0.4 0  4.587499999999999 -0.4 0  4.6 -0.4 0  4.6125 -0.4 0  4.625 -0.4 0  4.637499999999999 -0.4 0  4.649999999999999 -0.4 0  4.6625 -0.4 0  4.675 -0.4 0  4.6875 -0.4 0  4.699999999999999 -0.4 0  4.712499999999999 -0.4 0  4.725 -0.4 0  4.7375 -0.4 0  4.75 -0.4 0  4.7625 -0.4 0  4.774999999999999 -0.4 0  4.7875 -0.4 0  4.8 -0.3833333333333333 0  4.8 -0.3666666666666666 0  4.8 -0.3499999999999999 0  4.8 -0.3333333333333333 0  4.8 -0.3166666666666665 0  4.8 -0.2999999999999998 0  4.8 -0.2833333333333331 0  4.8 -0.2666666666666664 0  4.8 -0.2499999999999998 0  4.8 -0.2333333333333331 0  4.8 -0.2166666666666665 0  4.8 -0.1999999999999999 0  4.8 -0.1833333333333332 0  4.8 -0.1666666666666665 0  4.8 -0.1499999999999998 0  4.8 -0.1333333333333331 0  4.8 -0.1166666666666665 0  4.8 -0.09999999999999987 0  4.8 -0.0833333333333332 0  4.8 -0.06666666666666654 0  4.8 -0.04999999999999988 0  4.8 -0.03333333333333327 0  4.8 -0.01666666666666661 0  0.1378568875240437 0 0  0.2729566377271358 0 0  0.4053543934976697 0 0  0.5351041938077431 0 0  0.6622589976130751 0 0  0.7868707053643811 0 0  0.9089901789958823 0 0  1.028667263218748 0 0  1.14595080597766 0 0  1.260888678095464 0 0  1.373527792852679 0 0  1.483914125496606 0 0  1.592092731258683 0 0  1.698107764821866 0 0  1.802002497531814 0 0  1.90381933543871 0 0  2.003599837235452 0 0  2.101384728705643 0 0  2.197213922283282 0 0  2.291126532207516 0 0  2.38316088991875 0 0  2.473354560839241 0 0  2.56174435771825 0 0  2.648366358500676 0 0  2.733255919649871 0 0  2.81644768934063 0 0  2.897975623365796 0 0  2.977872999136252 0 0  3.056172427651654 0 0  3.132905867173631 0 0  3.208104637720262 0 0  3.28179943290277 0 0  3.354020331980409 0 0  3.42479681287121 0 0  3.494157764630528 0 0  3.562131497303279 0 0  3.628745754972536 0 0  3.69402772750921 0 0  3.758004060518725 0 0  3.820700866964234 0 0  3.882143737648484 0 0  3.942357751260559 0 0  4.0013674
[...]
<PointData  Vectors="displacement"> 
<DataArray  type="Float64"  Name="displacement"  NumberOfComponents="3" format="ascii">0.0000000000000000e+00 0.0000000000000000e+00 0.0000000000000000e+00  -5.6509468063844177e-05 5.2990948023393294e-05 0.0000000000000000e+00  0.0000000000000000e+00 0.0000000000000000e+00 0.0000000000000000e+00  5.6595210959158267e-05 5.2962297245506880e-05 0.0000000000000000e+00  0.0000000000000000e+00 -1.4864621964264825e-03 0.0000000000000000e+00  0.0000000000000000e+00 -1.5389990564785455e-03 0.0000000000000000e+00  0.0000000000000000e+00 -1.4968738455811196e-03 0.0000000000000000e+00  0.0000000000000000e+00 -1.8734093933767814e-03 0.0000000000000000e+00  0.0000000000000000e+00 -1.8725067558526464e-03 0.0000000000000000e+00  0.0000000000000000e+00 -1.4965911312801662e-03 0.0000000000000000e+00  0.0000000000000000e+00 -1.5387228414154022e-03 0.0000000000000000e+00  0.0000000000000000e+00 -1.4861907085846088e-03 0.0000000000000000e+00  -3.9991915221416195e-05 -2.1342866554903233e-05 0.0000000000000000e+00  -7.3920584410226115e-05 -1.7977081883210296e-05 0.0000000000000000e+00  -9.6878184607657872e-05 -4.6220963130830607e-06 0.0000000000000000e+00  -1.0718116994973551e-04 1.3012677104858464e-05 0.0000000000000000e+00  -1.0585385967693049e-04 3.0058270621411699e-05 0.0000000000000000e+00  -9.5825298214086331e-05 4.3279007859854881e-05 0.0000000000000000e+00  -8.1503492534518550e-05 5.0791399475353589e-05 0.0000000000000000e+00  -6.7519810094849683e-05 5.3117184223433390e-05 0.0000000000000000e+00  0.0000000000000000e+00 0.0000000000000000e+00 0.0000000000000000e+00  0.0000000000000000e+00 0.0000000000000000e+00 0.0000000000000000e+00  0.0000000000000000e+00 0.0000000000000000e+00 0.0000000000000000e+00  0.0000000000000000e+00 0.0000000000000000e+00 0.0000000000000000e+00  0.0000000000000000e+00 0.0000000000000000e+00 0.0000000000000000e+00  0.0000000000000000e+00 0.0000000000000000e+00 0.0000000000000000e+00  0.0000000000000000e+00 0.0000000000000000e+00 0.0000000000000000e+00  0.0000000000000000e+00 0.0000000000000000e+00 0.0000000000000000e+00  0.0000000000000000e+00 0.0000000000000000e+00 0.0000000000000000e+00  0.0000000000000000e+00 0.0000000000000000e+00 0.0000000000000000e+00  0.0000000000000000e+00 0.0000000000000000e+00 0.0000000000000000e+00  0.0000000000000000e+00 0.0000000000000000e+00 0.0000000000000000e+00  0.0000000000000000e+00 0.0000000000000000e+00 0.0000000000000000e+00  0.0000000000000000e+00 0.0000000000000000e+00 0.0000000000000000e+00  0.0000000000000000e+00 0.0000000000000000e+00 0.0000000000000000e+00  0.0000000000000000e+00 0.0000000000000000e+00 0.0000000000000000e+00  0.0000000000000000e+00 0.0000000000000000e+00 0.0000000000000000e+00  0.0000000000000000e+00 0.0000000000000000e+00 0.0000000000000000e+00  0.0000000000000000e+00 0.0000000000000000e+00 0.0000000000000000e+00  0.0000000000000000e+00 0.0000000000000000e+00 0.0000000000000000e+00  0.0000000000000000e+00 0.0000000000000000e+00 0.0000000000000000e+00  0.0000000000000000e+00 0.0000000000000000e+00 0.0000000000000000e+00  0.0000000000000000e+00 0.0000000000000000e+00 0.0000000000000000e+00  0.0000000000000000e+00 0.0000000000000000e+00 0.0000000000000000e+00  0.0000000000000000e+00 0.0000000000000000e+00 0.0000000000000000e+00  0.0000000000000000e+00 0.0000000000000000e+00 0.0000000000000000e+00  0.0000000000000000e+00 0.0000000000000000e+00 0.0000000000000000e+00  0.0000000000000000e+00 0.0000000000000000e+00 0.0000000000000000e+00  0.0000000000000000e+00 0.0000000000000000e+00 0.0000000000000000e+00  0.0000000000000000e+00 0.0000000000000000e+00 0.0000000000000000e+00  0.0000000000000000e+00 0.0000000000000000e+00 0.0000000000000000e+00  0.0000000000000000e+00 0.0000000000000000e+00 0.0000000000000000e+00  0.0000000000000000e+00 0.0000000000000000e+00 0.0000000000000000e+00  0.0000000000000000e+00 0.0000000000000000e+00 0.0000000000000000e+00  0.0000000000000000e+00 0.0000000000000000e+00 0.0000000000000000e+00  0.0000000000000000e+00 0.0000000000000000e+00 0.0000000000000000e+00  0.0000000000000000e+00 0.0000000000000000e+00 0.0000000000000000e+00  0.0000000000000000e+00 0.0000000000000000e+00 0.0000000000000000e+00  0.0000000000000000e+00 0.0000000000000000e+00 0.0000000000000000e+00  0.0000000000000000e+00 0.0000000000000000e+00 0.0000000000000000e+00  0.0000000000000000e+00 0.0000000000000000e+00 0.0000000000000000e+00  0.0000000000000000e+00 0.0000000000000000e+00 0.0000000000000000e+00  0.0000000000000000e+00 0.0000000000000000e+00 0.0000000000000000e+00  0.0000000000000000e+00 0.0000000000000000e+00 0.0000000000000000e+00  0.0000000000000000e+00 0.0000000000000000e+00 0.0000000000000000e+00  0.0000000000000000e+00 0.0000000000000000e+00 0.0000000000000000e+00  0.0000000000000000e+00 0.0000000000000000e+00 0.0000000000000000e+00  0.0000000000000000e+00 0.0000000000000000e+00 0.0000000000000000e+00  0.0000000000000000e+00 0.0000000000000000e+00 0.0000000000000000e+00  0.0000000000000000e+00 0.0000000000000000e+00 0.0000000000000000e+00  0.0000000000000000e+00 0.0000000000000000e+00 0.0000000000000000e+00  0.0000000000000000e+00 0.0000000000000000e+00 0.0000000000000000e+00  0.0000000000000000e+00 0.0000000000000000e+00 0.0000000000000000e+00  0.0000000000000000e+00 0.0000000000000000e+00 0.0000000000000000e+00  0.0000000000000000e+00 0.0000000000000000e+00 0.0000000000000000e+00  0.0000000000000000e+00 0.0000000000000000e+00 0.0000000000000000e+00  0.0000000000000000e+00 0.0000000000000000e+00 0.0000000000000000e+00  0.0000000000000000e+00 0.0000000000000000e+00 0.0000000000000000e+00  0.0000000000000000e+00 0.0000000000000000e+00 0.0000000000000000e+00  0.0000000000000000e+00 0.0000000000000000e+00 0.0000000000000000e+00  0.0000000000000000e+00 0.0000000000000000e+00 0.0000000000000000e+00  0.0000000000000000e+00 0.0000000000000000e+00 0.0000000000000000e+00  0.0000000000000000e+00 0.0000000000000000e+00 0.0000000000000000e+00  0.0000000000000000e+00 0.0000000000000000e+00 0.0000000000000000e+00  0.0000000000000000e+00 0.0000000000000000e+00 0.0000000000000000e+00  0.0000000000000000e+00 0.0000000000000000e+00 0.0000000000000000e+00  0.0000000000000000e+00 0.0000000000000000e+00 0.0000000000000000e+00  0.0000000000000000e+00 0.0000000000000000e+00 0.0000000000000000e+00  0.0000000000000000e+00 0.0000000000000000e+00 0.0000000000000000e+00  0.0000000000000000e+00 0.0000000000000000e+00 0.0000000000000000e+00  0.0000000000000000e+00 0.0000000000000000e+00 0.0000000000000000e+00  0.0000000000000000e+00 0.0000000000000000e+00 0.0000000000000000e+00  0.0000000000000000e+00 0.0000000000000000e+00 0.0000000000000000e+00  0.0000000000000000e+00 0.0000000000000000e+00 0.0000000000000000e+00  0.0000000000000000e+00 0.0000000000000000e+00 0.0000000000000000e+00  0.0000000000000000e+00 0.0000000000000000e+00 0.0000000000000000e+00  0.0000000000000000e+00 0.0000000000000000e+00 0.0000000000000000e+00  0.0000000000000000e+00 0.0000000000000000e+00 0.0000000000000000e+00  6.7588503744603855e-05 5.3064617673601000e-05 0.0000000000000000e+00  8.1577212634652041e-05 5.0810581346592396e-05 0.0000000000000000e+00  9.5891307232920671e-05 4.3252422131995028e-05 0.0000000000000000e+00  1.0592593111891750e-04 3.0035899175399526e-05 0.0000000000000000e+00  1.0725061583403461e-04 1.3019435857098531e-05 0.0000000000000000e+00  9.6910329715358578e-05 -4.6967864911471075e-06 0.0000000000000000e+00  7.3921911755964238e-05 -1.8028315178187776e-05 0.0000000000000000e+00  4.0060027126040657e-05 -2.1352065558089795e-05 0.0000000000000000e+00  -2.5934897630719367e-05 -1.4850032925189792e-03 0.0000000000000000e+00  -5.2391000337595390e-05 -1.4804941135226901e-03 0.0000000000000000e+00  -7.9360697580801607e-05 -1.4727095925620513e-03 0.0000000000000000e+00  -1.0681418579093240e-04 -1.4613848449162570e-03 0.0000000000000000e+00  -1.3467047006739610e-04 -1.4462152587487488e-03 0.0000000000000000e+00  -1.6279807045532676e-04 -1.4268629976549915e-03 0.0000000000000000e+00  -1.9093285159635674e-04 -1.4029794010154669e-03 0.0000000000000000e+00  -2.1871980214076844e-04 -1.3742443263897518e-03 0.0000000000000000e+00  -2.4565655870683163e-04 -1.3404440112750292e-03 0.0000000000000000e+00  -2.7114987714213837e-04 -1.3015210158068577e-03 0.0000000000000000e+00  -2.9454037638328991e-04 -1.2576504928518758e-03 0.0000000000000000e+00  -3.1523242348363919e-04 -1.2092427629193886e-03 0.0000000000000000e+00  -3.3271789039848883e-04 -1.1569252143903640e-03 0.0000000000000000e+00  -3.4665940527514106e-04 -1.1014725626421040e-03 0.0000000000000000e+00  -3.5690216927131022e-04 -1.0437286075008437e-03 0.0000000000000000e+00  -3.6343393873117252e-04 -9.8453556719887265e-04 0.0000000000000000e+00  -3.6643617512570239e-04 -9.2469195148142777e-04 0.0000000000000000e+00  -3.6610622858951607e-04 -8.6488939628246429e-04 0.0000000000000000e+00  -3.6275829638145987e-04 -8.0572485958843338e-04 0.0000000000000000e+00  -3.5673663206314143e-04 -7.4769222857289054e-04 0.0000000000000000e+00  -3.4836493250596908e-04 -6.9117989567686925e-04 0.0000000000000000e+00  -3.3798926057871585e-04 -6.3648871602876899e-04 0.0000000000000000e+00  -3.2590334844868229e-04 -5.8384591305389035e-04 0.0000000000000000e+00  -3.1242308119803916e-04 -5.3341688265299170e-04 0.0000000000000000e+00  -2.9778185149262023e-04 -4.8531676293339920e-04 0.0000000000000000e+00  -2.8223250775950755e-04 -4.3961696773026874e-04 0.0000000000000000e+00  -2.6598908655401651e-04 -3.9635814525371848e-04 0.0000000000000000e+00  -2.4923527200008071e-04 -3.5555232849401939e-04 0.0000000000000000e+00  -2.3213256040127646e-04 -3.1719968297495328e-04 0.0000000000000000e+00  -2.1483958252814262e-04 -2.8127510525809347e-04 0.0000000000000000e+00  -1.9748597663841932e-04 -2.4774571522923300e-04 0.0000000000000000e+00  -1.8018937890456376e-04 -2.1656653925659661e-04 0.0000000000000000e+00  -1.6305475761045374e-04 -1.8768475464241941e-04 0.0000000000000000e+00  -1.4617632393892308e-04 -1.6104049564103734e-04 0.0000000000000000e+00  -1.2964236654528199e-04 -1.3656438185569666e-04 0.0000000000000000e+00  -1.1352156083000508e-04 -1.1419038505008210e-04 0.0000000000000000e+00  -9.7886594581440050e-05 -9.3839312065489369e-05 0.0000000000000000e+00  -8.2797234055463596e-05 -7.5429404586197524e-05 0.0000000000000000e+00  -6.8307627759048583e-05 -5.8877392285243337e-05 0.0000000000000000e+00  -5.4466100557667834e-05 -4.4094660245320806e-05 0.0000000000000000e+00  -4.1317057503890461e-05 -3.0990880864234906e-05 0.0000000000000000e+00  -2.8898559450877511e-05 -1.9468781065018131e-05 0.0000000000000000e+00  -1.7244875274491777e-05 -9.4284356830062098e-06 0.0000000000000000e+00  -6.3865360783269280e-06 -7.6710398651744776e-07 0.0000000000000000e+00  3.6501036186540121e-06 6.6234066458370577e-06 0.0000000000000000e+00  1.2841700597707725e-05 1.2855471043985882e-05 0.0000000000000000e+00  2.1166845571734512e-05 1.8047642319369918e-05 0.0000000000000000e+00  2.8613900895828849e-05 2.2327703188841287e-05 0.0000000000000000e+00  3.5164600735296358e-05 2.5823885986550486e-05 0.0000000000000000e+00  4.0812652283709368e-05 2.8680495897403117e-05 0.0000000000000000e+00  4.5556985149089776e-05 3.1049851403123696e-05 0.0000000000000000e+00  4.9401351645908027e-05 3.3094902493866035e-05 0.0000000000000000e+00  5.2365303385427170e-05 3.4993452866086233e-05 0.0000000000000000e+00  5.4485840907037170e-05 3.6933188176136898e-05 0.0000000000000000e+00  5.5828396681547963e-05 3.9111921447956232e-05 0.0000000000000000e+00  5.6500692381885290e-05 4.1718265224032267e-05 0.0000000000000000e+00  5.6685755662712522e-05 4.4908960050111259e-05 0.0000000000000000e+00  5.6607875168879066e-05 4.8753461378738558e-05 0.0000000000000000e+00  0.0000000000000000e+00 -1.4907045606214915e-03 0.0000000000000000e+00  0.0000000000000000e+00 -1.4947577040880350e-03 0.0000000000000000e+00  0.0000000000000000e+00 -1.4986235514661192e-03 0.0000000000000000e+00  0.0000000000000000e+00 -1.5023043128798231e-03 0.0000000000000000e+00  0.0000000000000000e+00 -1.5058027201881959e-03 0.0000000000000000e+00  0.0000000000000000e+00 -1.5091214982912299e-03 0.0000000000000000e+00  0.0000000000000000e+00 -1.5122634207507739e-03 0.0000000000000000e+00  0.0000000000000000e+00 -1.5152309760544549e-03 0.0000000000000000e+00  0.0000000000000000e+00 -1.5180263125494542e-03 0.0000000000000000e+00  0.0000000000000000e+00 -1.5206510660230660e-03 0.0000000000000000e+00  0.0000000000000000e+00 -1.5231064186599858e-03 0.0000000000000000e+00  0.0000000000000000e+00 -1.5253925963900489e-03 0.0000000000000000e+00  0.0000000000000000e+00 -1.5275096115522921e-03 0.0000000000000000e+00  0.0000000000000000e+00 -1.5294563419083447e-03 0.0000000000000000e+00  0.0000000000000000e+00 -1.5312310819237251e-03 0.0000000000000000e+00  0.0000000000000000e+00 -1.5328319026840511e-03 0.0000000000000000e+00  0.0000000000000000e+00 -1.5342555627197081e-03 0.0000000000000000e+00  0.0000000000000000e+00 -1.5354992123389258e-03 0.0000000000000000e+00  0.0000000000000000e+00 -1.5365593147986423e-03 0.0000000000000000e+00  0.0000000000000000e+00 -1.5374325312926104e-03 0.0000000000000000e+00  0.0000000000000000e+00 -1.5381154983291495e-03 0.0000000000000000e+00  0.0000000000000000e+00 -1.5386056076123150e-03 0.0000000000000000e+00  0.0000000000000000e+00 -1.5389005654613500e-03 0.0000000000000000e+00  0.0000000000000000e+00 -1.5388921848453166e-03 0.0000000000000000e+00  0.0000000000000000e+00 -1.5385718360038929e-03 0.0000000000000000e+00  0.0000000000000000e+00 -1.5380387800592379e-03 0.0000000000000000e+00  0.0000000000000000e+00 -1.5372943324448694e-03 0.0000000000000000e+00  0.0000000000000000e+00 -1.5363403836596173e-03 0.0000000000000000e+00  0.0000000000000000e+00 -1.5351794803361892e-03 0.0000000000000000e+00  0.0000000000000000e+00 -1.5338147578164007e-03 0.0000000000000000e+00  0.0000000000000000e+00 -1.5322502156488549e-03 0.0000000000000000e+00  0.0000000000000000e+00 -1.5304908570810236e-03 0.0000000000000000e+00  0.0000000000000000e+00 -1.5285426636544302e-03 0.0000000000000000e+00  0.0000000000000000e+00 -1.5264129636771834e-03 0.0000000000000000e+00  0.0000000000000000e+00 -1.5241107158656757e-03 0.0000000000000000e+00  0.0000000000000000e+00 -1.5216468119439068e-03 0.0000000000000000e+00  0.0000000000000000e+00 -1.5190348371461105e-03 0.0000000000000000e+00  0.0000000000000000e+00 -1.5162916659534420e-03 0.0000000000000000e+00  0.0000000000000000e+00 -1.5134388407716424e-03 0.0000000000000000e+00  0.0000000000000000e+00 -1.5105039915196119e-03 0.0000000000000000e+00  0.0000000000000000e+00 -1.5075238934059427e-03 0.0000000000000000e+00  0.0000000000000000e+00 -1.5045501416855330e-03 0.0000000000000000e+00  0.0000000000000000e+00 -1.5016564260987397e-03 0.0000000000000000e+00  0.0000000000000000e+00 -1.4989582256031593e-03 0.0000000000000000e+00  0.0000000000000000e+00 -1.4966608297618264e-03 0.0000000000000000e+00  0.0000000000000000e+00 -1.4952546660380042e-03 0.0000000000000000e+00  0.0000000000000000e+00 -1.5040101188667459e-03 0.0000000000000000e+00  0.0000000000000000e+00 -1.5095520081719010e-03 0.0000000000000000e+00  0.0000000000000000e+00 -1.5150373363864589e-03 0.0000000000000000e+00  0.0000000000000000e+00 -1.5206558419232526e-03 0.0000000000000000e+00  0.0000000000000000e+00 -1.5264867997748491e-03 0.0000000000000000e+00  0.0000000000000000e+00 -1.5325774154659345e-03 0.0000000000000000e+00  0.0000000000000000e+00 -1.5389651893018422e-03 0.0000000000000000e+00  0.0000000000000000e+00 -1.5456819844085329e-03 0.0000000000000000e+00  0.0000000000000000e+00 -1.5527609935760316e-03 0.0000000000000000e+00  0.0000000000000000e+00 -1.5602353897663152e-03 0.0000000000000000e+00  0.0000000000000000e+00 -1.5681458740634492e-03 0.0000000000000000e+00  0.0000000000000000e+00 -1.5765290436903754e-03 0.0000000000000000e+00  0.0000000000000000e+00 -1.5854383875607259e-03 0.0000000000000000e+00  0.0000000000000000e+00 -1.5949270637335635e-03 0.0000000000000000e+00  0.0000000000000000e+00 -1.6050638580821105e-03 0.0000000000000000e+00  0.0000000000000000e+00 -1.6159263221737802e-03 0.0000000000000000e+00  0.0000000000000000e+00 -1.6276110185925608e-03 0.0000000000000000e+00  0.0000000000000000e+00 -1.6402397473063437e-03 0.0000000000000000e+00  0.0000000000000000e+00 -1.6539540180822967e-03 0.0000000000000000e+00  0.0000000000000000e+00 -1.6689339193095452e-03 0.0000000000000000e+00  0.0000000000000000e+00 -1.6854071292567623e-03 0.0000000000000000e+00  0.0000000000000000e+00 -1.7036070221784674e-03 0.0000000000000000e+00  0.0000000000000000e+00 -1.7348828941435746e-03 0.0000000000000000e+00  -1.9605158517718767e-04 -2.1276436790226014e-03 0.0000000000000000e+00  -2.0654896742148941e-04 -2.2686657846601836e-03 0.0000000000000000e+00  -2.0967093907462122e-04 -2.3838392643811797e-03 0.0000000000000000e+00  -2.0834014285903382e-04 -2.4823523424446318e-03 0.0000000000000000e+00  -2.0439368317796370e-04 -2.5684804894128923e-03 0.0000000000000000e+00  -1.9878408545913922e-04 -2.6449672339587302e-03 0.0000000000000000e+00  -1.9193165538632198e-04 -2.7135471350914738e-03 0.0000000000000000e+00  -1.8409981086542351e-04 -2.7753951104701039e-03 0.0000000000000000e+00  -1.7548889256373195e-04 -2.8313626775066498e-03 0.0000000000000000e+00  -1.6623783303803630e-04 -2.8820870258556746e-03 0.0000000000000000e+00  -1.5645847099734890e-04 -2.9280608638605514e-03 0.0000000000000000e+00  -1.4623571090506717e-04 -2.9696717223283444e-03 0.0000000000000000e+00  -1.3563829963344199e-04 -3.0072313186288225e-03 0.0000000000000000e+00  -1.2472069134131803e-04 -3.0409912310824026e-03 0.0000000000000000e+00  -1.1353180097098311e-04 -3.0711602684604074e-03 0.0000000000000000e+00  -1.0211497517535594e-04 -3.0979104032718701e-03 0.0000000000000000e+00  -9.0499173515462471e-05 -3.1213800975900558e-03 0.0000000000000000e+00  -7.8718098289800589e-05 -3.1416886747337399e-03 0.0000000000000000e+00  -6.6800881277873035e-05 -3.1589340006025353e-03 0.0000000000000000e+00  -5.4770408919057164e-05 -3.1731934978262780e-03 0.0000000000000000e+00  -4.2651608669920457e-05 -3.1845296128834681e-03 0.0000000000000000e+00  -3.0462395761329426e-05 -3.1929905106329710e-03 0.0000000000000000e+00  -1.8226021189186874e-05 -3.1986126603817154e-03 0.0000000000000000e+00  -5.9624429089021020e-06 -3.2014184111540294e-03 0.0000000000000000e+00  6.3131894429650386e-06 -3.2014193671657874e-03 0.0000000000000000e+00  1.8578809724712547e-05 -3.1986157218098668e-03 0.0000000000000000e+00  3.0814613903498810e-05 -3.1929955142473193e-03 0.0000000000000000e+00  4.3005273840960791e-05 -3.1845362268814767e-03 0.0000000000000000e+00  5.5126596095911395e-05 -3.1732023439848735e-03 0.0000000000000000e+00  6.7159889513544025e-05 -3.1589456792240913e-03 0.0000000000000000e+00  7.9078915427142758e-05 -3.1417022802810390e-03 0.0000000000000000e+00  9.0865983209262289e-05 -3.1213957799932704e-03 0.0000000000000000e+00  1.0248230596130787e-04 -3.0979268189179790e-03 0.0000000000000000e+00  1.1390699396434286e-04 -3.0711795560472749e-03 0.0000000000000000e+00  1.2510106022797432e-04 -3.0410118131503541e-03 0.0000000000000000e+00  1.3602428055150122e-04 -3.0072543391764170e-03 0.0000000000000000e+00  1.4663110952481799e-04 -2.9697002391847046e-03 0.0000000000000000e+00  1.5686676586334445e-04 -2.9280950386283292e-03 0.0000000000000000e+00  1.6664791115323667e-04 -2.8821191774414559e-03 0.0000000000000000e+00  1.7590822223922513e-04 -2.8313968794767925e-03 0.0000000000000000e+00  1.8453553340179368e-04 -2.7754354667230458e-03 0.0000000000000000e+00  1.9237670390400389e-04 -2.7135949575759601e-03 0.0000000000000000e+00  1.9924659694870494e-04 -2.6450189891744666e-03 0.0000000000000000e+00  2.0483634636890121e-04 -2.5685220771744176e-03 0.0000000000000000e+00  2.0873215461044689e-04 -2.4824100423688294e-03 0.0000000000000000e+00  2.1003762042396209e-04 -2.3839910156584695e-03 0.0000000000000000e+00  2.0668988878581873e-04 -2.2689870482857965e-03 0.0000000000000000e+00  1.9382921069197628e-04 -2