<?xml version="1.0"?>
<VTKFile type="UnstructuredGrid"  version="0.1"  >
<UnstructuredGrid>
<Piece  NumberOfPoints="6382" NumberOfCells="12354">
<Points>
<DataArray  type="Float64"  NumberOfComponents="3"  format="ascii">0 -3 0  0 0 0  10 -3 0  10 0 0  5.2 0 0  5.2 -0.4 0  5.5 -0.4 0  5.5 -0.6000000000000001 0  4.5 -0.6000000000000001 0  4.5 -0.4 0  4.8 -0.4 0  4.8 0 0  0 -2.666666666666667 0  0 -2.333333333333333 0  0 -2 0  0 -1.666666666666667 0  0 -1.333333333333333 0  0 -1 0  0 -0.666666666666667 0  0 -0.3333333333333335 0  9.836518447033493 -3 0  9.676485174132324 -3 0  9.519716728676565 -3 0  9.366040597429432 -3 0  9.215293522901804 -3 0  9.067325347766827 -3 0  8.921978167503752 -3 0  8.779125793186953 -3 0  8.638633440048579 -3 0  8.500376249002967 -3 0  8.364235730108557 -3 0  8.230099119300583 -3 0  8.097858693472926 -3 0  7.96741165420296 -3 0  7.838659590098249 -3 0  7.711508416266758 -3 0  7.585867779025237 -3 0  7.461651037321721 -3 0  7.338774694871047 -3 0  7.217158563845377 -3 0  7.096725097152937 -3 0  6.977399455051415 -3 0  6.859109304538208 -3 0  6.741784490575633 -3 0  6.625356935727237 -3 0  6.509760461250432 -3 0  6.394930659317325 -3 0  6.2808046903675 -3 0  6.167321173775116 -3 0  6.054420032640893 -3 0  5.942042373994132 -3 0  5.830130346471836 -3 0  5.718627047087892 -3 0  5.607476358937133 -3 0  5.496622874861212 -3 0  5.386011773348871 -3 0  5.275588701244851 -3 0  5.1652996754838 -3 0  5.055090972556302 -3 0  4.944909027443701 -3 0  4.834700324516204 -3 0  4.724411298755151 -3 0  4.613988226651132 -3 0  4.50337712513879 -3 0  4.392523641062869 -3 0  4.281372952912111 -3 0  4.169869653528168 -3 0  4.05795762600587 -3 0  3.94557996735911 -3 0  3.832678826224885 -3 0  3.719195309632506 -3 0  3.605069340682676 -3 0  3.490239538749567 -3 0  3.374643064272765 -3 0  3.25821550942437 -3 0  3.140890695461794 -3 0  3.022600544948583 -3 0  2.903274902847057 -3 0  2.782841436154621 -3 0  2.661225305128949 -3 0  2.538348962678273 -3 0  2.414132220974763 -3 0  2.288491583733238 -3 0  2.161340409901745 -3 0  2.032588345797035 -3 0  1.902141306527067 -3 0  1.76990088069941 -3 0  1.63576426989143 -3 0  1.499623750997021 -3 0  1.361366559951406 -3 0  1.220874206813038 -3 0  1.078021832496241 -3 0  0.9326746522331657 -3 0  0.7847064770981866 -3 0  0.6339594025705644 -3 0  0.4802832713234277 -3 0  0.3235148258676688 -3 0  0.1634815529665037 -3 0  10 -0.3333333333333333 0  10 -0.6666666666666666 0  10 -1 0  10 -1.333333333333333 0  10 -1.666666666666667 0  10 -2 0  10 -2.333333333333333 0  10 -2.666666666666667 0  5.242711110725164 0 0  5.286293876642154 0 0  5.330766086609641 0 0  5.37614589213589 0 0  5.422451816439484 0 0  5.469702760205794 0 0  5.517918009017504 0 0  5.567117241892008 0 0  5.617320540096343 0 0  5.668548395644089 0 0  5.720821717893487 0 0  5.774161842649544 0 0  5.828590541642586 0 0  5.88413003019757 0 0  5.940802977381058 0 0  5.998632515893446 0 0  6.057642249375406 0 0  6.117856262977496 0 0  6.179299133651088 0 0  6.241995940085244 0 0  6.305972273082686 0 0  6.371254245606542 0 0  6.43786850326221 0 0  6.505842235920577 0 0  6.575203187664691 0 0  6.645979668539436 0 0  6.71820056760014 0 0  6.791895362764803 0 0  6.867094133292654 0 0  6.943827572794882 0 0  7.022127001289535 0 0  7.10202437703821 0 0  7.183552311040527 0 0  7.266744080707336 0 0  7.351633641831447 0 0  7.438255642584554 0 0  7.526645439439152 0 0  7.616839110330926 0 0  7.708873468012155 0 0  7.802786077905059 0 0  7.898615271449994 0 0  7.996400162886068 0 0  8.096180664647234 0 0  8.197997502517053 0 0  8.301892235188374 0 0  8.407907268711336 0 0  8.516085874431543 0 0  8.626472207031901 0 0  8.739111321743804 0 0  8.854049193814495 0 0  8.971332736524433 0 0  9.091009820696414 0 0  9.21312929427506 0 0  9.337741001971482 0 0  9.464895805719847 0 0  9.594645605970797 0 0  9.727043361679982 0 0  9.862143111819449 0 0  5.2 -0.01666666666666669 0  5.2 -0.03333333333333339 0  5.2 -0.05000000000000009 0  5.2 -0.06666666666666679 0  5.2 -0.0833333333333335 0  5.2 -0.1000000000000002 0  5.2 -0.1166666666666669 0  5.2 -0.1333333333333336 0  5.2 -0.1500000000000002 0  5.2 -0.1666666666666669 0  5.2 -0.1833333333333335 0  5.2 -0.2000000000000001 0  5.2 -0.2166666666666668 0  5.2 -0.2333333333333335 0  5.2 -0.2500000000000002 0  5.2 -0.2666666666666669 0  5.2 -0.2833333333333335 0  5.2 -0.3000000000000002 0  5.2 -0.3166666666666668 0  5.2 -0.3333333333333335 0  5.2 -0.3500000000000001 0  5.2 -0.3666666666666668 0  5.2 -0.3833333333333334 0  5.2125 -0.4 0  5.225 -0.4 0  5.2375 -0.4 0  5.25 -0.4 0  5.2625 -0.4 0  5.275 -0.4 0  5.2875 -0.4 0  5.3 -0.4 0  5.3125 -0.4 0  5.325 -0.4 0  5.337499999999999 -0.4 0  5.35 -0.4 0  5.3625 -0.4 0  5.375 -0.4 0  5.3875 -0.4 0  5.4 -0.4 0  5.4125 -0.4 0  5.425 -0.4 0  5.4375 -0.4 0  5.45 -0.4 0  5.4625 -0.4 0  5.475 -0.4 0  5.4875 -0.4 0  5.5 -0.4083333333333334 0  5.5 -0.4166666666666667 0  5.5 -0.425 0  5.5 -0.4333333333333334 0  5.5 -0.4416666666666668 0  5.5 -0.4500000000000001 0  5.5 -0.4583333333333334 0  5.5 -0.4666666666666668 0  5.5 -0.4750000000000001 0  5.5 -0.4833333333333335 0  5.5 -0.4916666666666668 0  5.5 -0.5000000000000002 0  5.5 -0.5083333333333335 0  5.5 -0.5166666666666668 0  5.5 -0.5250000000000002 0  5.5 -0.5333333333333335 0  5.5 -0.5416666666666669 0  5.5 -0.5500000000000002 0  5.5 -0.5583333333333335 0  5.5 -0.5666666666666668 0  5.5 -0.5750000000000002 0  5.5 -0.5833333333333335 0  5.5 -0.5916666666666668 0  5.479591836734694 -0.6000000000000001 0  5.459183673469388 -0.6000000000000001 0  5.438775510204081 -0.6000000000000001 0  5.418367346938775 -0.6000000000000001 0  5.397959183673469 -0.6000000000000001 0  5.377551020408164 -0.6000000000000001 0  5.357142857142857 -0.6000000000000001 0  5.336734693877551 -0.6000000000000001 0  5.316326530612245 -0.6000000000000001 0  5.295918367346939 -0.6000000000000001 0  5.275510204081633 -0.6000000000000001 0  5.255102040816326 -0.6000000000000001 0  5.23469387755102 -0.6000000000000001 0  5.214285714285714 -0.6000000000000001 0  5.193877551020408 -0.6000000000000001 0  5.173469387755102 -0.6000000000000001 0  5.153061224489796 -0.6000000000000001 0  5.13265306122449 -0.6000000000000001 0  5.112244897959184 -0.6000000000000001 0  5.091836734693878 -0.6000000000000001 0  5.071428571428571 -0.6000000000000001 0  5.051020408163265 -0.6000000000000001 0  5.030612244897959 -0.6000000000000001 0  5.010204081632653 -0.6000000000000001 0  4.989795918367347 -0.6000000000000001 0  4.969387755102041 -0.6000000000000001 0  4.948979591836735 -0.6000000000000001 0  4.928571428571429 -0.6000000000000001 0  4.908163265306122 -0.6000000000000001 0  4.887755102040816 -0.6000000000000001 0  4.86734693877551 -0.6000000000000001 0  4.846938775510204 -0.6000000000000001 0  4.826530612244898 -0.6000000000000001 0  4.806122448979592 -0.6000000000000001 0  4.785714285714286 -0.6000000000000001 0  4.76530612244898 -0.6000000000000001 0  4.744897959183674 -0.6000000000000001 0  4.724489795918368 -0.6000000000000001 0  4.704081632653061 -0.6000000000000001 0  4.683673469387755 -0.6000000000000001 0  4.663265306122449 -0.6000000000000001 0  4.642857142857143 -0.6000000000000001 0  4.622448979591836 -0.6000000000000001 0  4.602040816326531 -0.6000000000000001 0  4.581632653061225 -0.6000000000000001 0  4.561224489795919 -0.6000000000000001 0  4.540816326530612 -0.6000000000000001 0  4.520408163265306 -0.6000000000000001 0  4.5 -0.5916666666666668 0  4.5 -0.5833333333333334 0  4.5 -0.5750000000000001 0  4.5 -0.5666666666666668 0  4.5 -0.5583333333333333 0  4.5 -0.55 0  4.5 -0.5416666666666667 0  4.5 -0.5333333333333333 0  4.5 -0.525 0  4.5 -0.5166666666666666 0  4.5 -0.5083333333333333 0  4.5 -0.4999999999999999 0  4.5 -0.4916666666666666 0  4.5 -0.4833333333333332 0  4.5 -0.4749999999999999 0  4.5 -0.4666666666666666 0  4.5 -0.4583333333333333 0  4.5 -0.45 0  4.5 -0.4416666666666667 0  4.5 -0.4333333333333333 0  4.5 -0.425 0  4.5 -0.4166666666666667 0  4.5 -0.4083333333333334 0  4.5125 -0.4 0  4.525 -0.4 0  4.5375 -0.4 0  4.55 -0.4 0  4.5625 -0.4 0  4.575 -0.4 0  4.587499999999999 -0.4 0  4.6 -0.4 0  4.6125 -0.4 0  4.625 -0.4 0  4.637499999999999 -0.4 0  4.649999999999999 -0.4 0  4.6625 -0.4 0  4.675 -0.4 0  4.6875 -0.4 0  4.699999999999999 -0.4 0  4.712499999999999 -0.4 0  4.725 -0.4 0  4.7375 -0.4 0  4.75 -0.4 0  4.7625 -0.4 0  4.774999999999999 -0.4 0  4.7875 -0.4 0  4.8 -0.3833333333333333 0  4.8 -0.3666666666666666 0  4.8 -0.3499999999999999 0  4.8 -0.3333333333333333 0  4.8 -0.3166666666666665 0  4.8 -0.2999999999999998 0  4.8 -0.2833333333333331 0  4.8 -0.2666666666666664 0  4.8 -0.2499999999999998 0  4.8 -0.2333333333333331 0  4.8 -0.2166666666666665 0  4.8 -0.1999999999999999 0  4.8 -0.1833333333333332 0  4.8 -0.1666666666666665 0  4.8 -0.1499999999999998 0  4.8 -0.1333333333333331 0  4.8 -0.1166666666666665 0  4.8 -0.09999999999999987 0  4.8 -0.0833333333333332 0  4.8 -0.06666666666666654 0  4.8 -0.04999999999999988 0  4.8 -0.03333333333333327 0  4.8 -0.01666666666666661 0  0.1378568875240437 0 0  0.2729566377271358 0 0  0.4053543934976697 0 0  0.5351041938077431 0 0  0.6622589976130751 0 0  0.7868707053643811 0 0  0.9089901789958823 0 0  1.028667263218748 0 0  1.14595080597766 0 0  1.260888678095464 0 0  1.373527792852679 0 0  1.483914125496606 0 0  1.592092731258683 0 0  1.698107764821866 0 0  1.802002497531814 0 0  1.90381933543871 0 0  2.003599837235452 0 0  2.101384728705643 0 0  2.197213922283282 0 0  2.291126532207516 0 0  2.38316088991875 0 0  2.473354560839241 0 0  2.56174435771825 0 0  2.648366358500676 0 0  2.733255919649871 0 0  2.81644768934063 0 0  2.897975623365796 0 0  2.977872999136252 0 0  3.056172427651654 0 0  3.132905867173631 0 0  3.208104637720262 0 0  3.28179943290277 0 0  3.354020331980409 0 0  3.42479681287121 0 0  3.494157764630528 0 0  3.562131497303279 0 0  3.628745754972536 0 0  3.69402772750921 0 0  3.758004060518725 0 0  3.820700866964234 0 0  3.882143737648484 0 0  3.942357751260559 0 0  4.0013674
[...]
<PointData  Vectors="displacement"> 
<DataArray  type="Float64"  Name="displacement"  NumberOfComponents="3" format="ascii">0.0000000000000000e+00 0.0000000000000000e+00 0.0000000000000000e+00  -8.2842721012666269e-05 8.0630079330602084e-05 0.0000000000000000e+00  0.0000000000000000e+00 0.0000000000000000e+00 0.0000000000000000e+00  8.3084627073161889e-05 8.0581920366562076e-05 0.0000000000000000e+00  0.0000000000000000e+00 -2.2082470192388440e-03 0.0000000000000000e+00  0.0000000000000000e+00 -2.2862845381404532e-03 0.0000000000000000e+00  0.0000000000000000e+00 -2.2220496834643279e-03 0.0000000000000000e+00  0.0000000000000000e+00 -2.7785230823109313e-03 0.0000000000000000e+00  0.0000000000000000e+00 -2.7668120995909813e-03 0.0000000000000000e+00  0.0000000000000000e+00 -2.2206823487371402e-03 0.0000000000000000e+00  0.0000000000000000e+00 -2.2848998932913757e-03 0.0000000000000000e+00  0.0000000000000000e+00 -2.2069089624130508e-03 0.0000000000000000e+00  -5.9801424057090582e-05 -3.1745895057667314e-05 0.0000000000000000e+00  -1.1056063918395240e-04 -2.6477707829045554e-05 0.0000000000000000e+00  -1.4482863872302060e-04 -6.2371023379009215e-06 0.0000000000000000e+00  -1.6006781752973893e-04 2.0395624233025127e-05 0.0000000000000000e+00  -1.5782455754945814e-04 4.6101583564517487e-05 0.0000000000000000e+00  -1.4251307667521192e-04 6.6019796759848303e-05 0.0000000000000000e+00  -1.2077025352060858e-04 7.7327189809679964e-05 0.0000000000000000e+00  -9.9562446455652931e-05 8.0822280586786220e-05 0.0000000000000000e+00  0.0000000000000000e+00 0.0000000000000000e+00 0.0000000000000000e+00  0.0000000000000000e+00 0.0000000000000000e+00 0.0000000000000000e+00  0.0000000000000000e+00 0.0000000000000000e+00 0.0000000000000000e+00  0.0000000000000000e+00 0.0000000000000000e+00 0.0000000000000000e+00  0.0000000000000000e+00 0.0000000000000000e+00 0.0000000000000000e+00  0.0000000000000000e+00 0.0000000000000000e+00 0.0000000000000000e+00  0.0000000000000000e+00 0.0000000000000000e+00 0.0000000000000000e+00  0.0000000000000000e+00 0.0000000000000000e+00 0.0000000000000000e+00  0.0000000000000000e+00 0.0000000000000000e+00 0.0000000000000000e+00  0.0000000000000000e+00 0.0000000000000000e+00 0.0000000000000000e+00  0.0000000000000000e+00 0.0000000000000000e+00 0.0000000000000000e+00  0.0000000000000000e+00 0.0000000000000000e+00 0.0000000000000000e+00  0.0000000000000000e+00 0.0000000000000000e+00 0.0000000000000000e+00  0.0000000000000000e+00 0.0000000000000000e+00 0.0000000000000000e+00  0.0000000000000000e+00 0.0000000000000000e+00 0.0000000000000000e+00  0.0000000000000000e+00 0.0000000000000000e+00 0.0000000000000000e+00  0.0000000000000000e+00 0.0000000000000000e+00 0.0000000000000000e+00  0.0000000000000000e+00 0.0000000000000000e+00 0.0000000000000000e+00  0.0000000000000000e+00 0.0000000000000000e+00 0.0000000000000000e+00  0.0000000000000000e+00 0.0000000000000000e+00 0.0000000000000000e+00  0.0000000000000000e+00 0.0000000000000000e+00 0.0000000000000000e+00  0.0000000000000000e+00 0.0000000000000000e+00 0.0000000000000000e+00  0.0000000000000000e+00 0.0000000000000000e+00 0.0000000000000000e+00  0.0000000000000000e+00 0.0000000000000000e+00 0.0000000000000000e+00  0.0000000000000000e+00 0.0000000000000000e+00 0.0000000000000000e+00  0.0000000000000000e+00 0.0000000000000000e+00 0.0000000000000000e+00  0.0000000000000000e+00 0.0000000000000000e+00 0.0000000000000000e+00  0.0000000000000000e+00 0.0000000000000000e+00 0.0000000000000000e+00  0.0000000000000000e+00 0.0000000000000000e+00 0.0000000000000000e+00  0.0000000000000000e+00 0.0000000000000000e+00 0.0000000000000000e+00  0.0000000000000000e+00 0.0000000000000000e+00 0.0000000000000000e+00  0.0000000000000000e+00 0.0000000000000000e+00 0.0000000000000000e+00  0.0000000000000000e+00 0.0000000000000000e+00 0.0000000000000000e+00  0.0000000000000000e+00 0.0000000000000000e+00 0.0000000000000000e+00  0.0000000000000000e+00 0.0000000000000000e+00 0.0000000000000000e+00  0.0000000000000000e+00 0.0000000000000000e+00 0.0000000000000000e+00  0.0000000000000000e+00 0.0000000000000000e+00 0.0000000000000000e+00  0.0000000000000000e+00 0.0000000000000000e+00 0.0000000000000000e+00  0.0000000000000000e+00 0.0000000000000000e+00 0.0000000000000000e+00  0.0000000000000000e+00 0.0000000000000000e+00 0.0000000000000000e+00  0.0000000000000000e+00 0.0000000000000000e+00 0.0000000000000000e+00  0.0000000000000000e+00 0.0000000000000000e+00 0.0000000000000000e+00  0.0000000000000000e+00 0.0000000000000000e+00 0.0000000000000000e+00  0.0000000000000000e+00 0.0000000000000000e+00 0.0000000000000000e+00  0.0000000000000000e+00 0.0000000000000000e+00 0.0000000000000000e+00  0.0000000000000000e+00 0.0000000000000000e+00 0.0000000000000000e+00  0.0000000000000000e+00 0.0000000000000000e+00 0.0000000000000000e+00  0.0000000000000000e+00 0.0000000000000000e+00 0.0000000000000000e+00  0.0000000000000000e+00 0.0000000000000000e+00 0.0000000000000000e+00  0.0000000000000000e+00 0.0000000000000000e+00 0.0000000000000000e+00  0.0000000000000000e+00 0.0000000000000000e+00 0.0000000000000000e+00  0.0000000000000000e+00 0.0000000000000000e+00 0.0000000000000000e+00  0.0000000000000000e+00 0.0000000000000000e+00 0.0000000000000000e+00  0.0000000000000000e+00 0.0000000000000000e+00 0.0000000000000000e+00  0.0000000000000000e+00 0.0000000000000000e+00 0.0000000000000000e+00  0.0000000000000000e+00 0.0000000000000000e+00 0.0000000000000000e+00  0.0000000000000000e+00 0.0000000000000000e+00 0.0000000000000000e+00  0.0000000000000000e+00 0.0000000000000000e+00 0.0000000000000000e+00  0.0000000000000000e+00 0.0000000000000000e+00 0.0000000000000000e+00  0.0000000000000000e+00 0.0000000000000000e+00 0.0000000000000000e+00  0.0000000000000000e+00 0.0000000000000000e+00 0.0000000000000000e+00  0.0000000000000000e+00 0.0000000000000000e+00 0.0000000000000000e+00  0.0000000000000000e+00 0.0000000000000000e+00 0.0000000000000000e+00  0.0000000000000000e+00 0.0000000000000000e+00 0.0000000000000000e+00  0.0000000000000000e+00 0.0000000000000000e+00 0.0000000000000000e+00  0.0000000000000000e+00 0.0000000000000000e+00 0.0000000000000000e+00  0.0000000000000000e+00 0.0000000000000000e+00 0.0000000000000000e+00  0.0000000000000000e+00 0.0000000000000000e+00 0.0000000000000000e+00  0.0000000000000000e+00 0.0000000000000000e+00 0.0000000000000000e+00  0.0000000000000000e+00 0.0000000000000000e+00 0.0000000000000000e+00  0.0000000000000000e+00 0.0000000000000000e+00 0.0000000000000000e+00  0.0000000000000000e+00 0.0000000000000000e+00 0.0000000000000000e+00  0.0000000000000000e+00 0.0000000000000000e+00 0.0000000000000000e+00  0.0000000000000000e+00 0.0000000000000000e+00 0.0000000000000000e+00  0.0000000000000000e+00 0.0000000000000000e+00 0.0000000000000000e+00  0.0000000000000000e+00 0.0000000000000000e+00 0.0000000000000000e+00  0.0000000000000000e+00 0.0000000000000000e+00 0.0000000000000000e+00  0.0000000000000000e+00 0.0000000000000000e+00 0.0000000000000000e+00  9.9774924854591766e-05 8.0737928992734217e-05 0.0000000000000000e+00  1.2098726686155954e-04 7.7350321796961077e-05 0.0000000000000000e+00  1.4271536742034498e-04 6.5970744090141655e-05 0.0000000000000000e+00  1.5803047595660456e-04 4.6054111913830704e-05 0.0000000000000000e+00  1.6026026555779286e-04 2.0386350360992654e-05 0.0000000000000000e+00  1.4495031646686275e-04 -6.3734429425801769e-06 0.0000000000000000e+00  1.1061589737813932e-04 -2.6580002548377507e-05 0.0000000000000000e+00  5.9932471442739646e-05 -3.1780649255393071e-05 0.0000000000000000e+00  -3.8317540366938565e-05 -2.2060962785709630e-03 0.0000000000000000e+00  -7.7396799391099826e-05 -2.1994515130181721e-03 0.0000000000000000e+00  -1.1721919659365195e-04 -2.1879891731324090e-03 0.0000000000000000e+00  -1.5773445638446405e-04 -2.1713338616216548e-03 0.0000000000000000e+00  -1.9882202052077543e-04 -2.1490585329162464e-03 0.0000000000000000e+00  -2.4029430673978405e-04 -2.1206914508173362e-03 0.0000000000000000e+00  -2.8178161339618182e-04 -2.0857449949231916e-03 0.0000000000000000e+00  -3.2279039628204124e-04 -2.0437648019376344e-03 0.0000000000000000e+00  -3.6261955702437455e-04 -1.9944348318245713e-03 0.0000000000000000e+00  -4.0043341748722958e-04 -1.9376467097957431e-03 0.0000000000000000e+00  -4.3528919316687350e-04 -1.8736113205433584e-03 0.0000000000000000e+00  -4.6631936333655364e-04 -1.8028714856656658e-03 0.0000000000000000e+00  -4.9276448569189439e-04 -1.7262860340505643e-03 0.0000000000000000e+00  -5.1409838821796640e-04 -1.6449391481245636e-03 0.0000000000000000e+00  -5.3005218368794163e-04 -1.5600311080038399e-03 0.0000000000000000e+00  -5.4056356582276449e-04 -1.4727792253544339e-03 0.0000000000000000e+00  -5.4585337257205590e-04 -1.3843542595570579e-03 0.0000000000000000e+00  -5.4617886568928960e-04 -1.2957835340859478e-03 0.0000000000000000e+00  -5.4197242705865184e-04 -1.2079662364341361e-03 0.0000000000000000e+00  -5.3372165958205046e-04 -1.1216561882767262e-03 0.0000000000000000e+00  -5.2189234359061444e-04 -1.0374544394006376e-03 0.0000000000000000e+00  -5.0699003581155871e-04 -9.5583386309881053e-04 0.0000000000000000e+00  -4.8944823875471898e-04 -8.7715707396018069e-04 0.0000000000000000e+00  -4.6973846403871249e-04 -8.0169376352590995e-04 0.0000000000000000e+00  -4.4821142339040955e-04 -7.2963591299371943e-04 0.0000000000000000e+00  -4.2524977922697406e-04 -6.6110844547530225e-04 0.0000000000000000e+00  -4.0117993263595955e-04 -5.9618769980121359e-04 0.0000000000000000e+00  -3.7628250023637508e-04 -5.3490476779962477e-04 0.0000000000000000e+00  -3.5080691059021093e-04 -4.7727113872597697e-04 0.0000000000000000e+00  -3.2499668837249776e-04 -4.2325814708624870e-04 0.0000000000000000e+00  -2.9905307702891246e-04 -3.7282442956334329e-04 0.0000000000000000e+00  -2.7315834586247089e-04 -3.2590850952506079e-04 0.0000000000000000e+00  -2.4747550903830981e-04 -2.8243606726510891e-04 0.0000000000000000e+00  -2.2215098007126769e-04 -2.4232118984537817e-04 0.0000000000000000e+00  -1.9732231576714474e-04 -2.0546277337655478e-04 0.0000000000000000e+00  -1.7309621729522299e-04 -1.7176392666470248e-04 0.0000000000000000e+00  -1.4958578141985917e-04 -1.4110738630640428e-04 0.0000000000000000e+00  -1.2688426622320761e-04 -1.1337156795322060e-04 0.0000000000000000e+00  -1.0507552119466653e-04 -8.8432129675938034e-05 0.0000000000000000e+00  -8.4234986556974752e-05 -6.6156318169906784e-05 0.0000000000000000e+00  -6.4431248439868118e-05 -4.6408533626632736e-05 0.0000000000000000e+00  -4.5723583163060358e-05 -2.9042446543153905e-05 0.0000000000000000e+00  -2.8164986555686140e-05 -1.3907599621282872e-05 0.0000000000000000e+00  -1.1802678293188174e-05 -8.4910038065975635e-07 0.0000000000000000e+00  3.3226309593578828e-06 1.0296266901782843e-05 0.0000000000000000e+00  1.7174978910411856e-05 1.9698108517057153e-05 0.0000000000000000e+00  2.9721497673865222e-05 2.7535393718796470e-05 0.0000000000000000e+00  4.0944186477574003e-05 3.4001038433779869e-05 0.0000000000000000e+00  5.0815265238974007e-05 3.9288654886072441e-05 0.0000000000000000e+00  5.9325100744029674e-05 4.3616056581479238e-05 0.0000000000000000e+00  6.6472090982998381e-05 4.7213090226655361e-05 0.0000000000000000e+00  7.2262022466269127e-05 5.0325563776700715e-05 0.0000000000000000e+00  7.6724617165944400e-05 5.3221551709234088e-05 0.0000000000000000e+00  7.9915999883470708e-05 5.6183876700124288e-05 0.0000000000000000e+00  8.1935221695024081e-05 5.9510419119684899e-05 0.0000000000000000e+00  8.2945096486330061e-05 6.3484926314349231e-05 0.0000000000000000e+00  8.3221863743011056e-05 6.8342796999357303e-05 0.0000000000000000e+00  8.3103669684353158e-05 7.4187569984755317e-05 0.0000000000000000e+00  0.0000000000000000e+00 -2.2145155083428980e-03 0.0000000000000000e+00  0.0000000000000000e+00 -2.2205057937083076e-03 0.0000000000000000e+00  0.0000000000000000e+00 -2.2262213196129668e-03 0.0000000000000000e+00  0.0000000000000000e+00 -2.2316657557758511e-03 0.0000000000000000e+00  0.0000000000000000e+00 -2.2368434351464532e-03 0.0000000000000000e+00  0.0000000000000000e+00 -2.2417585388839955e-03 0.0000000000000000e+00  0.0000000000000000e+00 -2.2464152216356281e-03 0.0000000000000000e+00  0.0000000000000000e+00 -2.2508171229187750e-03 0.0000000000000000e+00  0.0000000000000000e+00 -2.2549672968918883e-03 0.0000000000000000e+00  0.0000000000000000e+00 -2.2588679538434134e-03 0.0000000000000000e+00  0.0000000000000000e+00 -2.2625205656804678e-03 0.0000000000000000e+00  0.0000000000000000e+00 -2.2659251068282774e-03 0.0000000000000000e+00  0.0000000000000000e+00 -2.2690811713930322e-03 0.0000000000000000e+00  0.0000000000000000e+00 -2.2719865897482703e-03 0.0000000000000000e+00  0.0000000000000000e+00 -2.2746382551868528e-03 0.0000000000000000e+00  0.0000000000000000e+00 -2.2770327018167328e-03 0.0000000000000000e+00  0.0000000000000000e+00 -2.2791644060649718e-03 0.0000000000000000e+00  0.0000000000000000e+00 -2.2810284418288188e-03 0.0000000000000000e+00  0.0000000000000000e+00 -2.2826188323382397e-03 0.0000000000000000e+00  0.0000000000000000e+00 -2.2839299212586935e-03 0.0000000000000000e+00  0.0000000000000000e+00 -2.2849560573801365e-03 0.0000000000000000e+00  0.0000000000000000e+00 -2.2856928296465079e-03 0.0000000000000000e+00  0.0000000000000000e+00 -2.2861363957209896e-03 0.0000000000000000e+00  0.0000000000000000e+00 -2.2861265625873802e-03 0.0000000000000000e+00  0.0000000000000000e+00 -2.2856530131199560e-03 0.0000000000000000e+00  0.0000000000000000e+00 -2.2848649748887727e-03 0.0000000000000000e+00  0.0000000000000000e+00 -2.2837643024803882e-03 0.0000000000000000e+00  0.0000000000000000e+00 -2.2823536597670860e-03 0.0000000000000000e+00  0.0000000000000000e+00 -2.2806366372273988e-03 0.0000000000000000e+00  0.0000000000000000e+00 -2.2786176340576819e-03 0.0000000000000000e+00  0.0000000000000000e+00 -2.2763022752385876e-03 0.0000000000000000e+00  0.0000000000000000e+00 -2.2736975909436160e-03 0.0000000000000000e+00  0.0000000000000000e+00 -2.2708119657280320e-03 0.0000000000000000e+00  0.0000000000000000e+00 -2.2676556614877616e-03 0.0000000000000000e+00  0.0000000000000000e+00 -2.2642412028579246e-03 0.0000000000000000e+00  0.0000000000000000e+00 -2.2605837887720594e-03 0.0000000000000000e+00  0.0000000000000000e+00 -2.2567023558870314e-03 0.0000000000000000e+00  0.0000000000000000e+00 -2.2526203645818052e-03 0.0000000000000000e+00  0.0000000000000000e+00 -2.2483677252915384e-03 0.0000000000000000e+00  0.0000000000000000e+00 -2.2439826676239221e-03 0.0000000000000000e+00  0.0000000000000000e+00 -2.2395159461375850e-03 0.0000000000000000e+00  0.0000000000000000e+00 -2.2350386455506277e-03 0.0000000000000000e+00  0.0000000000000000e+00 -2.2306518877080409e-03 0.0000000000000000e+00  0.0000000000000000e+00 -2.2265132631782147e-03 0.0000000000000000e+00  0.0000000000000000e+00 -2.2229022183708298e-03 0.0000000000000000e+00  0.0000000000000000e+00 -2.2204821887712653e-03 0.0000000000000000e+00  0.0000000000000000e+00 -2.2319842217474188e-03 0.0000000000000000e+00  0.0000000000000000e+00 -2.2397133465473810e-03 0.0000000000000000e+00  0.0000000000000000e+00 -2.2473645075475144e-03 0.0000000000000000e+00  0.0000000000000000e+00 -2.2551959825817692e-03 0.0000000000000000e+00  0.0000000000000000e+00 -2.2633140254096416e-03 0.0000000000000000e+00  0.0000000000000000e+00 -2.2717810308606630e-03 0.0000000000000000e+00  0.0000000000000000e+00 -2.2806448314248574e-03 0.0000000000000000e+00  0.0000000000000000e+00 -2.2899455285387018e-03 0.0000000000000000e+00  0.0000000000000000e+00 -2.2997236253890856e-03 0.0000000000000000e+00  0.0000000000000000e+00 -2.3100190270755202e-03 0.0000000000000000e+00  0.0000000000000000e+00 -2.3208793853313112e-03 0.0000000000000000e+00  0.0000000000000000e+00 -2.3323471909085201e-03 0.0000000000000000e+00  0.0000000000000000e+00 -2.3444826861433081e-03 0.0000000000000000e+00  0.0000000000000000e+00 -2.3573446242628172e-03 0.0000000000000000e+00  0.0000000000000000e+00 -2.3710069915895637e-03 0.0000000000000000e+00  0.0000000000000000e+00 -2.3855514100410732e-03 0.0000000000000000e+00  0.0000000000000000e+00 -2.4010778472605553e-03 0.0000000000000000e+00  0.0000000000000000e+00 -2.4177119714360149e-03 0.0000000000000000e+00  0.0000000000000000e+00 -2.4356146501313741e-03 0.0000000000000000e+00  0.0000000000000000e+00 -2.4550496083504320e-03 0.0000000000000000e+00  0.0000000000000000e+00 -2.4766114908867701e-03 0.0000000000000000e+00  0.0000000000000000e+00 -2.4998177143263417e-03 0.0000000000000000e+00  0.0000000000000000e+00 -2.5584629691580425e-03 0.0000000000000000e+00  -3.3121027757057527e-04 -3.4318336681248046e-03 0.0000000000000000e+00  -3.3489316385943742e-04 -3.5723233490685220e-03 0.0000000000000000e+00  -3.4334772451316759e-04 -3.7032033599845035e-03 0.0000000000000000e+00  -3.4561762802624103e-04 -3.8261429508268554e-03 0.0000000000000000e+00  -3.4291566538283017e-04 -3.9403824418308229e-03 0.0000000000000000e+00  -3.3619991410334377e-04 -4.0460019294353330e-03 0.0000000000000000e+00  -3.2636311007481290e-04 -4.1432722058363245e-03 0.0000000000000000e+00  -3.1409249486006138e-04 -4.2326013829587263e-03 0.0000000000000000e+00  -2.9995859017200726e-04 -4.3144350727541110e-03 0.0000000000000000e+00  -2.8438152284797114e-04 -4.3892304101583665e-03 0.0000000000000000e+00  -2.6768701902080860e-04 -4.4574190173518697e-03 0.0000000000000000e+00  -2.5011571695314824e-04 -4.5193914787355453e-03 0.0000000000000000e+00  -2.3184848829443851e-04 -4.5754962006849679e-03 0.0000000000000000e+00  -2.1301998471210935e-04 -4.6260331330524040e-03 0.0000000000000000e+00  -1.9373970421616391e-04 -4.6712660918915841e-03 0.0000000000000000e+00  -1.7409683426142459e-04 -4.7114201715197620e-03 0.0000000000000000e+00  -1.5414846478536463e-04 -4.7466820758225101e-03 0.0000000000000000e+00  -1.3395485992457852e-04 -4.7772156447218155e-03 0.0000000000000000e+00  -1.1356482508232387e-04 -4.8031575159705299e-03 0.0000000000000000e+00  -9.3014732221604381e-05 -4.8246169605817750e-03 0.0000000000000000e+00  -7.2342218158500264e-05 -4.8416830164450930e-03 0.0000000000000000e+00  -5.1573445005425754e-05 -4.8544247705882915e-03 0.0000000000000000e+00  -3.0741267341553893e-05 -4.8628947402730403e-03 0.0000000000000000e+00  -9.8731511420842745e-06 -4.8671253265359319e-03 0.0000000000000000e+00  1.1010284005233808e-05 -4.8671333963726440e-03 0.0000000000000000e+00  3.1879010236565309e-05 -4.8629193801063737e-03 0.0000000000000000e+00  5.2705870561431141e-05 -4.8544661778740696e-03 0.0000000000000000e+00  7.3469621589609304e-05 -4.8417415153627075e-03 0.0000000000000000e+00  9.4135880588710043e-05 -4.8246945493832594e-03 0.0000000000000000e+00  1.1467697550811194e-04 -4.8032566879793988e-03 0.0000000000000000e+00  1.3505264839705898e-04 -4.7773373936760774e-03 0.0000000000000000e+00  1.5523384831780281e-04 -4.7468293948089210e-03 0.0000000000000000e+00  1.7515564493957638e-04 -4.7115954267892383e-03 0.0000000000000000e+00  1.9477728385401292e-04 -4.6714773215468458e-03 0.0000000000000000e+00  2.1402349948305722e-04 -4.6262850959652357e-03 0.0000000000000000e+00  2.3280944380862407e-04 -4.5757999622536346e-03 0.0000000000000000e+00  2.5103094911549834e-04 -4.5197642224939893e-03 0.0000000000000000e+00  2.6854897333413992e-04 -4.4578771801663704e-03 0.0000000000000000e+00  2.8515530916846664e-04 -4.3897884937957538e-03 0.0000000000000000e+00  3.0064349404285569e-04 -4.3151263080564292e-03 0.0000000000000000e+00  3.1469624602713085e-04 -4.2334691621644643e-03 0.0000000000000000e+00  3.2687324418459370e-04 -4.1443540378968587e-03 0.0000000000000000e+00  3.3663900889595479e-04 -4.0473467712509471e-03 0.0000000000000000e+00  3.4331989278647764e-04 -3.9419991747588843e-03 0.0000000000000000e+00  3.4612740474499522e-04 -3.8279735413936692e-03 0.0000000000000000e+00  3.4415112116856553e-04 -3.7050019073230976e-03 0.0000000000000000e+00  3.3662860176563114e-04 -3.5731195880291185e-03 0.0000000000000000e+00  3.2651190144662446e-04 -3