<?xml version="1.0"?>
<VTKFile type="UnstructuredGrid"  version="0.1"  >
<UnstructuredGrid>
<Piece  NumberOfPoints="1250" NumberOfCells="2352">
<Points>
<DataArray  type="Float64"  NumberOfComponents="3"  format="ascii">0 0 0  0.0336 0 0  0.0336 0.07729999999999999 0  0 0.07729999999999999 0  0.001400000000000002 0 0  0.002800000000000005 0 0  0.004200000000000008 0 0  0.005600000000000009 0 0  0.007000000000000011 0 0  0.008400000000000013 0 0  0.009800000000000019 0 0  0.01120000000000002 0 0  0.01260000000000003 0 0  0.01400000000000003 0 0  0.01540000000000004 0 0  0.01680000000000005 0 0  0.01820000000000004 0 0  0.01960000000000004 0 0  0.02100000000000004 0 0  0.02240000000000003 0 0  0.02380000000000003 0 0  0.02520000000000002 0 0  0.02660000000000002 0 0  0.02800000000000001 0 0  0.02940000000000001 0 0  0.03080000000000001 0 0  0.0322 0 0  0.0336 0.001577551020408161 0  0.0336 0.003155102040816321 0  0.0336 0.004732653061224482 0  0.0336 0.006310204081632642 0  0.0336 0.007887755102040803 0  0.0336 0.009465306122448964 0  0.0336 0.01104285714285712 0  0.0336 0.01262040816326528 0  0.0336 0.01419795918367344 0  0.0336 0.0157755102040816 0  0.0336 0.01735306122448976 0  0.0336 0.01893061224489792 0  0.0336 0.02050816326530608 0  0.0336 0.02208571428571425 0  0.0336 0.02366326530612241 0  0.0336 0.02524081632653058 0  0.0336 0.02681836734693874 0  0.0336 0.02839591836734691 0  0.0336 0.02997346938775507 0  0.0336 0.03155102040816323 0  0.0336 0.0331285714285714 0  0.0336 0.03470612244897956 0  0.0336 0.03628367346938772 0  0.0336 0.03786122448979588 0  0.0336 0.03943877551020405 0  0.0336 0.04101632653061221 0  0.0336 0.04259387755102037 0  0.0336 0.04417142857142854 0  0.0336 0.04574897959183671 0  0.0336 0.04732653061224486 0  0.0336 0.04890408163265302 0  0.0336 0.05048163265306119 0  0.0336 0.05205918367346936 0  0.0336 0.05363673469387752 0  0.0336 0.05521428571428568 0  0.0336 0.05679183673469385 0  0.0336 0.05836938775510202 0  0.0336 0.05994693877551018 0  0.0336 0.06152448979591834 0  0.0336 0.0631020408163265 0  0.0336 0.06467959183673468 0  0.0336 0.06625714285714283 0  0.0336 0.06783469387755101 0  0.0336 0.06941224489795916 0  0.0336 0.07098979591836733 0  0.0336 0.07256734693877549 0  0.0336 0.07414489795918365 0  0.0336 0.07572244897959182 0  0.03219999999999999 0.07729999999999999 0  0.03079999999999999 0.07729999999999999 0  0.02939999999999999 0.07729999999999999 0  0.02799999999999999 0.07729999999999999 0  0.02659999999999999 0.07729999999999999 0  0.02519999999999999 0.07729999999999999 0  0.02379999999999998 0.07729999999999999 0  0.02239999999999998 0.07729999999999999 0  0.02099999999999997 0.07729999999999999 0  0.01959999999999996 0.07729999999999999 0  0.01819999999999996 0.07729999999999999 0  0.01679999999999995 0.07729999999999999 0  0.01539999999999996 0.07729999999999999 0  0.01399999999999996 0.07729999999999999 0  0.01259999999999996 0.07729999999999999 0  0.01119999999999997 0.07729999999999999 0  0.009799999999999972 0.07729999999999999 0  0.008399999999999977 0.07729999999999999 0  0.006999999999999978 0.07729999999999999 0  0.005599999999999983 0.07729999999999999 0  0.004199999999999988 0.07729999999999999 0  0.00279999999999999 0.07729999999999999 0  0.001399999999999998 0.07729999999999999 0  0 0.07572244897959184 0  0 0.07414489795918368 0  0 0.07256734693877551 0  0 0.07098979591836735 0  0 0.06941224489795919 0  0 0.06783469387755103 0  0 0.06625714285714288 0  0 0.06467959183673472 0  0 0.06310204081632656 0  0 0.0615244897959184 0  0 0.05994693877551023 0  0 0.05836938775510207 0  0 0.05679183673469392 0  0 0.05521428571428574 0  0 0.05363673469387759 0  0 0.05205918367346941 0  0 0.05048163265306126 0  0 0.04890408163265308 0  0 0.04732653061224493 0  0 0.04574897959183676 0  0 0.0441714285714286 0  0 0.04259387755102043 0  0 0.04101632653061228 0  0 0.03943877551020411 0  0 0.03786122448979595 0  0 0.03628367346938779 0  0 0.03470612244897962 0  0 0.03312857142857146 0  0 0.03155102040816329 0  0 0.02997346938775513 0  0 0.02839591836734697 0  0 0.0268183673469388 0  0 0.02524081632653064 0  0 0.02366326530612247 0  0 0.02208571428571431 0  0 0.02050816326530614 0  0 0.01893061224489798 0  0 0.01735306122448981 0  0 0.01577551020408165 0  0 0.01419795918367349 0  0 0.01262040816326532 0  0 0.01104285714285716 0  0 0.009465306122448988 0  0 0.00788775510204083 0  0 0.006310204081632659 0  0 0.004732653061224501 0  0 0.003155102040816343 0  0 0.001577551020408172 0  0.001400000000000004 0.001577551020408172 0  0.001400000000000004 0.003155102040816329 0  0.001400000000000002 0.004732653061224501 0  0.001400000000000002 0.006310204081632645 0  0.001400000000000005 0.007887755102040823 0  0.001400000000000002 0.009465306122448981 0  0.001400000000000002 0.01104285714285717 0  0.001400000000000004 0.01262040816326531 0  0.0014 0.01419795918367349 0  0.001400000000000002 0.01577551020408166 0  0.001400000000000005 0.0173530612244898 0  0.001400000000000002 0.01893061224489797 0  0.001400000000000002 0.02050816326530613 0  0.001400000000000002 0.02208571428571431 0  0.001400000000000002 0.02366326530612247 0  0.001400000000000002 0.02524081632653063 0  0.001400000000000002 0.0268183673469388 0  0.001400000000000002 0.02839591836734696 0  0.001400000000000002 0.02997346938775513 0  0.001400000000000002 0.03155102040816328 0  0.001400000000000002 0.03312857142857147 0  0.001399999999999997 0.03470612244897962 0  0.001400000000000005 0.03628367346938778 0  0.001400000000000002 0.03786122448979594 0  0.001400000000000002 0.03943877551020411 0  0.001400000000000002 0.04101632653061228 0  0.001400000000000002 0.04259387755102043 0  0.001400000000000002 0.0441714285714286 0  0.0014 0.04574897959183676 0  0.001400000000000002 0.04732653061224492 0  0.001400000000000004 0.04890408163265308 0  0.001400000000000002 0.05048163265306126 0  0.001400000000000002 0.05205918367346941 0  0.0014 0.05363673469387758 0  0.001400000000000004 0.05521428571428574 0  0.001399999999999998 0.05679183673469391 0  0.001400000000000002 0.05836938775510207 0  0.0014 0.05994693877551023 0  0.001400000000000002 0.0615244897959184 0  0.001400000000000002 0.06310204081632656 0  0.001400000000000002 0.06467959183673472 0  0.0014 0.06625714285714286 0  0.001400000000000002 0.06783469387755102 0  0.001399999999999998 0.06941224489795919 0  0.001400000000000002 0.07098979591836735 0  0.0014 0.07256734693877552 0  0.001400000000000002 0.07414489795918368 0  0.001400000000000002 0.07572244897959184 0  0.002800000000000006 0.001577551020408165 0  0.002800000000000004 0.003155102040816343 0  0.002800000000000002 0.004732653061224487 0  0.002800000000000002 0.006310204081632652 0  0.002800000000000002 0.007887755102040813 0  0.0028 0.009465306122448981 0  0.002799999999999997 0.01104285714285715 0  0.0028 0.01262040816326532 0  0.0028 0.01419795918367348 0  0.0028 0.01577551020408165 0  0.002799999999999997 0.0173530612244898 0  0.0028 0.01893061224489797 0  0.002800000000000004 0.02050816326530613 0  0.0028 0.0220857142857143 0  0.0028 0.02366326530612247 0  0.002800000000000004 0.02524081632653064 0  0.0028 0.0268183673469388 0  0.0028 0.02839591836734696 0  0.002799999999999995 0.02997346938775512 0  0.002799999999999997 0.03155102040816328 0  0.002799999999999995 0.03312857142857146 0  0.0028 0.03470612244897962 0  0.002799999999999995 0.03628367346938778 0  0.002799999999999997 0.03786122448979594 0  0.002799999999999997 0.03943877551020411 0  0.002799999999999997 0.04101632653061228 0  0.002799999999999997 0.04259387755102043 0  0.002799999999999995 0.0441714285714286 0  0.002799999999999997 0.04574897959183676 0  0.002799999999999997 0.04732653061224493 0  0.002799999999999995 0.04890408163265308 0  0.002799999999999993 0.05048163265306124 0  0.002799999999999995 0.05205918367346941 0  0.002799999999999995 0.05363673469387757 0  0.002799999999999992 0.05521428571428574 0  0.002799999999999997 0.05679183673469391 0  0.002799999999999993 0.05836938775510207 0  0.002799999999999993 0.05994693877551022 0  0.002799999999999992 0.0615244897959184 0  0.002799999999999988 0.06310204081632655 0  0.002799999999999992 0.0646795918367347 0  0.002799999999999992 0.06625714285714286 0  0.00279999999999999 0.06783469387755103 0  0.00279999999999999 0.06941224489795919 0  0.002799999999999988 0.07098979591836735 0  0.00279999999999999 0.07256734693877552 0  0.002799999999999988 0.07414489795918368 0  0.00279999999999999 0.07572244897959184 0  0.004200000000000006 0.001577551020408172 0  0.004200000000000006 0.003155102040816329 0  0.004200000000000008 0.00473265306122448 0  0.004200000000000009 0.006310204081632652 0  0.004200000000000008 0.00788775510204082 0  0.004200000000000008 0.009465306122448978 0  0.004200000000000006 0.01104285714285716 0  0.004200000000000006 0.01262040816326532 0  0.004200000000000004 0.01419795918367349 0  0.004200000000000002 0.01577551020408165 0  0.004200000000000004 0.0173530612244898 0  0.004200000000000006 0.01893061224489797 0  0.004200000000000006 0.02050816326530613 0  0.004200000000000002 0.0220857142857143 0  0.004200000000000004 0.02366326530612247 0  0.004199999999999999 0.02524081632653062 0  0.004200000000000004 0.0268183673469388 0  0.004200000000000004 0.02839591836734696 0  0.004200000000000002 0.02997346938775512 0  0.004199999999999999 0.03155102040816328 0  0.004200000000000001 0.03312857142857145 0  0.004200000000000001 0.03470612244897962 0  0.004199999999999995 0.03628367346938778 0  0.004199999999999999 0.03786122448979594 0  0.004199999999999999 0.0394387755102041 0  0.004199999999999997 0.04101632653061227 0  0.004199999999999999 0.04259387755102043 0  0.004199999999999999 0.04417142857142859 0  0.004199999999999999 0.04574897959183676 0  0.004199999999999999 0.04732653061224492 0  0.004199999999999997 0.04890408163265308 0  0.004199999999999997 0.05048163265306124 0  0.004199999999999999 0.05205918367346941 0  0.004199999999999992 0.05363673469387757 0  0.0
[...]
<PointData  Vectors="displacement"> 
<DataArray  type="Float64"  Name="displacement"  NumberOfComponents="3" format="ascii">0.0000000000000000e+00 0.0000000000000000e+00 0.0000000000000000e+00  0.0000000000000000e+00 0.0000000000000000e+00 0.0000000000000000e+00  6.1625784321291165e-03 -5.1550256275134099e-02 0.0000000000000000e+00  -6.0989202142461832e-03 -5.1537918551903018e-02 0.0000000000000000e+00  0.0000000000000000e+00 0.0000000000000000e+00 0.0000000000000000e+00  0.0000000000000000e+00 0.0000000000000000e+00 0.0000000000000000e+00  0.0000000000000000e+00 0.0000000000000000e+00 0.0000000000000000e+00  0.0000000000000000e+00 0.0000000000000000e+00 0.0000000000000000e+00  0.0000000000000000e+00 0.0000000000000000e+00 0.0000000000000000e+00  0.0000000000000000e+00 0.0000000000000000e+00 0.0000000000000000e+00  0.0000000000000000e+00 0.0000000000000000e+00 0.0000000000000000e+00  0.0000000000000000e+00 0.0000000000000000e+00 0.0000000000000000e+00  0.0000000000000000e+00 0.0000000000000000e+00 0.0000000000000000e+00  0.0000000000000000e+00 0.0000000000000000e+00 0.0000000000000000e+00  0.0000000000000000e+00 0.0000000000000000e+00 0.0000000000000000e+00  0.0000000000000000e+00 0.0000000000000000e+00 0.0000000000000000e+00  0.0000000000000000e+00 0.0000000000000000e+00 0.0000000000000000e+00  0.0000000000000000e+00 0.0000000000000000e+00 0.0000000000000000e+00  0.0000000000000000e+00 0.0000000000000000e+00 0.0000000000000000e+00  0.0000000000000000e+00 0.0000000000000000e+00 0.0000000000000000e+00  0.0000000000000000e+00 0.0000000000000000e+00 0.0000000000000000e+00  0.0000000000000000e+00 0.0000000000000000e+00 0.0000000000000000e+00  0.0000000000000000e+00 0.0000000000000000e+00 0.0000000000000000e+00  0.0000000000000000e+00 0.0000000000000000e+00 0.0000000000000000e+00  0.0000000000000000e+00 0.0000000000000000e+00 0.0000000000000000e+00  0.0000000000000000e+00 0.0000000000000000e+00 0.0000000000000000e+00  0.0000000000000000e+00 0.0000000000000000e+00 0.0000000000000000e+00  2.0016960038750546e-03 -1.8311585827556448e-03 0.0000000000000000e+00  3.1060299866788243e-03 -2.9406363342006970e-03 0.0000000000000000e+00  3.8835636836298221e-03 -3.9159852726313137e-03 0.0000000000000000e+00  4.4667567848533686e-03 -4.8438341930493161e-03 0.0000000000000000e+00  4.9128658553813601e-03 -5.7543274174136029e-03 0.0000000000000000e+00  5.2555506393075760e-03 -6.6631769458474679e-03 0.0000000000000000e+00  5.5181953661886125e-03 -7.5789715514513224e-03 0.0000000000000000e+00  5.7181787938406694e-03 -8.5063008352376929e-03 0.0000000000000000e+00  5.8688975262901040e-03 -9.4474024439441997e-03 0.0000000000000000e+00  5.9809090918491068e-03 -1.0403068944723006e-02 0.0000000000000000e+00  6.0626371543476493e-03 -1.1373185280938256e-02 0.0000000000000000e+00  6.1208406135929636e-03 -1.2357070234165832e-02 0.0000000000000000e+00  6.1609472509478701e-03 -1.3353704225186967e-02 0.0000000000000000e+00  6.1873045648135191e-03 -1.4361885650535970e-02 0.0000000000000000e+00  6.2033765875418043e-03 -1.5380339257787158e-02 0.0000000000000000e+00  6.2119030852462089e-03 -1.6407790741935203e-02 0.0000000000000000e+00  6.2150308764824672e-03 -1.7443016796441231e-02 0.0000000000000000e+00  6.2144233385151727e-03 -1.8484877046664332e-02 0.0000000000000000e+00  6.2113521238747142e-03 -1.9532332579264376e-02 0.0000000000000000e+00  6.2067739541023194e-03 -2.0584454645921652e-02 0.0000000000000000e+00  6.2013946908963816e-03 -2.1640426308268606e-02 0.0000000000000000e+00  6.1957224836757313e-03 -2.2699539174709096e-02 0.0000000000000000e+00  6.1901115321855542e-03 -2.3761186892968189e-02 0.0000000000000000e+00  6.1847978148158690e-03 -2.4824856669785820e-02 0.0000000000000000e+00  6.1799279816028259e-03 -2.5890119771121392e-02 0.0000000000000000e+00  6.1755824774447857e-03 -2.6956621699615324e-02 0.0000000000000000e+00  6.1717938378868771e-03 -2.8024072541233132e-02 0.0000000000000000e+00  6.1685609840975734e-03 -2.9092237812012065e-02 0.0000000000000000e+00  6.1658602350298675e-03 -3.0160930011613091e-02 0.0000000000000000e+00  6.1636536538177775e-03 -3.1230000996665268e-02 0.0000000000000000e+00  6.1618952529635188e-03 -3.2299335218069609e-02 0.0000000000000000e+00  6.1605354993756424e-03 -3.3368843817587361e-02 0.0000000000000000e+00  6.1595244860627599e-03 -3.4438459545945280e-02 0.0000000000000000e+00  6.1588140721766270e-03 -3.5508132443769568e-02 0.0000000000000000e+00  6.1583592367754373e-03 -3.6577826214965095e-02 0.0000000000000000e+00  6.1581188435875910e-03 -3.7647515217294918e-02 0.0000000000000000e+00  6.1580559735279873e-03 -3.8717181995001987e-02 0.0000000000000000e+00  6.1581379480478548e-03 -3.9786815281900298e-02 0.0000000000000000e+00  6.1583361389121365e-03 -4.0856408409385155e-02 0.0000000000000000e+00  6.1586256381524207e-03 -4.1925958061543790e-02 0.0000000000000000e+00  6.1589848454387973e-03 -4.2995463328572334e-02 0.0000000000000000e+00  6.1593950191201948e-03 -4.4064925019893064e-02 0.0000000000000000e+00  6.1598398327647680e-03 -4.5134345209861176e-02 0.0000000000000000e+00  6.1603049841211874e-03 -4.6203727002114538e-02 0.0000000000000000e+00  6.1607779251044619e-03 -4.7273074513837866e-02 0.0000000000000000e+00  6.1612478377514454e-03 -4.8342393098328156e-02 0.0000000000000000e+00  6.1617061297705861e-03 -4.9411689832399727e-02 0.0000000000000000e+00  6.1621482063251619e-03 -5.0480974131923366e-02 0.0000000000000000e+00  5.6516107573138423e-03 -5.1549876651603724e-02 0.0000000000000000e+00  5.1406440009639969e-03 -5.1549505319230887e-02 0.0000000000000000e+00  4.6296851409425256e-03 -5.1549146464391161e-02 0.0000000000000000e+00  4.1187407191851187e-03 -5.1548797298731436e-02 0.0000000000000000e+00  3.6078149372201248e-03 -5.1548451833409968e-02 0.0000000000000000e+00  3.0969097620777990e-03 -5.1548102853841517e-02 0.0000000000000000e+00  2.5860252918213974e-03 -5.1547742988837811e-02 0.0000000000000000e+00  2.0751601206891496e-03 -5.1547365352118110e-02 0.0000000000000000e+00  1.5643116689632104e-03 -5.1546963945074922e-02 0.0000000000000000e+00  1.0534764745846778e-03 -5.1546533911098175e-02 0.0000000000000000e+00  5.4265044923397705e-04 -5.1546071692824498e-02 0.0000000000000000e+00  3.1829104793231462e-05 -5.1545575124541824e-02 0.0000000000000000e+00  -4.7899224139284215e-04 -5.1545043480101749e-02 0.0000000000000000e+00  -9.8981827229447750e-04 -5.1544477487775867e-02 0.0000000000000000e+00  -1.5006534769497182e-03 -5.1543879315761709e-02 0.0000000000000000e+00  -2.0115019451332349e-03 -5.1543252524643930e-02 0.0000000000000000e+00  -2.5223671407835751e-03 -5.1542601975381977e-02 0.0000000000000000e+00  -3.0332516457870396e-03 -5.1541933672465699e-02 0.0000000000000000e+00  -3.5441568682400507e-03 -5.1541254509888709e-02 0.0000000000000000e+00  -4.0550827125709222e-03 -5.1540571867895922e-02 0.0000000000000000e+00  -4.5660272145157605e-03 -5.1539892967326424e-02 0.0000000000000000e+00  -5.0769861717660921e-03 -5.1539223783828123e-02 0.0000000000000000e+00  -5.5879529997043872e-03 -5.1538567065993184e-02 0.0000000000000000e+00  -6.0996486297957000e-03 -5.0468636050545440e-02 0.0000000000000000e+00  -6.1003651943930702e-03 -4.9399351819581105e-02 0.0000000000000000e+00  -6.1010656076480440e-03 -4.8330055133887911e-02 0.0000000000000000e+00  -6.1017543745421482e-03 -4.7260736582181204e-02 0.0000000000000000e+00  -6.1024400816693221e-03 -4.6191389092625788e-02 0.0000000000000000e+00  -6.1031335610864249e-03 -4.5122007316606441e-02 0.0000000000000000e+00  -6.1038473720540229e-03 -4.4052587141054686e-02 0.0000000000000000e+00  -6.1045958232751902e-03 -4.2983125466002671e-02 0.0000000000000000e+00  -6.1053952438995963e-03 -4.1913620220610424e-02 0.0000000000000000e+00  -6.1062643753667205e-03 -4.0844070599108780e-02 0.0000000000000000e+00  -6.1072248152297150e-03 -3.9774477515348607e-02 0.0000000000000000e+00  -6.1083014661236995e-03 -3.8704844289915635e-02 0.0000000000000000e+00  -6.1095229481340713e-03 -3.7635177596940704e-02 0.0000000000000000e+00  -6.1109219283698030e-03 -3.6565488709232923e-02 0.0000000000000000e+00  -6.1125353105256387e-03 -3.5495795090545790e-02 0.0000000000000000e+00  -6.1144042106943564e-03 -3.4426122392818288e-02 0.0000000000000000e+00  -6.1165736238305221e-03 -3.3356506923969013e-02 0.0000000000000000e+00  -6.1190916577682289e-03 -3.2286998657854164e-02 0.0000000000000000e+00  -6.1220081780105576e-03 -3.1217664861599995e-02 0.0000000000000000e+00  -6.1253726659604253e-03 -3.0148594415626374e-02 0.0000000000000000e+00  -6.1292310451411093e-03 -2.9079902896843111e-02 0.0000000000000000e+00  -6.1336211735825994e-03 -2.8011738483834630e-02 0.0000000000000000e+00  -6.1385666353640355e-03 -2.6944288721968159e-02 0.0000000000000000e+00  -6.1440683899271157e-03 -2.5877788153304354e-02 0.0000000000000000e+00  -6.1500937541049301e-03 -2.4812526767388238e-02 0.0000000000000000e+00  -6.1565620990518171e-03 -2.3748859160202508e-02 0.0000000000000000e+00  -6.1633265429375788e-03 -2.2687214194846348e-02 0.0000000000000000e+00  -6.1701508110946161e-03 -2.1628104833226115e-02 0.0000000000000000e+00  -6.1766803188140320e-03 -2.0572137646879221e-02 0.0000000000000000e+00  -6.1824064077524105e-03 -1.9520021309907272e-02 0.0000000000000000e+00  -6.1866225320254681e-03 -1.8472573119796366e-02 0.0000000000000000e+00  -6.1883710363979617e-03 -1.7430722272882147e-02 0.0000000000000000e+00  -6.1863789783450640e-03 -1.6395508227242860e-02 0.0000000000000000e+00  -6.1789811816949864e-03 -1.5368071996568901e-02 0.0000000000000000e+00  -6.1640283032296968e-03 -1.4349637598700313e-02 0.0000000000000000e+00  -6.1387770195724563e-03 -1.3341480065587817e-02 0.0000000000000000e+00  -6.0997582750478450e-03 -1.2344875277929235e-02 0.0000000000000000e+00  -6.0426174690524411e-03 -1.1361025161040872e-02 0.0000000000000000e+00  -5.9619167709711995e-03 -1.0390948953532276e-02 0.0000000000000000e+00  -5.8508830569656226e-03 -9.4353262830692494e-03 0.0000000000000000e+00  -5.7010725636938648e-03 -8.4942684235522863e-03 0.0000000000000000e+00  -5.5018996287492595e-03 -7.5669753670841201e-03 0.0000000000000000e+00  -5.2399296666938442e-03 -6.6511962072694202e-03 0.0000000000000000e+00  -4.8977396327694253e-03 -5.7423208032061964e-03 0.0000000000000000e+00  -4.4519338987155013e-03 -4.8317535288868426e-03 0.0000000000000000e+00  -3.8691210360519987e-03 -3.9039625198430778e-03 0.0000000000000000e+00  -3.0935232129929032e-03 -2.9291142601592440e-03 0.0000000000000000e+00  -1.9931465670602944e-03 -1.8056942057490216e-03 0.0000000000000000e+00  -1.4023707757299362e-03 -1.0763440305704424e-03 0.0000000000000000e+00  -2.5630124577285646e-03 -2.2701673271848201e-03 0.0000000000000000e+00  -3.3868920753800532e-03 -3.3737081042504958e-03 0.0000000000000000e+00  -3.9912549639319374e-03 -4.4082432092811923e-03 0.0000000000000000e+00  -4.4455611405011149e-03 -5.4053499311806598e-03 0.0000000000000000e+00  -4.7896261242589061e-03 -6.3844906018868247e-03 0.0000000000000000e+00  -5.0497871035853825e-03 -7.3572865254251446e-03 0.0000000000000000e+00  -5.2450808886766731e-03 -8.3307681481204123e-03 0.0000000000000000e+00  -5.3899232702276775e-03 -9.3091288066841828e-03 0.0000000000000000e+00  -5.4955230975509139e-03 -1.0294739346719884e-02 0.0000000000000000e+00  -5.5707255835789919e-03 -1.1288775310484275e-02 0.0000000000000000e+00  -5.6225600579815158e-03 -1.2291623570595074e-02 0.0000000000000000e+00  -5.6566218444492732e-03 -1.3303155848716169e-02 0.0000000000000000e+00  -5.6773545461883566e-03 -1.4322917548623550e-02 0.0000000000000000e+00  -5.6882684189089386e-03 -1.5350260058211851e-02 0.0000000000000000e+00  -5.6921148983586096e-03 -1.6384433768597970e-02 0.0000000000000000e+00  -5.6910290770363714e-03 -1.7424652963319527e-02 0.0000000000000000e+00  -5.6866474255402684e-03 -1.8470140168724006e-02 0.0000000000000000e+00  -5.6802055612677916e-03 -1.9520155366280923e-02 0.0000000000000000e+00  -5.6726194612973079e-03 -2.0574014043398012e-02 0.0000000000000000e+00  -5.6645527019056575e-03 -2.1631097079828510e-02 0.0000000000000000e+00  -5.6564718126512177e-03 -2.2690854758039940e-02 0.0000000000000000e+00  -5.6486915088985543e-03 -2.3752806652054804e-02 0.0000000000000000e+00  -5.6414113320045669e-03 -2.4816538735807418e-02 0.0000000000000000e+00  -5.6347450384111311e-03 -2.5881698726706304e-02 0.0000000000000000e+00  -5.6287439162269028e-03 -2.6947990422469516e-02 0.0000000000000000e+00  -5.6234150607174585e-03 -2.8015167585538819e-02 0.0000000000000000e+00  -5.6187355046145079e-03 -2.9083027769265864e-02 0.0000000000000000e+00  -5.6146629742685498e-03 -3.0151406355584380e-02 0.0000000000000000e+00  -5.6111439284861142e-03 -3.1220170978481936e-02 0.0000000000000000e+00  -5.6081194337371581e-03 -3.2289216435763546e-02 0.0000000000000000e+00  -5.6055293374589806e-03 -3.3358460138730860e-02 0.0000000000000000e+00  -5.6033151203071898e-03 -3.4427838111579026e-02 0.0000000000000000e+00  -5.6014217380032068e-03 -3.5497301526286155e-02 0.0000000000000000e+00  -5.5997987032593505e-03 -3.6566813741844041e-02 0.0000000000000000e+00  -5.5984006073240278e-03 -3.7636347806666838e-02 0.0000000000000000e+00  -5.5971872380977160e-03 -3.8705884378151922e-02 0.0000000000000000e+00  -5.5961234166325849e-03 -3.9775410012268149e-02 0.0000000000000000e+00  -5.5951786453205948e-03 -4.0844915777628721e-02 0.0000000000000000e+00  -5.5943266385210973e-03 -4.1914396151933847e-02 0.0000000000000000e+00  -5.5935447893839590e-03 -4.2983848163287278e-02 0.0000000000000000e+00  -5.5928136153001020e-03 -4.4053270744104915e-02 0.0000000000000000e+00  -5.5921162198750637e-03 -4.5122664270435743e-02 0.0000000000000000e+00  -5.5914378148736420e-03 -4.6192030263225638e-02 0.0000000000000000e+00  -5.5907653698537528e-03 -4.7261371227433548e-02 0.0000000000000000e+00  -5.5900875231423052e-03 -4.8330690592154252e-02 0.0000000000000000e+00  -5.5893950541053708e-03 -4.9399992676034628e-02 0.0000000000000000e+00  -5.5886825886387196e-03 -5.0469282617846688e-02 0.0000000000000000e+00  -1.0794362798115795e-03 -8.7723950618315944e-04 0.0000000000000000e+00  -2.0952280955620806e-03 -1.9184044198700889e-03 0.0000000000000000e+00  -2.9000519412934129e-03 -2.9997189948131357e-03 0.0000000000000000e+00  -3.5098244777705899e-03 -4.0646577775168133e-03 0.0000000000000000e+00  -3.9699696490005862e-03 -5.1065689833583961e-03 0.0000000000000000e+00  -4.3170604628748298e-03 -6.1316018768223096e-03 0.0000000000000000e+00  -4.5777302246551785e-03 -7.1468333311771708e-03 0.0000000000000000e+00  -4.7717325797150545e-03 -8.1578564250339020e-03 0.0000000000000000e+00  -4.9141214457971592e-03 -9.1686336472020583e-03 0.0000000000000000e+00  -5.0165967698936028e-03 -1.0181793356178376e-02 0.0000000000000000e+00  -5.0883608470749060e-03 -1.1198958879323226e-02 0.0000000000000000e+00  -5.1366931104042243e-03 -1.2221024189847074e-02 0.0000000000000000e+00  -5.1673573973136161e-03 -1.3248367798457851e-02 0.0000000000000000e+00  -5.1849049216539777e-03 -1.4281014080017182e-02 0.0000000000000000e+00  -5.1929088032895299e-03 -1.5318753276483570e-02 0.0000000000000000e+00  -5.1941510365549970e-03 -1.6361229787699397e-02 0.0000000000000000e+00  -5.1907744840312704e-03 -1.7408006296108242e-02 0.0000000000000000e+00  -5.1844078329304905e-03 -1.8458609523734008e-02 0.0000000000000000e+00  -5.1762688160799878e-03 -1.9512562072248291e-02 0.0000000000000000e+00  -5.1672494823726232e-03 -2.0569403778402516e-02 0.0000000000000000e+00  -5.1579864039298668e-03 -2.1628705243057440e-02 0.0000000000000000e+00  -5.1489181499001953e-03 -2.2690075596066603e-02 0.0000000000000000e+00  -5.1403319842194982e-03 -2.3753166094366947e-02 0.0000000000000000e+00  -5.1324014715148037e-03 -2.4817670784435957e-02 0.0000000000000000e+00  -5.1252164562465832e-03 -2.5883325170276920e-02 0.0000000000000000e+00  -5.1188066920870700e-03 -2.6949903598160425e-02 0.0000000000000000e+00  -5.1131602304872580e-03 -2.8017215887490201e-02 0.0000000000000000e+00  -5.1082375247534801e-03 -2.9085103594112666e-02 0.0000000000000000e+00  -5.1039820670986990e-03 -3.0153436180791193e-02 0.0000000000000000e+00  -5.1003282506397853e-03 -3.1222107283432391e-02 0.0000000000000000e+00  -5.0972070360853243e-03 -3.2291031196051409e-02 0.0000000000000000e+00  -5.0945499037042732e-03 -3.3360139648319971e-02 0.0000000000000000e+00  -5.0922914846527377e-03 -3.4429378913471455e-02 0.0000000000000000e+00  -5.0903711911785025e-03 -3.5498707258555938e-02 0.0000000000000000e+00  -5.0887341017411582e-03 -3.6568092731250855e-02 0.0000000000000000e+00  -5.0873313036715250e-03 -3.7637511265776004e-02 0.0000000000000000e+00  -5.0861198515943411e-03 -3.8706945083429083e-02 0.0000000000000000e+00  -5.0850624634173466e-03 -3.9776381359627973e-02 0.0000000000000000e+00  -5.0841270463107165e-03 -4.0845811128149112e-02 0.0000000000000000e+00  -5.0832861220025671e-03 -4.1915228393678151e-02 0.0000000000000000e+00  -5.0825162034404195e-03 -4.2984629425160382e-02 0.0000000000000000e+00  -5.0817971634830273e-03 -4.4054012204098013e-02 0.0000000000000000e+00  -5.0811116318145626e-03 -4.5123376003247770e-02 0.0000000000000000e+00  -5.0804444615612943e-03 -4.6192721071589608e-02 0.0000000000000000e+00  -5.0797823284035827e-03 -4.7262048401693006e-02 0.0000000000000000e+00  -5.0791135734193941e-03 -4.8331359564595847e-02 0.0000000000000000e+00  -5.0784284819372083e-03 -4.9400656664119080e-02 0.0000000000000000e+00  -5.0777202113953404e-03 -5.0469942759415236e-02 0.0000000000000000e+00  -8.7572419734857209e-04 -8.0200178342442364e-04 0.0000000000000000e+00  -1.7299693079494013e-03 -1.7414330951977051e-03 0.0000000000000000e+00  -2.4604078395939499e-03 -2.7621958601408030e-03 0.0000000000000000e+00  -3.0427344360351325e-03 -3.8111528694138694e-03 0.0000000000000000e+00  -3.4931407800333257e-03 -4.8630229188115996e-03 0.0000000000000000e+00  -3.8362966676921168e-03 -5.9100707170456008e-03 0.0000000000000000e+00  -4.0946600354615538e-03 -6.9517505189854566e-03 0.0000000000000000e+00  -4.2866122346348874e-03 -7.9897596612986833e-03 0.0000000000000000e+00  -4.4268287011334324e-03 -9.0261329796233660e-03 0.0000000000000000e+00  -4.5269782032654965e-03 -1.0062604397278732e-02 0.0000000000000000e+00  -4.5963395017438648e-03 -1.1100453798495174e-02 0.0000000000000000e+00  -4.6422862821557985e-03 -1.2140529140736465e-02 0.0000000000000000e+00  -4.6706627411507596e-03 -1.3183322869782976e-02 0.0000000000000000e+00  -4.6860780257335245e-03 -1.4229056217254711e-02 0.0000000000000000e+00  -4.6921412569008655e-03 -1.5277754700908319e-02 0.0000000000000000e+00  -4.6916521388886013e-03 -1.6329310086803928e-02 0.0000000000000000e+00  -4.6867572761608240e-03 -1.7383528764804829e-02 0.0000000000000000e+00  -4.6790791426537968e-03 -1.8440168178481698e-02 0.0000000000000000e+00  -4.6698226609754364e-03 -1.9498963391495438e-02 0.0000000000000000e+00  -4.6598631169886438e-03 -2.0559645808416776e-02 0.0000000000000000e+00  -4.6498183564889928e-03 -2.1621955819348521e-02 0.0000000000000000e+00  -4.6401076953110987e-03 -2.2685650843087900e-02 0.0000000000000000e+00  -4.6309996082159483e-03 -2.3750509960831438e-02 0.0000000000000000e+00  -4.6226499800406731e-03 -2.4816336083361749e-02 0.0000000000000000e+00  -4.6151324691453633e-03 -2.5882956384823824e-02 0.0000000000000000e+00  -4.6084623297309862e-03 -2.6950221564143940e-02 0.0000000000000000e+00  -4.6026148572881854e-03 -2.8018004356645577e-02 0.0000000000000000e+00  -4.5975394564370308e-03 -2.9086197608518376e-02 0.0000000000000000e+00  -4.5931701812699319e-03 -3.0154712140653624e-02 0.0000000000000000e+00  -4.5894334644881437e-03 -3.1223474561639826e-02 0.0000000000000000e+00  -4.5862536327876090e-03 -3.2292425138667272e-02 0.0000000000000000e+00  -4.5835567016434811e-03 -3.3361515796580928e-02 0.0000000000000000e+00  -4.5812728521723682e-03 -3.4430708286736743e-02 0.0000000000000000e+00  -4.5793379152032580e-03 -3.5499972546518828e-02 0.0000000000000000e+00  -4.5776941219857594e-03 -3.6569285255620601e-02 0.0000000000000000e+00  -4.5762903259398803e-03 -3.7638628585074080