<?xml version="1.0"?>
<VTKFile type="UnstructuredGrid"  version="0.1"  >
<UnstructuredGrid>
<Piece  NumberOfPoints="1250" NumberOfCells="2352">
<Points>
<DataArray  type="Float64"  NumberOfComponents="3"  format="ascii">0 0 0  0.0336 0 0  0.0336 0.07729999999999999 0  0 0.07729999999999999 0  0.001400000000000002 0 0  0.002800000000000005 0 0  0.004200000000000008 0 0  0.005600000000000009 0 0  0.007000000000000011 0 0  0.008400000000000013 0 0  0.009800000000000019 0 0  0.01120000000000002 0 0  0.01260000000000003 0 0  0.01400000000000003 0 0  0.01540000000000004 0 0  0.01680000000000005 0 0  0.01820000000000004 0 0  0.01960000000000004 0 0  0.02100000000000004 0 0  0.02240000000000003 0 0  0.02380000000000003 0 0  0.02520000000000002 0 0  0.02660000000000002 0 0  0.02800000000000001 0 0  0.02940000000000001 0 0  0.03080000000000001 0 0  0.0322 0 0  0.0336 0.001577551020408161 0  0.0336 0.003155102040816321 0  0.0336 0.004732653061224482 0  0.0336 0.006310204081632642 0  0.0336 0.007887755102040803 0  0.0336 0.009465306122448964 0  0.0336 0.01104285714285712 0  0.0336 0.01262040816326528 0  0.0336 0.01419795918367344 0  0.0336 0.0157755102040816 0  0.0336 0.01735306122448976 0  0.0336 0.01893061224489792 0  0.0336 0.02050816326530608 0  0.0336 0.02208571428571425 0  0.0336 0.02366326530612241 0  0.0336 0.02524081632653058 0  0.0336 0.02681836734693874 0  0.0336 0.02839591836734691 0  0.0336 0.02997346938775507 0  0.0336 0.03155102040816323 0  0.0336 0.0331285714285714 0  0.0336 0.03470612244897956 0  0.0336 0.03628367346938772 0  0.0336 0.03786122448979588 0  0.0336 0.03943877551020405 0  0.0336 0.04101632653061221 0  0.0336 0.04259387755102037 0  0.0336 0.04417142857142854 0  0.0336 0.04574897959183671 0  0.0336 0.04732653061224486 0  0.0336 0.04890408163265302 0  0.0336 0.05048163265306119 0  0.0336 0.05205918367346936 0  0.0336 0.05363673469387752 0  0.0336 0.05521428571428568 0  0.0336 0.05679183673469385 0  0.0336 0.05836938775510202 0  0.0336 0.05994693877551018 0  0.0336 0.06152448979591834 0  0.0336 0.0631020408163265 0  0.0336 0.06467959183673468 0  0.0336 0.06625714285714283 0  0.0336 0.06783469387755101 0  0.0336 0.06941224489795916 0  0.0336 0.07098979591836733 0  0.0336 0.07256734693877549 0  0.0336 0.07414489795918365 0  0.0336 0.07572244897959182 0  0.03219999999999999 0.07729999999999999 0  0.03079999999999999 0.07729999999999999 0  0.02939999999999999 0.07729999999999999 0  0.02799999999999999 0.07729999999999999 0  0.02659999999999999 0.07729999999999999 0  0.02519999999999999 0.07729999999999999 0  0.02379999999999998 0.07729999999999999 0  0.02239999999999998 0.07729999999999999 0  0.02099999999999997 0.07729999999999999 0  0.01959999999999996 0.07729999999999999 0  0.01819999999999996 0.07729999999999999 0  0.01679999999999995 0.07729999999999999 0  0.01539999999999996 0.07729999999999999 0  0.01399999999999996 0.07729999999999999 0  0.01259999999999996 0.07729999999999999 0  0.01119999999999997 0.07729999999999999 0  0.009799999999999972 0.07729999999999999 0  0.008399999999999977 0.07729999999999999 0  0.006999999999999978 0.07729999999999999 0  0.005599999999999983 0.07729999999999999 0  0.004199999999999988 0.07729999999999999 0  0.00279999999999999 0.07729999999999999 0  0.001399999999999998 0.07729999999999999 0  0 0.07572244897959184 0  0 0.07414489795918368 0  0 0.07256734693877551 0  0 0.07098979591836735 0  0 0.06941224489795919 0  0 0.06783469387755103 0  0 0.06625714285714288 0  0 0.06467959183673472 0  0 0.06310204081632656 0  0 0.0615244897959184 0  0 0.05994693877551023 0  0 0.05836938775510207 0  0 0.05679183673469392 0  0 0.05521428571428574 0  0 0.05363673469387759 0  0 0.05205918367346941 0  0 0.05048163265306126 0  0 0.04890408163265308 0  0 0.04732653061224493 0  0 0.04574897959183676 0  0 0.0441714285714286 0  0 0.04259387755102043 0  0 0.04101632653061228 0  0 0.03943877551020411 0  0 0.03786122448979595 0  0 0.03628367346938779 0  0 0.03470612244897962 0  0 0.03312857142857146 0  0 0.03155102040816329 0  0 0.02997346938775513 0  0 0.02839591836734697 0  0 0.0268183673469388 0  0 0.02524081632653064 0  0 0.02366326530612247 0  0 0.02208571428571431 0  0 0.02050816326530614 0  0 0.01893061224489798 0  0 0.01735306122448981 0  0 0.01577551020408165 0  0 0.01419795918367349 0  0 0.01262040816326532 0  0 0.01104285714285716 0  0 0.009465306122448988 0  0 0.00788775510204083 0  0 0.006310204081632659 0  0 0.004732653061224501 0  0 0.003155102040816343 0  0 0.001577551020408172 0  0.001400000000000004 0.001577551020408172 0  0.001400000000000004 0.003155102040816329 0  0.001400000000000002 0.004732653061224501 0  0.001400000000000002 0.006310204081632645 0  0.001400000000000005 0.007887755102040823 0  0.001400000000000002 0.009465306122448981 0  0.001400000000000002 0.01104285714285717 0  0.001400000000000004 0.01262040816326531 0  0.0014 0.01419795918367349 0  0.001400000000000002 0.01577551020408166 0  0.001400000000000005 0.0173530612244898 0  0.001400000000000002 0.01893061224489797 0  0.001400000000000002 0.02050816326530613 0  0.001400000000000002 0.02208571428571431 0  0.001400000000000002 0.02366326530612247 0  0.001400000000000002 0.02524081632653063 0  0.001400000000000002 0.0268183673469388 0  0.001400000000000002 0.02839591836734696 0  0.001400000000000002 0.02997346938775513 0  0.001400000000000002 0.03155102040816328 0  0.001400000000000002 0.03312857142857147 0  0.001399999999999997 0.03470612244897962 0  0.001400000000000005 0.03628367346938778 0  0.001400000000000002 0.03786122448979594 0  0.001400000000000002 0.03943877551020411 0  0.001400000000000002 0.04101632653061228 0  0.001400000000000002 0.04259387755102043 0  0.001400000000000002 0.0441714285714286 0  0.0014 0.04574897959183676 0  0.001400000000000002 0.04732653061224492 0  0.001400000000000004 0.04890408163265308 0  0.001400000000000002 0.05048163265306126 0  0.001400000000000002 0.05205918367346941 0  0.0014 0.05363673469387758 0  0.001400000000000004 0.05521428571428574 0  0.001399999999999998 0.05679183673469391 0  0.001400000000000002 0.05836938775510207 0  0.0014 0.05994693877551023 0  0.001400000000000002 0.0615244897959184 0  0.001400000000000002 0.06310204081632656 0  0.001400000000000002 0.06467959183673472 0  0.0014 0.06625714285714286 0  0.001400000000000002 0.06783469387755102 0  0.001399999999999998 0.06941224489795919 0  0.001400000000000002 0.07098979591836735 0  0.0014 0.07256734693877552 0  0.001400000000000002 0.07414489795918368 0  0.001400000000000002 0.07572244897959184 0  0.002800000000000006 0.001577551020408165 0  0.002800000000000004 0.003155102040816343 0  0.002800000000000002 0.004732653061224487 0  0.002800000000000002 0.006310204081632652 0  0.002800000000000002 0.007887755102040813 0  0.0028 0.009465306122448981 0  0.002799999999999997 0.01104285714285715 0  0.0028 0.01262040816326532 0  0.0028 0.01419795918367348 0  0.0028 0.01577551020408165 0  0.002799999999999997 0.0173530612244898 0  0.0028 0.01893061224489797 0  0.002800000000000004 0.02050816326530613 0  0.0028 0.0220857142857143 0  0.0028 0.02366326530612247 0  0.002800000000000004 0.02524081632653064 0  0.0028 0.0268183673469388 0  0.0028 0.02839591836734696 0  0.002799999999999995 0.02997346938775512 0  0.002799999999999997 0.03155102040816328 0  0.002799999999999995 0.03312857142857146 0  0.0028 0.03470612244897962 0  0.002799999999999995 0.03628367346938778 0  0.002799999999999997 0.03786122448979594 0  0.002799999999999997 0.03943877551020411 0  0.002799999999999997 0.04101632653061228 0  0.002799999999999997 0.04259387755102043 0  0.002799999999999995 0.0441714285714286 0  0.002799999999999997 0.04574897959183676 0  0.002799999999999997 0.04732653061224493 0  0.002799999999999995 0.04890408163265308 0  0.002799999999999993 0.05048163265306124 0  0.002799999999999995 0.05205918367346941 0  0.002799999999999995 0.05363673469387757 0  0.002799999999999992 0.05521428571428574 0  0.002799999999999997 0.05679183673469391 0  0.002799999999999993 0.05836938775510207 0  0.002799999999999993 0.05994693877551022 0  0.002799999999999992 0.0615244897959184 0  0.002799999999999988 0.06310204081632655 0  0.002799999999999992 0.0646795918367347 0  0.002799999999999992 0.06625714285714286 0  0.00279999999999999 0.06783469387755103 0  0.00279999999999999 0.06941224489795919 0  0.002799999999999988 0.07098979591836735 0  0.00279999999999999 0.07256734693877552 0  0.002799999999999988 0.07414489795918368 0  0.00279999999999999 0.07572244897959184 0  0.004200000000000006 0.001577551020408172 0  0.004200000000000006 0.003155102040816329 0  0.004200000000000008 0.00473265306122448 0  0.004200000000000009 0.006310204081632652 0  0.004200000000000008 0.00788775510204082 0  0.004200000000000008 0.009465306122448978 0  0.004200000000000006 0.01104285714285716 0  0.004200000000000006 0.01262040816326532 0  0.004200000000000004 0.01419795918367349 0  0.004200000000000002 0.01577551020408165 0  0.004200000000000004 0.0173530612244898 0  0.004200000000000006 0.01893061224489797 0  0.004200000000000006 0.02050816326530613 0  0.004200000000000002 0.0220857142857143 0  0.004200000000000004 0.02366326530612247 0  0.004199999999999999 0.02524081632653062 0  0.004200000000000004 0.0268183673469388 0  0.004200000000000004 0.02839591836734696 0  0.004200000000000002 0.02997346938775512 0  0.004199999999999999 0.03155102040816328 0  0.004200000000000001 0.03312857142857145 0  0.004200000000000001 0.03470612244897962 0  0.004199999999999995 0.03628367346938778 0  0.004199999999999999 0.03786122448979594 0  0.004199999999999999 0.0394387755102041 0  0.004199999999999997 0.04101632653061227 0  0.004199999999999999 0.04259387755102043 0  0.004199999999999999 0.04417142857142859 0  0.004199999999999999 0.04574897959183676 0  0.004199999999999999 0.04732653061224492 0  0.004199999999999997 0.04890408163265308 0  0.004199999999999997 0.05048163265306124 0  0.004199999999999999 0.05205918367346941 0  0.004199999999999992 0.05363673469387757 0  0.0
[...]
<PointData  Vectors="displacement"> 
<DataArray  type="Float64"  Name="displacement"  NumberOfComponents="3" format="ascii">0.0000000000000000e+00 0.0000000000000000e+00 0.0000000000000000e+00  0.0000000000000000e+00 0.0000000000000000e+00 0.0000000000000000e+00  2.5570864861554271e-05 -2.1390147831943312e-04 0.0000000000000000e+00  -2.5306722882742338e-05 -2.1385028444814602e-04 0.0000000000000000e+00  0.0000000000000000e+00 0.0000000000000000e+00 0.0000000000000000e+00  0.0000000000000000e+00 0.0000000000000000e+00 0.0000000000000000e+00  0.0000000000000000e+00 0.0000000000000000e+00 0.0000000000000000e+00  0.0000000000000000e+00 0.0000000000000000e+00 0.0000000000000000e+00  0.0000000000000000e+00 0.0000000000000000e+00 0.0000000000000000e+00  0.0000000000000000e+00 0.0000000000000000e+00 0.0000000000000000e+00  0.0000000000000000e+00 0.0000000000000000e+00 0.0000000000000000e+00  0.0000000000000000e+00 0.0000000000000000e+00 0.0000000000000000e+00  0.0000000000000000e+00 0.0000000000000000e+00 0.0000000000000000e+00  0.0000000000000000e+00 0.0000000000000000e+00 0.0000000000000000e+00  0.0000000000000000e+00 0.0000000000000000e+00 0.0000000000000000e+00  0.0000000000000000e+00 0.0000000000000000e+00 0.0000000000000000e+00  0.0000000000000000e+00 0.0000000000000000e+00 0.0000000000000000e+00  0.0000000000000000e+00 0.0000000000000000e+00 0.0000000000000000e+00  0.0000000000000000e+00 0.0000000000000000e+00 0.0000000000000000e+00  0.0000000000000000e+00 0.0000000000000000e+00 0.0000000000000000e+00  0.0000000000000000e+00 0.0000000000000000e+00 0.0000000000000000e+00  0.0000000000000000e+00 0.0000000000000000e+00 0.0000000000000000e+00  0.0000000000000000e+00 0.0000000000000000e+00 0.0000000000000000e+00  0.0000000000000000e+00 0.0000000000000000e+00 0.0000000000000000e+00  0.0000000000000000e+00 0.0000000000000000e+00 0.0000000000000000e+00  0.0000000000000000e+00 0.0000000000000000e+00 0.0000000000000000e+00  0.0000000000000000e+00 0.0000000000000000e+00 0.0000000000000000e+00  8.3057925471548735e-06 -7.5981683931329083e-06 0.0000000000000000e+00  1.2888091230961969e-05 -1.2201810515281887e-05 0.0000000000000000e+00  1.6114372131151403e-05 -1.6248901546086870e-05 0.0000000000000000e+00  1.8534260517949521e-05 -2.0098897066467113e-05 0.0000000000000000e+00  2.0385335499371715e-05 -2.3876877250525765e-05 0.0000000000000000e+00  2.1807264063358192e-05 -2.7648037119520962e-05 0.0000000000000000e+00  2.2897076208068787e-05 -3.1448014736110066e-05 0.0000000000000000e+00  2.3726882961786053e-05 -3.5295854087896984e-05 0.0000000000000000e+00  2.4352271893084236e-05 -3.9200840016116423e-05 0.0000000000000000e+00  2.4817050173383219e-05 -4.3166261181151156e-05 0.0000000000000000e+00  2.5156170764632928e-05 -4.7191640169574370e-05 0.0000000000000000e+00  2.5397678894249493e-05 -5.1274150348920885e-05 0.0000000000000000e+00  2.5564096476601445e-05 -5.5409561100025625e-05 0.0000000000000000e+00  2.5673462924141714e-05 -5.9592886516392029e-05 0.0000000000000000e+00  2.5740151815094165e-05 -6.3818835094178980e-05 0.0000000000000000e+00  2.5775531473581168e-05 -6.8082119260750448e-05 0.0000000000000000e+00  2.5788509860414675e-05 -7.2377663055363532e-05 0.0000000000000000e+00  2.5785988955945701e-05 -7.6700734633035957e-05 0.0000000000000000e+00  2.5773245326690703e-05 -8.1047023150032318e-05 0.0000000000000000e+00  2.5754248771576114e-05 -8.5412674878885376e-05 0.0000000000000000e+00  2.5731928177316976e-05 -8.9794300033837240e-05 0.0000000000000000e+00  2.5708392047726204e-05 -9.4188959230671836e-05 0.0000000000000000e+00  2.5685110091290040e-05 -9.8594136484846115e-05 0.0000000000000000e+00  2.5663061471452757e-05 -1.0300770402349644e-04 0.0000000000000000e+00  2.5642854694588473e-05 -1.0742788286720133e-04 0.0000000000000000e+00  2.5624823556956081e-05 -1.1185320207255967e-04 0.0000000000000000e+00  2.5609103060817318e-05 -1.1628245867677276e-04 0.0000000000000000e+00  2.5595688729692921e-05 -1.2071467971733997e-04 0.0000000000000000e+00  2.5584482301977050e-05 -1.2514908718455552e-04 0.0000000000000000e+00  2.5575326363288575e-05 -1.2958506637563561e-04 0.0000000000000000e+00  2.5568030094133921e-05 -1.3402213783373772e-04 0.0000000000000000e+00  2.5562387963013895e-05 -1.3845993285247667e-04 0.0000000000000000e+00  2.5558192886976490e-05 -1.4289817238922513e-04 0.0000000000000000e+00  2.5555245111464584e-05 -1.4733664914367732e-04 0.0000000000000000e+00  2.5553357827591502e-05 -1.5177521250962870e-04 0.0000000000000000e+00  2.5552360345433639e-05 -1.5621375608775649e-04 0.0000000000000000e+00  2.5552099473766679e-05 -1.6065220744753293e-04 0.0000000000000000e+00  2.5552439616952371e-05 -1.6509051984129846e-04 0.0000000000000000e+00  2.5553261985633428e-05 -1.6952866559849408e-04 0.0000000000000000e+00  2.5554463227243706e-05 -1.7396663096014511e-04 0.0000000000000000e+00  2.5555953713858716e-05 -1.7840441215113235e-04 0.0000000000000000e+00  2.5557655679291771e-05 -1.8284201253005480e-04 0.0000000000000000e+00  2.5559501379011686e-05 -1.8727944070419511e-04 0.0000000000000000e+00  2.5561431467577918e-05 -1.9171670955171822e-04 0.0000000000000000e+00  2.5563393878246824e-05 -1.9615383615637847e-04 0.0000000000000000e+00  2.5565343723205883e-05 -2.0059084273102643e-04 0.0000000000000000e+00  2.5567245349792062e-05 -2.0502775864003698e-04 0.0000000000000000e+00  2.5569079692292965e-05 -2.0946462295341325e-04 0.0000000000000000e+00  2.3450667040744265e-05 -2.1389990311810610e-04 0.0000000000000000e+00  2.1330473030994282e-05 -2.1389836231992186e-04 0.0000000000000000e+00  1.9210311786092489e-05 -2.1389687329573403e-04 0.0000000000000000e+00  1.7090210451000103e-05 -2.1389542447561191e-04 0.0000000000000000e+00  1.4970186459444375e-05 -2.1389399100959084e-04 0.0000000000000000e+00  1.2850247973377017e-05 -2.1389254296163223e-04 0.0000000000000000e+00  1.0730395399699555e-05 -2.1389104974589199e-04 0.0000000000000000e+00  8.6106229053750490e-06 -2.1388948278859107e-04 0.0000000000000000e+00  6.4909197861802981e-06 -2.1388781719924299e-04 0.0000000000000000e+00  4.3712716767258396e-06 -2.1388603282593879e-04 0.0000000000000000e+00  2.2516616130299019e-06 -2.1388411490783345e-04 0.0000000000000000e+00  1.3207097219664224e-07 -2.1388205445857034e-04 0.0000000000000000e+00  -1.9875196758786742e-06 -2.1387984846508711e-04 0.0000000000000000e+00  -4.1071297626076032e-06 -2.1387749994925456e-04 0.0000000000000000e+00  -6.2267779147044497e-06 -2.1387501790774498e-04 0.0000000000000000e+00  -8.3464811021885858e-06 -2.1387241711476830e-04 0.0000000000000000e+00  -1.0466253698248777e-05 -2.1386971774028043e-04 0.0000000000000000e+00  -1.2586106416106088e-05 -2.1386694469917794e-04 0.0000000000000000e+00  -1.4706045098484525e-05 -2.1386412659724270e-04 0.0000000000000000e+00  -1.6826069348820572e-05 -2.1386129405789826e-04 0.0000000000000000e+00  -1.8946171016641686e-05 -2.1385847704313133e-04 0.0000000000000000e+00  -2.1066332664983418e-05 -2.1385570034816227e-04 0.0000000000000000e+00  -2.3186526971780944e-05 -2.1385297537793719e-04 0.0000000000000000e+00  -2.5309745353852665e-05 -2.0941342759604002e-04 0.0000000000000000e+00  -2.5312718650886922e-05 -2.0497656356714277e-04 0.0000000000000000e+00  -2.5315624929902163e-05 -2.0053964785887238e-04 0.0000000000000000e+00  -2.5318482883769002e-05 -1.9610264142025553e-04 0.0000000000000000e+00  -2.5321328141506416e-05 -1.9166551490757772e-04 0.0000000000000000e+00  -2.5324205649409509e-05 -1.8722824612741419e-04 0.0000000000000000e+00  -2.5327167520592392e-05 -1.8279081801309135e-04 0.0000000000000000e+00  -2.5330273127267374e-05 -1.7835321770167206e-04 0.0000000000000000e+00  -2.5333590225241833e-05 -1.7391543660045885e-04 0.0000000000000000e+00  -2.5337196579825129e-05 -1.6947747136601126e-04 0.0000000000000000e+00  -2.5341181807420505e-05 -1.6503932579024259e-04 0.0000000000000000e+00  -2.5345649238464031e-05 -1.6060101365151605e-04 0.0000000000000000e+00  -2.5350717628496313e-05 -1.5616256264332099e-04 0.0000000000000000e+00  -2.5356522525688224e-05 -1.5172401954079780e-04 0.0000000000000000e+00  -2.5363217057402967e-05 -1.4728545680765486e-04 0.0000000000000000e+00  -2.5370971829834982e-05 -1.4284698088347210e-04 0.0000000000000000e+00  -2.5379973544040985e-05 -1.3840874242351421e-04 0.0000000000000000e+00  -2.5390421817589646e-05 -1.3397094878817982e-04 0.0000000000000000e+00  -2.5402523561282506e-05 -1.2953387909417523e-04 0.0000000000000000e+00  -2.5416484092144292e-05 -1.2509790213992370e-04 0.0000000000000000e+00  -2.5432493964213018e-05 -1.2066349749766491e-04 0.0000000000000000e+00  -2.5450710264750635e-05 -1.1623128001629683e-04 0.0000000000000000e+00  -2.5471230853006854e-05 -1.1180202789236361e-04 0.0000000000000000e+00  -2.5494059710067149e-05 -1.0737671432943699e-04 0.0000000000000000e+00  -2.5519061221131467e-05 -1.0295654260363730e-04 0.0000000000000000e+00  -2.5545900826673628e-05 -9.8542984067589954e-05 0.0000000000000000e+00  -2.5573969058519038e-05 -9.4137818236229027e-05 0.0000000000000000e+00  -2.5602285523855684e-05 -8.9743173582194975e-05 0.0000000000000000e+00  -2.5629378916838347e-05 -8.5361566999833638e-05 0.0000000000000000e+00  -2.5653138621933769e-05 -8.0995939045583567e-05 0.0000000000000000e+00  -2.5670632913481264e-05 -7.6649680995320550e-05 0.0000000000000000e+00  -2.5677888118305709e-05 -7.2326648435499833e-05 0.0000000000000000e+00  -2.5669622317216884e-05 -6.8031154470180150e-05 0.0000000000000000e+00  -2.5638926065518677e-05 -6.3767933596002048e-05 0.0000000000000000e+00  -2.5576880926621861e-05 -5.9542064725164776e-05 0.0000000000000000e+00  -2.5472103815975771e-05 -5.5358838446675804e-05 0.0000000000000000e+00  -2.5310200311691028e-05 -5.1223548871314217e-05 0.0000000000000000e+00  -2.5073101531595508e-05 -4.7141183241056926e-05 0.0000000000000000e+00  -2.4738243863178639e-05 -4.3115970761752237e-05 0.0000000000000000e+00  -2.4277523058147940e-05 -3.9150731465208549e-05 0.0000000000000000e+00  -2.3655902754089415e-05 -3.5245927068855093e-05 0.0000000000000000e+00  -2.2829459040601732e-05 -3.1398238037848791e-05 0.0000000000000000e+00  -2.1742446749892728e-05 -2.7598324511627777e-05 0.0000000000000000e+00  -2.0322571090434592e-05 -2.3827057274831488e-05 0.0000000000000000e+00  -1.8472754766540238e-05 -2.0048769829502996e-05 0.0000000000000000e+00  -1.6054444133064018e-05 -1.6199014605234365e-05 0.0000000000000000e+00  -1.2836195904585721e-05 -1.2154001079554053e-05 0.0000000000000000e+00  -8.2703177056761834e-06 -7.4925070778290132e-06 0.0000000000000000e+00  -5.8189658744186903e-06 -4.4661578032163077e-06 0.0000000000000000e+00  -1.0634906463644356e-05 -9.4197814406422691e-06 0.0000000000000000e+00  -1.4053494088772211e-05 -1.3998788814379476e-05 0.0000000000000000e+00  -1.6561223916806530e-05 -1.8291465598758646e-05 0.0000000000000000e+00  -1.8446311786407635e-05 -2.2428837888816482e-05 0.0000000000000000e+00  -1.9873967320693311e-05 -2.6491662248610965e-05 0.0000000000000000e+00  -2.0953473459000454e-05 -3.0528159856670920e-05 0.0000000000000000e+00  -2.1763821115005750e-05 -3.4567502689447979e-05 0.0000000000000000e+00  -2.2364826847609303e-05 -3.8627090484334165e-05 0.0000000000000000e+00  -2.2803000404995717e-05 -4.2716760774953826e-05 0.0000000000000000e+00  -2.3115043915516007e-05 -4.6841391330007184e-05 0.0000000000000000e+00  -2.3330124722197392e-05 -5.1002587430065824e-05 0.0000000000000000e+00  -2.3471459935790201e-05 -5.5199816799875943e-05 0.0000000000000000e+00  -2.3557487743871477e-05 -5.9431193148051881e-05 0.0000000000000000e+00  -2.3602773522832144e-05 -6.3694025138056557e-05 0.0000000000000000e+00  -2.3618734018512475e-05 -6.7985202359586817e-05 0.0000000000000000e+00  -2.3614228535887376e-05 -7.2301464578358881e-05 0.0000000000000000e+00  -2.3596047409388558e-05 -7.6639585762619571e-05 0.0000000000000000e+00  -2.3569317682158988e-05 -8.0996495296059885e-05 0.0000000000000000e+00  -2.3537840088963762e-05 -8.5369352877467293e-05 0.0000000000000000e+00  -2.3504368058337474e-05 -8.9755589543162142e-05 0.0000000000000000e+00  -2.3470837397576097e-05 -9.4152924307532371e-05 0.0000000000000000e+00  -2.3438553979561343e-05 -9.8559363701791763e-05 0.0000000000000000e+00  -2.3408345776728383e-05 -1.0297318977546041e-04 0.0000000000000000e+00  -2.3380684807508283e-05 -1.0739294077504708e-04 0.0000000000000000e+00  -2.3355783885630075e-05 -1.1181738764543942e-04 0.0000000000000000e+00  -2.3333672452029785e-05 -1.1624550865403080e-04 0.0000000000000000e+00  -2.3314255206839098e-05 -1.2067646377323461e-04 0.0000000000000000e+00  -2.3297356740723673e-05 -1.2510956994053540e-04 0.0000000000000000e+00  -2.3282754891054718e-05 -1.2954427791936723e-04 0.0000000000000000e+00  -2.3270205120363805e-05 -1.3398015118609911e-04 0.0000000000000000e+00  -2.3259457832954544e-05 -1.3841684704903658e-04 0.0000000000000000e+00  -2.3250270209970114e-05 -1.4285410004840894e-04 0.0000000000000000e+00  -2.3242413851914864e-05 -1.4729170757831609e-04 0.0000000000000000e+00  -2.3235679267967842e-05 -1.5172951760137923e-04 0.0000000000000000e+00  -2.3229878040072579e-05 -1.5616741828529203e-04 0.0000000000000000e+00  -2.3224843313044650e-05 -1.6060532937029319e-04 0.0000000000000000e+00  -2.3220429116145874e-05 -1.6504319507202109e-04 0.0000000000000000e+00  -2.3216508903284729e-05 -1.6948097833077911e-04 0.0000000000000000e+00  -2.3212973605413650e-05 -1.7391865623246074e-04 0.0000000000000000e+00  -2.3209729418174818e-05 -1.7835621644554607e-04 0.0000000000000000e+00  -2.3206695500866684e-05 -1.8279365454022551e-04 0.0000000000000000e+00  -2.3203801743967949e-05 -1.8723097207686839e-04 0.0000000000000000e+00  -2.3200986785507661e-05 -1.9166817536645314e-04 0.0000000000000000e+00  -2.3198196557260896e-05 -1.9610527480300050e-04 0.0000000000000000e+00  -2.3195383915355799e-05 -2.0054228461511959e-04 0.0000000000000000e+00  -2.3192510599900496e-05 -2.0497922272250709e-04 0.0000000000000000e+00  -2.3189554311707498e-05 -2.0941611044786841e-04 0.0000000000000000e+00  -4.4789887129254974e-06 -3.6399979509820558e-06 0.0000000000000000e+00  -8.6938925127374047e-06 -7.9601843148457566e-06 0.0000000000000000e+00  -1.2033410544835379e-05 -1.2446966783507255e-05 0.0000000000000000e+00  -1.4563587044759198e-05 -1.6865799906776591e-05 0.0000000000000000e+00  -1.6472903107973906e-05 -2.1189082918584257e-05 0.0000000000000000e+00  -1.7913113953946532e-05 -2.5442331439197435e-05 0.0000000000000000e+00  -1.8994731222767803e-05 -2.9654910087988309e-05 0.0000000000000000e+00  -1.9799720247937769e-05 -3.3850026660022764e-05 0.0000000000000000e+00  -2.0390545418430045e-05 -3.8044123017581206e-05 0.0000000000000000e+00  -2.0815754232137157e-05 -4.2248105212517219e-05 0.0000000000000000e+00  -2.1113530486032058e-05 -4.6468709043006711e-05 0.0000000000000000e+00  -2.1314079296559492e-05 -5.0709643941458152e-05 0.0000000000000000e+00  -2.1441317001611667e-05 -5.4972480491721953e-05 0.0000000000000000e+00  -2.1514128305964131e-05 -5.9257319834302846e-05 0.0000000000000000e+00  -2.1547339433119919e-05 -6.3563291603883253e-05 0.0000000000000000e+00  -2.1552493928036241e-05 -6.7888920281137182e-05 0.0000000000000000e+00  -2.1538483336691525e-05 -7.2232391270394782e-05 0.0000000000000000e+00  -2.1512065697310605e-05 -7.6591740762626504e-05 0.0000000000000000e+00  -2.1478293843201446e-05 -8.0964987851905642e-05 0.0000000000000000e+00  -2.1440869222052542e-05 -8.5350223147159077e-05 0.0000000000000000e+00  -2.1402433211961329e-05 -8.9745664909219997e-05 0.0000000000000000e+00  -2.1364805601925312e-05 -9.4149691270260593e-05 0.0000000000000000e+00  -2.1329178358483451e-05 -9.8560855163629124e-05 0.0000000000000000e+00  -2.1296271666809512e-05 -1.0297788707263491e-04 0.0000000000000000e+00  -2.1266458325495167e-05 -1.0739968950351562e-04 0.0000000000000000e+00  -2.1239861793761327e-05 -1.1182532613374250e-04 0.0000000000000000e+00  -2.1216432492566352e-05 -1.1625400783221051e-04 0.0000000000000000e+00  -2.1196006327745953e-05 -1.2068507715429906e-04 0.0000000000000000e+00  -2.1178348827154146e-05 -1.2511799245172383e-04 0.0000000000000000e+00  -2.1163187763060366e-05 -1.2955231237969851e-04 0.0000000000000000e+00  -2.1150236665375678e-05 -1.3398768131173033e-04 0.0000000000000000e+00  -2.1139211219863396e-05 -1.3842381596844888e-04 0.0000000000000000e+00  -2.1129840186506641e-05 -1.4286049341721258e-04 0.0000000000000000e+00  -2.1121872163844638e-05 -1.4729754049225375e-04 0.0000000000000000e+00  -2.1115079261667505e-05 -1.5173482461132136e-04 0.0000000000000000e+00  -2.1109258522841840e-05 -1.5617224591640610e-04 0.0000000000000000e+00  -2.1104231750789555e-05 -1.6060973063695885e-04 0.0000000000000000e+00  -2.1099844248032485e-05 -1.6504722555894674e-04 0.0000000000000000e+00  -2.1095962849301605e-05 -1.6948469347812187e-04 0.0000000000000000e+00  -2.1092473536871642e-05 -1.7392210951766170e-04 0.0000000000000000e+00  -2.1089278854093470e-05 -1.7835945819601214e-04 0.0000000000000000e+00  -2.1086295285857788e-05 -1.8279673113766231e-04 0.0000000000000000e+00  -2.1083450756165101e-05 -1.8723392532500632e-04 0.0000000000000000e+00  -2.1080682414916979e-05 -1.9167104179115515e-04 0.0000000000000000e+00  -2.1077934974479859e-05 -1.9610808465465480e-04 0.0000000000000000e+00  -2.1075160057584208e-05 -2.0054506043433494e-04 0.0000000000000000e+00  -2.1072317354389513e-05 -2.0498197785974258e-04 0.0000000000000000e+00  -2.1069378472523379e-05 -2.0941884962445684e-04 0.0000000000000000e+00  -3.6337103624528739e-06 -3.3278082299885588e-06 0.0000000000000000e+00  -7.1782958836328174e-06 -7.2258634655763776e-06 0.0000000000000000e+00  -1.0209161160183024e-05 -1.1461393610583508e-05 0.0000000000000000e+00  -1.2625454091492564e-05 -1.5813912321275301e-05 0.0000000000000000e+00  -1.4494360083206244e-05 -2.0178518335388563e-05 0.0000000000000000e+00  -1.5918243434509075e-05 -2.4523115008573068e-05 0.0000000000000000e+00  -1.6990290603700370e-05 -2.8845437838212639e-05 0.0000000000000000e+00  -1.7786772757972014e-05 -3.3152529715044049e-05 0.0000000000000000e+00  -1.8368583822308705e-05 -3.7452833940470255e-05 0.0000000000000000e+00  -1.8784141922471003e-05 -4.1753545217060591e-05 0.0000000000000000e+00  -1.9071948140254501e-05 -4.6059974267762468e-05 0.0000000000000000e+00  -1.9262598681415453e-05 -5.0375639588276524e-05 0.0000000000000000e+00  -1.9380343324582343e-05 -5.4702584522089516e-05 0.0000000000000000e+00  -1.9444307161061301e-05 -5.9041727042728748e-05 0.0000000000000000e+00  -1.9469465796647932e-05 -6.3393173033001780e-05 0.0000000000000000e+00  -1.9467436261366400e-05 -6.7756473389423601e-05 0.0000000000000000e+00  -1.9447125627681521e-05 -7.2130824750431228e-05 0.0000000000000000e+00  -1.9415266152590143e-05 -7.6515220657811774e-05 0.0000000000000000e+00  -1.9376857514963211e-05 -8.0908561790656088e-05 0.0000000000000000e+00  -1.9335531606348050e-05 -8.5309733645108049e-05 0.0000000000000000e+00  -1.9293852102244998e-05 -8.9717659001677645e-05 0.0000000000000000e+00  -1.9253558902382535e-05 -9.4131331299357167e-05 0.0000000000000000e+00  -1.9215766009918156e-05 -9.8549833862613976e-05 0.0000000000000000e+00  -1.9181120249901926e-05 -1.0297234889386496e-04 0.0000000000000000e+00  -1.9149927258682935e-05 -1.0739815927338012e-04 0.0000000000000000e+00  -1.9122250331700973e-05 -1.1182664549462932e-04 0.0000000000000000e+00  -1.9097986960618531e-05 -1.1625727948841551e-04 0.0000000000000000e+00  -1.9076927206099543e-05 -1.2068961663311906e-04 0.0000000000000000e+00  -1.9058797433672425e-05 -1.2512328689094456e-04 0.0000000000000000e+00  -1.9043292384836513e-05 -1.2955798573321362e-04 0.0000000000000000e+00  -1.9030098062479414e-05 -1.3399346530594395e-04 0.0000000000000000e+00  -1.9018907476871263e-05 -1.3842952612716462e-04 0.0000000000000000e+00  -1.9009430923101690e-05 -1.4286600948880924e-04 0.0000000000000000e+00  -1.9001402139050070e-05 -1.4730279064973235e-04 0.0000000000000000e+00  -1.8994581420358048e-05 -1.5173977284517657e-04 0.0000000000000000e+00  -1.8988756540552307e-05 -1.5617688209602199