<?xml version="1.0"?>
<VTKFile type="UnstructuredGrid"  version="0.1"  >
<UnstructuredGrid>
<Piece  NumberOfPoints="1250" NumberOfCells="2352">
<Points>
<DataArray  type="Float64"  NumberOfComponents="3"  format="ascii">0 0 0  0.0336 0 0  0.0336 0.07729999999999999 0  0 0.07729999999999999 0  0.001400000000000002 0 0  0.002800000000000005 0 0  0.004200000000000008 0 0  0.005600000000000009 0 0  0.007000000000000011 0 0  0.008400000000000013 0 0  0.009800000000000019 0 0  0.01120000000000002 0 0  0.01260000000000003 0 0  0.01400000000000003 0 0  0.01540000000000004 0 0  0.01680000000000005 0 0  0.01820000000000004 0 0  0.01960000000000004 0 0  0.02100000000000004 0 0  0.02240000000000003 0 0  0.02380000000000003 0 0  0.02520000000000002 0 0  0.02660000000000002 0 0  0.02800000000000001 0 0  0.02940000000000001 0 0  0.03080000000000001 0 0  0.0322 0 0  0.0336 0.001577551020408161 0  0.0336 0.003155102040816321 0  0.0336 0.004732653061224482 0  0.0336 0.006310204081632642 0  0.0336 0.007887755102040803 0  0.0336 0.009465306122448964 0  0.0336 0.01104285714285712 0  0.0336 0.01262040816326528 0  0.0336 0.01419795918367344 0  0.0336 0.0157755102040816 0  0.0336 0.01735306122448976 0  0.0336 0.01893061224489792 0  0.0336 0.02050816326530608 0  0.0336 0.02208571428571425 0  0.0336 0.02366326530612241 0  0.0336 0.02524081632653058 0  0.0336 0.02681836734693874 0  0.0336 0.02839591836734691 0  0.0336 0.02997346938775507 0  0.0336 0.03155102040816323 0  0.0336 0.0331285714285714 0  0.0336 0.03470612244897956 0  0.0336 0.03628367346938772 0  0.0336 0.03786122448979588 0  0.0336 0.03943877551020405 0  0.0336 0.04101632653061221 0  0.0336 0.04259387755102037 0  0.0336 0.04417142857142854 0  0.0336 0.04574897959183671 0  0.0336 0.04732653061224486 0  0.0336 0.04890408163265302 0  0.0336 0.05048163265306119 0  0.0336 0.05205918367346936 0  0.0336 0.05363673469387752 0  0.0336 0.05521428571428568 0  0.0336 0.05679183673469385 0  0.0336 0.05836938775510202 0  0.0336 0.05994693877551018 0  0.0336 0.06152448979591834 0  0.0336 0.0631020408163265 0  0.0336 0.06467959183673468 0  0.0336 0.06625714285714283 0  0.0336 0.06783469387755101 0  0.0336 0.06941224489795916 0  0.0336 0.07098979591836733 0  0.0336 0.07256734693877549 0  0.0336 0.07414489795918365 0  0.0336 0.07572244897959182 0  0.03219999999999999 0.07729999999999999 0  0.03079999999999999 0.07729999999999999 0  0.02939999999999999 0.07729999999999999 0  0.02799999999999999 0.07729999999999999 0  0.02659999999999999 0.07729999999999999 0  0.02519999999999999 0.07729999999999999 0  0.02379999999999998 0.07729999999999999 0  0.02239999999999998 0.07729999999999999 0  0.02099999999999997 0.07729999999999999 0  0.01959999999999996 0.07729999999999999 0  0.01819999999999996 0.07729999999999999 0  0.01679999999999995 0.07729999999999999 0  0.01539999999999996 0.07729999999999999 0  0.01399999999999996 0.07729999999999999 0  0.01259999999999996 0.07729999999999999 0  0.01119999999999997 0.07729999999999999 0  0.009799999999999972 0.07729999999999999 0  0.008399999999999977 0.07729999999999999 0  0.006999999999999978 0.07729999999999999 0  0.005599999999999983 0.07729999999999999 0  0.004199999999999988 0.07729999999999999 0  0.00279999999999999 0.07729999999999999 0  0.001399999999999998 0.07729999999999999 0  0 0.07572244897959184 0  0 0.07414489795918368 0  0 0.07256734693877551 0  0 0.07098979591836735 0  0 0.06941224489795919 0  0 0.06783469387755103 0  0 0.06625714285714288 0  0 0.06467959183673472 0  0 0.06310204081632656 0  0 0.0615244897959184 0  0 0.05994693877551023 0  0 0.05836938775510207 0  0 0.05679183673469392 0  0 0.05521428571428574 0  0 0.05363673469387759 0  0 0.05205918367346941 0  0 0.05048163265306126 0  0 0.04890408163265308 0  0 0.04732653061224493 0  0 0.04574897959183676 0  0 0.0441714285714286 0  0 0.04259387755102043 0  0 0.04101632653061228 0  0 0.03943877551020411 0  0 0.03786122448979595 0  0 0.03628367346938779 0  0 0.03470612244897962 0  0 0.03312857142857146 0  0 0.03155102040816329 0  0 0.02997346938775513 0  0 0.02839591836734697 0  0 0.0268183673469388 0  0 0.02524081632653064 0  0 0.02366326530612247 0  0 0.02208571428571431 0  0 0.02050816326530614 0  0 0.01893061224489798 0  0 0.01735306122448981 0  0 0.01577551020408165 0  0 0.01419795918367349 0  0 0.01262040816326532 0  0 0.01104285714285716 0  0 0.009465306122448988 0  0 0.00788775510204083 0  0 0.006310204081632659 0  0 0.004732653061224501 0  0 0.003155102040816343 0  0 0.001577551020408172 0  0.001400000000000004 0.001577551020408172 0  0.001400000000000004 0.003155102040816329 0  0.001400000000000002 0.004732653061224501 0  0.001400000000000002 0.006310204081632645 0  0.001400000000000005 0.007887755102040823 0  0.001400000000000002 0.009465306122448981 0  0.001400000000000002 0.01104285714285717 0  0.001400000000000004 0.01262040816326531 0  0.0014 0.01419795918367349 0  0.001400000000000002 0.01577551020408166 0  0.001400000000000005 0.0173530612244898 0  0.001400000000000002 0.01893061224489797 0  0.001400000000000002 0.02050816326530613 0  0.001400000000000002 0.02208571428571431 0  0.001400000000000002 0.02366326530612247 0  0.001400000000000002 0.02524081632653063 0  0.001400000000000002 0.0268183673469388 0  0.001400000000000002 0.02839591836734696 0  0.001400000000000002 0.02997346938775513 0  0.001400000000000002 0.03155102040816328 0  0.001400000000000002 0.03312857142857147 0  0.001399999999999997 0.03470612244897962 0  0.001400000000000005 0.03628367346938778 0  0.001400000000000002 0.03786122448979594 0  0.001400000000000002 0.03943877551020411 0  0.001400000000000002 0.04101632653061228 0  0.001400000000000002 0.04259387755102043 0  0.001400000000000002 0.0441714285714286 0  0.0014 0.04574897959183676 0  0.001400000000000002 0.04732653061224492 0  0.001400000000000004 0.04890408163265308 0  0.001400000000000002 0.05048163265306126 0  0.001400000000000002 0.05205918367346941 0  0.0014 0.05363673469387758 0  0.001400000000000004 0.05521428571428574 0  0.001399999999999998 0.05679183673469391 0  0.001400000000000002 0.05836938775510207 0  0.0014 0.05994693877551023 0  0.001400000000000002 0.0615244897959184 0  0.001400000000000002 0.06310204081632656 0  0.001400000000000002 0.06467959183673472 0  0.0014 0.06625714285714286 0  0.001400000000000002 0.06783469387755102 0  0.001399999999999998 0.06941224489795919 0  0.001400000000000002 0.07098979591836735 0  0.0014 0.07256734693877552 0  0.001400000000000002 0.07414489795918368 0  0.001400000000000002 0.07572244897959184 0  0.002800000000000006 0.001577551020408165 0  0.002800000000000004 0.003155102040816343 0  0.002800000000000002 0.004732653061224487 0  0.002800000000000002 0.006310204081632652 0  0.002800000000000002 0.007887755102040813 0  0.0028 0.009465306122448981 0  0.002799999999999997 0.01104285714285715 0  0.0028 0.01262040816326532 0  0.0028 0.01419795918367348 0  0.0028 0.01577551020408165 0  0.002799999999999997 0.0173530612244898 0  0.0028 0.01893061224489797 0  0.002800000000000004 0.02050816326530613 0  0.0028 0.0220857142857143 0  0.0028 0.02366326530612247 0  0.002800000000000004 0.02524081632653064 0  0.0028 0.0268183673469388 0  0.0028 0.02839591836734696 0  0.002799999999999995 0.02997346938775512 0  0.002799999999999997 0.03155102040816328 0  0.002799999999999995 0.03312857142857146 0  0.0028 0.03470612244897962 0  0.002799999999999995 0.03628367346938778 0  0.002799999999999997 0.03786122448979594 0  0.002799999999999997 0.03943877551020411 0  0.002799999999999997 0.04101632653061228 0  0.002799999999999997 0.04259387755102043 0  0.002799999999999995 0.0441714285714286 0  0.002799999999999997 0.04574897959183676 0  0.002799999999999997 0.04732653061224493 0  0.002799999999999995 0.04890408163265308 0  0.002799999999999993 0.05048163265306124 0  0.002799999999999995 0.05205918367346941 0  0.002799999999999995 0.05363673469387757 0  0.002799999999999992 0.05521428571428574 0  0.002799999999999997 0.05679183673469391 0  0.002799999999999993 0.05836938775510207 0  0.002799999999999993 0.05994693877551022 0  0.002799999999999992 0.0615244897959184 0  0.002799999999999988 0.06310204081632655 0  0.002799999999999992 0.0646795918367347 0  0.002799999999999992 0.06625714285714286 0  0.00279999999999999 0.06783469387755103 0  0.00279999999999999 0.06941224489795919 0  0.002799999999999988 0.07098979591836735 0  0.00279999999999999 0.07256734693877552 0  0.002799999999999988 0.07414489795918368 0  0.00279999999999999 0.07572244897959184 0  0.004200000000000006 0.001577551020408172 0  0.004200000000000006 0.003155102040816329 0  0.004200000000000008 0.00473265306122448 0  0.004200000000000009 0.006310204081632652 0  0.004200000000000008 0.00788775510204082 0  0.004200000000000008 0.009465306122448978 0  0.004200000000000006 0.01104285714285716 0  0.004200000000000006 0.01262040816326532 0  0.004200000000000004 0.01419795918367349 0  0.004200000000000002 0.01577551020408165 0  0.004200000000000004 0.0173530612244898 0  0.004200000000000006 0.01893061224489797 0  0.004200000000000006 0.02050816326530613 0  0.004200000000000002 0.0220857142857143 0  0.004200000000000004 0.02366326530612247 0  0.004199999999999999 0.02524081632653062 0  0.004200000000000004 0.0268183673469388 0  0.004200000000000004 0.02839591836734696 0  0.004200000000000002 0.02997346938775512 0  0.004199999999999999 0.03155102040816328 0  0.004200000000000001 0.03312857142857145 0  0.004200000000000001 0.03470612244897962 0  0.004199999999999995 0.03628367346938778 0  0.004199999999999999 0.03786122448979594 0  0.004199999999999999 0.0394387755102041 0  0.004199999999999997 0.04101632653061227 0  0.004199999999999999 0.04259387755102043 0  0.004199999999999999 0.04417142857142859 0  0.004199999999999999 0.04574897959183676 0  0.004199999999999999 0.04732653061224492 0  0.004199999999999997 0.04890408163265308 0  0.004199999999999997 0.05048163265306124 0  0.004199999999999999 0.05205918367346941 0  0.004199999999999992 0.05363673469387757 0  0.0
[...]
<PointData  Vectors="displacement"> 
<DataArray  type="Float64"  Name="displacement"  NumberOfComponents="3" format="ascii">0.0000000000000000e+00 0.0000000000000000e+00 0.0000000000000000e+00  0.0000000000000000e+00 0.0000000000000000e+00 0.0000000000000000e+00  5.6511611348570093e-03 -4.7272226708732941e-02 0.0000000000000000e+00  -5.5927857566323768e-03 -4.7260912862948389e-02 0.0000000000000000e+00  0.0000000000000000e+00 0.0000000000000000e+00 0.0000000000000000e+00  0.0000000000000000e+00 0.0000000000000000e+00 0.0000000000000000e+00  0.0000000000000000e+00 0.0000000000000000e+00 0.0000000000000000e+00  0.0000000000000000e+00 0.0000000000000000e+00 0.0000000000000000e+00  0.0000000000000000e+00 0.0000000000000000e+00 0.0000000000000000e+00  0.0000000000000000e+00 0.0000000000000000e+00 0.0000000000000000e+00  0.0000000000000000e+00 0.0000000000000000e+00 0.0000000000000000e+00  0.0000000000000000e+00 0.0000000000000000e+00 0.0000000000000000e+00  0.0000000000000000e+00 0.0000000000000000e+00 0.0000000000000000e+00  0.0000000000000000e+00 0.0000000000000000e+00 0.0000000000000000e+00  0.0000000000000000e+00 0.0000000000000000e+00 0.0000000000000000e+00  0.0000000000000000e+00 0.0000000000000000e+00 0.0000000000000000e+00  0.0000000000000000e+00 0.0000000000000000e+00 0.0000000000000000e+00  0.0000000000000000e+00 0.0000000000000000e+00 0.0000000000000000e+00  0.0000000000000000e+00 0.0000000000000000e+00 0.0000000000000000e+00  0.0000000000000000e+00 0.0000000000000000e+00 0.0000000000000000e+00  0.0000000000000000e+00 0.0000000000000000e+00 0.0000000000000000e+00  0.0000000000000000e+00 0.0000000000000000e+00 0.0000000000000000e+00  0.0000000000000000e+00 0.0000000000000000e+00 0.0000000000000000e+00  0.0000000000000000e+00 0.0000000000000000e+00 0.0000000000000000e+00  0.0000000000000000e+00 0.0000000000000000e+00 0.0000000000000000e+00  0.0000000000000000e+00 0.0000000000000000e+00 0.0000000000000000e+00  0.0000000000000000e+00 0.0000000000000000e+00 0.0000000000000000e+00  1.8355801529310646e-03 -1.6791952148921051e-03 0.0000000000000000e+00  2.8482681620581722e-03 -2.6966001238935846e-03 0.0000000000000000e+00  3.5612762410049373e-03 -3.5910072417075500e-03 0.0000000000000000e+00  4.0960715744920865e-03 -4.4418562517174187e-03 0.0000000000000000e+00  4.5051591453911990e-03 -5.2767898724000242e-03 0.0000000000000000e+00  4.8194053580372315e-03 -6.1102162034534805e-03 0.0000000000000000e+00  5.0602538420235748e-03 -6.9500112567250673e-03 0.0000000000000000e+00  5.2436411346007718e-03 -7.8003837534752259e-03 0.0000000000000000e+00  5.3818520884236984e-03 -8.6633856436168777e-03 0.0000000000000000e+00  5.4845680883761445e-03 -9.5397437210945381e-03 0.0000000000000000e+00  5.5595137390490809e-03 -1.0429352477540886e-02 0.0000000000000000e+00  5.6128870357014232e-03 -1.1331587227181111e-02 0.0000000000000000e+00  5.6496653214086218e-03 -1.2245513003179746e-02 0.0000000000000000e+00  5.6738353063227618e-03 -1.3170027920201033e-02 0.0000000000000000e+00  5.6885735512312730e-03 -1.4103962555896106e-02 0.0000000000000000e+00  5.6963924557651875e-03 -1.5046148356712363e-02 0.0000000000000000e+00  5.6992606792639960e-03 -1.5995463535325771e-02 0.0000000000000000e+00  5.6987035593852728e-03 -1.6950862353995084e-02 0.0000000000000000e+00  5.6958872173290820e-03 -1.7911392116254882e-02 0.0000000000000000e+00  5.6916889786581340e-03 -1.8876201148334795e-02 0.0000000000000000e+00  5.6867561273365027e-03 -1.9844540307582412e-02 0.0000000000000000e+00  5.6815546427067803e-03 -2.0815759990085940e-02 0.0000000000000000e+00  5.6764093303444197e-03 -2.1789304163261282e-02 0.0000000000000000e+00  5.6715365853705572e-03 -2.2764702589305665e-02 0.0000000000000000e+00  5.6670708876938687e-03 -2.3741562113766924e-02 0.0000000000000000e+00  5.6630860062875316e-03 -2.4719557658153469e-02 0.0000000000000000e+00  5.6596117766514412e-03 -2.5698423367686806e-02 0.0000000000000000e+00  5.6566472094836577e-03 -2.6677944217654216e-02 0.0000000000000000e+00  5.6541705889692892e-03 -2.7657948267910751e-02 0.0000000000000000e+00  5.6521471265299850e-03 -2.8638299669141182e-02 0.0000000000000000e+00  5.6505346510578253e-03 -2.9618892461383339e-02 0.0000000000000000e+00  5.6492877400913487e-03 -3.0599645160526167e-02 0.0000000000000000e+00  5.6483606282982093e-03 -3.1580496098148995e-02 0.0000000000000000e+00  5.6477091699212983e-03 -3.2561399460884127e-02 0.0000000000000000e+00  5.6472920801965594e-03 -3.3542321964760521e-02 0.0000000000000000e+00  5.6470716366508588e-03 -3.4523240095527707e-02 0.0000000000000000e+00  5.6470139840235902e-03 -3.5504137846039188e-02 0.0000000000000000e+00  5.6470891556787382e-03 -3.6485004885062081e-02 0.0000000000000000e+00  5.6472708991683902e-03 -3.7465835097402998e-02 0.0000000000000000e+00  5.6475363735754578e-03 -3.8446625442328554e-02 0.0000000000000000e+00  5.6478657711285267e-03 -3.9427375085537293e-02 0.0000000000000000e+00  5.6482419055002668e-03 -4.0408084769279540e-02 0.0000000000000000e+00  5.6486498051494406e-03 -4.1388756395764816e-02 0.0000000000000000e+00  5.6490763547335449e-03 -4.2369392811067698e-02 0.0000000000000000e+00  5.6495100475024438e-03 -4.3349997790697800e-02 0.0000000000000000e+00  5.6499409632492616e-03 -4.4330576243695116e-02 0.0000000000000000e+00  5.6503612227356993e-03 -4.5311134659586493e-02 0.0000000000000000e+00  5.6507666124392709e-03 -4.6291681672842588e-02 0.0000000000000000e+00  5.1825974164579408e-03 -4.7271878589229981e-02 0.0000000000000000e+00  4.7140345403031032e-03 -4.7271538072821688e-02 0.0000000000000000e+00  4.2454789051796799e-03 -4.7271208998466596e-02 0.0000000000000000e+00  3.7769365101241316e-03 -4.7270888809210140e-02 0.0000000000000000e+00  3.3084112079902576e-03 -4.7270572013209979e-02 0.0000000000000000e+00  2.8399048025692856e-03 -4.7270251994601553e-02 0.0000000000000000e+00  2.3714173837864451e-03 -4.7269921993913500e-02 0.0000000000000000e+00  1.9029476625406889e-03 -4.7269575696340653e-02 0.0000000000000000e+00  1.4344932731986454e-03 -4.7269207601085300e-02 0.0000000000000000e+00  9.6605104100920276e-04 -4.7268813254575485e-02 0.0000000000000000e+00  4.9761721693241886e-04 -4.7268389394664781e-02 0.0000000000000000e+00  2.9187685308332540e-05 -4.7267934035368213e-02 0.0000000000000000e+00  -4.3924184791624150e-04 -4.7267446510798679e-02 0.0000000000000000e+00  -9.0767567708330147e-04 -4.7266927488790321e-02 0.0000000000000000e+00  -1.3761179186966141e-03 -4.7266378957607193e-02 0.0000000000000000e+00  -1.8445723231304615e-03 -4.7265804182349824e-02 0.0000000000000000e+00  -2.3130420668596129e-03 -4.7265207620578460e-02 0.0000000000000000e+00  -2.7815295175059431e-03 -4.7264594778485124e-02 0.0000000000000000e+00  -3.2500359663114021e-03 -4.7263971977947718e-02 0.0000000000000000e+00  -3.7185613256355641e-03 -4.7263345986742721e-02 0.0000000000000000e+00  -4.1871037942239836e-03 -4.7262723426469429e-02 0.0000000000000000e+00  -4.6556595185074821e-03 -4.7262109776871411e-02 0.0000000000000000e+00  -5.1242224603098192e-03 -4.7261507558441863e-02 0.0000000000000000e+00  -5.5934537227586992e-03 -4.6280367498632936e-02 0.0000000000000000e+00  -5.5941108214143812e-03 -4.5299820548246550e-02 0.0000000000000000e+00  -5.5947531090880286e-03 -4.4319262176718763e-02 0.0000000000000000e+00  -5.5953847169037847e-03 -4.3338683753784399e-02 0.0000000000000000e+00  -5.5960135188751776e-03 -4.2358078794482550e-02 0.0000000000000000e+00  -5.5966494481331855e-03 -4.1377442394066474e-02 0.0000000000000000e+00  -5.5973040216760863e-03 -4.0396770780801151e-02 0.0000000000000000e+00  -5.5979903607627189e-03 -3.9416061111977534e-02 0.0000000000000000e+00  -5.5987234394265957e-03 -3.8435311488609528e-02 0.0000000000000000e+00  -5.5995204438010118e-03 -3.7454521171796845e-02 0.0000000000000000e+00  -5.6004011791110650e-03 -3.6473690999552021e-02 0.0000000000000000e+00  -5.6013884813831414e-03 -3.5492824016893562e-02 0.0000000000000000e+00  -5.6025085955918241e-03 -3.4511926344082539e-02 0.0000000000000000e+00  -5.6037914778826834e-03 -3.3531008318425183e-02 0.0000000000000000e+00  -5.6052709694031800e-03 -3.2550085954400891e-02 0.0000000000000000e+00  -5.6069847741222123e-03 -3.1569182775157002e-02 0.0000000000000000e+00  -5.6089741529732184e-03 -3.0588332075506843e-02 0.0000000000000000e+00  -5.6112832214389183e-03 -2.9607579682098612e-02 0.0000000000000000e+00  -5.6139577068063653e-03 -2.8626987279724458e-02 0.0000000000000000e+00  -5.6170429841379882e-03 -2.7646636372835785e-02 0.0000000000000000e+00  -5.6205811658762922e-03 -2.6666632946897612e-02 0.0000000000000000e+00  -5.6246069683060420e-03 -2.5687112883516394e-02 0.0000000000000000e+00  -5.6291420183213828e-03 -2.4708248164128463e-02 0.0000000000000000e+00  -5.6341871957422997e-03 -2.3730253866723061e-02 0.0000000000000000e+00  -5.6397125296978896e-03 -2.2753395915322820e-02 0.0000000000000000e+00  -5.6456440825330021e-03 -2.1777999478857894e-02 0.0000000000000000e+00  -5.6518471617809426e-03 -2.0804457830128791e-02 0.0000000000000000e+00  -5.6581051006303392e-03 -1.9833241361589083e-02 0.0000000000000000e+00  -5.6640927404892254e-03 -1.8864906306889240e-02 0.0000000000000000e+00  -5.6693436353248312e-03 -1.7900102529002104e-02 0.0000000000000000e+00  -5.6732098737661022e-03 -1.6939579499896242e-02 0.0000000000000000e+00  -5.6748132740412930e-03 -1.5984189304178234e-02 0.0000000000000000e+00  -5.6729865320093824e-03 -1.5034885137845105e-02 0.0000000000000000e+00  -5.6662026603925058e-03 -1.4092713324654468e-02 0.0000000000000000e+00  -5.6524906847044160e-03 -1.3158796304202360e-02 0.0000000000000000e+00  -5.6293349432593957e-03 -1.2234303296659366e-02 0.0000000000000000e+00  -5.5935542688198133e-03 -1.1320404300507722e-02 0.0000000000000000e+00  -5.5411554384256871e-03 -1.0418201496224204e-02 0.0000000000000000e+00  -5.4671518937121823e-03 -9.5286295383013812e-03 0.0000000000000000e+00  -5.3653325958066536e-03 -8.6523116537688960e-03 0.0000000000000000e+00  -5.2279545086155385e-03 -7.7893498821786514e-03 0.0000000000000000e+00  -5.0453104479401961e-03 -6.9390106063302523e-03 0.0000000000000000e+00  -4.8050807316985054e-03 -6.0992297170395920e-03 0.0000000000000000e+00  -4.4912882109628370e-03 -5.2657796577119049e-03 0.0000000000000000e+00  -4.0824788033864152e-03 -4.4307781322987239e-03 0.0000000000000000e+00  -3.5480321533920825e-03 -3.5799822277399183e-03 0.0000000000000000e+00  -2.8367992949022065e-03 -2.6860342385692654e-03 0.0000000000000000e+00  -1.8277402129474073e-03 -1.6558440641930858e-03 0.0000000000000000e+00  -1.2859914582419747e-03 -9.8702087450650532e-04 0.0000000000000000e+00  -2.3503143284564843e-03 -2.0817716983728019e-03 0.0000000000000000e+00  -3.1058221936057753e-03 -3.0937323279641481e-03 0.0000000000000000e+00  -3.6600304855973370e-03 -4.0424138973076482e-03 0.0000000000000000e+00  -4.0766349047748817e-03 -4.9567731734063303e-03 0.0000000000000000e+00  -4.3921467778473798e-03 -5.8546573569169640e-03 0.0000000000000000e+00  -4.6307176344081756e-03 -6.7467233282944277e-03 0.0000000000000000e+00  -4.8098044663798566e-03 -7.6394180943344841e-03 0.0000000000000000e+00  -4.9426267332793265e-03 -8.5365869970008470e-03 0.0000000000000000e+00  -5.0394630894554067e-03 -9.4404041312244578e-03 0.0000000000000000e+00  -5.1084247052736870e-03 -1.0351947483888069e-02 0.0000000000000000e+00  -5.1559575635432208e-03 -1.1271571821997969e-02 0.0000000000000000e+00  -5.1871926457397978e-03 -1.2199159512723127e-02 0.0000000000000000e+00  -5.2062047913179598e-03 -1.3134293685667237e-02 0.0000000000000000e+00  -5.2162129484600740e-03 -1.4076379555455680e-02 0.0000000000000000e+00  -5.2197402179969066e-03 -1.5024729721411414e-02 0.0000000000000000e+00  -5.2187445063279674e-03 -1.5978623671757737e-02 0.0000000000000000e+00  -5.2147264773626618e-03 -1.6937348453477205e-02 0.0000000000000000e+00  -5.2088192076356170e-03 -1.7900225460365495e-02 0.0000000000000000e+00  -5.2018626595299053e-03 -1.8866626985854600e-02 0.0000000000000000e+00  -5.1944653407516687e-03 -1.9835985288971368e-02 0.0000000000000000e+00  -5.1870550647133678e-03 -2.0807796271895530e-02 0.0000000000000000e+00  -5.1799204293219202e-03 -2.1781619378025349e-02 0.0000000000000000e+00  -5.1732444164855227e-03 -2.2757074940304718e-02 0.0000000000000000e+00  -5.1671313422774357e-03 -2.3733839911211998e-02 0.0000000000000000e+00  -5.1616282385317305e-03 -2.4711642669567470e-02 0.0000000000000000e+00  -5.1567416116952676e-03 -2.5690257412465049e-02 0.0000000000000000e+00  -5.1524504004971270e-03 -2.6669498493808109e-02 0.0000000000000000e+00  -5.1487158394744846e-03 -2.7649214956780681e-02 0.0000000000000000e+00  -5.1454888306864391e-03 -2.8629285420101677e-02 0.0000000000000000e+00  -5.1427153313523353e-03 -2.9609613412048718e-02 0.0000000000000000e+00  -5.1403401808233842e-03 -3.0590123197757332e-02 0.0000000000000000e+00  -5.1383097161323207e-03 -3.1570756110618103e-02 0.0000000000000000e+00  -5.1365734609904934e-03 -3.2551467374727125e-02 0.0000000000000000e+00  -5.1350851179266235e-03 -3.3532223389823763e-02 0.0000000000000000e+00  -5.1338030465502490e-03 -3.4512999440968320e-02 0.0000000000000000e+00  -5.1326903718655380e-03 -3.5493777790753397e-02 0.0000000000000000e+00  -5.1317148343394195e-03 -3.6474546110835095e-02 0.0000000000000000e+00  -5.1308484672856862e-03 -3.7455296211020513e-02 0.0000000000000000e+00  -5.1300671664446509e-03 -3.8436023027292002e-02 0.0000000000000000e+00  -5.1293502010533332e-03 -3.9416723834383736e-02 0.0000000000000000e+00  -5.1286797053166832e-03 -4.0397397653307819e-02 0.0000000000000000e+00  -5.1280401850306509e-03 -4.1378044828905766e-02 0.0000000000000000e+00  -5.1274180791994707e-03 -4.2358666755903988e-02 0.0000000000000000e+00  -5.1268014387455471e-03 -4.3339265731380930e-02 0.0000000000000000e+00  -5.1261798448732241e-03 -4.4319844899859261e-02 0.0000000000000000e+00  -5.1255448421464057e-03 -4.5300408221591877e-02 0.0000000000000000e+00  -5.1248915024446236e-03 -4.6280960408896739e-02 0.0000000000000000e+00  -9.8985650555335710e-04 -8.0443954716381035e-04 0.0000000000000000e+00  -1.9213502453079665e-03 -1.7592007335738159e-03 0.0000000000000000e+00  -2.6593837303976946e-03 -2.7507796591439964e-03 0.0000000000000000e+00  -3.2185527368767666e-03 -3.7273417793826369e-03 0.0000000000000000e+00  -3.6405115868428629e-03 -4.6827873249884050e-03 0.0000000000000000e+00  -3.9587981837980830e-03 -5.6227552480403748e-03 0.0000000000000000e+00  -4.1978356002024689e-03 -6.5537351294197299e-03 0.0000000000000000e+00  -4.3757381747594505e-03 -7.4808558918360683e-03 0.0000000000000000e+00  -4.5063105374322527e-03 -8.4077511868533399e-03 0.0000000000000000e+00  -4.6002816852551342e-03 -9.3368312519312054e-03 0.0000000000000000e+00  -4.6660902373591518e-03 -1.0269584698466526e-02 0.0000000000000000e+00  -4.7104115244785668e-03 -1.1206831311021589e-02 0.0000000000000000e+00  -4.7385310572875964e-03 -1.2148918188627324e-02 0.0000000000000000e+00  -4.7546223555416205e-03 -1.3095867683335252e-02 0.0000000000000000e+00  -4.7619620146348053e-03 -1.4047487444410242e-02 0.0000000000000000e+00  -4.7631011580027242e-03 -1.5003451382081187e-02 0.0000000000000000e+00  -4.7600048173066928e-03 -1.5963358470705066e-02 0.0000000000000000e+00  -4.7541665189943577e-03 -1.6926774708486365e-02 0.0000000000000000e+00  -4.7467029392268874e-03 -1.7893262315215236e-02 0.0000000000000000e+00  -4.7384320979433694e-03 -1.8862399315464542e-02 0.0000000000000000e+00  -4.7299377397033281e-03 -1.9833791944878398e-02 0.0000000000000000e+00  -4.7216220378752923e-03 -2.0807081770666879e-02 0.0000000000000000e+00  -4.7137484170643607e-03 -2.1781948991099972e-02 0.0000000000000000e+00  -4.7064760381940827e-03 -2.2758113042988980e-02 0.0000000000000000e+00  -4.6998872897530998e-03 -2.3735331380212443e-02 0.0000000000000000e+00  -4.6940094562292287e-03 -2.4713397075491500e-02 0.0000000000000000e+00  -4.6888315806542982e-03 -2.5692135730851995e-02 0.0000000000000000e+00  -4.6843173982179269e-03 -2.6671402051032765e-02 0.0000000000000000e+00  -4.6804150905759914e-03 -2.7651076331762871e-02 0.0000000000000000e+00  -4.6770644953999735e-03 -2.8631061035844622e-02 0.0000000000000000e+00  -4.6742023028002403e-03 -2.9611277569823062e-02 0.0000000000000000e+00  -4.6717656793304778e-03 -3.0591663328957297e-02 0.0000000000000000e+00  -4.6696946809471201e-03 -3.1572169045133568e-02 0.0000000000000000e+00  -4.6679337479271759e-03 -3.2552756448717246e-02 0.0000000000000000e+00  -4.6664325165344227e-03 -3.3533396239030851e-02 0.0000000000000000e+00  -4.6651461332423514e-03 -3.4514066347454339e-02 0.0000000000000000e+00  -4.6640352166072568e-03 -3.5494750470696355e-02 0.0000000000000000e+00  -4.6630655784864429e-03 -3.6475436848455528e-02 0.0000000000000000e+00  -4.6622077893554636e-03 -3.7456117258593144e-02 0.0000000000000000e+00  -4.6614366512969536e-03 -3.8436786203331401e-02 0.0000000000000000e+00  -4.6607306263914145e-03 -3.9417440261246640e-02 0.0000000000000000e+00  -4.6600712577997807e-03 -4.0398077581351263e-02 0.0000000000000000e+00  -4.6594426167262080e-03 -4.1378697496754151e-02 0.0000000000000000e+00  -4.6588308132989361e-03 -4.2359300235773015e-02 0.0000000000000000e+00  -4.6582236289509915e-03 -4.3339886708606445e-02 0.0000000000000000e+00  -4.6576103723057396e-03 -4.4320458355915672e-02 0.0000000000000000e+00  -4.6569821348884655e-03 -4.5301017106930748e-02 0.0000000000000000e+00  -4.6563326419849270e-03 -4.6281565766932625e-02 0.0000000000000000e+00  -8.0304999009972802e-04 -7.3544561882488623e-04 0.0000000000000000e+00  -1.5864033902772518e-03 -1.5969158258866915e-03 0.0000000000000000e+00  -2.2562246163911333e-03 -2.5329679879299476e-03 0.0000000000000000e+00  -2.7902253542064917e-03 -3.4948746229894810e-03 0.0000000000000000e+00  -3.2032535783708110e-03 -4.4594525521052435e-03 0.0000000000000000e+00  -3.5179317990039760e-03 -5.4196084168758405e-03 0.0000000000000000e+00  -3.7548542233900597e-03 -6.3748417622231770e-03 0.0000000000000000e+00  -3.9308767794784694e-03 -7.3267090670000364e-03 0.0000000000000000e+00  -4.0594570246908282e-03 -8.2770763008164459e-03 0.0000000000000000e+00  -4.1512953648202323e-03 -9.2275334929402472e-03 0.0000000000000000e+00  -4.2149005389435501e-03 -1.0179254313142877e-02 0.0000000000000000e+00  -4.2570343085329178e-03 -1.1133016348974106e-02 0.0000000000000000e+00  -4.2830558746652248e-03 -1.2089271179344547e-02 0.0000000000000000e+00  -4.2971918825191312e-03 -1.3048221676403692e-02 0.0000000000000000e+00  -4.3027519409754890e-03 -1.4009891240252021e-02 0.0000000000000000e+00  -4.3023034136696397e-03 -1.4974180619019367e-02 0.0000000000000000e+00  -4.2978147636163659e-03 -1.5940912269800270e-02 0.0000000000000000e+00  -4.2907738196119984e-03 -1.6909863765329679e-02 0.0000000000000000e+00  -4.2822855106870268e-03 -1.7880792155686685e-02 0.0000000000000000e+00  -4.2731524848734145e-03 -1.8853451135519110e-02 0.0000000000000000e+00  -4.2639413144567205e-03 -1.9827602639319594e-02 0.0000000000000000e+00  -4.2550365172769923e-03 -2.0803024217105493e-02 0.0000000000000000e+00  -4.2466842880320606e-03 -2.1779513283584011e-02 0.0000000000000000e+00  -4.2390275750580535e-03 -2.2756889105489394e-02 0.0000000000000000e+00  -4.2321339239880830e-03 -2.3734993199361260e-02 0.0000000000000000e+00  -4.2260173231143151e-03 -2.4713688654256463e-02 0.0000000000000000e+00  -4.2206551180941536e-03 -2.5692858766882445e-02 0.0000000000000000e+00  -4.2160009123343800e-03 -2.6672405275861236e-02 0.0000000000000000e+00  -4.2119942326168305e-03 -2.7652246402840031e-02 0.0000000000000000e+00  -4.2085676168127839e-03 -2.8632314846980901e-02 0.0000000000000000e+00  -4.2056516715604265e-03 -2.9612555832553799e-02 0.0000000000000000e+00  -4.2031785521295037e-03 -3.0592925274043073e-02 0.0000000000000000e+00  -4.2010842337348326e-03 -3.1573388096966054e-02 0.0000000000000000e+00  -4.1993098724478033e-03 -3.2553916733529684e-02 0.0000000000000000e+00  -4.1978024936051997e-03 -3.3534489798722610e-02 0.0000000000000000e+00  -4.1965151951564852e-03 -3.4515090943159209