<?xml version="1.0"?>
<VTKFile type="UnstructuredGrid"  version="0.1"  >
<UnstructuredGrid>
<Piece  NumberOfPoints="6382" NumberOfCells="12354">
<Points>
<DataArray  type="Float64"  NumberOfComponents="3"  format="ascii">0 -3 0  0 0 0  10 -3 0  10 0 0  5.2 0 0  5.2 -0.4 0  5.5 -0.4 0  5.5 -0.6000000000000001 0  4.5 -0.6000000000000001 0  4.5 -0.4 0  4.8 -0.4 0  4.8 0 0  0 -2.666666666666667 0  0 -2.333333333333333 0  0 -2 0  0 -1.666666666666667 0  0 -1.333333333333333 0  0 -1 0  0 -0.666666666666667 0  0 -0.3333333333333335 0  9.836518447033493 -3 0  9.676485174132324 -3 0  9.519716728676565 -3 0  9.366040597429432 -3 0  9.215293522901804 -3 0  9.067325347766827 -3 0  8.921978167503752 -3 0  8.779125793186953 -3 0  8.638633440048579 -3 0  8.500376249002967 -3 0  8.364235730108557 -3 0  8.230099119300583 -3 0  8.097858693472926 -3 0  7.96741165420296 -3 0  7.838659590098249 -3 0  7.711508416266758 -3 0  7.585867779025237 -3 0  7.461651037321721 -3 0  7.338774694871047 -3 0  7.217158563845377 -3 0  7.096725097152937 -3 0  6.977399455051415 -3 0  6.859109304538208 -3 0  6.741784490575633 -3 0  6.625356935727237 -3 0  6.509760461250432 -3 0  6.394930659317325 -3 0  6.2808046903675 -3 0  6.167321173775116 -3 0  6.054420032640893 -3 0  5.942042373994132 -3 0  5.830130346471836 -3 0  5.718627047087892 -3 0  5.607476358937133 -3 0  5.496622874861212 -3 0  5.386011773348871 -3 0  5.275588701244851 -3 0  5.1652996754838 -3 0  5.055090972556302 -3 0  4.944909027443701 -3 0  4.834700324516204 -3 0  4.724411298755151 -3 0  4.613988226651132 -3 0  4.50337712513879 -3 0  4.392523641062869 -3 0  4.281372952912111 -3 0  4.169869653528168 -3 0  4.05795762600587 -3 0  3.94557996735911 -3 0  3.832678826224885 -3 0  3.719195309632506 -3 0  3.605069340682676 -3 0  3.490239538749567 -3 0  3.374643064272765 -3 0  3.25821550942437 -3 0  3.140890695461794 -3 0  3.022600544948583 -3 0  2.903274902847057 -3 0  2.782841436154621 -3 0  2.661225305128949 -3 0  2.538348962678273 -3 0  2.414132220974763 -3 0  2.288491583733238 -3 0  2.161340409901745 -3 0  2.032588345797035 -3 0  1.902141306527067 -3 0  1.76990088069941 -3 0  1.63576426989143 -3 0  1.499623750997021 -3 0  1.361366559951406 -3 0  1.220874206813038 -3 0  1.078021832496241 -3 0  0.9326746522331657 -3 0  0.7847064770981866 -3 0  0.6339594025705644 -3 0  0.4802832713234277 -3 0  0.3235148258676688 -3 0  0.1634815529665037 -3 0  10 -0.3333333333333333 0  10 -0.6666666666666666 0  10 -1 0  10 -1.333333333333333 0  10 -1.666666666666667 0  10 -2 0  10 -2.333333333333333 0  10 -2.666666666666667 0  5.242711110725164 0 0  5.286293876642154 0 0  5.330766086609641 0 0  5.37614589213589 0 0  5.422451816439484 0 0  5.469702760205794 0 0  5.517918009017504 0 0  5.567117241892008 0 0  5.617320540096343 0 0  5.668548395644089 0 0  5.720821717893487 0 0  5.774161842649544 0 0  5.828590541642586 0 0  5.88413003019757 0 0  5.940802977381058 0 0  5.998632515893446 0 0  6.057642249375406 0 0  6.117856262977496 0 0  6.179299133651088 0 0  6.241995940085244 0 0  6.305972273082686 0 0  6.371254245606542 0 0  6.43786850326221 0 0  6.505842235920577 0 0  6.575203187664691 0 0  6.645979668539436 0 0  6.71820056760014 0 0  6.791895362764803 0 0  6.867094133292654 0 0  6.943827572794882 0 0  7.022127001289535 0 0  7.10202437703821 0 0  7.183552311040527 0 0  7.266744080707336 0 0  7.351633641831447 0 0  7.438255642584554 0 0  7.526645439439152 0 0  7.616839110330926 0 0  7.708873468012155 0 0  7.802786077905059 0 0  7.898615271449994 0 0  7.996400162886068 0 0  8.096180664647234 0 0  8.197997502517053 0 0  8.301892235188374 0 0  8.407907268711336 0 0  8.516085874431543 0 0  8.626472207031901 0 0  8.739111321743804 0 0  8.854049193814495 0 0  8.971332736524433 0 0  9.091009820696414 0 0  9.21312929427506 0 0  9.337741001971482 0 0  9.464895805719847 0 0  9.594645605970797 0 0  9.727043361679982 0 0  9.862143111819449 0 0  5.2 -0.01666666666666669 0  5.2 -0.03333333333333339 0  5.2 -0.05000000000000009 0  5.2 -0.06666666666666679 0  5.2 -0.0833333333333335 0  5.2 -0.1000000000000002 0  5.2 -0.1166666666666669 0  5.2 -0.1333333333333336 0  5.2 -0.1500000000000002 0  5.2 -0.1666666666666669 0  5.2 -0.1833333333333335 0  5.2 -0.2000000000000001 0  5.2 -0.2166666666666668 0  5.2 -0.2333333333333335 0  5.2 -0.2500000000000002 0  5.2 -0.2666666666666669 0  5.2 -0.2833333333333335 0  5.2 -0.3000000000000002 0  5.2 -0.3166666666666668 0  5.2 -0.3333333333333335 0  5.2 -0.3500000000000001 0  5.2 -0.3666666666666668 0  5.2 -0.3833333333333334 0  5.2125 -0.4 0  5.225 -0.4 0  5.2375 -0.4 0  5.25 -0.4 0  5.2625 -0.4 0  5.275 -0.4 0  5.2875 -0.4 0  5.3 -0.4 0  5.3125 -0.4 0  5.325 -0.4 0  5.337499999999999 -0.4 0  5.35 -0.4 0  5.3625 -0.4 0  5.375 -0.4 0  5.3875 -0.4 0  5.4 -0.4 0  5.4125 -0.4 0  5.425 -0.4 0  5.4375 -0.4 0  5.45 -0.4 0  5.4625 -0.4 0  5.475 -0.4 0  5.4875 -0.4 0  5.5 -0.4083333333333334 0  5.5 -0.4166666666666667 0  5.5 -0.425 0  5.5 -0.4333333333333334 0  5.5 -0.4416666666666668 0  5.5 -0.4500000000000001 0  5.5 -0.4583333333333334 0  5.5 -0.4666666666666668 0  5.5 -0.4750000000000001 0  5.5 -0.4833333333333335 0  5.5 -0.4916666666666668 0  5.5 -0.5000000000000002 0  5.5 -0.5083333333333335 0  5.5 -0.5166666666666668 0  5.5 -0.5250000000000002 0  5.5 -0.5333333333333335 0  5.5 -0.5416666666666669 0  5.5 -0.5500000000000002 0  5.5 -0.5583333333333335 0  5.5 -0.5666666666666668 0  5.5 -0.5750000000000002 0  5.5 -0.5833333333333335 0  5.5 -0.5916666666666668 0  5.479591836734694 -0.6000000000000001 0  5.459183673469388 -0.6000000000000001 0  5.438775510204081 -0.6000000000000001 0  5.418367346938775 -0.6000000000000001 0  5.397959183673469 -0.6000000000000001 0  5.377551020408164 -0.6000000000000001 0  5.357142857142857 -0.6000000000000001 0  5.336734693877551 -0.6000000000000001 0  5.316326530612245 -0.6000000000000001 0  5.295918367346939 -0.6000000000000001 0  5.275510204081633 -0.6000000000000001 0  5.255102040816326 -0.6000000000000001 0  5.23469387755102 -0.6000000000000001 0  5.214285714285714 -0.6000000000000001 0  5.193877551020408 -0.6000000000000001 0  5.173469387755102 -0.6000000000000001 0  5.153061224489796 -0.6000000000000001 0  5.13265306122449 -0.6000000000000001 0  5.112244897959184 -0.6000000000000001 0  5.091836734693878 -0.6000000000000001 0  5.071428571428571 -0.6000000000000001 0  5.051020408163265 -0.6000000000000001 0  5.030612244897959 -0.6000000000000001 0  5.010204081632653 -0.6000000000000001 0  4.989795918367347 -0.6000000000000001 0  4.969387755102041 -0.6000000000000001 0  4.948979591836735 -0.6000000000000001 0  4.928571428571429 -0.6000000000000001 0  4.908163265306122 -0.6000000000000001 0  4.887755102040816 -0.6000000000000001 0  4.86734693877551 -0.6000000000000001 0  4.846938775510204 -0.6000000000000001 0  4.826530612244898 -0.6000000000000001 0  4.806122448979592 -0.6000000000000001 0  4.785714285714286 -0.6000000000000001 0  4.76530612244898 -0.6000000000000001 0  4.744897959183674 -0.6000000000000001 0  4.724489795918368 -0.6000000000000001 0  4.704081632653061 -0.6000000000000001 0  4.683673469387755 -0.6000000000000001 0  4.663265306122449 -0.6000000000000001 0  4.642857142857143 -0.6000000000000001 0  4.622448979591836 -0.6000000000000001 0  4.602040816326531 -0.6000000000000001 0  4.581632653061225 -0.6000000000000001 0  4.561224489795919 -0.6000000000000001 0  4.540816326530612 -0.6000000000000001 0  4.520408163265306 -0.6000000000000001 0  4.5 -0.5916666666666668 0  4.5 -0.5833333333333334 0  4.5 -0.5750000000000001 0  4.5 -0.5666666666666668 0  4.5 -0.5583333333333333 0  4.5 -0.55 0  4.5 -0.5416666666666667 0  4.5 -0.5333333333333333 0  4.5 -0.525 0  4.5 -0.5166666666666666 0  4.5 -0.5083333333333333 0  4.5 -0.4999999999999999 0  4.5 -0.4916666666666666 0  4.5 -0.4833333333333332 0  4.5 -0.4749999999999999 0  4.5 -0.4666666666666666 0  4.5 -0.4583333333333333 0  4.5 -0.45 0  4.5 -0.4416666666666667 0  4.5 -0.4333333333333333 0  4.5 -0.425 0  4.5 -0.4166666666666667 0  4.5 -0.4083333333333334 0  4.5125 -0.4 0  4.525 -0.4 0  4.5375 -0.4 0  4.55 -0.4 0  4.5625 -0.4 0  4.575 -0.4 0  4.587499999999999 -0.4 0  4.6 -0.4 0  4.6125 -0.4 0  4.625 -0.4 0  4.637499999999999 -0.4 0  4.649999999999999 -0.4 0  4.6625 -0.4 0  4.675 -0.4 0  4.6875 -0.4 0  4.699999999999999 -0.4 0  4.712499999999999 -0.4 0  4.725 -0.4 0  4.7375 -0.4 0  4.75 -0.4 0  4.7625 -0.4 0  4.774999999999999 -0.4 0  4.7875 -0.4 0  4.8 -0.3833333333333333 0  4.8 -0.3666666666666666 0  4.8 -0.3499999999999999 0  4.8 -0.3333333333333333 0  4.8 -0.3166666666666665 0  4.8 -0.2999999999999998 0  4.8 -0.2833333333333331 0  4.8 -0.2666666666666664 0  4.8 -0.2499999999999998 0  4.8 -0.2333333333333331 0  4.8 -0.2166666666666665 0  4.8 -0.1999999999999999 0  4.8 -0.1833333333333332 0  4.8 -0.1666666666666665 0  4.8 -0.1499999999999998 0  4.8 -0.1333333333333331 0  4.8 -0.1166666666666665 0  4.8 -0.09999999999999987 0  4.8 -0.0833333333333332 0  4.8 -0.06666666666666654 0  4.8 -0.04999999999999988 0  4.8 -0.03333333333333327 0  4.8 -0.01666666666666661 0  0.1378568875240437 0 0  0.2729566377271358 0 0  0.4053543934976697 0 0  0.5351041938077431 0 0  0.6622589976130751 0 0  0.7868707053643811 0 0  0.9089901789958823 0 0  1.028667263218748 0 0  1.14595080597766 0 0  1.260888678095464 0 0  1.373527792852679 0 0  1.483914125496606 0 0  1.592092731258683 0 0  1.698107764821866 0 0  1.802002497531814 0 0  1.90381933543871 0 0  2.003599837235452 0 0  2.101384728705643 0 0  2.197213922283282 0 0  2.291126532207516 0 0  2.38316088991875 0 0  2.473354560839241 0 0  2.56174435771825 0 0  2.648366358500676 0 0  2.733255919649871 0 0  2.81644768934063 0 0  2.897975623365796 0 0  2.977872999136252 0 0  3.056172427651654 0 0  3.132905867173631 0 0  3.208104637720262 0 0  3.28179943290277 0 0  3.354020331980409 0 0  3.42479681287121 0 0  3.494157764630528 0 0  3.562131497303279 0 0  3.628745754972536 0 0  3.69402772750921 0 0  3.758004060518725 0 0  3.820700866964234 0 0  3.882143737648484 0 0  3.942357751260559 0 0  4.0013674
[...]
<PointData  Vectors="displacement"> 
<DataArray  type="Float64"  Name="displacement"  NumberOfComponents="3" format="ascii">0.0000000000000000e+00 0.0000000000000000e+00 0.0000000000000000e+00  -4.0165089184644146e-05 3.6374301291142745e-05 0.0000000000000000e+00  0.0000000000000000e+00 0.0000000000000000e+00 0.0000000000000000e+00  4.0222283962217274e-05 3.6352944139138961e-05 0.0000000000000000e+00  0.0000000000000000e+00 -1.0356763640755986e-03 0.0000000000000000e+00  0.0000000000000000e+00 -1.0721192638542747e-03 0.0000000000000000e+00  0.0000000000000000e+00 -1.0433221647279435e-03 0.0000000000000000e+00  0.0000000000000000e+00 -1.2923040429401304e-03 0.0000000000000000e+00  0.0000000000000000e+00 -1.2926952522450802e-03 0.0000000000000000e+00  0.0000000000000000e+00 -1.0431876179345246e-03 0.0000000000000000e+00  0.0000000000000000e+00 -1.0719931585328945e-03 0.0000000000000000e+00  0.0000000000000000e+00 -1.0355497600407590e-03 0.0000000000000000e+00  -2.7889355466738699e-05 -1.4953991207391169e-05 0.0000000000000000e+00  -5.1543694303696985e-05 -1.2704560054136601e-05 0.0000000000000000e+00  -6.7584801326782458e-05 -3.5032550748406017e-06 0.0000000000000000e+00  -7.4846306618091588e-05 8.6855956903338019e-06 0.0000000000000000e+00  -7.4036410981781600e-05 2.0482010368695917e-05 0.0000000000000000e+00  -6.7183588497479776e-05 2.9639057538064237e-05 0.0000000000000000e+00  -5.7342717601603140e-05 3.4846507101400149e-05 0.0000000000000000e+00  -4.7725916353167277e-05 3.6460925833113943e-05 0.0000000000000000e+00  0.0000000000000000e+00 0.0000000000000000e+00 0.0000000000000000e+00  0.0000000000000000e+00 0.0000000000000000e+00 0.0000000000000000e+00  0.0000000000000000e+00 0.0000000000000000e+00 0.0000000000000000e+00  0.0000000000000000e+00 0.0000000000000000e+00 0.0000000000000000e+00  0.0000000000000000e+00 0.0000000000000000e+00 0.0000000000000000e+00  0.0000000000000000e+00 0.0000000000000000e+00 0.0000000000000000e+00  0.0000000000000000e+00 0.0000000000000000e+00 0.0000000000000000e+00  0.0000000000000000e+00 0.0000000000000000e+00 0.0000000000000000e+00  0.0000000000000000e+00 0.0000000000000000e+00 0.0000000000000000e+00  0.0000000000000000e+00 0.0000000000000000e+00 0.0000000000000000e+00  0.0000000000000000e+00 0.0000000000000000e+00 0.0000000000000000e+00  0.0000000000000000e+00 0.0000000000000000e+00 0.0000000000000000e+00  0.0000000000000000e+00 0.0000000000000000e+00 0.0000000000000000e+00  0.0000000000000000e+00 0.0000000000000000e+00 0.0000000000000000e+00  0.0000000000000000e+00 0.0000000000000000e+00 0.0000000000000000e+00  0.0000000000000000e+00 0.0000000000000000e+00 0.0000000000000000e+00  0.0000000000000000e+00 0.0000000000000000e+00 0.0000000000000000e+00  0.0000000000000000e+00 0.0000000000000000e+00 0.0000000000000000e+00  0.0000000000000000e+00 0.0000000000000000e+00 0.0000000000000000e+00  0.0000000000000000e+00 0.0000000000000000e+00 0.0000000000000000e+00  0.0000000000000000e+00 0.0000000000000000e+00 0.0000000000000000e+00  0.0000000000000000e+00 0.0000000000000000e+00 0.0000000000000000e+00  0.0000000000000000e+00 0.0000000000000000e+00 0.0000000000000000e+00  0.0000000000000000e+00 0.0000000000000000e+00 0.0000000000000000e+00  0.0000000000000000e+00 0.0000000000000000e+00 0.0000000000000000e+00  0.0000000000000000e+00 0.0000000000000000e+00 0.0000000000000000e+00  0.0000000000000000e+00 0.0000000000000000e+00 0.0000000000000000e+00  0.0000000000000000e+00 0.0000000000000000e+00 0.0000000000000000e+00  0.0000000000000000e+00 0.0000000000000000e+00 0.0000000000000000e+00  0.0000000000000000e+00 0.0000000000000000e+00 0.0000000000000000e+00  0.0000000000000000e+00 0.0000000000000000e+00 0.0000000000000000e+00  0.0000000000000000e+00 0.0000000000000000e+00 0.0000000000000000e+00  0.0000000000000000e+00 0.0000000000000000e+00 0.0000000000000000e+00  0.0000000000000000e+00 0.0000000000000000e+00 0.0000000000000000e+00  0.0000000000000000e+00 0.0000000000000000e+00 0.0000000000000000e+00  0.0000000000000000e+00 0.0000000000000000e+00 0.0000000000000000e+00  0.0000000000000000e+00 0.0000000000000000e+00 0.0000000000000000e+00  0.0000000000000000e+00 0.0000000000000000e+00 0.0000000000000000e+00  0.0000000000000000e+00 0.0000000000000000e+00 0.0000000000000000e+00  0.0000000000000000e+00 0.0000000000000000e+00 0.0000000000000000e+00  0.0000000000000000e+00 0.0000000000000000e+00 0.0000000000000000e+00  0.0000000000000000e+00 0.0000000000000000e+00 0.0000000000000000e+00  0.0000000000000000e+00 0.0000000000000000e+00 0.0000000000000000e+00  0.0000000000000000e+00 0.0000000000000000e+00 0.0000000000000000e+00  0.0000000000000000e+00 0.0000000000000000e+00 0.0000000000000000e+00  0.0000000000000000e+00 0.0000000000000000e+00 0.0000000000000000e+00  0.0000000000000000e+00 0.0000000000000000e+00 0.0000000000000000e+00  0.0000000000000000e+00 0.0000000000000000e+00 0.0000000000000000e+00  0.0000000000000000e+00 0.0000000000000000e+00 0.0000000000000000e+00  0.0000000000000000e+00 0.0000000000000000e+00 0.0000000000000000e+00  0.0000000000000000e+00 0.0000000000000000e+00 0.0000000000000000e+00  0.0000000000000000e+00 0.0000000000000000e+00 0.0000000000000000e+00  0.0000000000000000e+00 0.0000000000000000e+00 0.0000000000000000e+00  0.0000000000000000e+00 0.0000000000000000e+00 0.0000000000000000e+00  0.0000000000000000e+00 0.0000000000000000e+00 0.0000000000000000e+00  0.0000000000000000e+00 0.0000000000000000e+00 0.0000000000000000e+00  0.0000000000000000e+00 0.0000000000000000e+00 0.0000000000000000e+00  0.0000000000000000e+00 0.0000000000000000e+00 0.0000000000000000e+00  0.0000000000000000e+00 0.0000000000000000e+00 0.0000000000000000e+00  0.0000000000000000e+00 0.0000000000000000e+00 0.0000000000000000e+00  0.0000000000000000e+00 0.0000000000000000e+00 0.0000000000000000e+00  0.0000000000000000e+00 0.0000000000000000e+00 0.0000000000000000e+00  0.0000000000000000e+00 0.0000000000000000e+00 0.0000000000000000e+00  0.0000000000000000e+00 0.0000000000000000e+00 0.0000000000000000e+00  0.0000000000000000e+00 0.0000000000000000e+00 0.0000000000000000e+00  0.0000000000000000e+00 0.0000000000000000e+00 0.0000000000000000e+00  0.0000000000000000e+00 0.0000000000000000e+00 0.0000000000000000e+00  0.0000000000000000e+00 0.0000000000000000e+00 0.0000000000000000e+00  0.0000000000000000e+00 0.0000000000000000e+00 0.0000000000000000e+00  0.0000000000000000e+00 0.0000000000000000e+00 0.0000000000000000e+00  0.0000000000000000e+00 0.0000000000000000e+00 0.0000000000000000e+00  0.0000000000000000e+00 0.0000000000000000e+00 0.0000000000000000e+00  0.0000000000000000e+00 0.0000000000000000e+00 0.0000000000000000e+00  0.0000000000000000e+00 0.0000000000000000e+00 0.0000000000000000e+00  0.0000000000000000e+00 0.0000000000000000e+00 0.0000000000000000e+00  0.0000000000000000e+00 0.0000000000000000e+00 0.0000000000000000e+00  0.0000000000000000e+00 0.0000000000000000e+00 0.0000000000000000e+00  0.0000000000000000e+00 0.0000000000000000e+00 0.0000000000000000e+00  4.7771064452730757e-05 3.6423067992108492e-05 0.0000000000000000e+00  5.7391126165151080e-05 3.4858262852417482e-05 0.0000000000000000e+00  6.7226315860730132e-05 2.9619437396686699e-05 0.0000000000000000e+00  7.4083156748586023e-05 2.0465667316793022e-05 0.0000000000000000e+00  7.4891268375573526e-05 8.6899729396883871e-06 0.0000000000000000e+00  6.7604238138372505e-05 -3.5549487894280455e-06 0.0000000000000000e+00  5.1542472325914900e-05 -1.2739637366980150e-05 0.0000000000000000e+00  2.7935516703946708e-05 -1.4959581301688248e-05 0.0000000000000000e+00  -1.8067679275289393e-05 -1.0346587452552795e-03 0.0000000000000000e+00  -3.6501603202711957e-05 -1.0315125499585230e-03 0.0000000000000000e+00  -5.5299313191954962e-05 -1.0260779635337290e-03 0.0000000000000000e+00  -7.4442634948865380e-05 -1.0181650304975254e-03 0.0000000000000000e+00  -9.3876080727875279e-05 -1.0075536686981372e-03 0.0000000000000000e+00  -1.1350650089165890e-04 -9.9399911162372520e-04 0.0000000000000000e+00  -1.3314397475814007e-04 -9.7724890668105858e-04 0.0000000000000000e+00  -1.5253186090546524e-04 -9.5707337313468907e-04 0.0000000000000000e+00  -1.7130777827675803e-04 -9.3332303497181658e-04 0.0000000000000000e+00  -1.8904634020809534e-04 -9.0596474521999822e-04 0.0000000000000000e+00  -2.0527931383158401e-04 -8.7513483958864835e-04 0.0000000000000000e+00  -2.1958881072904144e-04 -8.4113780869333164e-04 0.0000000000000000e+00  -2.3162419979968200e-04 -8.0443011400489512e-04 0.0000000000000000e+00  -2.4115895237390744e-04 -7.6556792692797913e-04 0.0000000000000000e+00  -2.4809660940834719e-04 -7.2515101313776057e-04 0.0000000000000000e+00  -2.5244043764384948e-04 -6.8377240084451559e-04 0.0000000000000000e+00  -2.5432859849061531e-04 -6.4198985266524975e-04 0.0000000000000000e+00  -2.5390656935890061e-04 -6.0028312106918209e-04 0.0000000000000000e+00  -2.5140013846402257e-04 -5.5906339599460218e-04 0.0000000000000000e+00  -2.4705316911737376e-04 -5.1866875116312293e-04 0.0000000000000000e+00  -2.4109317923963949e-04 -4.7936340292522136e-04 0.0000000000000000e+00  -2.3376171188606195e-04 -4.4135063628258610e-04 0.0000000000000000e+00  -2.2526282792471080e-04 -4.0478301334984882e-04 0.0000000000000000e+00  -2.1581494019032963e-04 -3.6977056156464825e-04 0.0000000000000000e+00  -2.0557897763429702e-04 -3.3638916489337747e-04 0.0000000000000000e+00  -1.9472882525280107e-04 -3.0468485393534295e-04 0.0000000000000000e+00  -1.8341125822120765e-04 -2.7468292006986399e-04 0.0000000000000000e+00  -1.7175221324109240e-04 -2.4638934735468979e-04 0.0000000000000000e+00  -1.5986192588229322e-04 -2.1980226722856136e-04 0.0000000000000000e+00  -1.4784905041352223e-04 -1.9490276418792404e-04 0.0000000000000000e+00  -1.3580198968383419e-04 -1.7166671995010694e-04 0.0000000000000000e+00  -1.2380107479615345e-04 -1.5006200887090918e-04 0.0000000000000000e+00  -1.1191794920822734e-04 -1.3005125251893120e-04 0.0000000000000000e+00  -1.0021692321778718e-04 -1.1159236842786111e-04 0.0000000000000000e+00  -8.8758226943335631e-05 -9.4636833721004255e-05 0.0000000000000000e+00  -7.7588780412535095e-05 -7.9138584212560070e-05 0.0000000000000000e+00  -6.6758230744338418e-05 -6.5042528438417582e-05 0.0000000000000000e+00  -5.6307366888540241e-05 -5.2291869899433612e-05 0.0000000000000000e+00  -4.6273264728144241e-05 -4.0828839184076866e-05 0.0000000000000000e+00  -3.6688916327169706e-05 -3.0592022818959980e-05 0.0000000000000000e+00  -2.7584768604227365e-05 -2.1518859721027587e-05 0.0000000000000000e+00  -1.8986843544108402e-05 -1.3542020538442754e-05 0.0000000000000000e+00  -1.0918638244681316e-05 -6.5923573403727915e-06 0.0000000000000000e+00  -3.4010923470233716e-06 -5.9880197335276143e-07 0.0000000000000000e+00  3.5477038331981347e-06 4.5134738097782795e-06 0.0000000000000000e+00  9.9117039408232201e-06 8.8221823531831072e-06 0.0000000000000000e+00  1.5676164320857604e-05 1.2409307753189163e-05 0.0000000000000000e+00  2.0833069457948028e-05 1.5363222573258227e-05 0.0000000000000000e+00  2.5369780816166776e-05 1.7772613915165881e-05 0.0000000000000000e+00  2.9281911302449277e-05 1.9737309261742027e-05 0.0000000000000000e+00  3.2568654226900814e-05 2.1362706517694412e-05 0.0000000000000000e+00  3.5232512015301248e-05 2.2761588384238051e-05 0.0000000000000000e+00  3.7286887365074963e-05 2.4057071068864779e-05 0.0000000000000000e+00  3.8757236880389214e-05 2.5379170494300243e-05 0.0000000000000000e+00  3.9688684051013645e-05 2.6864993818042877e-05 0.0000000000000000e+00  4.0155632689963365e-05 2.8645381345053935e-05 0.0000000000000000e+00  4.0284669887392942e-05 3.0829224203924454e-05 0.0000000000000000e+00  4.0231071918674583e-05 3.3465089143158898e-05 0.0000000000000000e+00  0.0000000000000000e+00 -1.0386316344635689e-03 0.0000000000000000e+00  0.0000000000000000e+00 -1.0414546342058699e-03 0.0000000000000000e+00  0.0000000000000000e+00 -1.0441464690980713e-03 0.0000000000000000e+00  0.0000000000000000e+00 -1.0467085149092473e-03 0.0000000000000000e+00  0.0000000000000000e+00 -1.0491425476101572e-03 0.0000000000000000e+00  0.0000000000000000e+00 -1.0514503909318839e-03 0.0000000000000000e+00  0.0000000000000000e+00 -1.0536339387819428e-03 0.0000000000000000e+00  0.0000000000000000e+00 -1.0556949231642844e-03 0.0000000000000000e+00  0.0000000000000000e+00 -1.0576348719692704e-03 0.0000000000000000e+00  0.0000000000000000e+00 -1.0594549913646256e-03 0.0000000000000000e+00  0.0000000000000000e+00 -1.0611561995028742e-03 0.0000000000000000e+00  0.0000000000000000e+00 -1.0627387857565281e-03 0.0000000000000000e+00  0.0000000000000000e+00 -1.0642029157772956e-03 0.0000000000000000e+00  0.0000000000000000e+00 -1.0655480042678922e-03 0.0000000000000000e+00  0.0000000000000000e+00 -1.0667730908820703e-03 0.0000000000000000e+00  0.0000000000000000e+00 -1.0678770716512492e-03 0.0000000000000000e+00  0.0000000000000000e+00 -1.0688579801079606e-03 0.0000000000000000e+00  0.0000000000000000e+00 -1.0697141131219120e-03 0.0000000000000000e+00  0.0000000000000000e+00 -1.0704433062650792e-03 0.0000000000000000e+00  0.0000000000000000e+00 -1.0710435212676506e-03 0.0000000000000000e+00  0.0000000000000000e+00 -1.0715126873771098e-03 0.0000000000000000e+00  0.0000000000000000e+00 -1.0718492092640136e-03 0.0000000000000000e+00  0.0000000000000000e+00 -1.0720516704919290e-03 0.0000000000000000e+00  0.0000000000000000e+00 -1.0720447649864204e-03 0.0000000000000000e+00  0.0000000000000000e+00 -1.0718214578821896e-03 0.0000000000000000e+00  0.0000000000000000e+00 -1.0714498934829221e-03 0.0000000000000000e+00  0.0000000000000000e+00 -1.0709310124828631e-03 0.0000000000000000e+00  0.0000000000000000e+00 -1.0702661673459173e-03 0.0000000000000000e+00  0.0000000000000000e+00 -1.0694571791492100e-03 0.0000000000000000e+00  0.0000000000000000e+00 -1.0685062977325390e-03 0.0000000000000000e+00  0.0000000000000000e+00 -1.0674163881398537e-03 0.0000000000000000e+00  0.0000000000000000e+00 -1.0661910366519343e-03 0.0000000000000000e+00  0.0000000000000000e+00 -1.0648345380550996e-03 0.0000000000000000e+00  0.0000000000000000e+00 -1.0633521577390549e-03 0.0000000000000000e+00  0.0000000000000000e+00 -1.0617503396727144e-03 0.0000000000000000e+00  0.0000000000000000e+00 -1.0600369280752717e-03 0.0000000000000000e+00  0.0000000000000000e+00 -1.0582217140435784e-03 0.0000000000000000e+00  0.0000000000000000e+00 -1.0563168807358374e-03 0.0000000000000000e+00  0.0000000000000000e+00 -1.0543379946182747e-03 0.0000000000000000e+00  0.0000000000000000e+00 -1.0523050674424524e-03 0.0000000000000000e+00  0.0000000000000000e+00 -1.0502447783786088e-03 0.0000000000000000e+00  0.0000000000000000e+00 -1.0481945976214128e-03 0.0000000000000000e+00  0.0000000000000000e+00 -1.0462081789930017e-03 0.0000000000000000e+00  0.0000000000000000e+00 -1.0443699013969385e-03 0.0000000000000000e+00  0.0000000000000000e+00 -1.0428299798719497e-03 0.0000000000000000e+00  0.0000000000000000e+00 -1.0419485533174440e-03 0.0000000000000000e+00  0.0000000000000000e+00 -1.0484566564516364e-03 0.0000000000000000e+00  0.0000000000000000e+00 -1.0524409224888084e-03 0.0000000000000000e+00  0.0000000000000000e+00 -1.0563848581198042e-03 0.0000000000000000e+00  0.0000000000000000e+00 -1.0604267536237909e-03 0.0000000000000000e+00  0.0000000000000000e+00 -1.0646250037887794e-03 0.0000000000000000e+00  0.0000000000000000e+00 -1.0690147265564522e-03 0.0000000000000000e+00  0.0000000000000000e+00 -1.0736245152500206e-03 0.0000000000000000e+00  0.0000000000000000e+00 -1.0784788851719510e-03 0.0000000000000000e+00  0.0000000000000000e+00 -1.0836039832856450e-03 0.0000000000000000e+00  0.0000000000000000e+00 -1.0890262139135805e-03 0.0000000000000000e+00  0.0000000000000000e+00 -1.0947788227306117e-03 0.0000000000000000e+00  0.0000000000000000e+00 -1.1008917228251651e-03 0.0000000000000000e+00  0.0000000000000000e+00 -1.1074102144446980e-03 0.0000000000000000e+00  0.0000000000000000e+00 -1.1143800032781365e-03 0.0000000000000000e+00  0.0000000000000000e+00 -1.1218623263787757e-03 0.0000000000000000e+00  0.0000000000000000e+00 -1.1299284906391910e-03 0.0000000000000000e+00  0.0000000000000000e+00 -1.1386714994258142e-03 0.0000000000000000e+00  0.0000000000000000e+00 -1.1482177838127625e-03 0.0000000000000000e+00  0.0000000000000000e+00 -1.1587289239480972e-03 0.0000000000000000e+00  0.0000000000000000e+00 -1.1704374151767566e-03 0.0000000000000000e+00  0.0000000000000000e+00 -1.1837044007938884e-03 0.0000000000000000e+00  0.0000000000000000e+00 -1.1990794824555300e-03 0.0000000000000000e+00  0.0000000000000000e+00 -1.2190014191216392e-03 0.0000000000000000e+00  -1.1236807866608491e-04 -1.4604857514298158e-03 0.0000000000000000e+00  -1.2340273867377519e-04 -1.5647734738124153e-03 0.0000000000000000e+00  -1.2783465361262145e-04 -1.6456458960962029e-03 0.0000000000000000e+00  -1.2901749014372990e-04 -1.7141586515505665e-03 0.0000000000000000e+00  -1.2800276797038249e-04 -1.7739483092108139e-03 0.0000000000000000e+00  -1.2554614343120464e-04 -1.8270101049378911e-03 0.0000000000000000e+00  -1.2201531440799614e-04 -1.8745699356404362e-03 0.0000000000000000e+00  -1.1764574442669381e-04 -1.9174520899756799e-03 0.0000000000000000e+00  -1.1261609098419421e-04 -1.9562504543226920e-03 0.0000000000000000e+00  -1.0704957538781957e-04 -1.9914097920209991e-03 0.0000000000000000e+00  -1.0104363999538990e-04 -2.0232732955544563e-03 0.0000000000000000e+00  -9.4671803849375751e-05 -2.0521106612925392e-03 0.0000000000000000e+00  -8.7992753364266906e-05 -2.0781388409506240e-03 0.0000000000000000e+00  -8.1052705776605882e-05 -2.1015326067663613e-03 0.0000000000000000e+00  -7.3892504360140339e-05 -2.1224371799746507e-03 0.0000000000000000e+00  -6.6548074289878503e-05 -2.1409720057019395e-03 0.0000000000000000e+00  -5.9043503274302031e-05 -2.1572333234454013e-03 0.0000000000000000e+00  -5.1406229676367404e-05 -2.1713040357856312e-03 0.0000000000000000e+00  -4.3659909672969089e-05 -2.1832521179558149e-03 0.0000000000000000e+00  -3.5823093253884675e-05 -2.1931312870208681e-03 0.0000000000000000e+00  -2.7915784543036747e-05 -2.2009848927052509e-03 0.0000000000000000e+00  -1.9952441668829834e-05 -2.2068464178559089e-03 0.0000000000000000e+00  -1.1951570553181025e-05 -2.2107411816647956e-03 0.0000000000000000e+00  -3.9290893629862245e-06 -2.2126846489878378e-03 0.0000000000000000e+00  4.1028568208582263e-06 -2.2126849226400290e-03 0.0000000000000000e+00  1.2126760013646368e-05 -2.2107421110927521e-03 0.0000000000000000e+00  2.0126847733938721e-05 -2.2068479112335553e-03 0.0000000000000000e+00  2.8090839287541575e-05 -2.2009866959082289e-03 0.0000000000000000e+00  3.5999459710070140e-05 -2.1931337912243138e-03 0.0000000000000000e+00  4.3837614364041872e-05 -2.1832557926145949e-03 0.0000000000000000e+00  5.1584319090813403e-05 -2.1713082242414399e-03 0.0000000000000000e+00  5.9224995740112374e-05 -2.1572380491818150e-03 0.0000000000000000e+00  6.6728569173597429e-05 -2.1409763514980483e-03 0.0000000000000000e+00  7.4077463252542042e-05 -2.1224425642773648e-03 0.0000000000000000e+00  8.1239744279940494e-05 -2.1015378609557348e-03 0.0000000000000000e+00  8.8182068753135703e-05 -2.0781447429718144e-03 0.0000000000000000e+00  9.4866288008467413e-05 -2.0521193852817772e-03 0.0000000000000000e+00  1.0124571356198917e-04 -2.0232848376818464e-03 0.0000000000000000e+00  1.0725038850863443e-04 -1.9914186420677024e-03 0.0000000000000000e+00  1.1282147517601351e-04 -1.9562591467394848e-03 0.0000000000000000e+00  1.1786229618081173e-04 -1.9174635546908465e-03 0.0000000000000000e+00  1.2223888775156908e-04 -1.8745841089694718e-03 0.0000000000000000e+00  1.2578566360832858e-04 -1.8270241119149753e-03 0.0000000000000000e+00  1.2823778187030736e-04 -1.7739482852897946e-03 0.0000000000000000e+00  1.2924328976827510e-04 -1.7141539840334831e-03 0.0000000000000000e+00  1.2813117739598386e-04 -1.6456563024898699e-03 0.0000000000000000e+00  1.2372444140081512e-04 -1.5647406146896471e-03 0.0000000000000000e+00  1.1220319465607713e-04 -1