<?xml version="1.0"?>
<VTKFile type="UnstructuredGrid"  version="0.1"  >
<UnstructuredGrid>
<Piece  NumberOfPoints="1250" NumberOfCells="2352">
<Points>
<DataArray  type="Float64"  NumberOfComponents="3"  format="ascii">0 0 0  0.0336 0 0  0.0336 0.07729999999999999 0  0 0.07729999999999999 0  0.001400000000000002 0 0  0.002800000000000005 0 0  0.004200000000000008 0 0  0.005600000000000009 0 0  0.007000000000000011 0 0  0.008400000000000013 0 0  0.009800000000000019 0 0  0.01120000000000002 0 0  0.01260000000000003 0 0  0.01400000000000003 0 0  0.01540000000000004 0 0  0.01680000000000005 0 0  0.01820000000000004 0 0  0.01960000000000004 0 0  0.02100000000000004 0 0  0.02240000000000003 0 0  0.02380000000000003 0 0  0.02520000000000002 0 0  0.02660000000000002 0 0  0.02800000000000001 0 0  0.02940000000000001 0 0  0.03080000000000001 0 0  0.0322 0 0  0.0336 0.001577551020408161 0  0.0336 0.003155102040816321 0  0.0336 0.004732653061224482 0  0.0336 0.006310204081632642 0  0.0336 0.007887755102040803 0  0.0336 0.009465306122448964 0  0.0336 0.01104285714285712 0  0.0336 0.01262040816326528 0  0.0336 0.01419795918367344 0  0.0336 0.0157755102040816 0  0.0336 0.01735306122448976 0  0.0336 0.01893061224489792 0  0.0336 0.02050816326530608 0  0.0336 0.02208571428571425 0  0.0336 0.02366326530612241 0  0.0336 0.02524081632653058 0  0.0336 0.02681836734693874 0  0.0336 0.02839591836734691 0  0.0336 0.02997346938775507 0  0.0336 0.03155102040816323 0  0.0336 0.0331285714285714 0  0.0336 0.03470612244897956 0  0.0336 0.03628367346938772 0  0.0336 0.03786122448979588 0  0.0336 0.03943877551020405 0  0.0336 0.04101632653061221 0  0.0336 0.04259387755102037 0  0.0336 0.04417142857142854 0  0.0336 0.04574897959183671 0  0.0336 0.04732653061224486 0  0.0336 0.04890408163265302 0  0.0336 0.05048163265306119 0  0.0336 0.05205918367346936 0  0.0336 0.05363673469387752 0  0.0336 0.05521428571428568 0  0.0336 0.05679183673469385 0  0.0336 0.05836938775510202 0  0.0336 0.05994693877551018 0  0.0336 0.06152448979591834 0  0.0336 0.0631020408163265 0  0.0336 0.06467959183673468 0  0.0336 0.06625714285714283 0  0.0336 0.06783469387755101 0  0.0336 0.06941224489795916 0  0.0336 0.07098979591836733 0  0.0336 0.07256734693877549 0  0.0336 0.07414489795918365 0  0.0336 0.07572244897959182 0  0.03219999999999999 0.07729999999999999 0  0.03079999999999999 0.07729999999999999 0  0.02939999999999999 0.07729999999999999 0  0.02799999999999999 0.07729999999999999 0  0.02659999999999999 0.07729999999999999 0  0.02519999999999999 0.07729999999999999 0  0.02379999999999998 0.07729999999999999 0  0.02239999999999998 0.07729999999999999 0  0.02099999999999997 0.07729999999999999 0  0.01959999999999996 0.07729999999999999 0  0.01819999999999996 0.07729999999999999 0  0.01679999999999995 0.07729999999999999 0  0.01539999999999996 0.07729999999999999 0  0.01399999999999996 0.07729999999999999 0  0.01259999999999996 0.07729999999999999 0  0.01119999999999997 0.07729999999999999 0  0.009799999999999972 0.07729999999999999 0  0.008399999999999977 0.07729999999999999 0  0.006999999999999978 0.07729999999999999 0  0.005599999999999983 0.07729999999999999 0  0.004199999999999988 0.07729999999999999 0  0.00279999999999999 0.07729999999999999 0  0.001399999999999998 0.07729999999999999 0  0 0.07572244897959184 0  0 0.07414489795918368 0  0 0.07256734693877551 0  0 0.07098979591836735 0  0 0.06941224489795919 0  0 0.06783469387755103 0  0 0.06625714285714288 0  0 0.06467959183673472 0  0 0.06310204081632656 0  0 0.0615244897959184 0  0 0.05994693877551023 0  0 0.05836938775510207 0  0 0.05679183673469392 0  0 0.05521428571428574 0  0 0.05363673469387759 0  0 0.05205918367346941 0  0 0.05048163265306126 0  0 0.04890408163265308 0  0 0.04732653061224493 0  0 0.04574897959183676 0  0 0.0441714285714286 0  0 0.04259387755102043 0  0 0.04101632653061228 0  0 0.03943877551020411 0  0 0.03786122448979595 0  0 0.03628367346938779 0  0 0.03470612244897962 0  0 0.03312857142857146 0  0 0.03155102040816329 0  0 0.02997346938775513 0  0 0.02839591836734697 0  0 0.0268183673469388 0  0 0.02524081632653064 0  0 0.02366326530612247 0  0 0.02208571428571431 0  0 0.02050816326530614 0  0 0.01893061224489798 0  0 0.01735306122448981 0  0 0.01577551020408165 0  0 0.01419795918367349 0  0 0.01262040816326532 0  0 0.01104285714285716 0  0 0.009465306122448988 0  0 0.00788775510204083 0  0 0.006310204081632659 0  0 0.004732653061224501 0  0 0.003155102040816343 0  0 0.001577551020408172 0  0.001400000000000004 0.001577551020408172 0  0.001400000000000004 0.003155102040816329 0  0.001400000000000002 0.004732653061224501 0  0.001400000000000002 0.006310204081632645 0  0.001400000000000005 0.007887755102040823 0  0.001400000000000002 0.009465306122448981 0  0.001400000000000002 0.01104285714285717 0  0.001400000000000004 0.01262040816326531 0  0.0014 0.01419795918367349 0  0.001400000000000002 0.01577551020408166 0  0.001400000000000005 0.0173530612244898 0  0.001400000000000002 0.01893061224489797 0  0.001400000000000002 0.02050816326530613 0  0.001400000000000002 0.02208571428571431 0  0.001400000000000002 0.02366326530612247 0  0.001400000000000002 0.02524081632653063 0  0.001400000000000002 0.0268183673469388 0  0.001400000000000002 0.02839591836734696 0  0.001400000000000002 0.02997346938775513 0  0.001400000000000002 0.03155102040816328 0  0.001400000000000002 0.03312857142857147 0  0.001399999999999997 0.03470612244897962 0  0.001400000000000005 0.03628367346938778 0  0.001400000000000002 0.03786122448979594 0  0.001400000000000002 0.03943877551020411 0  0.001400000000000002 0.04101632653061228 0  0.001400000000000002 0.04259387755102043 0  0.001400000000000002 0.0441714285714286 0  0.0014 0.04574897959183676 0  0.001400000000000002 0.04732653061224492 0  0.001400000000000004 0.04890408163265308 0  0.001400000000000002 0.05048163265306126 0  0.001400000000000002 0.05205918367346941 0  0.0014 0.05363673469387758 0  0.001400000000000004 0.05521428571428574 0  0.001399999999999998 0.05679183673469391 0  0.001400000000000002 0.05836938775510207 0  0.0014 0.05994693877551023 0  0.001400000000000002 0.0615244897959184 0  0.001400000000000002 0.06310204081632656 0  0.001400000000000002 0.06467959183673472 0  0.0014 0.06625714285714286 0  0.001400000000000002 0.06783469387755102 0  0.001399999999999998 0.06941224489795919 0  0.001400000000000002 0.07098979591836735 0  0.0014 0.07256734693877552 0  0.001400000000000002 0.07414489795918368 0  0.001400000000000002 0.07572244897959184 0  0.002800000000000006 0.001577551020408165 0  0.002800000000000004 0.003155102040816343 0  0.002800000000000002 0.004732653061224487 0  0.002800000000000002 0.006310204081632652 0  0.002800000000000002 0.007887755102040813 0  0.0028 0.009465306122448981 0  0.002799999999999997 0.01104285714285715 0  0.0028 0.01262040816326532 0  0.0028 0.01419795918367348 0  0.0028 0.01577551020408165 0  0.002799999999999997 0.0173530612244898 0  0.0028 0.01893061224489797 0  0.002800000000000004 0.02050816326530613 0  0.0028 0.0220857142857143 0  0.0028 0.02366326530612247 0  0.002800000000000004 0.02524081632653064 0  0.0028 0.0268183673469388 0  0.0028 0.02839591836734696 0  0.002799999999999995 0.02997346938775512 0  0.002799999999999997 0.03155102040816328 0  0.002799999999999995 0.03312857142857146 0  0.0028 0.03470612244897962 0  0.002799999999999995 0.03628367346938778 0  0.002799999999999997 0.03786122448979594 0  0.002799999999999997 0.03943877551020411 0  0.002799999999999997 0.04101632653061228 0  0.002799999999999997 0.04259387755102043 0  0.002799999999999995 0.0441714285714286 0  0.002799999999999997 0.04574897959183676 0  0.002799999999999997 0.04732653061224493 0  0.002799999999999995 0.04890408163265308 0  0.002799999999999993 0.05048163265306124 0  0.002799999999999995 0.05205918367346941 0  0.002799999999999995 0.05363673469387757 0  0.002799999999999992 0.05521428571428574 0  0.002799999999999997 0.05679183673469391 0  0.002799999999999993 0.05836938775510207 0  0.002799999999999993 0.05994693877551022 0  0.002799999999999992 0.0615244897959184 0  0.002799999999999988 0.06310204081632655 0  0.002799999999999992 0.0646795918367347 0  0.002799999999999992 0.06625714285714286 0  0.00279999999999999 0.06783469387755103 0  0.00279999999999999 0.06941224489795919 0  0.002799999999999988 0.07098979591836735 0  0.00279999999999999 0.07256734693877552 0  0.002799999999999988 0.07414489795918368 0  0.00279999999999999 0.07572244897959184 0  0.004200000000000006 0.001577551020408172 0  0.004200000000000006 0.003155102040816329 0  0.004200000000000008 0.00473265306122448 0  0.004200000000000009 0.006310204081632652 0  0.004200000000000008 0.00788775510204082 0  0.004200000000000008 0.009465306122448978 0  0.004200000000000006 0.01104285714285716 0  0.004200000000000006 0.01262040816326532 0  0.004200000000000004 0.01419795918367349 0  0.004200000000000002 0.01577551020408165 0  0.004200000000000004 0.0173530612244898 0  0.004200000000000006 0.01893061224489797 0  0.004200000000000006 0.02050816326530613 0  0.004200000000000002 0.0220857142857143 0  0.004200000000000004 0.02366326530612247 0  0.004199999999999999 0.02524081632653062 0  0.004200000000000004 0.0268183673469388 0  0.004200000000000004 0.02839591836734696 0  0.004200000000000002 0.02997346938775512 0  0.004199999999999999 0.03155102040816328 0  0.004200000000000001 0.03312857142857145 0  0.004200000000000001 0.03470612244897962 0  0.004199999999999995 0.03628367346938778 0  0.004199999999999999 0.03786122448979594 0  0.004199999999999999 0.0394387755102041 0  0.004199999999999997 0.04101632653061227 0  0.004199999999999999 0.04259387755102043 0  0.004199999999999999 0.04417142857142859 0  0.004199999999999999 0.04574897959183676 0  0.004199999999999999 0.04732653061224492 0  0.004199999999999997 0.04890408163265308 0  0.004199999999999997 0.05048163265306124 0  0.004199999999999999 0.05205918367346941 0  0.004199999999999992 0.05363673469387757 0  0.0
[...]
<PointData  Vectors="displacement"> 
<DataArray  type="Float64"  Name="displacement"  NumberOfComponents="3" format="ascii">0.0000000000000000e+00 0.0000000000000000e+00 0.0000000000000000e+00  0.0000000000000000e+00 0.0000000000000000e+00 0.0000000000000000e+00  1.5598227566787088e-03 -1.3047990177523181e-02 0.0000000000000000e+00  -1.5437100957233457e-03 -1.3044867351311801e-02 0.0000000000000000e+00  0.0000000000000000e+00 0.0000000000000000e+00 0.0000000000000000e+00  0.0000000000000000e+00 0.0000000000000000e+00 0.0000000000000000e+00  0.0000000000000000e+00 0.0000000000000000e+00 0.0000000000000000e+00  0.0000000000000000e+00 0.0000000000000000e+00 0.0000000000000000e+00  0.0000000000000000e+00 0.0000000000000000e+00 0.0000000000000000e+00  0.0000000000000000e+00 0.0000000000000000e+00 0.0000000000000000e+00  0.0000000000000000e+00 0.0000000000000000e+00 0.0000000000000000e+00  0.0000000000000000e+00 0.0000000000000000e+00 0.0000000000000000e+00  0.0000000000000000e+00 0.0000000000000000e+00 0.0000000000000000e+00  0.0000000000000000e+00 0.0000000000000000e+00 0.0000000000000000e+00  0.0000000000000000e+00 0.0000000000000000e+00 0.0000000000000000e+00  0.0000000000000000e+00 0.0000000000000000e+00 0.0000000000000000e+00  0.0000000000000000e+00 0.0000000000000000e+00 0.0000000000000000e+00  0.0000000000000000e+00 0.0000000000000000e+00 0.0000000000000000e+00  0.0000000000000000e+00 0.0000000000000000e+00 0.0000000000000000e+00  0.0000000000000000e+00 0.0000000000000000e+00 0.0000000000000000e+00  0.0000000000000000e+00 0.0000000000000000e+00 0.0000000000000000e+00  0.0000000000000000e+00 0.0000000000000000e+00 0.0000000000000000e+00  0.0000000000000000e+00 0.0000000000000000e+00 0.0000000000000000e+00  0.0000000000000000e+00 0.0000000000000000e+00 0.0000000000000000e+00  0.0000000000000000e+00 0.0000000000000000e+00 0.0000000000000000e+00  0.0000000000000000e+00 0.0000000000000000e+00 0.0000000000000000e+00  0.0000000000000000e+00 0.0000000000000000e+00 0.0000000000000000e+00  5.0665334537913461e-04 -4.6348827198376593e-04 0.0000000000000000e+00  7.8617356509293418e-04 -7.4431044143664481e-04 0.0000000000000000e+00  9.8297670000582890e-04 -9.9118299431740528e-04 0.0000000000000000e+00  1.1305898916018145e-03 -1.2260327210621938e-03 0.0000000000000000e+00  1.2435054654698820e-03 -1.4564895122913138e-03 0.0000000000000000e+00  1.3302431078744293e-03 -1.6865302643015267e-03 0.0000000000000000e+00  1.3967216487032232e-03 -1.9183288989149370e-03 0.0000000000000000e+00  1.4473398606815275e-03 -2.1530470993753729e-03 0.0000000000000000e+00  1.4854885854923641e-03 -2.3912512409981651e-03 0.0000000000000000e+00  1.5138400605923421e-03 -2.6331419320666481e-03 0.0000000000000000e+00  1.5345264166604184e-03 -2.8786900503617774e-03 0.0000000000000000e+00  1.5492584125689644e-03 -3.1277231713031837e-03 0.0000000000000000e+00  1.5594098850944581e-03 -3.3799832271218036e-03 0.0000000000000000e+00  1.5660812383965299e-03 -3.6351660775213296e-03 0.0000000000000000e+00  1.5701492607468194e-03 -3.8929489407674685e-03 0.0000000000000000e+00  1.5723074199167914e-03 -4.1530092749294126e-03 0.0000000000000000e+00  1.5730991015159874e-03 -4.4150374464018774e-03 0.0000000000000000e+00  1.5729453263458155e-03 -4.6787448126409132e-03 0.0000000000000000e+00  1.5721679649637645e-03 -4.9438684121786702e-03 0.0000000000000000e+00  1.5710091751043366e-03 -5.2101731676396359e-03 0.0000000000000000e+00  1.5696476188571595e-03 -5.4774523020925852e-03 0.0000000000000000e+00  1.5682119149548119e-03 -5.7455265131003399e-03 0.0000000000000000e+00  1.5667917156149454e-03 -6.0142423256057459e-03 0.0000000000000000e+00  1.5654467498076520e-03 -6.2834699454641391e-03 0.0000000000000000e+00  1.5642141364217478e-03 -6.5531008549308120e-03 0.0000000000000000e+00  1.5631142370290212e-03 -6.8230453264583133e-03 0.0000000000000000e+00  1.5621552867674442e-03 -7.0932299793159291e-03 0.0000000000000000e+00  1.5613370125717818e-03 -7.3635954627910873e-03 0.0000000000000000e+00  1.5606534204840720e-03 -7.6340943182917507e-03 0.0000000000000000e+00  1.5600949082270404e-03 -7.9046890489481141e-03 0.0000000000000000e+00  1.5596498358116172e-03 -8.1753504078927765e-03 0.0000000000000000e+00  1.5593056658163146e-03 -8.4460559040362686e-03 0.0000000000000000e+00  1.5590497661810729e-03 -8.7167885157783086e-03 0.0000000000000000e+00  1.5588699518779107e-03 -8.9875355978002221e-03 0.0000000000000000e+00  1.5587548275647174e-03 -9.2582879631235692e-03 0.0000000000000000e+00  1.5586939811561445e-03 -9.5290391213896219e-03 0.0000000000000000e+00  1.5586780679875004e-03 -9.7997846543362178e-03 0.0000000000000000e+00  1.5586988167248647e-03 -1.0070521710356122e-02 0.0000000000000000e+00  1.5587489812174506e-03 -1.0341248601545236e-02 0.0000000000000000e+00  1.5588222569587363e-03 -1.0611964488606129e-02 0.0000000000000000e+00  1.5589131766452996e-03 -1.0882669141256499e-02 0.0000000000000000e+00  1.5590169965397293e-03 -1.1153362764370886e-02 0.0000000000000000e+00  1.5591295842256690e-03 -1.1424045882993518e-02 0.0000000000000000e+00  1.5592473196312077e-03 -1.1694719282692494e-02 0.0000000000000000e+00  1.5593670266850349e-03 -1.1965384005576823e-02 0.0000000000000000e+00  1.5594859672305068e-03 -1.2236041406630380e-02 0.0000000000000000e+00  1.5596019664552386e-03 -1.2506693277080037e-02 0.0000000000000000e+00  1.5597138613507660e-03 -1.2777342000195986e-02 0.0000000000000000e+00  1.4304906896092800e-03 -1.3047894090239584e-02 0.0000000000000000e+00  1.3011588550145088e-03 -1.3047800101547722e-02 0.0000000000000000e+00  1.1718290190754629e-03 -1.3047709271069654e-02 0.0000000000000000e+00  1.0425028376347919e-03 -1.3047620893039617e-02 0.0000000000000000e+00  9.1318137414987677e-04 -1.3047533451609732e-02 0.0000000000000000e+00  7.8386512649974440e-04 -1.3047445120681648e-02 0.0000000000000000e+00  6.5455411950538465e-04 -1.3047354034518911e-02 0.0000000000000000e+00  5.2524799735157769e-04 -1.3047258450120981e-02 0.0000000000000000e+00  3.9594610708069646e-04 -1.3047156849168186e-02 0.0000000000000000e+00  2.6664757240397210e-04 -1.3047048002394011e-02 0.0000000000000000e+00  1.3735135851852435e-04 -1.3046931009387011e-02 0.0000000000000000e+00  8.0563294277123280e-06 -1.3046805321979379e-02 0.0000000000000000e+00  -1.2123870010486302e-04 -1.3046670756374263e-02 0.0000000000000000e+00  -2.5053491539531831e-04 -1.3046527496905899e-02 0.0000000000000000e+00  -3.7983345267320089e-04 -1.3046376092371232e-02 0.0000000000000000e+00  -5.0913534710969361e-04 -1.3046217443997041e-02 0.0000000000000000e+00  -6.3844147546932429e-04 -1.3046052782150685e-02 0.0000000000000000e+00  -7.6775249125858309e-04 -1.3045883626640784e-02 0.0000000000000000e+00  -8.9706875088361982e-04 -1.3045711722420089e-02 0.0000000000000000e+00  -1.0263902301540910e-03 -1.3045538937517379e-02 0.0000000000000000e+00  -1.1557164318911652e-03 -1.3045367099613915e-02 0.0000000000000000e+00  -1.2850462924400051e-03 -1.3045197721218109e-02 0.0000000000000000e+00  -1.4143781451546767e-03 -1.3045031498031700e-02 0.0000000000000000e+00  -1.5438944664640645e-03 -1.2774219083333324e-02 0.0000000000000000e+00  -1.5440758375861881e-03 -1.2503570377570584e-02 0.0000000000000000e+00  -1.5442531206091999e-03 -1.2232918519366066e-02 0.0000000000000000e+00  -1.5444274557981318e-03 -1.1962261126610431e-02 0.0000000000000000e+00  -1.5446010165232360e-03 -1.1691596409337075e-02 0.0000000000000000e+00  -1.5447765445084449e-03 -1.1420923013747112e-02 0.0000000000000000e+00  -1.5449572186537377e-03 -1.1150239898773425e-02 0.0000000000000000e+00  -1.5451466606640429e-03 -1.0879546279776867e-02 0.0000000000000000e+00  -1.5453490036436307e-03 -1.0608841632602884e-02 0.0000000000000000e+00  -1.5455689912763563e-03 -1.0338125753301640e-02 0.0000000000000000e+00  -1.5458120901628090e-03 -1.0067398873179778e-02 0.0000000000000000e+00  -1.5460846034595927e-03 -9.7966618327174782e-03 0.0000000000000000e+00  -1.5463937752547168e-03 -9.5259163212176087e-03 0.0000000000000000e+00  -1.5467478739865502e-03 -9.2551651919637722e-03 0.0000000000000000e+00  -1.5471562404243036e-03 -8.9844128652421338e-03 0.0000000000000000e+00  -1.5476292815458136e-03 -8.7136658338671184e-03 0.0000000000000000e+00  -1.5481783861155160e-03 -8.4429332878098312e-03 0.0000000000000000e+00  -1.5488157308051113e-03 -8.1722278760546201e-03 0.0000000000000000e+00  -1.5495539371734725e-03 -7.9015666247205709e-03 0.0000000000000000e+00  -1.5504055295590909e-03 -7.6309720305114785e-03 0.0000000000000000e+00  -1.5513821317583204e-03 -7.3604733473339673e-03 0.0000000000000000e+00  -1.5524933260941030e-03 -7.0901080809708293e-03 0.0000000000000000e+00  -1.5537450819806601e-03 -6.8199237014112610e-03 0.0000000000000000e+00  -1.5551376422642317e-03 -6.5499795740731103e-03 0.0000000000000000e+00  -1.5566627344419900e-03 -6.2803490987997394e-03 0.0000000000000000e+00  -1.5582999503828724e-03 -6.0111220281012763e-03 0.0000000000000000e+00  -1.5600121125282026e-03 -5.7424069123887100e-03 0.0000000000000000e+00  -1.5617394169164692e-03 -5.4743335884931306e-03 0.0000000000000000e+00  -1.5633921138910672e-03 -5.2070555869696330e-03 0.0000000000000000e+00  -1.5648414559044875e-03 -4.9407522817609623e-03 0.0000000000000000e+00  -1.5659086076914186e-03 -4.6756305406955370e-03 0.0000000000000000e+00  -1.5663511751881649e-03 -4.4119255545471215e-03 0.0000000000000000e+00  -1.5658469613241293e-03 -4.1499004226633095e-03 0.0000000000000000e+00  -1.5639744899728397e-03 -3.8898439493391902e-03 0.0000000000000000e+00  -1.5601897365023502e-03 -3.6320659482189160e-03 0.0000000000000000e+00  -1.5537983327550604e-03 -3.3768891452319325e-03 0.0000000000000000e+00  -1.5439222189956951e-03 -3.1246364811357646e-03 0.0000000000000000e+00  -1.5294591934117768e-03 -2.8756121776909822e-03 0.0000000000000000e+00  -1.5090328756401578e-03 -2.6300742164543597e-03 0.0000000000000000e+00  -1.4809289065349938e-03 -2.3881946193661939e-03 0.0000000000000000e+00  -1.4430100679890139e-03 -2.1500015511896919e-03 0.0000000000000000e+00  -1.3925970014677489e-03 -1.9152925202993987e-03 0.0000000000000000e+00  -1.3262892517358655e-03 -1.6834977952010577e-03 0.0000000000000000e+00  -1.2396768365101694e-03 -1.4534504937576574e-03 0.0000000000000000e+00  -1.1268380407537702e-03 -1.2229749595938256e-03 0.0000000000000000e+00  -9.7932109211278941e-04 -9.8813989091468477e-04 0.0000000000000000e+00  -7.8300795017665888e-04 -7.4139406584946914e-04 0.0000000000000000e+00  -5.0448938004432696e-04 -4.5704293174562288e-04 0.0000000000000000e+00  -3.5495691833829535e-04 -2.7243562599501994e-04 0.0000000000000000e+00  -6.4872929427986915e-04 -5.7460666787668079e-04 0.0000000000000000e+00  -8.5726313941158474e-04 -8.5392611767340018e-04 0.0000000000000000e+00  -1.0102346589205798e-03 -1.1157794015193563e-03 0.0000000000000000e+00  -1.1252250189650735e-03 -1.3681591112117630e-03 0.0000000000000000e+00  -1.2123120065552330e-03 -1.6159913971581510e-03 0.0000000000000000e+00  -1.2781618809905805e-03 -1.8622177512487704e-03 0.0000000000000000e+00  -1.3275930880054031e-03 -2.1086176640471711e-03 0.0000000000000000e+00  -1.3642544376926042e-03 -2.3562525195342755e-03 0.0000000000000000e+00  -1.3909830246914493e-03 -2.6057224072611649e-03 0.0000000000000000e+00  -1.4100176788313557e-03 -2.8573248711185502e-03 0.0000000000000000e+00  -1.4231376080369933e-03 -3.1111578332212913e-03 0.0000000000000000e+00  -1.4317590560641242e-03 -3.3671888247789219e-03 0.0000000000000000e+00  -1.4370067523549526e-03 -3.6253027820168974e-03 0.0000000000000000e+00  -1.4397691848693141e-03 -3.8853355334064724e-03 0.0000000000000000e+00  -1.4407427751034867e-03 -4.1470973439191507e-03 0.0000000000000000e+00  -1.4404679406609532e-03 -4.4103893392636127e-03 0.0000000000000000e+00  -1.4393588919420482e-03 -4.6750147315029328e-03 0.0000000000000000e+00  -1.4377283785785020e-03 -4.9407862130422401e-03 0.0000000000000000e+00  -1.4358082453909799e-03 -5.2075305255075647e-03 0.0000000000000000e+00  -1.4337664515200930e-03 -5.4750909621144594e-03 0.0000000000000000e+00  -1.4317210812109064e-03 -5.7433283827405864e-03 0.0000000000000000e+00  -1.4297517927092235e-03 -6.0121211857899967e-03 0.0000000000000000e+00  -1.4279090923335956e-03 -6.2813645762833997e-03 0.0000000000000000e+00  -1.4262217732083163e-03 -6.5509693872578181e-03 0.0000000000000000e+00  -1.4247028169708448e-03 -6.8208606463514140e-03 0.0000000000000000e+00  -1.4233540195182765e-03 -7.0909760278751845e-03 0.0000000000000000e+00  -1.4221695675586397e-03 -7.3612642901463429e-03 0.0000000000000000e+00  -1.4211387611225569e-03 -7.6316837663514487e-03 0.0000000000000000e+00  -1.4202480482896900e-03 -7.9022009530599607e-03 0.0000000000000000e+00  -1.4194825122744246e-03 -8.1727892223304125e-03 0.0000000000000000e+00  -1.4188269277393155e-03 -8.4434276699694461e-03 0.0000000000000000e+00  -1.4182664827341225e-03 -8.7141001029310133e-03 0.0000000000000000e+00  -1.4177872448895791e-03 -8.9847941622552240e-03 0.0000000000000000e+00  -1.4173764352656479e-03 -9.2555005736619910e-03 0.0000000000000000e+00  -1.4170225603608896e-03 -9.5262125153806210e-03 0.0000000000000000e+00  -1.4167154420090327e-03 -9.7969250915656402e-03 0.0000000000000000e+00  -1.4164461759950705e-03 -1.0067634899370998e-02 0.0000000000000000e+00  -1.4162070430074202e-03 -1.0338339678155213e-02 0.0000000000000000e+00  -1.4159913898341341e-03 -1.0609038030157754e-02 0.0000000000000000e+00  -1.4157934944094145e-03 -1.0879729203155920e-02 0.0000000000000000e+00  -1.4156084254504625e-03 -1.1150412926931346e-02 0.0000000000000000e+00  -1.4154319062765223e-03 -1.1421089296666536e-02 0.0000000000000000e+00  -1.4152601938073163e-03 -1.1691758697331200e-02 0.0000000000000000e+00  -1.4150899898811528e-03 -1.1962421762960574e-02 0.0000000000000000e+00  -1.4149184187218550e-03 -1.2233079361499848e-02 0.0000000000000000e+00  -1.4147431464760236e-03 -1.2503732586050479e-02 0.0000000000000000e+00  -1.4145628128932096e-03 -1.2774382737297519e-02 0.0000000000000000e+00  -2.7321831148758717e-04 -2.2203987500902419e-04 0.0000000000000000e+00  -5.3032744327506979e-04 -4.8557124320365217e-04 0.0000000000000000e+00  -7.3403804323197356e-04 -7.5926497379090799e-04 0.0000000000000000e+00  -8.8837880972621002e-04 -1.0288137943092754e-03 0.0000000000000000e+00  -1.0048470895811165e-03 -1.2925340580285261e-03 0.0000000000000000e+00  -1.0926999511841550e-03 -1.5519822177849608e-03 0.0000000000000000e+00  -1.1586786045808550e-03 -1.8089495153602686e-03 0.0000000000000000e+00  -1.2077829351146985e-03 -2.0648516262534783e-03 0.0000000000000000e+00  -1.2438232705130926e-03 -2.3206915040636820e-03 0.0000000000000000e+00  -1.2697610081474787e-03 -2.5771344179539605e-03 0.0000000000000000e+00  -1.2879253596332224e-03 -2.8345912516130395e-03 0.0000000000000000e+00  -1.3001588370734449e-03 -3.0932882804178374e-03 0.0000000000000000e+00  -1.3079203370795765e-03 -3.3533213099832281e-03 0.0000000000000000e+00  -1.3123618266429281e-03 -3.6146965098799964e-03 0.0000000000000000e+00  -1.3143877053971779e-03 -3.8773607878237774e-03 0.0000000000000000e+00  -1.3147021295847289e-03 -4.1412241371356698e-03 0.0000000000000000e+00  -1.3138474835102819e-03 -4.4061758674798276e-03 0.0000000000000000e+00  -1.3122360075055464e-03 -4.6720961865054367e-03 0.0000000000000000e+00  -1.3101759244023353e-03 -4.9388642589509668e-03 0.0000000000000000e+00  -1.3078930225096258e-03 -5.2063636119609649e-03 0.0000000000000000e+00  -1.3055484258913620e-03 -5.4744855594462414e-03 0.0000000000000000e+00  -1.3032531416764127e-03 -5.7431311674693121e-03 0.0000000000000000e+00  -1.3010798798236524e-03 -6.0122121649644191e-03 0.0000000000000000e+00  -1.2990725716287173e-03 -6.2816511114134272e-03 0.0000000000000000e+00  -1.2972539578056698e-03 -6.5513810596968276e-03 0.0000000000000000e+00  -1.2956315693669854e-03 -6.8213448941403737e-03 0.0000000000000000e+00  -1.2942023819911307e-03 -7.0914944777466698e-03 0.0000000000000000e+00  -1.2929563859340634e-03 -7.3617897063938545e-03 0.0000000000000000e+00  -1.2918792783949183e-03 -7.6321975395365451e-03 0.0000000000000000e+00  -1.2909544534821114e-03 -7.9026910551428312e-03 0.0000000000000000e+00  -1.2901644365202265e-03 -8.1732485599966091e-03 0.0000000000000000e+00  -1.2894918843408217e-03 -8.4438527740562878e-03 0.0000000000000000e+00  -1.2889202513029136e-03 -8.7144900984307203e-03 0.0000000000000000e+00  -1.2884342019173504e-03 -8.9851499700081324e-03 0.0000000000000000e+00  -1.2880198348813744e-03 -9.2558243012711566e-03 0.0000000000000000e+00  -1.2876647698098400e-03 -9.5265070008812586e-03 0.0000000000000000e+00  -1.2873581367114991e-03 -9.7971935688349401e-03 0.0000000000000000e+00  -1.2870904990401756e-03 -1.0067880759076163e-02 0.0000000000000000e+00  -1.2868537337144624e-03 -1.0338566302145814e-02 0.0000000000000000e+00  -1.2866408856530951e-03 -1.0609248680557730e-02 0.0000000000000000e+00  -1.2864460100004689e-03 -1.0879926949937059e-02 0.0000000000000000e+00  -1.2862640123349380e-03 -1.1150600599377693e-02 0.0000000000000000e+00  -1.2860904960205451e-03 -1.1421269444805654e-02 0.0000000000000000e+00  -1.2859216272012852e-03 -1.1691933549240719e-02 0.0000000000000000e+00  -1.2857540333315232e-03 -1.1962593163914195e-02 0.0000000000000000e+00  -1.2855847633977987e-03 -1.2233248686474669e-02 0.0000000000000000e+00  -1.2854113584998494e-03 -1.2503900649424532e-02 0.0000000000000000e+00  -1.2852320867029771e-03 -1.2774549827072105e-02 0.0000000000000000e+00  -2.2165633210898160e-04 -2.0299630202859570e-04 0.0000000000000000e+00  -4.3787604890007189e-04 -4.4077767139860533e-04 0.0000000000000000e+00  -6.2275883076861997e-04 -6.9914501024313260e-04 0.0000000000000000e+00  -7.7015269957739555e-04 -9.6464865159441614e-04 0.0000000000000000e+00  -8.8415596507072729e-04 -1.2308896184544315e-03 0.0000000000000000e+00  -9.7101284949889825e-04 -1.4959100155178188e-03 0.0000000000000000e+00  -1.0364077268181498e-03 -1.7595717081250115e-03 0.0000000000000000e+00  -1.0849931382271832e-03 -2.0223043126109392e-03 0.0000000000000000e+00  -1.1204836131500698e-03 -2.2846228703611781e-03 0.0000000000000000e+00  -1.1458326572582036e-03 -2.5469662582324618e-03 0.0000000000000000e+00  -1.1633888365411293e-03 -2.8096584303245967e-03 0.0000000000000000e+00  -1.1750185195499802e-03 -3.0729140148753054e-03 0.0000000000000000e+00  -1.1822009427810913e-03 -3.3368576558372872e-03 0.0000000000000000e+00  -1.1861027368041386e-03 -3.6015453495957007e-03 0.0000000000000000e+00  -1.1876374135726582e-03 -3.8669835550018076e-03 0.0000000000000000e+00  -1.1875136119181282e-03 -4.1331448767430263e-03 0.0000000000000000e+00  -1.1862746632609151e-03 -4.3999803097640022e-03 0.0000000000000000e+00  -1.1843312352778348e-03 -4.6674284601137556e-03 0.0000000000000000e+00  -1.1819883083800183e-03 -4.9354222692168217e-03 0.0000000000000000e+00  -1.1794674279518539e-03 -5.2038937523379908e-03 0.0000000000000000e+00  -1.1769249781988581e-03 -5.4727771990883594e-03 0.0000000000000000e+00  -1.1744670930044828e-03 -5.7420112092464578e-03 0.0000000000000000e+00  -1.1721617265613396e-03 -6.0115398656047907e-03 0.0000000000000000e+00  -1.1700483351975034e-03 -6.2813132825107953e-03 0.0000000000000000e+00  -1.1681455627302571e-03 -6.5512877156609578e-03 0.0000000000000000e+00  -1.1664572701814190e-03 -6.8214253751569202e-03 0.0000000000000000e+00  -1.1649772045424021e-03 -7.0916940487776746e-03 0.0000000000000000e+00  -1.1636925595137173e-03 -7.3620666146043956e-03 0.0000000000000000e+00  -1.1625866433926150e-03 -7.6325205003315768e-03 0.0000000000000000e+00  -1.1616408354105333e-03 -7.9030371297098348e-03 0.0000000000000000e+00  -1.1608359817436257e-03 -8.1736013836462389e-03 0.0000000000000000e+00  -1.1601533560183803e-03 -8.4442010937405623e-03 0.0000000000000000e+00  -1.1595752862352678e-03 -8.7148265788007558e-03 0.0000000000000000e+00  -1.1590855304049444e-03 -8.9854702296169615e-03 0.0000000000000000e+00  -1.1586694665615426e-03 -9.2561261435389914e-03 0.0000000000000000e+00  -1.1583141488902117e-03 -9.5267898078404932