<?xml version="1.0"?>
<VTKFile type="UnstructuredGrid"  version="0.1"  >
<UnstructuredGrid>
<Piece  NumberOfPoints="6382" NumberOfCells="12354">
<Points>
<DataArray  type="Float64"  NumberOfComponents="3"  format="ascii">0 -3 0  0 0 0  10 -3 0  10 0 0  5.2 0 0  5.2 -0.4 0  5.5 -0.4 0  5.5 -0.6000000000000001 0  4.5 -0.6000000000000001 0  4.5 -0.4 0  4.8 -0.4 0  4.8 0 0  0 -2.666666666666667 0  0 -2.333333333333333 0  0 -2 0  0 -1.666666666666667 0  0 -1.333333333333333 0  0 -1 0  0 -0.666666666666667 0  0 -0.3333333333333335 0  9.836518447033493 -3 0  9.676485174132324 -3 0  9.519716728676565 -3 0  9.366040597429432 -3 0  9.215293522901804 -3 0  9.067325347766827 -3 0  8.921978167503752 -3 0  8.779125793186953 -3 0  8.638633440048579 -3 0  8.500376249002967 -3 0  8.364235730108557 -3 0  8.230099119300583 -3 0  8.097858693472926 -3 0  7.96741165420296 -3 0  7.838659590098249 -3 0  7.711508416266758 -3 0  7.585867779025237 -3 0  7.461651037321721 -3 0  7.338774694871047 -3 0  7.217158563845377 -3 0  7.096725097152937 -3 0  6.977399455051415 -3 0  6.859109304538208 -3 0  6.741784490575633 -3 0  6.625356935727237 -3 0  6.509760461250432 -3 0  6.394930659317325 -3 0  6.2808046903675 -3 0  6.167321173775116 -3 0  6.054420032640893 -3 0  5.942042373994132 -3 0  5.830130346471836 -3 0  5.718627047087892 -3 0  5.607476358937133 -3 0  5.496622874861212 -3 0  5.386011773348871 -3 0  5.275588701244851 -3 0  5.1652996754838 -3 0  5.055090972556302 -3 0  4.944909027443701 -3 0  4.834700324516204 -3 0  4.724411298755151 -3 0  4.613988226651132 -3 0  4.50337712513879 -3 0  4.392523641062869 -3 0  4.281372952912111 -3 0  4.169869653528168 -3 0  4.05795762600587 -3 0  3.94557996735911 -3 0  3.832678826224885 -3 0  3.719195309632506 -3 0  3.605069340682676 -3 0  3.490239538749567 -3 0  3.374643064272765 -3 0  3.25821550942437 -3 0  3.140890695461794 -3 0  3.022600544948583 -3 0  2.903274902847057 -3 0  2.782841436154621 -3 0  2.661225305128949 -3 0  2.538348962678273 -3 0  2.414132220974763 -3 0  2.288491583733238 -3 0  2.161340409901745 -3 0  2.032588345797035 -3 0  1.902141306527067 -3 0  1.76990088069941 -3 0  1.63576426989143 -3 0  1.499623750997021 -3 0  1.361366559951406 -3 0  1.220874206813038 -3 0  1.078021832496241 -3 0  0.9326746522331657 -3 0  0.7847064770981866 -3 0  0.6339594025705644 -3 0  0.4802832713234277 -3 0  0.3235148258676688 -3 0  0.1634815529665037 -3 0  10 -0.3333333333333333 0  10 -0.6666666666666666 0  10 -1 0  10 -1.333333333333333 0  10 -1.666666666666667 0  10 -2 0  10 -2.333333333333333 0  10 -2.666666666666667 0  5.242711110725164 0 0  5.286293876642154 0 0  5.330766086609641 0 0  5.37614589213589 0 0  5.422451816439484 0 0  5.469702760205794 0 0  5.517918009017504 0 0  5.567117241892008 0 0  5.617320540096343 0 0  5.668548395644089 0 0  5.720821717893487 0 0  5.774161842649544 0 0  5.828590541642586 0 0  5.88413003019757 0 0  5.940802977381058 0 0  5.998632515893446 0 0  6.057642249375406 0 0  6.117856262977496 0 0  6.179299133651088 0 0  6.241995940085244 0 0  6.305972273082686 0 0  6.371254245606542 0 0  6.43786850326221 0 0  6.505842235920577 0 0  6.575203187664691 0 0  6.645979668539436 0 0  6.71820056760014 0 0  6.791895362764803 0 0  6.867094133292654 0 0  6.943827572794882 0 0  7.022127001289535 0 0  7.10202437703821 0 0  7.183552311040527 0 0  7.266744080707336 0 0  7.351633641831447 0 0  7.438255642584554 0 0  7.526645439439152 0 0  7.616839110330926 0 0  7.708873468012155 0 0  7.802786077905059 0 0  7.898615271449994 0 0  7.996400162886068 0 0  8.096180664647234 0 0  8.197997502517053 0 0  8.301892235188374 0 0  8.407907268711336 0 0  8.516085874431543 0 0  8.626472207031901 0 0  8.739111321743804 0 0  8.854049193814495 0 0  8.971332736524433 0 0  9.091009820696414 0 0  9.21312929427506 0 0  9.337741001971482 0 0  9.464895805719847 0 0  9.594645605970797 0 0  9.727043361679982 0 0  9.862143111819449 0 0  5.2 -0.01666666666666669 0  5.2 -0.03333333333333339 0  5.2 -0.05000000000000009 0  5.2 -0.06666666666666679 0  5.2 -0.0833333333333335 0  5.2 -0.1000000000000002 0  5.2 -0.1166666666666669 0  5.2 -0.1333333333333336 0  5.2 -0.1500000000000002 0  5.2 -0.1666666666666669 0  5.2 -0.1833333333333335 0  5.2 -0.2000000000000001 0  5.2 -0.2166666666666668 0  5.2 -0.2333333333333335 0  5.2 -0.2500000000000002 0  5.2 -0.2666666666666669 0  5.2 -0.2833333333333335 0  5.2 -0.3000000000000002 0  5.2 -0.3166666666666668 0  5.2 -0.3333333333333335 0  5.2 -0.3500000000000001 0  5.2 -0.3666666666666668 0  5.2 -0.3833333333333334 0  5.2125 -0.4 0  5.225 -0.4 0  5.2375 -0.4 0  5.25 -0.4 0  5.2625 -0.4 0  5.275 -0.4 0  5.2875 -0.4 0  5.3 -0.4 0  5.3125 -0.4 0  5.325 -0.4 0  5.337499999999999 -0.4 0  5.35 -0.4 0  5.3625 -0.4 0  5.375 -0.4 0  5.3875 -0.4 0  5.4 -0.4 0  5.4125 -0.4 0  5.425 -0.4 0  5.4375 -0.4 0  5.45 -0.4 0  5.4625 -0.4 0  5.475 -0.4 0  5.4875 -0.4 0  5.5 -0.4083333333333334 0  5.5 -0.4166666666666667 0  5.5 -0.425 0  5.5 -0.4333333333333334 0  5.5 -0.4416666666666668 0  5.5 -0.4500000000000001 0  5.5 -0.4583333333333334 0  5.5 -0.4666666666666668 0  5.5 -0.4750000000000001 0  5.5 -0.4833333333333335 0  5.5 -0.4916666666666668 0  5.5 -0.5000000000000002 0  5.5 -0.5083333333333335 0  5.5 -0.5166666666666668 0  5.5 -0.5250000000000002 0  5.5 -0.5333333333333335 0  5.5 -0.5416666666666669 0  5.5 -0.5500000000000002 0  5.5 -0.5583333333333335 0  5.5 -0.5666666666666668 0  5.5 -0.5750000000000002 0  5.5 -0.5833333333333335 0  5.5 -0.5916666666666668 0  5.479591836734694 -0.6000000000000001 0  5.459183673469388 -0.6000000000000001 0  5.438775510204081 -0.6000000000000001 0  5.418367346938775 -0.6000000000000001 0  5.397959183673469 -0.6000000000000001 0  5.377551020408164 -0.6000000000000001 0  5.357142857142857 -0.6000000000000001 0  5.336734693877551 -0.6000000000000001 0  5.316326530612245 -0.6000000000000001 0  5.295918367346939 -0.6000000000000001 0  5.275510204081633 -0.6000000000000001 0  5.255102040816326 -0.6000000000000001 0  5.23469387755102 -0.6000000000000001 0  5.214285714285714 -0.6000000000000001 0  5.193877551020408 -0.6000000000000001 0  5.173469387755102 -0.6000000000000001 0  5.153061224489796 -0.6000000000000001 0  5.13265306122449 -0.6000000000000001 0  5.112244897959184 -0.6000000000000001 0  5.091836734693878 -0.6000000000000001 0  5.071428571428571 -0.6000000000000001 0  5.051020408163265 -0.6000000000000001 0  5.030612244897959 -0.6000000000000001 0  5.010204081632653 -0.6000000000000001 0  4.989795918367347 -0.6000000000000001 0  4.969387755102041 -0.6000000000000001 0  4.948979591836735 -0.6000000000000001 0  4.928571428571429 -0.6000000000000001 0  4.908163265306122 -0.6000000000000001 0  4.887755102040816 -0.6000000000000001 0  4.86734693877551 -0.6000000000000001 0  4.846938775510204 -0.6000000000000001 0  4.826530612244898 -0.6000000000000001 0  4.806122448979592 -0.6000000000000001 0  4.785714285714286 -0.6000000000000001 0  4.76530612244898 -0.6000000000000001 0  4.744897959183674 -0.6000000000000001 0  4.724489795918368 -0.6000000000000001 0  4.704081632653061 -0.6000000000000001 0  4.683673469387755 -0.6000000000000001 0  4.663265306122449 -0.6000000000000001 0  4.642857142857143 -0.6000000000000001 0  4.622448979591836 -0.6000000000000001 0  4.602040816326531 -0.6000000000000001 0  4.581632653061225 -0.6000000000000001 0  4.561224489795919 -0.6000000000000001 0  4.540816326530612 -0.6000000000000001 0  4.520408163265306 -0.6000000000000001 0  4.5 -0.5916666666666668 0  4.5 -0.5833333333333334 0  4.5 -0.5750000000000001 0  4.5 -0.5666666666666668 0  4.5 -0.5583333333333333 0  4.5 -0.55 0  4.5 -0.5416666666666667 0  4.5 -0.5333333333333333 0  4.5 -0.525 0  4.5 -0.5166666666666666 0  4.5 -0.5083333333333333 0  4.5 -0.4999999999999999 0  4.5 -0.4916666666666666 0  4.5 -0.4833333333333332 0  4.5 -0.4749999999999999 0  4.5 -0.4666666666666666 0  4.5 -0.4583333333333333 0  4.5 -0.45 0  4.5 -0.4416666666666667 0  4.5 -0.4333333333333333 0  4.5 -0.425 0  4.5 -0.4166666666666667 0  4.5 -0.4083333333333334 0  4.5125 -0.4 0  4.525 -0.4 0  4.5375 -0.4 0  4.55 -0.4 0  4.5625 -0.4 0  4.575 -0.4 0  4.587499999999999 -0.4 0  4.6 -0.4 0  4.6125 -0.4 0  4.625 -0.4 0  4.637499999999999 -0.4 0  4.649999999999999 -0.4 0  4.6625 -0.4 0  4.675 -0.4 0  4.6875 -0.4 0  4.699999999999999 -0.4 0  4.712499999999999 -0.4 0  4.725 -0.4 0  4.7375 -0.4 0  4.75 -0.4 0  4.7625 -0.4 0  4.774999999999999 -0.4 0  4.7875 -0.4 0  4.8 -0.3833333333333333 0  4.8 -0.3666666666666666 0  4.8 -0.3499999999999999 0  4.8 -0.3333333333333333 0  4.8 -0.3166666666666665 0  4.8 -0.2999999999999998 0  4.8 -0.2833333333333331 0  4.8 -0.2666666666666664 0  4.8 -0.2499999999999998 0  4.8 -0.2333333333333331 0  4.8 -0.2166666666666665 0  4.8 -0.1999999999999999 0  4.8 -0.1833333333333332 0  4.8 -0.1666666666666665 0  4.8 -0.1499999999999998 0  4.8 -0.1333333333333331 0  4.8 -0.1166666666666665 0  4.8 -0.09999999999999987 0  4.8 -0.0833333333333332 0  4.8 -0.06666666666666654 0  4.8 -0.04999999999999988 0  4.8 -0.03333333333333327 0  4.8 -0.01666666666666661 0  0.1378568875240437 0 0  0.2729566377271358 0 0  0.4053543934976697 0 0  0.5351041938077431 0 0  0.6622589976130751 0 0  0.7868707053643811 0 0  0.9089901789958823 0 0  1.028667263218748 0 0  1.14595080597766 0 0  1.260888678095464 0 0  1.373527792852679 0 0  1.483914125496606 0 0  1.592092731258683 0 0  1.698107764821866 0 0  1.802002497531814 0 0  1.90381933543871 0 0  2.003599837235452 0 0  2.101384728705643 0 0  2.197213922283282 0 0  2.291126532207516 0 0  2.38316088991875 0 0  2.473354560839241 0 0  2.56174435771825 0 0  2.648366358500676 0 0  2.733255919649871 0 0  2.81644768934063 0 0  2.897975623365796 0 0  2.977872999136252 0 0  3.056172427651654 0 0  3.132905867173631 0 0  3.208104637720262 0 0  3.28179943290277 0 0  3.354020331980409 0 0  3.42479681287121 0 0  3.494157764630528 0 0  3.562131497303279 0 0  3.628745754972536 0 0  3.69402772750921 0 0  3.758004060518725 0 0  3.820700866964234 0 0  3.882143737648484 0 0  3.942357751260559 0 0  4.0013674
[...]
<PointData  Vectors="displacement"> 
<DataArray  type="Float64"  Name="displacement"  NumberOfComponents="3" format="ascii">0.0000000000000000e+00 0.0000000000000000e+00 0.0000000000000000e+00  -6.1663849232615974e-04 -3.9047939721024080e-07 0.0000000000000000e+00  0.0000000000000000e+00 0.0000000000000000e+00 0.0000000000000000e+00  6.1732864674704177e-04 -2.3710751186954587e-07 0.0000000000000000e+00  0.0000000000000000e+00 -3.6769103188627910e-03 0.0000000000000000e+00  0.0000000000000000e+00 -3.7542028328091475e-03 0.0000000000000000e+00  0.0000000000000000e+00 -3.6993592092251404e-03 0.0000000000000000e+00  0.0000000000000000e+00 -4.7744142612228830e-03 0.0000000000000000e+00  0.0000000000000000e+00 -4.6721546916723500e-03 0.0000000000000000e+00  0.0000000000000000e+00 -3.6902058761017404e-03 0.0000000000000000e+00  0.0000000000000000e+00 -3.7448669287081550e-03 0.0000000000000000e+00  0.0000000000000000e+00 -3.6679565095546068e-03 0.0000000000000000e+00  -1.7427028491985794e-04 -1.2069489819845762e-04 0.0000000000000000e+00  -3.2272088814929226e-04 -1.4496448265065393e-04 0.0000000000000000e+00  -4.4051267894864367e-04 -1.3099884688383477e-04 0.0000000000000000e+00  -5.2271252025572212e-04 -9.7140185375078320e-05 0.0000000000000000e+00  -5.7117168100813333e-04 -5.8836179356857075e-05 0.0000000000000000e+00  -5.9311667515417050e-04 -2.6537383542280059e-05 0.0000000000000000e+00  -6.0019279275925856e-04 -6.9592539778134250e-06 0.0000000000000000e+00  -6.0523459500610880e-04 -2.9772700504376211e-07 0.0000000000000000e+00  0.0000000000000000e+00 0.0000000000000000e+00 0.0000000000000000e+00  0.0000000000000000e+00 0.0000000000000000e+00 0.0000000000000000e+00  0.0000000000000000e+00 0.0000000000000000e+00 0.0000000000000000e+00  0.0000000000000000e+00 0.0000000000000000e+00 0.0000000000000000e+00  0.0000000000000000e+00 0.0000000000000000e+00 0.0000000000000000e+00  0.0000000000000000e+00 0.0000000000000000e+00 0.0000000000000000e+00  0.0000000000000000e+00 0.0000000000000000e+00 0.0000000000000000e+00  0.0000000000000000e+00 0.0000000000000000e+00 0.0000000000000000e+00  0.0000000000000000e+00 0.0000000000000000e+00 0.0000000000000000e+00  0.0000000000000000e+00 0.0000000000000000e+00 0.0000000000000000e+00  0.0000000000000000e+00 0.0000000000000000e+00 0.0000000000000000e+00  0.0000000000000000e+00 0.0000000000000000e+00 0.0000000000000000e+00  0.0000000000000000e+00 0.0000000000000000e+00 0.0000000000000000e+00  0.0000000000000000e+00 0.0000000000000000e+00 0.0000000000000000e+00  0.0000000000000000e+00 0.0000000000000000e+00 0.0000000000000000e+00  0.0000000000000000e+00 0.0000000000000000e+00 0.0000000000000000e+00  0.0000000000000000e+00 0.0000000000000000e+00 0.0000000000000000e+00  0.0000000000000000e+00 0.0000000000000000e+00 0.0000000000000000e+00  0.0000000000000000e+00 0.0000000000000000e+00 0.0000000000000000e+00  0.0000000000000000e+00 0.0000000000000000e+00 0.0000000000000000e+00  0.0000000000000000e+00 0.0000000000000000e+00 0.0000000000000000e+00  0.0000000000000000e+00 0.0000000000000000e+00 0.0000000000000000e+00  0.0000000000000000e+00 0.0000000000000000e+00 0.0000000000000000e+00  0.0000000000000000e+00 0.0000000000000000e+00 0.0000000000000000e+00  0.0000000000000000e+00 0.0000000000000000e+00 0.0000000000000000e+00  0.0000000000000000e+00 0.0000000000000000e+00 0.0000000000000000e+00  0.0000000000000000e+00 0.0000000000000000e+00 0.0000000000000000e+00  0.0000000000000000e+00 0.0000000000000000e+00 0.0000000000000000e+00  0.0000000000000000e+00 0.0000000000000000e+00 0.0000000000000000e+00  0.0000000000000000e+00 0.0000000000000000e+00 0.0000000000000000e+00  0.0000000000000000e+00 0.0000000000000000e+00 0.0000000000000000e+00  0.0000000000000000e+00 0.0000000000000000e+00 0.0000000000000000e+00  0.0000000000000000e+00 0.0000000000000000e+00 0.0000000000000000e+00  0.0000000000000000e+00 0.0000000000000000e+00 0.0000000000000000e+00  0.0000000000000000e+00 0.0000000000000000e+00 0.0000000000000000e+00  0.0000000000000000e+00 0.0000000000000000e+00 0.0000000000000000e+00  0.0000000000000000e+00 0.0000000000000000e+00 0.0000000000000000e+00  0.0000000000000000e+00 0.0000000000000000e+00 0.0000000000000000e+00  0.0000000000000000e+00 0.0000000000000000e+00 0.0000000000000000e+00  0.0000000000000000e+00 0.0000000000000000e+00 0.0000000000000000e+00  0.0000000000000000e+00 0.0000000000000000e+00 0.0000000000000000e+00  0.0000000000000000e+00 0.0000000000000000e+00 0.0000000000000000e+00  0.0000000000000000e+00 0.0000000000000000e+00 0.0000000000000000e+00  0.0000000000000000e+00 0.0000000000000000e+00 0.0000000000000000e+00  0.0000000000000000e+00 0.0000000000000000e+00 0.0000000000000000e+00  0.0000000000000000e+00 0.0000000000000000e+00 0.0000000000000000e+00  0.0000000000000000e+00 0.0000000000000000e+00 0.0000000000000000e+00  0.0000000000000000e+00 0.0000000000000000e+00 0.0000000000000000e+00  0.0000000000000000e+00 0.0000000000000000e+00 0.0000000000000000e+00  0.0000000000000000e+00 0.0000000000000000e+00 0.0000000000000000e+00  0.0000000000000000e+00 0.0000000000000000e+00 0.0000000000000000e+00  0.0000000000000000e+00 0.0000000000000000e+00 0.0000000000000000e+00  0.0000000000000000e+00 0.0000000000000000e+00 0.0000000000000000e+00  0.0000000000000000e+00 0.0000000000000000e+00 0.0000000000000000e+00  0.0000000000000000e+00 0.0000000000000000e+00 0.0000000000000000e+00  0.0000000000000000e+00 0.0000000000000000e+00 0.0000000000000000e+00  0.0000000000000000e+00 0.0000000000000000e+00 0.0000000000000000e+00  0.0000000000000000e+00 0.0000000000000000e+00 0.0000000000000000e+00  0.0000000000000000e+00 0.0000000000000000e+00 0.0000000000000000e+00  0.0000000000000000e+00 0.0000000000000000e+00 0.0000000000000000e+00  0.0000000000000000e+00 0.0000000000000000e+00 0.0000000000000000e+00  0.0000000000000000e+00 0.0000000000000000e+00 0.0000000000000000e+00  0.0000000000000000e+00 0.0000000000000000e+00 0.0000000000000000e+00  0.0000000000000000e+00 0.0000000000000000e+00 0.0000000000000000e+00  0.0000000000000000e+00 0.0000000000000000e+00 0.0000000000000000e+00  0.0000000000000000e+00 0.0000000000000000e+00 0.0000000000000000e+00  0.0000000000000000e+00 0.0000000000000000e+00 0.0000000000000000e+00  0.0000000000000000e+00 0.0000000000000000e+00 0.0000000000000000e+00  0.0000000000000000e+00 0.0000000000000000e+00 0.0000000000000000e+00  0.0000000000000000e+00 0.0000000000000000e+00 0.0000000000000000e+00  0.0000000000000000e+00 0.0000000000000000e+00 0.0000000000000000e+00  0.0000000000000000e+00 0.0000000000000000e+00 0.0000000000000000e+00  0.0000000000000000e+00 0.0000000000000000e+00 0.0000000000000000e+00  0.0000000000000000e+00 0.0000000000000000e+00 0.0000000000000000e+00  0.0000000000000000e+00 0.0000000000000000e+00 0.0000000000000000e+00  0.0000000000000000e+00 0.0000000000000000e+00 0.0000000000000000e+00  0.0000000000000000e+00 0.0000000000000000e+00 0.0000000000000000e+00  0.0000000000000000e+00 0.0000000000000000e+00 0.0000000000000000e+00  6.0589892816896606e-04 -1.8330916590871103e-07 0.0000000000000000e+00  6.0093184847690839e-04 -6.7198700183290834e-06 0.0000000000000000e+00  5.9387801501776681e-04 -2.6413302480529925e-05 0.0000000000000000e+00  5.7198378187465907e-04 -5.8774884356726274e-05 0.0000000000000000e+00  5.2350410325265355e-04 -9.7062231527581083e-05 0.0000000000000000e+00  4.4111998623610549e-04 -1.3127875050999858e-04 0.0000000000000000e+00  3.2311377881109356e-04 -1.4524611093724677e-04 0.0000000000000000e+00  1.7470400256036053e-04 -1.2077528365671500e-04 0.0000000000000000e+00  -4.8016349256226257e-05 -3.6741760190885341e-03 0.0000000000000000e+00  -9.7422060437568067e-05 -3.6656235892944563e-03 0.0000000000000000e+00  -1.4861576387176001e-04 -3.6505252185377868e-03 0.0000000000000000e+00  -2.0198383744178354e-04 -3.6278026349851784e-03 0.0000000000000000e+00  -2.5772862352914703e-04 -3.5959793460028176e-03 0.0000000000000000e+00  -3.1574009692883205e-04 -3.5532540624974257e-03 0.0000000000000000e+00  -3.7532587763465118e-04 -3.4975771444580041e-03 0.0000000000000000e+00  -4.3520850140337566e-04 -3.4270097860060046e-03 0.0000000000000000e+00  -4.9341498372608536e-04 -3.3401556675499103e-03 0.0000000000000000e+00  -5.4758494411879068e-04 -3.2364725333875119e-03 0.0000000000000000e+00  -5.9519393102683792e-04 -3.1165656797712111e-03 0.0000000000000000e+00  -6.3413792821150029e-04 -2.9821060421259238e-03 0.0000000000000000e+00  -6.6283095857769541e-04 -2.8356135104873935e-03 0.0000000000000000e+00  -6.8045665854059312e-04 -2.6800734457985958e-03 0.0000000000000000e+00  -6.8692222529696475e-04 -2.5185929857933229e-03 0.0000000000000000e+00  -6.8263745109926411e-04 -2.3541097752585571e-03 0.0000000000000000e+00  -6.6864669227130339e-04 -2.1892605870510512e-03 0.0000000000000000e+00  -6.4593205445174779e-04 -2.0262037008992382e-03 0.0000000000000000e+00  -6.1580364760486410e-04 -1.8666854325112376e-03 0.0000000000000000e+00  -5.7955594386285489e-04 -1.7120512491837511e-03 0.0000000000000000e+00  -5.3833322724906808e-04 -1.5632726026753427e-03 0.0000000000000000e+00  -4.9326742380555373e-04 -1.4210233446432120e-03 0.0000000000000000e+00  -4.4527373585556733e-04 -1.2857467810428031e-03 0.0000000000000000e+00  -3.9525730345128454e-04 -1.1576964053338135e-03 0.0000000000000000e+00  -3.4386339104885765e-04 -1.0369932508072764e-03 0.0000000000000000e+00  -2.9173764108608041e-04 -9.2363995639594418e-04 0.0000000000000000e+00  -2.3938546185168442e-04 -8.1756971426514614e-04 0.0000000000000000e+00  -1.8722653945049393e-04 -7.1865593441399877e-04 0.0000000000000000e+00  -1.3557987288372535e-04 -6.2675204260921125e-04 0.0000000000000000e+00  -8.4768874664808652e-05 -5.4166938844116654e-04 0.0000000000000000e+00  -3.5013026052664886e-05 -4.6320432864519975e-04 0.0000000000000000e+00  1.3491947758249299e-05 -3.9114800075869000e-04 0.0000000000000000e+00  6.0586702779793377e-05 -3.2528353809764326e-04 0.0000000000000000e+00  1.0613807896633605e-04 -2.6538969194507707e-04 0.0000000000000000e+00  1.5004006871862123e-04 -2.1123478102346712e-04 0.0000000000000000e+00  1.9220552898051134e-04 -1.6260931945520732e-04 0.0000000000000000e+00  2.3255607756060028e-04 -1.1928220767360241e-04 0.0000000000000000e+00  2.7104274173823863e-04 -8.1023212026254125e-05 0.0000000000000000e+00  3.0760543711615276e-04 -4.7610253239489667e-05 0.0000000000000000e+00  3.4221853143083411e-04 -1.8816205166434027e-05 0.0000000000000000e+00  3.7483646782320707e-04 5.5823295341973414e-06 0.0000000000000000e+00  4.0544516359764275e-04 2.5817432384429700e-05 0.0000000000000000e+00  4.3402177314272983e-04 4.2122977597528307e-05 0.0000000000000000e+00  4.6055042688306346e-04 5.4731856497100221e-05 0.0000000000000000e+00  4.8501943550657666e-04 6.3884586811137944e-05 0.0000000000000000e+00  5.0741699895972734e-04 6.9826543028645926e-05 0.0000000000000000e+00  5.2772870382523441e-04 7.2814132260895552e-05 0.0000000000000000e+00  5.4595770950590153e-04 7.3122582968117690e-05 0.0000000000000000e+00  5.6207832156064804e-04 7.1025682345395239e-05 0.0000000000000000e+00  5.7608705299277486e-04 6.6836376372484945e-05 0.0000000000000000e+00  5.8798052659480204e-04 6.0889548352136904e-05 0.0000000000000000e+00  5.9775597786215101e-04 5.3550574545622620e-05 0.0000000000000000e+00  6.0543663228392584e-04 4.5231717426231996e-05 0.0000000000000000e+00  6.1107620040938386e-04 3.6383736381143481e-05 0.0000000000000000e+00  6.1478807073020035e-04 2.7504167586099985e-05 0.0000000000000000e+00  6.1678403729851919e-04 1.9097875356276912e-05 0.0000000000000000e+00  6.1746544451532070e-04 1.1628008365492612e-05 0.0000000000000000e+00  6.1736424157598569e-04 5.3812404347474525e-06 0.0000000000000000e+00  0.0000000000000000e+00 -3.6847475150176170e-03 0.0000000000000000e+00  0.0000000000000000e+00 -3.6921911918330308e-03 0.0000000000000000e+00  0.0000000000000000e+00 -3.6992112850231882e-03 0.0000000000000000e+00  0.0000000000000000e+00 -3.7057872438043039e-03 0.0000000000000000e+00  0.0000000000000000e+00 -3.7119038115684582e-03 0.0000000000000000e+00  0.0000000000000000e+00 -3.7175528690925547e-03 0.0000000000000000e+00  0.0000000000000000e+00 -3.7227313943967492e-03 0.0000000000000000e+00  0.0000000000000000e+00 -3.7274413426286977e-03 0.0000000000000000e+00  0.0000000000000000e+00 -3.7316889299610317e-03 0.0000000000000000e+00  0.0000000000000000e+00 -3.7354850000617863e-03 0.0000000000000000e+00  0.0000000000000000e+00 -3.7388434592427852e-03 0.0000000000000000e+00  0.0000000000000000e+00 -3.7417827118956162e-03 0.0000000000000000e+00  0.0000000000000000e+00 -3.7443235278821689e-03 0.0000000000000000e+00  0.0000000000000000e+00 -3.7464909047309697e-03 0.0000000000000000e+00  0.0000000000000000e+00 -3.7483126720597761e-03 0.0000000000000000e+00  0.0000000000000000e+00 -3.7498174033999761e-03 0.0000000000000000e+00  0.0000000000000000e+00 -3.7510386297578886e-03 0.0000000000000000e+00  0.0000000000000000e+00 -3.7520082072013921e-03 0.0000000000000000e+00  0.0000000000000000e+00 -3.7527591301191941e-03 0.0000000000000000e+00  0.0000000000000000e+00 -3.7533226413716163e-03 0.0000000000000000e+00  0.0000000000000000e+00 -3.7537278141208303e-03 0.0000000000000000e+00  0.0000000000000000e+00 -3.7539981707400282e-03 0.0000000000000000e+00  0.0000000000000000e+00 -3.7541527057027694e-03 0.0000000000000000e+00  0.0000000000000000e+00 -3.7539834520150944e-03 0.0000000000000000e+00  0.0000000000000000e+00 -3.7533259791656384e-03 0.0000000000000000e+00  0.0000000000000000e+00 -3.7522326282618526e-03 0.0000000000000000e+00  0.0000000000000000e+00 -3.7507071385460950e-03 0.0000000000000000e+00  0.0000000000000000e+00 -3.7487549444235459e-03 0.0000000000000000e+00  0.0000000000000000e+00 -3.7463832801644024e-03 0.0000000000000000e+00  0.0000000000000000e+00 -3.7436019209676776e-03 0.0000000000000000e+00  0.0000000000000000e+00 -3.7404227780968866e-03 0.0000000000000000e+00  0.0000000000000000e+00 -3.7368609924919370e-03 0.0000000000000000e+00  0.0000000000000000e+00 -3.7329354427107844e-03 0.0000000000000000e+00  0.0000000000000000e+00 -3.7286696021353138e-03 0.0000000000000000e+00  0.0000000000000000e+00 -3.7240928442284623e-03 0.0000000000000000e+00  0.0000000000000000e+00 -3.7192417871598350e-03 0.0000000000000000e+00  0.0000000000000000e+00 -3.7141625854520540e-03 0.0000000000000000e+00  0.0000000000000000e+00 -3.7089144055544461e-03 0.0000000000000000e+00  0.0000000000000000e+00 -3.7035734603049811e-03 0.0000000000000000e+00  0.0000000000000000e+00 -3.6982411280795037e-03 0.0000000000000000e+00  0.0000000000000000e+00 -3.6930548527417928e-03 0.0000000000000000e+00  0.0000000000000000e+00 -3.6882080954985007e-03 0.0000000000000000e+00  0.0000000000000000e+00 -3.6839851936085292e-03 0.0000000000000000e+00  0.0000000000000000e+00 -3.6808487417647516e-03 0.0000000000000000e+00  0.0000000000000000e+00 -3.6796167569775481e-03 0.0000000000000000e+00  0.0000000000000000e+00 -3.6822749749373497e-03 0.0000000000000000e+00  0.0000000000000000e+00 -3.7170699370282180e-03 0.0000000000000000e+00  0.0000000000000000e+00 -3.7305567038097239e-03 0.0000000000000000e+00  0.0000000000000000e+00 -3.7437413579608013e-03 0.0000000000000000e+00  0.0000000000000000e+00 -3.7571471758519638e-03 0.0000000000000000e+00  0.0000000000000000e+00 -3.7709803640870879e-03 0.0000000000000000e+00  0.0000000000000000e+00 -3.7853510590711071e-03 0.0000000000000000e+00  0.0000000000000000e+00 -3.8003514449897698e-03 0.0000000000000000e+00  0.0000000000000000e+00 -3.8160483035557437e-03 0.0000000000000000e+00  0.0000000000000000e+00 -3.8325140364722132e-03 0.0000000000000000e+00  0.0000000000000000e+00 -3.8498122894435423e-03 0.0000000000000000e+00  0.0000000000000000e+00 -3.8680285730605828e-03 0.0000000000000000e+00  0.0000000000000000e+00 -3.8872163381633244e-03 0.0000000000000000e+00  0.0000000000000000e+00 -3.9074817986584952e-03 0.0000000000000000e+00  0.0000000000000000e+00 -3.9289036691174187e-03 0.0000000000000000e+00  0.0000000000000000e+00 -3.9515940855271679e-03 0.0000000000000000e+00  0.0000000000000000e+00 -3.9756550049563927e-03 0.0000000000000000e+00  0.0000000000000000e+00 -4.0012007254828681e-03 0.0000000000000000e+00  0.0000000000000000e+00 -4.0283633925301153e-03 0.0000000000000000e+00  0.0000000000000000e+00 -4.0572069916233449e-03 0.0000000000000000e+00  0.0000000000000000e+00 -4.0877428029943092e-03 0.0000000000000000e+00  0.0000000000000000e+00 -4.1201515963482900e-03 0.0000000000000000e+00  0.0000000000000000e+00 -4.1511887007880362e-03 0.0000000000000000e+00  0.0000000000000000e+00 -4.2604028867917493e-03 0.0000000000000000e+00  -1.1122307072411778e-03 -9.8320836116819500e-03 0.0000000000000000e+00  -1.0868614451843830e-03 -1.0084613876889333e-02 0.0000000000000000e+00  -1.0609561127150064e-03 -1.0352285375418130e-02 0.0000000000000000e+00  -1.0225052808032408e-03 -1.0599392189326477e-02 0.0000000000000000e+00  -9.7984019142344746e-04 -1.0820867813024883e-02 0.0000000000000000e+00  -9.3466498602444697e-04 -1.1020268888004205e-02 0.0000000000000000e+00  -8.8792984111054284e-04 -1.1200491191581719e-02 0.0000000000000000e+00  -8.4014447322624175e-04 -1.1363834547876010e-02 0.0000000000000000e+00  -7.9162213520261307e-04 -1.1512187536434029e-02 0.0000000000000000e+00  -7.4252329772916471e-04 -1.1647032780254533e-02 0.0000000000000000e+00  -6.9295947908728822e-04 -1.1769536838464432e-02 0.0000000000000000e+00  -6.4300939270731203e-04 -1.1880632741873797e-02 0.0000000000000000e+00  -5.9273578851986892e-04 -1.1981081424426119e-02 0.0000000000000000e+00  -5.4218276964482345e-04 -1.2071506496294925e-02 0.0000000000000000e+00  -4.9139145868174578e-04 -1.2152425542483684e-02 0.0000000000000000e+00  -4.4039678854115882e-04 -1.2224267944361846e-02 0.0000000000000000e+00  -3.8921915641404269e-04 -1.2287377760973595e-02 0.0000000000000000e+00  -3.3788919431251813e-04 -1.2342052537437817e-02 0.0000000000000000e+00  -2.8643263988040461e-04 -1.2388537327380055e-02 0.0000000000000000e+00  -2.3486940401424696e-04 -1.2427026965293643e-02 0.0000000000000000e+00  -1.8322344482171022e-04 -1.2457678763727262e-02 0.0000000000000000e+00  -1.3151031128078779e-04 -1.2480613771055157e-02 0.0000000000000000e+00  -7.9753300873910049e-05 -1.2495924192884977e-02 0.0000000000000000e+00  -2.7971647868282643e-05 -1.2503667249179513e-02 0.0000000000000000e+00  2.3820808748141704e-05 -1.2503871552473497e-02 0.0000000000000000e+00  7.5600990845230403e-05 -1.2496538585213744e-02 0.0000000000000000e+00  1.2734932201828334e-04 -1.2481639394861497e-02 0.0000000000000000e+00  1.7905202409030917e-04 -1.2459118301067921e-02 0.0000000000000000e+00  2.3068556904069234e-04 -1.2428886812766781e-02 0.0000000000000000e+00  2.8223427296731013e-04 -1.2390823307819340e-02 0.0000000000000000e+00  3.3367199363101960e-04 -1.2344768496819005e-02 0.0000000000000000e+00  3.8498647837958527e-04 -1.2290531930070219e-02 0.0000000000000000e+00  4.3613826871270148e-04 -1.2227865709229744e-02 0.0000000000000000e+00  4.8711773106247913e-04 -1.2156483591097436e-02 0.0000000000000000e+00  5.3789378829431102e-04 -1.2076031474797112e-02 0.0000000000000000e+00  5.8843615066376089e-04 -1.1986084348522687e-02 0.0000000000000000e+00  6.3871072102577339e-04 -1.1886127827185591e-02 0.0000000000000000e+00  6.8868351313919264e-04 -1.1775533148364018e-02 0.0000000000000000e+00  7.3828453990299836e-04 -1.1653512614805860e-02 0.0000000000000000e+00  7.8748060301772529e-04 -1.1519136928440494e-02 0.0000000000000000e+00  8.3617142936786616e-04 -1.1371197534996177e-02 0.0000000000000000e+00  8.8419902143711327e-04 -1.1208170987324252e-02 0.0000000000000000e+00  9.3134466589387874e-04 -1.1028090448739045e-02 0.0000000000000000e+00  9.7718284664200807e-04 -1.0828436225818645e-02 0.0000000000000000e+00  1.0211628296355581e-03 -1.0605809980520004e-02 0.0000000000000000e+00  1.0615062236471089e-03 -1.0355515283901462e-02 0.0000000000000000e+00  1.0938884525787717e-03 -1.0075675233839650e-02 0.0000000000000000e+00  1.1224328818240821e-03 -9.7702