<?xml version="1.0"?>
<VTKFile type="UnstructuredGrid"  version="0.1"  >
<UnstructuredGrid>
<Piece  NumberOfPoints="6382" NumberOfCells="12354">
<Points>
<DataArray  type="Float64"  NumberOfComponents="3"  format="ascii">0 -3 0  0 0 0  10 -3 0  10 0 0  5.2 0 0  5.2 -0.4 0  5.5 -0.4 0  5.5 -0.6000000000000001 0  4.5 -0.6000000000000001 0  4.5 -0.4 0  4.8 -0.4 0  4.8 0 0  0 -2.666666666666667 0  0 -2.333333333333333 0  0 -2 0  0 -1.666666666666667 0  0 -1.333333333333333 0  0 -1 0  0 -0.666666666666667 0  0 -0.3333333333333335 0  9.836518447033493 -3 0  9.676485174132324 -3 0  9.519716728676565 -3 0  9.366040597429432 -3 0  9.215293522901804 -3 0  9.067325347766827 -3 0  8.921978167503752 -3 0  8.779125793186953 -3 0  8.638633440048579 -3 0  8.500376249002967 -3 0  8.364235730108557 -3 0  8.230099119300583 -3 0  8.097858693472926 -3 0  7.96741165420296 -3 0  7.838659590098249 -3 0  7.711508416266758 -3 0  7.585867779025237 -3 0  7.461651037321721 -3 0  7.338774694871047 -3 0  7.217158563845377 -3 0  7.096725097152937 -3 0  6.977399455051415 -3 0  6.859109304538208 -3 0  6.741784490575633 -3 0  6.625356935727237 -3 0  6.509760461250432 -3 0  6.394930659317325 -3 0  6.2808046903675 -3 0  6.167321173775116 -3 0  6.054420032640893 -3 0  5.942042373994132 -3 0  5.830130346471836 -3 0  5.718627047087892 -3 0  5.607476358937133 -3 0  5.496622874861212 -3 0  5.386011773348871 -3 0  5.275588701244851 -3 0  5.1652996754838 -3 0  5.055090972556302 -3 0  4.944909027443701 -3 0  4.834700324516204 -3 0  4.724411298755151 -3 0  4.613988226651132 -3 0  4.50337712513879 -3 0  4.392523641062869 -3 0  4.281372952912111 -3 0  4.169869653528168 -3 0  4.05795762600587 -3 0  3.94557996735911 -3 0  3.832678826224885 -3 0  3.719195309632506 -3 0  3.605069340682676 -3 0  3.490239538749567 -3 0  3.374643064272765 -3 0  3.25821550942437 -3 0  3.140890695461794 -3 0  3.022600544948583 -3 0  2.903274902847057 -3 0  2.782841436154621 -3 0  2.661225305128949 -3 0  2.538348962678273 -3 0  2.414132220974763 -3 0  2.288491583733238 -3 0  2.161340409901745 -3 0  2.032588345797035 -3 0  1.902141306527067 -3 0  1.76990088069941 -3 0  1.63576426989143 -3 0  1.499623750997021 -3 0  1.361366559951406 -3 0  1.220874206813038 -3 0  1.078021832496241 -3 0  0.9326746522331657 -3 0  0.7847064770981866 -3 0  0.6339594025705644 -3 0  0.4802832713234277 -3 0  0.3235148258676688 -3 0  0.1634815529665037 -3 0  10 -0.3333333333333333 0  10 -0.6666666666666666 0  10 -1 0  10 -1.333333333333333 0  10 -1.666666666666667 0  10 -2 0  10 -2.333333333333333 0  10 -2.666666666666667 0  5.242711110725164 0 0  5.286293876642154 0 0  5.330766086609641 0 0  5.37614589213589 0 0  5.422451816439484 0 0  5.469702760205794 0 0  5.517918009017504 0 0  5.567117241892008 0 0  5.617320540096343 0 0  5.668548395644089 0 0  5.720821717893487 0 0  5.774161842649544 0 0  5.828590541642586 0 0  5.88413003019757 0 0  5.940802977381058 0 0  5.998632515893446 0 0  6.057642249375406 0 0  6.117856262977496 0 0  6.179299133651088 0 0  6.241995940085244 0 0  6.305972273082686 0 0  6.371254245606542 0 0  6.43786850326221 0 0  6.505842235920577 0 0  6.575203187664691 0 0  6.645979668539436 0 0  6.71820056760014 0 0  6.791895362764803 0 0  6.867094133292654 0 0  6.943827572794882 0 0  7.022127001289535 0 0  7.10202437703821 0 0  7.183552311040527 0 0  7.266744080707336 0 0  7.351633641831447 0 0  7.438255642584554 0 0  7.526645439439152 0 0  7.616839110330926 0 0  7.708873468012155 0 0  7.802786077905059 0 0  7.898615271449994 0 0  7.996400162886068 0 0  8.096180664647234 0 0  8.197997502517053 0 0  8.301892235188374 0 0  8.407907268711336 0 0  8.516085874431543 0 0  8.626472207031901 0 0  8.739111321743804 0 0  8.854049193814495 0 0  8.971332736524433 0 0  9.091009820696414 0 0  9.21312929427506 0 0  9.337741001971482 0 0  9.464895805719847 0 0  9.594645605970797 0 0  9.727043361679982 0 0  9.862143111819449 0 0  5.2 -0.01666666666666669 0  5.2 -0.03333333333333339 0  5.2 -0.05000000000000009 0  5.2 -0.06666666666666679 0  5.2 -0.0833333333333335 0  5.2 -0.1000000000000002 0  5.2 -0.1166666666666669 0  5.2 -0.1333333333333336 0  5.2 -0.1500000000000002 0  5.2 -0.1666666666666669 0  5.2 -0.1833333333333335 0  5.2 -0.2000000000000001 0  5.2 -0.2166666666666668 0  5.2 -0.2333333333333335 0  5.2 -0.2500000000000002 0  5.2 -0.2666666666666669 0  5.2 -0.2833333333333335 0  5.2 -0.3000000000000002 0  5.2 -0.3166666666666668 0  5.2 -0.3333333333333335 0  5.2 -0.3500000000000001 0  5.2 -0.3666666666666668 0  5.2 -0.3833333333333334 0  5.2125 -0.4 0  5.225 -0.4 0  5.2375 -0.4 0  5.25 -0.4 0  5.2625 -0.4 0  5.275 -0.4 0  5.2875 -0.4 0  5.3 -0.4 0  5.3125 -0.4 0  5.325 -0.4 0  5.337499999999999 -0.4 0  5.35 -0.4 0  5.3625 -0.4 0  5.375 -0.4 0  5.3875 -0.4 0  5.4 -0.4 0  5.4125 -0.4 0  5.425 -0.4 0  5.4375 -0.4 0  5.45 -0.4 0  5.4625 -0.4 0  5.475 -0.4 0  5.4875 -0.4 0  5.5 -0.4083333333333334 0  5.5 -0.4166666666666667 0  5.5 -0.425 0  5.5 -0.4333333333333334 0  5.5 -0.4416666666666668 0  5.5 -0.4500000000000001 0  5.5 -0.4583333333333334 0  5.5 -0.4666666666666668 0  5.5 -0.4750000000000001 0  5.5 -0.4833333333333335 0  5.5 -0.4916666666666668 0  5.5 -0.5000000000000002 0  5.5 -0.5083333333333335 0  5.5 -0.5166666666666668 0  5.5 -0.5250000000000002 0  5.5 -0.5333333333333335 0  5.5 -0.5416666666666669 0  5.5 -0.5500000000000002 0  5.5 -0.5583333333333335 0  5.5 -0.5666666666666668 0  5.5 -0.5750000000000002 0  5.5 -0.5833333333333335 0  5.5 -0.5916666666666668 0  5.479591836734694 -0.6000000000000001 0  5.459183673469388 -0.6000000000000001 0  5.438775510204081 -0.6000000000000001 0  5.418367346938775 -0.6000000000000001 0  5.397959183673469 -0.6000000000000001 0  5.377551020408164 -0.6000000000000001 0  5.357142857142857 -0.6000000000000001 0  5.336734693877551 -0.6000000000000001 0  5.316326530612245 -0.6000000000000001 0  5.295918367346939 -0.6000000000000001 0  5.275510204081633 -0.6000000000000001 0  5.255102040816326 -0.6000000000000001 0  5.23469387755102 -0.6000000000000001 0  5.214285714285714 -0.6000000000000001 0  5.193877551020408 -0.6000000000000001 0  5.173469387755102 -0.6000000000000001 0  5.153061224489796 -0.6000000000000001 0  5.13265306122449 -0.6000000000000001 0  5.112244897959184 -0.6000000000000001 0  5.091836734693878 -0.6000000000000001 0  5.071428571428571 -0.6000000000000001 0  5.051020408163265 -0.6000000000000001 0  5.030612244897959 -0.6000000000000001 0  5.010204081632653 -0.6000000000000001 0  4.989795918367347 -0.6000000000000001 0  4.969387755102041 -0.6000000000000001 0  4.948979591836735 -0.6000000000000001 0  4.928571428571429 -0.6000000000000001 0  4.908163265306122 -0.6000000000000001 0  4.887755102040816 -0.6000000000000001 0  4.86734693877551 -0.6000000000000001 0  4.846938775510204 -0.6000000000000001 0  4.826530612244898 -0.6000000000000001 0  4.806122448979592 -0.6000000000000001 0  4.785714285714286 -0.6000000000000001 0  4.76530612244898 -0.6000000000000001 0  4.744897959183674 -0.6000000000000001 0  4.724489795918368 -0.6000000000000001 0  4.704081632653061 -0.6000000000000001 0  4.683673469387755 -0.6000000000000001 0  4.663265306122449 -0.6000000000000001 0  4.642857142857143 -0.6000000000000001 0  4.622448979591836 -0.6000000000000001 0  4.602040816326531 -0.6000000000000001 0  4.581632653061225 -0.6000000000000001 0  4.561224489795919 -0.6000000000000001 0  4.540816326530612 -0.6000000000000001 0  4.520408163265306 -0.6000000000000001 0  4.5 -0.5916666666666668 0  4.5 -0.5833333333333334 0  4.5 -0.5750000000000001 0  4.5 -0.5666666666666668 0  4.5 -0.5583333333333333 0  4.5 -0.55 0  4.5 -0.5416666666666667 0  4.5 -0.5333333333333333 0  4.5 -0.525 0  4.5 -0.5166666666666666 0  4.5 -0.5083333333333333 0  4.5 -0.4999999999999999 0  4.5 -0.4916666666666666 0  4.5 -0.4833333333333332 0  4.5 -0.4749999999999999 0  4.5 -0.4666666666666666 0  4.5 -0.4583333333333333 0  4.5 -0.45 0  4.5 -0.4416666666666667 0  4.5 -0.4333333333333333 0  4.5 -0.425 0  4.5 -0.4166666666666667 0  4.5 -0.4083333333333334 0  4.5125 -0.4 0  4.525 -0.4 0  4.5375 -0.4 0  4.55 -0.4 0  4.5625 -0.4 0  4.575 -0.4 0  4.587499999999999 -0.4 0  4.6 -0.4 0  4.6125 -0.4 0  4.625 -0.4 0  4.637499999999999 -0.4 0  4.649999999999999 -0.4 0  4.6625 -0.4 0  4.675 -0.4 0  4.6875 -0.4 0  4.699999999999999 -0.4 0  4.712499999999999 -0.4 0  4.725 -0.4 0  4.7375 -0.4 0  4.75 -0.4 0  4.7625 -0.4 0  4.774999999999999 -0.4 0  4.7875 -0.4 0  4.8 -0.3833333333333333 0  4.8 -0.3666666666666666 0  4.8 -0.3499999999999999 0  4.8 -0.3333333333333333 0  4.8 -0.3166666666666665 0  4.8 -0.2999999999999998 0  4.8 -0.2833333333333331 0  4.8 -0.2666666666666664 0  4.8 -0.2499999999999998 0  4.8 -0.2333333333333331 0  4.8 -0.2166666666666665 0  4.8 -0.1999999999999999 0  4.8 -0.1833333333333332 0  4.8 -0.1666666666666665 0  4.8 -0.1499999999999998 0  4.8 -0.1333333333333331 0  4.8 -0.1166666666666665 0  4.8 -0.09999999999999987 0  4.8 -0.0833333333333332 0  4.8 -0.06666666666666654 0  4.8 -0.04999999999999988 0  4.8 -0.03333333333333327 0  4.8 -0.01666666666666661 0  0.1378568875240437 0 0  0.2729566377271358 0 0  0.4053543934976697 0 0  0.5351041938077431 0 0  0.6622589976130751 0 0  0.7868707053643811 0 0  0.9089901789958823 0 0  1.028667263218748 0 0  1.14595080597766 0 0  1.260888678095464 0 0  1.373527792852679 0 0  1.483914125496606 0 0  1.592092731258683 0 0  1.698107764821866 0 0  1.802002497531814 0 0  1.90381933543871 0 0  2.003599837235452 0 0  2.101384728705643 0 0  2.197213922283282 0 0  2.291126532207516 0 0  2.38316088991875 0 0  2.473354560839241 0 0  2.56174435771825 0 0  2.648366358500676 0 0  2.733255919649871 0 0  2.81644768934063 0 0  2.897975623365796 0 0  2.977872999136252 0 0  3.056172427651654 0 0  3.132905867173631 0 0  3.208104637720262 0 0  3.28179943290277 0 0  3.354020331980409 0 0  3.42479681287121 0 0  3.494157764630528 0 0  3.562131497303279 0 0  3.628745754972536 0 0  3.69402772750921 0 0  3.758004060518725 0 0  3.820700866964234 0 0  3.882143737648484 0 0  3.942357751260559 0 0  4.0013674
[...]
<PointData  Vectors="displacement"> 
<DataArray  type="Float64"  Name="displacement"  NumberOfComponents="3" format="ascii">0.0000000000000000e+00 0.0000000000000000e+00 0.0000000000000000e+00  -2.0921185145030005e-04 8.2776460306587302e-05 0.0000000000000000e+00  0.0000000000000000e+00 0.0000000000000000e+00 0.0000000000000000e+00  2.0991063943177720e-04 8.2728567035879823e-05 0.0000000000000000e+00  0.0000000000000000e+00 -2.9945190775109514e-03 0.0000000000000000e+00  0.0000000000000000e+00 -3.0873397063229629e-03 0.0000000000000000e+00  0.0000000000000000e+00 -3.0119154536566335e-03 0.0000000000000000e+00  0.0000000000000000e+00 -3.7549548162549829e-03 0.0000000000000000e+00  0.0000000000000000e+00 -3.7247385896015104e-03 0.0000000000000000e+00  0.0000000000000000e+00 -3.0071869773894530e-03 0.0000000000000000e+00  0.0000000000000000e+00 -3.0825507569379623e-03 0.0000000000000000e+00  0.0000000000000000e+00 -2.9898913061769065e-03 0.0000000000000000e+00  -9.7161639127528313e-05 -5.7353474506992568e-05 0.0000000000000000e+00  -1.7963946538413205e-04 -5.6904934369073957e-05 0.0000000000000000e+00  -2.3881510305496465e-04 -3.3251995261559362e-05 0.0000000000000000e+00  -2.7109196563142399e-04 1.0355141527787724e-06 0.0000000000000000e+00  -2.7844880775333898e-04 3.5284657726898969e-05 0.0000000000000000e+00  -2.6690135534868608e-04 6.2369989079686953e-05 0.0000000000000000e+00  -2.4564916113294560e-04 7.8015578092850653e-05 0.0000000000000000e+00  -2.2448343862901783e-04 8.2988352951058570e-05 0.0000000000000000e+00  0.0000000000000000e+00 0.0000000000000000e+00 0.0000000000000000e+00  0.0000000000000000e+00 0.0000000000000000e+00 0.0000000000000000e+00  0.0000000000000000e+00 0.0000000000000000e+00 0.0000000000000000e+00  0.0000000000000000e+00 0.0000000000000000e+00 0.0000000000000000e+00  0.0000000000000000e+00 0.0000000000000000e+00 0.0000000000000000e+00  0.0000000000000000e+00 0.0000000000000000e+00 0.0000000000000000e+00  0.0000000000000000e+00 0.0000000000000000e+00 0.0000000000000000e+00  0.0000000000000000e+00 0.0000000000000000e+00 0.0000000000000000e+00  0.0000000000000000e+00 0.0000000000000000e+00 0.0000000000000000e+00  0.0000000000000000e+00 0.0000000000000000e+00 0.0000000000000000e+00  0.0000000000000000e+00 0.0000000000000000e+00 0.0000000000000000e+00  0.0000000000000000e+00 0.0000000000000000e+00 0.0000000000000000e+00  0.0000000000000000e+00 0.0000000000000000e+00 0.0000000000000000e+00  0.0000000000000000e+00 0.0000000000000000e+00 0.0000000000000000e+00  0.0000000000000000e+00 0.0000000000000000e+00 0.0000000000000000e+00  0.0000000000000000e+00 0.0000000000000000e+00 0.0000000000000000e+00  0.0000000000000000e+00 0.0000000000000000e+00 0.0000000000000000e+00  0.0000000000000000e+00 0.0000000000000000e+00 0.0000000000000000e+00  0.0000000000000000e+00 0.0000000000000000e+00 0.0000000000000000e+00  0.0000000000000000e+00 0.0000000000000000e+00 0.0000000000000000e+00  0.0000000000000000e+00 0.0000000000000000e+00 0.0000000000000000e+00  0.0000000000000000e+00 0.0000000000000000e+00 0.0000000000000000e+00  0.0000000000000000e+00 0.0000000000000000e+00 0.0000000000000000e+00  0.0000000000000000e+00 0.0000000000000000e+00 0.0000000000000000e+00  0.0000000000000000e+00 0.0000000000000000e+00 0.0000000000000000e+00  0.0000000000000000e+00 0.0000000000000000e+00 0.0000000000000000e+00  0.0000000000000000e+00 0.0000000000000000e+00 0.0000000000000000e+00  0.0000000000000000e+00 0.0000000000000000e+00 0.0000000000000000e+00  0.0000000000000000e+00 0.0000000000000000e+00 0.0000000000000000e+00  0.0000000000000000e+00 0.0000000000000000e+00 0.0000000000000000e+00  0.0000000000000000e+00 0.0000000000000000e+00 0.0000000000000000e+00  0.0000000000000000e+00 0.0000000000000000e+00 0.0000000000000000e+00  0.0000000000000000e+00 0.0000000000000000e+00 0.0000000000000000e+00  0.0000000000000000e+00 0.0000000000000000e+00 0.0000000000000000e+00  0.0000000000000000e+00 0.0000000000000000e+00 0.0000000000000000e+00  0.0000000000000000e+00 0.0000000000000000e+00 0.0000000000000000e+00  0.0000000000000000e+00 0.0000000000000000e+00 0.0000000000000000e+00  0.0000000000000000e+00 0.0000000000000000e+00 0.0000000000000000e+00  0.0000000000000000e+00 0.0000000000000000e+00 0.0000000000000000e+00  0.0000000000000000e+00 0.0000000000000000e+00 0.0000000000000000e+00  0.0000000000000000e+00 0.0000000000000000e+00 0.0000000000000000e+00  0.0000000000000000e+00 0.0000000000000000e+00 0.0000000000000000e+00  0.0000000000000000e+00 0.0000000000000000e+00 0.0000000000000000e+00  0.0000000000000000e+00 0.0000000000000000e+00 0.0000000000000000e+00  0.0000000000000000e+00 0.0000000000000000e+00 0.0000000000000000e+00  0.0000000000000000e+00 0.0000000000000000e+00 0.0000000000000000e+00  0.0000000000000000e+00 0.0000000000000000e+00 0.0000000000000000e+00  0.0000000000000000e+00 0.0000000000000000e+00 0.0000000000000000e+00  0.0000000000000000e+00 0.0000000000000000e+00 0.0000000000000000e+00  0.0000000000000000e+00 0.0000000000000000e+00 0.0000000000000000e+00  0.0000000000000000e+00 0.0000000000000000e+00 0.0000000000000000e+00  0.0000000000000000e+00 0.0000000000000000e+00 0.0000000000000000e+00  0.0000000000000000e+00 0.0000000000000000e+00 0.0000000000000000e+00  0.0000000000000000e+00 0.0000000000000000e+00 0.0000000000000000e+00  0.0000000000000000e+00 0.0000000000000000e+00 0.0000000000000000e+00  0.0000000000000000e+00 0.0000000000000000e+00 0.0000000000000000e+00  0.0000000000000000e+00 0.0000000000000000e+00 0.0000000000000000e+00  0.0000000000000000e+00 0.0000000000000000e+00 0.0000000000000000e+00  0.0000000000000000e+00 0.0000000000000000e+00 0.0000000000000000e+00  0.0000000000000000e+00 0.0000000000000000e+00 0.0000000000000000e+00  0.0000000000000000e+00 0.0000000000000000e+00 0.0000000000000000e+00  0.0000000000000000e+00 0.0000000000000000e+00 0.0000000000000000e+00  0.0000000000000000e+00 0.0000000000000000e+00 0.0000000000000000e+00  0.0000000000000000e+00 0.0000000000000000e+00 0.0000000000000000e+00  0.0000000000000000e+00 0.0000000000000000e+00 0.0000000000000000e+00  0.0000000000000000e+00 0.0000000000000000e+00 0.0000000000000000e+00  0.0000000000000000e+00 0.0000000000000000e+00 0.0000000000000000e+00  0.0000000000000000e+00 0.0000000000000000e+00 0.0000000000000000e+00  0.0000000000000000e+00 0.0000000000000000e+00 0.0000000000000000e+00  0.0000000000000000e+00 0.0000000000000000e+00 0.0000000000000000e+00  0.0000000000000000e+00 0.0000000000000000e+00 0.0000000000000000e+00  0.0000000000000000e+00 0.0000000000000000e+00 0.0000000000000000e+00  0.0000000000000000e+00 0.0000000000000000e+00 0.0000000000000000e+00  0.0000000000000000e+00 0.0000000000000000e+00 0.0000000000000000e+00  0.0000000000000000e+00 0.0000000000000000e+00 0.0000000000000000e+00  0.0000000000000000e+00 0.0000000000000000e+00 0.0000000000000000e+00  0.0000000000000000e+00 0.0000000000000000e+00 0.0000000000000000e+00  0.0000000000000000e+00 0.0000000000000000e+00 0.0000000000000000e+00  2.2513194612809121e-04 8.2895612898296553e-05 0.0000000000000000e+00  2.4630519436760420e-04 7.8056177914259903e-05 0.0000000000000000e+00  2.6753277989136233e-04 6.2307071755882416e-05 0.0000000000000000e+00  2.7907536738480757e-04 3.5200757076379854e-05 0.0000000000000000e+00  2.7167252720164040e-04 9.8320865903989857e-07 0.0000000000000000e+00  2.3924609406206411e-04 -3.3516350151672077e-05 0.0000000000000000e+00  1.7990751132291783e-04 -5.7134822130106904e-05 0.0000000000000000e+00  9.7455434312935125e-05 -5.7457606662579807e-05 0.0000000000000000e+00  -4.7871465879620976e-05 -2.9918255112891287e-03 0.0000000000000000e+00  -9.6793495184123842e-05 -2.9834802666242792e-03 0.0000000000000000e+00  -1.4683910646021088e-04 -2.9690074332621779e-03 0.0000000000000000e+00  -1.9804844441791267e-04 -2.9478025475138002e-03 0.0000000000000000e+00  -2.5035321590783456e-04 -2.9191221666649784e-03 0.0000000000000000e+00  -3.0355070278334143e-04 -2.8821073000094969e-03 0.0000000000000000e+00  -3.5713333548200127e-04 -2.8358287553766799e-03 0.0000000000000000e+00  -4.1034375704242915e-04 -2.7794155480433320e-03 0.0000000000000000e+00  -4.6207097287712009e-04 -2.7122527869622758e-03 0.0000000000000000e+00  -5.1099004385239774e-04 -2.6341176560418624e-03 0.0000000000000000e+00  -5.5563948959491964e-04 -2.5453504373437589e-03 0.0000000000000000e+00  -5.9472555591211381e-04 -2.4468457747302465e-03 0.0000000000000000e+00  -6.2717433239622988e-04 -2.3399867833541208e-03 0.0000000000000000e+00  -6.5230481009208893e-04 -2.2264716464688809e-03 0.0000000000000000e+00  -6.6983924197623569e-04 -2.1081328735085259e-03 0.0000000000000000e+00  -6.7980453200394838e-04 -1.9867794261338792e-03 0.0000000000000000e+00  -6.8263241403915796e-04 -1.8641091263835062e-03 0.0000000000000000e+00  -6.7877378198735467e-04 -1.7415782386830995e-03 0.0000000000000000e+00  -6.6891501450814389e-04 -1.6204330080005929e-03 0.0000000000000000e+00  -6.5379087260886528e-04 -1.5016959814422117e-03 0.0000000000000000e+00  -6.3408323034176109e-04 -1.3861649154493321e-03 0.0000000000000000e+00  -6.1051014946378118e-04 -1.2744530986795902e-03 0.0000000000000000e+00  -5.8367600910551754e-04 -1.1670200475473360e-03 0.0000000000000000e+00  -5.5422182213850845e-04 -1.0641969515490467e-03 0.0000000000000000e+00  -5.2261909255758995e-04 -9.6621216016616509e-04 0.0000000000000000e+00  -4.8937272254426234e-04 -8.7320467348237928e-04 0.0000000000000000e+00  -4.5490626559874827e-04 -7.8525132393706808e-04 0.0000000000000000e+00  -4.1958205336848205e-04 -7.0237162873241815e-04 0.0000000000000000e+00  -3.8371389518773545e-04 -6.2456105286909033e-04 0.0000000000000000e+00  -3.4761120107837542e-04 -5.5176559412669756e-04 0.0000000000000000e+00  -3.1152275830195341e-04 -4.8391489086723171e-04 0.0000000000000000e+00  -2.7567427249665290e-04 -4.2091587347853555e-04 0.0000000000000000e+00  -2.4026589136673038e-04 -3.6265988996092010e-04 0.0000000000000000e+00  -2.0547652389844013e-04 -3.0902454795433840e-04 0.0000000000000000e+00  -1.7147204589396806e-04 -2.5986877436387929e-04 0.0000000000000000e+00  -1.3838234636119986e-04 -2.1505893738379549e-04 0.0000000000000000e+00  -1.0634342022608368e-04 -1.7443526750628860e-04 0.0000000000000000e+00  -7.5465596963297056e-05 -1.3783285835928532e-04 0.0000000000000000e+00  -4.5850659165061974e-05 -1.0508445352718458e-04 0.0000000000000000e+00  -1.7586408807002197e-05 -7.6012337479030253e-05 0.0000000000000000e+00  9.2440140571083164e-06 -5.0435760840760905e-05 0.0000000000000000e+00  3.4572052603465583e-05 -2.8160434732400928e-05 0.0000000000000000e+00  5.8334838939313771e-05 -8.9869068229963613e-06 0.0000000000000000e+00  8.0476787242786158e-05 7.2893377121556815e-06 0.0000000000000000e+00  1.0095002513924567e-04 2.0883451067427292e-05 0.0000000000000000e+00  1.1971182154168676e-04 3.2018645745465167e-05 0.0000000000000000e+00  1.3672234904572902e-04 4.0930387271678494e-05 0.0000000000000000e+00  1.5196049516058734e-04 4.7872701119122122e-05 0.0000000000000000e+00  1.6539010100542555e-04 5.3100472672952993e-05 0.0000000000000000e+00  1.7699778365988392e-04 5.6901701999400534e-05 0.0000000000000000e+00  1.8677887010162835e-04 5.9581632009665059e-05 0.0000000000000000e+00  1.9473669174564315e-04 6.1468336274538612e-05 0.0000000000000000e+00  2.0090449745045524e-04 6.2922733837009678e-05 0.0000000000000000e+00  2.0534917094495067e-04 6.4329116128182090e-05 0.0000000000000000e+00  2.0819411532389974e-04 6.6097126544890168e-05 0.0000000000000000e+00  2.0964862431004295e-04 6.8623850522763516e-05 0.0000000000000000e+00  2.1007774069876017e-04 7.2248628027977323e-05 0.0000000000000000e+00  2.0993759086198832e-04 7.7139637701397582e-05 0.0000000000000000e+00  0.0000000000000000e+00 -3.0023465914552467e-03 0.0000000000000000e+00  0.0000000000000000e+00 -3.0098166121609337e-03 0.0000000000000000e+00  0.0000000000000000e+00 -3.0169255802222484e-03 0.0000000000000000e+00  0.0000000000000000e+00 -3.0236723025373496e-03 0.0000000000000000e+00  0.0000000000000000e+00 -3.0300574083472016e-03 0.0000000000000000e+00  0.0000000000000000e+00 -3.0360829979878203e-03 0.0000000000000000e+00  0.0000000000000000e+00 -3.0417522983758731e-03 0.0000000000000000e+00  0.0000000000000000e+00 -3.0470691752441546e-03 0.0000000000000000e+00  0.0000000000000000e+00 -3.0520379060792547e-03 0.0000000000000000e+00  0.0000000000000000e+00 -3.0566630185792330e-03 0.0000000000000000e+00  0.0000000000000000e+00 -3.0609490402916102e-03 0.0000000000000000e+00  0.0000000000000000e+00 -3.0649001053211903e-03 0.0000000000000000e+00  0.0000000000000000e+00 -3.0685205302418109e-03 0.0000000000000000e+00  0.0000000000000000e+00 -3.0718139295371209e-03 0.0000000000000000e+00  0.0000000000000000e+00 -3.0747836825934256e-03 0.0000000000000000e+00  0.0000000000000000e+00 -3.0774330034291524e-03 0.0000000000000000e+00  0.0000000000000000e+00 -3.0797642980684038e-03 0.0000000000000000e+00  0.0000000000000000e+00 -3.0817801597416237e-03 0.0000000000000000e+00  0.0000000000000000e+00 -3.0834824549529584e-03 0.0000000000000000e+00  0.0000000000000000e+00 -3.0848729572440525e-03 0.0000000000000000e+00  0.0000000000000000e+00 -3.0859529548628783e-03 0.0000000000000000e+00  0.0000000000000000e+00 -3.0867236429672020e-03 0.0000000000000000e+00  0.0000000000000000e+00 -3.0871857240115453e-03 0.0000000000000000e+00  0.0000000000000000e+00 -3.0871370734057639e-03 0.0000000000000000e+00  0.0000000000000000e+00 -3.0865296810152890e-03 0.0000000000000000e+00  0.0000000000000000e+00 -3.0855190512413836e-03 0.0000000000000000e+00  0.0000000000000000e+00 -3.0841077752223342e-03 0.0000000000000000e+00  0.0000000000000000e+00 -3.0822995890483836e-03 0.0000000000000000e+00  0.0000000000000000e+00 -3.0800995075531720e-03 0.0000000000000000e+00  0.0000000000000000e+00 -3.0775138817130975e-03 0.0000000000000000e+00  0.0000000000000000e+00 -3.0745506980701925e-03 0.0000000000000000e+00  0.0000000000000000e+00 -3.0712199950947328e-03 0.0000000000000000e+00  0.0000000000000000e+00 -3.0675339304102123e-03 0.0000000000000000e+00  0.0000000000000000e+00 -3.0635074657681372e-03 0.0000000000000000e+00  0.0000000000000000e+00 -3.0591590244418059e-03 0.0000000000000000e+00  0.0000000000000000e+00 -3.0545111817860348e-03 0.0000000000000000e+00  0.0000000000000000e+00 -3.0495921820860180e-03 0.0000000000000000e+00  0.0000000000000000e+00 -3.0444374635011013e-03 0.0000000000000000e+00  0.0000000000000000e+00 -3.0390923782754676e-03 0.0000000000000000e+00  0.0000000000000000e+00 -3.0336157858109358e-03 0.0000000000000000e+00  0.0000000000000000e+00 -3.0280864645313558e-03 0.0000000000000000e+00  0.0000000000000000e+00 -3.0226149469762377e-03 0.0000000000000000e+00  0.0000000000000000e+00 -3.0173605120147754e-03 0.0000000000000000e+00  0.0000000000000000e+00 -3.0125757206032888e-03 0.0000000000000000e+00  0.0000000000000000e+00 -3.0087077117239218e-03 0.0000000000000000e+00  0.0000000000000000e+00 -3.0068267537508020e-03 0.0000000000000000e+00  0.0000000000000000e+00 -3.0251871962616063e-03 0.0000000000000000e+00  0.0000000000000000e+00 -3.0354583033833965e-03 0.0000000000000000e+00  0.0000000000000000e+00 -3.0455917788460617e-03 0.0000000000000000e+00  0.0000000000000000e+00 -3.0559447651353640e-03 0.0000000000000000e+00  0.0000000000000000e+00 -3.0666620604185911e-03 0.0000000000000000e+00  0.0000000000000000e+00 -3.0778262749934946e-03 0.0000000000000000e+00  0.0000000000000000e+00 -3.0895026412402172e-03 0.0000000000000000e+00  0.0000000000000000e+00 -3.1017435195723297e-03 0.0000000000000000e+00  0.0000000000000000e+00 -3.1146033993519795e-03 0.0000000000000000e+00  0.0000000000000000e+00 -3.1281344049604791e-03 0.0000000000000000e+00  0.0000000000000000e+00 -3.1424021128814744e-03 0.0000000000000000e+00  0.0000000000000000e+00 -3.1574593671589908e-03 0.0000000000000000e+00  0.0000000000000000e+00 -3.1733907293248530e-03 0.0000000000000000e+00  0.0000000000000000e+00 -3.1902735315385909e-03 0.0000000000000000e+00  0.0000000000000000e+00 -3.2082114781309327e-03 0.0000000000000000e+00  0.0000000000000000e+00 -3.2273173855486572e-03 0.0000000000000000e+00  0.0000000000000000e+00 -3.2477341092008367e-03 0.0000000000000000e+00  0.0000000000000000e+00 -3.2696538922020995e-03 0.0000000000000000e+00  0.0000000000000000e+00 -3.2933242158278741e-03 0.0000000000000000e+00  0.0000000000000000e+00 -3.3191773235444659e-03 0.0000000000000000e+00  0.0000000000000000e+00 -3.3484090530352842e-03 0.0000000000000000e+00  0.0000000000000000e+00 -3.3805966291852799e-03 0.0000000000000000e+00  0.0000000000000000e+00 -3.4703568728249971e-03 0.0000000000000000e+00  -6.7489622289829826e-04 -5.8277085087705387e-03 0.0000000000000000e+00  -6.4470053983270068e-04 -6.0479812909112326e-03 0.0000000000000000e+00  -6.2465997937589620e-04 -6.2333986430168102e-03 0.0000000000000000e+00  -6.0266740581875380e-04 -6.3951639276804860e-03 0.0000000000000000e+00  -5.7950623336072943e-04 -6.5391881111896907e-03 0.0000000000000000e+00  -5.5527000370757371e-04 -6.6691324491174840e-03 0.0000000000000000e+00  -5.3003978312373442e-04 -6.7872493208271942e-03 0.0000000000000000e+00  -5.0389033831157060e-04 -6.8950512261827775e-03 0.0000000000000000e+00  -4.7690518600115758e-04 -6.9936377653206597e-03 0.0000000000000000e+00  -4.4915623074919285e-04 -7.0838200775990151e-03 0.0000000000000000e+00  -4.2072087089692800e-04 -7.1662231803709424e-03 0.0000000000000000e+00  -3.9167021049050561e-04 -7.2413403099778747e-03 0.0000000000000000e+00  -3.6207139083510803e-04 -7.3095708290611353e-03 0.0000000000000000e+00  -3.3198342827772670e-04 -7.3712399489569052e-03 0.0000000000000000e+00  -3.0146483398926522e-04 -7.4266190974292112e-03 0.0000000000000000e+00  -2.7057240369752052e-04 -7.4759335584412062e-03 0.0000000000000000e+00  -2.3934680612648510e-04 -7.5193658674167184e-03 0.0000000000000000e+00  -2.0783749989318381e-04 -7.5570746596340882e-03 0.0000000000000000e+00  -1.7609024963914573e-04 -7.5891908230240552e-03 0.0000000000000000e+00  -1.4414275573779352e-04 -7.6158185759435384e-03 0.0000000000000000e+00  -1.1203718720792187e-04 -7.6370423947166970e-03 0.0000000000000000e+00  -7.9805138142536837e-05 -7.6529280360002720e-03 0.0000000000000000e+00  -4.7487782075137101e-05 -7.6635255226655341e-03 0.0000000000000000e+00  -1.5121491945392539e-05 -7.6688655218851856e-03 0.0000000000000000e+00  1.7265617029781535e-05 -7.6689645247817488e-03 0.0000000000000000e+00  4.9633190353161257e-05 -7.6638232348098497e-03 0.0000000000000000e+00  8.1944961669399712e-05 -7.6534259124663587e-03 0.0000000000000000e+00  1.1417277524884726e-04 -7.6377425111857069e-03 0.0000000000000000e+00  1.4627347323333909e-04 -7.6167254414201413e-03 0.0000000000000000e+00  1.7821391762984796e-04 -7.5903103995752751e-03 0.0000000000000000e+00  2.0994995502563653e-04 -7.5584118720927393e-03 0.0000000000000000e+00  2.4145140173255475e-04 -7.5209286820156762e-03 0.0000000000000000e+00  2.7265834319603225e-04 -7.4777298439877181e-03 0.0000000000000000e+00  3.0353926255550010e-04 -7.4286634586991918e-03 0.0000000000000000e+00  3.3403942820367039e-04 -7.3735445775948445e-03 0.0000000000000000e+00  3.6410659667130855e-04 -7.3121544209288547e-03 0.0000000000000000e+00  3.9368632271354227e-04 -7.2442271928960808e-03 0.0000000000000000e+00  4.2272028620674707e-04 -7.1694382639245300e-03 0.0000000000000000e+00  4.5112927741948721e-04 -7.0873821707142801e-03 0.0000000000000000e+00  4.7886644013252948e-04 -6.9975845720796123e-03 0.0000000000000000e+00  5.0585473918537667e-04 -6.8994215450699503e-03 0.0000000000000000e+00  5.3202153679576467e-04 -6.7920888071859413e-03 0.0000000000000000e+00  5.5733186022474039e-04 -6.6744708695076422e-03 0.0000000000000000e+00  5.8172753648496657e-04 -6.5450269999893784e-03 0.0000000000000000e+00  6.0530415778356874e-04 -6.4014274117704948e-03 0.0000000000000000e+00  6.2823143378642674e-04 -6.2395715857051174e-03 0.0000000000000000e+00  6.5031842965734507e-04 -6.0523321034623122e-03 0.0000000000000000e+00  6.7364661508528280e-04 -5.8256