<?xml version="1.0"?>
<VTKFile type="UnstructuredGrid"  version="0.1"  >
<UnstructuredGrid>
<Piece  NumberOfPoints="6792" NumberOfCells="13154">
<Points>
<DataArray  type="Float64"  NumberOfComponents="3"  format="ascii">4.8 0 0  5.2 0 0  5.2 -0.4 0  4.8 -0.4 0  4.5 -0.4 0  5.5 -0.4 0  5.5 -0.6000000000000001 0  4.5 -0.6000000000000001 0  0 -3 0  0 0 0  10 -3 0  10 0 0  5.2 -0.01666666666666669 0  5.2 -0.03333333333333339 0  5.2 -0.05000000000000009 0  5.2 -0.06666666666666679 0  5.2 -0.0833333333333335 0  5.2 -0.1000000000000002 0  5.2 -0.1166666666666669 0  5.2 -0.1333333333333336 0  5.2 -0.1500000000000002 0  5.2 -0.1666666666666669 0  5.2 -0.1833333333333335 0  5.2 -0.2000000000000001 0  5.2 -0.2166666666666668 0  5.2 -0.2333333333333335 0  5.2 -0.2500000000000002 0  5.2 -0.2666666666666669 0  5.2 -0.2833333333333335 0  5.2 -0.3000000000000002 0  5.2 -0.3166666666666668 0  5.2 -0.3333333333333335 0  5.2 -0.3500000000000001 0  5.2 -0.3666666666666668 0  5.2 -0.3833333333333334 0  4.8 -0.3833333333333333 0  4.8 -0.3666666666666666 0  4.8 -0.3499999999999999 0  4.8 -0.3333333333333333 0  4.8 -0.3166666666666665 0  4.8 -0.2999999999999998 0  4.8 -0.2833333333333331 0  4.8 -0.2666666666666664 0  4.8 -0.2499999999999998 0  4.8 -0.2333333333333331 0  4.8 -0.2166666666666665 0  4.8 -0.1999999999999999 0  4.8 -0.1833333333333332 0  4.8 -0.1666666666666665 0  4.8 -0.1499999999999998 0  4.8 -0.1333333333333331 0  4.8 -0.1166666666666665 0  4.8 -0.09999999999999987 0  4.8 -0.0833333333333332 0  4.8 -0.06666666666666654 0  4.8 -0.04999999999999988 0  4.8 -0.03333333333333327 0  4.8 -0.01666666666666661 0  5.5 -0.4083333333333334 0  5.5 -0.4166666666666667 0  5.5 -0.425 0  5.5 -0.4333333333333334 0  5.5 -0.4416666666666668 0  5.5 -0.4500000000000001 0  5.5 -0.4583333333333334 0  5.5 -0.4666666666666668 0  5.5 -0.4750000000000001 0  5.5 -0.4833333333333335 0  5.5 -0.4916666666666668 0  5.5 -0.5000000000000002 0  5.5 -0.5083333333333335 0  5.5 -0.5166666666666668 0  5.5 -0.5250000000000002 0  5.5 -0.5333333333333335 0  5.5 -0.5416666666666669 0  5.5 -0.5500000000000002 0  5.5 -0.5583333333333335 0  5.5 -0.5666666666666668 0  5.5 -0.5750000000000002 0  5.5 -0.5833333333333335 0  5.5 -0.5916666666666668 0  5.479591836734694 -0.6000000000000001 0  5.459183673469388 -0.6000000000000001 0  5.438775510204081 -0.6000000000000001 0  5.418367346938775 -0.6000000000000001 0  5.397959183673469 -0.6000000000000001 0  5.377551020408164 -0.6000000000000001 0  5.357142857142857 -0.6000000000000001 0  5.336734693877551 -0.6000000000000001 0  5.316326530612245 -0.6000000000000001 0  5.295918367346939 -0.6000000000000001 0  5.275510204081633 -0.6000000000000001 0  5.255102040816326 -0.6000000000000001 0  5.23469387755102 -0.6000000000000001 0  5.214285714285714 -0.6000000000000001 0  5.193877551020408 -0.6000000000000001 0  5.173469387755102 -0.6000000000000001 0  5.153061224489796 -0.6000000000000001 0  5.13265306122449 -0.6000000000000001 0  5.112244897959184 -0.6000000000000001 0  5.091836734693878 -0.6000000000000001 0  5.071428571428571 -0.6000000000000001 0  5.051020408163265 -0.6000000000000001 0  5.030612244897959 -0.6000000000000001 0  5.010204081632653 -0.6000000000000001 0  4.989795918367347 -0.6000000000000001 0  4.969387755102041 -0.6000000000000001 0  4.948979591836735 -0.6000000000000001 0  4.928571428571429 -0.6000000000000001 0  4.908163265306122 -0.6000000000000001 0  4.887755102040816 -0.6000000000000001 0  4.86734693877551 -0.6000000000000001 0  4.846938775510204 -0.6000000000000001 0  4.826530612244898 -0.6000000000000001 0  4.806122448979592 -0.6000000000000001 0  4.785714285714286 -0.6000000000000001 0  4.76530612244898 -0.6000000000000001 0  4.744897959183674 -0.6000000000000001 0  4.724489795918368 -0.6000000000000001 0  4.704081632653061 -0.6000000000000001 0  4.683673469387755 -0.6000000000000001 0  4.663265306122449 -0.6000000000000001 0  4.642857142857143 -0.6000000000000001 0  4.622448979591836 -0.6000000000000001 0  4.602040816326531 -0.6000000000000001 0  4.581632653061225 -0.6000000000000001 0  4.561224489795919 -0.6000000000000001 0  4.540816326530612 -0.6000000000000001 0  4.520408163265306 -0.6000000000000001 0  4.5 -0.5916666666666668 0  4.5 -0.5833333333333334 0  4.5 -0.5750000000000001 0  4.5 -0.5666666666666668 0  4.5 -0.5583333333333333 0  4.5 -0.55 0  4.5 -0.5416666666666667 0  4.5 -0.5333333333333333 0  4.5 -0.525 0  4.5 -0.5166666666666666 0  4.5 -0.5083333333333333 0  4.5 -0.4999999999999999 0  4.5 -0.4916666666666666 0  4.5 -0.4833333333333332 0  4.5 -0.4749999999999999 0  4.5 -0.4666666666666666 0  4.5 -0.4583333333333333 0  4.5 -0.45 0  4.5 -0.4416666666666667 0  4.5 -0.4333333333333333 0  4.5 -0.425 0  4.5 -0.4166666666666667 0  4.5 -0.4083333333333334 0  0 -2.842105263157895 0  0 -2.684210526315789 0  0 -2.526315789473684 0  0 -2.368421052631579 0  0 -2.210526315789473 0  0 -2.052631578947369 0  0 -1.894736842105263 0  0 -1.736842105263158 0  0 -1.578947368421053 0  0 -1.421052631578947 0  0 -1.263157894736842 0  0 -1.105263157894737 0  0 -0.9473684210526319 0  0 -0.7894736842105265 0  0 -0.6315789473684212 0  0 -0.4736842105263159 0  0 -0.3157894736842106 0  0 -0.1578947368421053 0  9.836518447033493 -3 0  9.676485174132324 -3 0  9.519716728676565 -3 0  9.366040597429432 -3 0  9.215293522901804 -3 0  9.067325347766827 -3 0  8.921978167503752 -3 0  8.779125793186953 -3 0  8.638633440048579 -3 0  8.500376249002967 -3 0  8.364235730108557 -3 0  8.230099119300583 -3 0  8.097858693472926 -3 0  7.96741165420296 -3 0  7.838659590098249 -3 0  7.711508416266758 -3 0  7.585867779025237 -3 0  7.461651037321721 -3 0  7.338774694871047 -3 0  7.217158563845377 -3 0  7.096725097152937 -3 0  6.977399455051415 -3 0  6.859109304538208 -3 0  6.741784490575633 -3 0  6.625356935727237 -3 0  6.509760461250432 -3 0  6.394930659317325 -3 0  6.2808046903675 -3 0  6.167321173775116 -3 0  6.054420032640893 -3 0  5.942042373994132 -3 0  5.830130346471836 -3 0  5.718627047087892 -3 0  5.607476358937133 -3 0  5.496622874861212 -3 0  5.386011773348871 -3 0  5.275588701244851 -3 0  5.1652996754838 -3 0  5.055090972556302 -3 0  4.944909027443701 -3 0  4.834700324516204 -3 0  4.724411298755151 -3 0  4.613988226651132 -3 0  4.50337712513879 -3 0  4.392523641062869 -3 0  4.281372952912111 -3 0  4.169869653528168 -3 0  4.05795762600587 -3 0  3.94557996735911 -3 0  3.832678826224885 -3 0  3.719195309632506 -3 0  3.605069340682676 -3 0  3.490239538749567 -3 0  3.374643064272765 -3 0  3.25821550942437 -3 0  3.140890695461794 -3 0  3.022600544948583 -3 0  2.903274902847057 -3 0  2.782841436154621 -3 0  2.661225305128949 -3 0  2.538348962678273 -3 0  2.414132220974763 -3 0  2.288491583733238 -3 0  2.161340409901745 -3 0  2.032588345797035 -3 0  1.902141306527067 -3 0  1.76990088069941 -3 0  1.63576426989143 -3 0  1.499623750997021 -3 0  1.361366559951406 -3 0  1.220874206813038 -3 0  1.078021832496241 -3 0  0.9326746522331657 -3 0  0.7847064770981866 -3 0  0.6339594025705644 -3 0  0.4802832713234277 -3 0  0.3235148258676688 -3 0  0.1634815529665037 -3 0  10 -0.1578947368421053 0  10 -0.3157894736842105 0  10 -0.4736842105263158 0  10 -0.631578947368421 0  10 -0.7894736842105263 0  10 -0.9473684210526315 0  10 -1.105263157894737 0  10 -1.263157894736842 0  10 -1.421052631578947 0  10 -1.578947368421053 0  10 -1.736842105263158 0  10 -1.894736842105263 0  10 -2.052631578947368 0  10 -2.210526315789473 0  10 -2.368421052631579 0  10 -2.526315789473684 0  10 -2.684210526315789 0  10 -2.842105263157895 0  5.242711110728958 0 0  5.286293876649897 0 0  5.330766086621492 0 0  5.376145892152014 0 0  5.42245181646005 0 0  5.469702760230978 0 0  5.517918009047484 0 0  5.567117241926971 0 0  5.617320540136478 0 0  5.668548395689594 0 0  5.720821717944563 0 0  5.774161842706401 0 0  5.828590541705438 0 0  5.884130030266638 0 0  5.94080297745657 0 0  5.998632515975636 0 0  6.057642249464515 0 0  6.117856263073772 0 0  6.179299133754786 0 0  6.241995940196628 0 0  6.305972273202026 0 0  6.371254245734116 0 0  6.437868503398305 0 0  6.505842236065488 0 0  6.57520318781872 0 0  6.645979668702895 0 0  6.718200567773351 0 0  6.791895362948095 0 0  6.867094133486367 0 0  6.943827572999363 0 0  7.022127001505145 0 0  7.102024377265316 0 0  7.18355231127951 0 0  7.266744080958588 0 0  7.351633642095368 0 0  7.438255642858786 0 0  7.526645439729658 0 0  7.616839110635373 0 0  7.70887346833099 0 0  7.802786078238742 0 0  7.898615271798998 0 0  7.99640016325088 0 0  8.096180665028355 0 0  8.197997502914994 0 0  8.301892235603667 0 0  8.40790726914452 0 0  8.516085874883178 0 0  8.626472207502559 0 0  8.739111322234072 0 0  8.854049194324977 0 0  8.971332737055752 0 0  9.091009821249205 0 0  9.213129294849979 0 0  9.337741002569205 0 0  9.464895806341062 0 0  9.594645606616213 0 0  9.727043362350333 0 0  9.862143112515479 0 0  5.2125 -0.4 0  5.225 -0.4 0  5.2375 -0.4 0  5.25 -0.4 0  5.2625 -0.4 0  5.275 -0.4 0  5.2875 -0.4 0  5.3 -0.4 0  5.3125 -0.4 0  5.325 -0.4 0  5.337499999999999 -0.4 0  5.35 -0.4 0  5.3625 -0.4 0  5.375 -0.4 0  5.3875 -0.4 0  5.4 -0.4 0  5.4125 -0.4 0  5.425 -0.4 0  5.4375 -0.4 0  5.45 -0.4 0  5.4625 -0.4 0  5.475 -0.4 0  5.4875 -0.4 0  4.5125 -0.4 0  4.525 -0.4 0  4.5375 -0.4 0  4.55 -0.4 0  4.5625 -0.4 0  4.575 -0.4 0  4.587499999999999 -0.4 0  4.6 -0.4 0  4.6125 -0.4 0  4.625 -0.4 0  4.637499999999999 -0.4 0  4.649999999999999 -0.4 0  4.6625 -0.4 0  4.675 -0.4 0  4.6875 -0.4 0  4.699999999999999 -0.4 0  4.712499999999999 -0.4 0  4.725 -0.4 0  4.7375 -0.4 0  4.75 -0.4 0  4.7625 -0.4 0  4.774999999999999 -0.4 0  4.7875 -0.4 0  0.1378568874845195 0 0  0.2729566376496684 0 0  0.4053543933837926 0 0  0.5351041936589437 0 0  0.6622589974307957 0 0  0.7868707051500208 0 0  0.9089901787507969 0 0  1.028667262944252 0 0  1.145950805675029 0 0  1.260888677765933 0 0  1.373527792497444 0 0  1.483914125116827 0 0  1.592092730855484 0 0  1.698107764396336 0 0  1.802002497085009 0 0  1.903819334971649 0 0  2.003599836749125 0 0  2.1013847282010
[...]
<PointData  Vectors="displacement"> 
<DataArray  type="Float64"  Name="displacement"  NumberOfComponents="3" format="ascii">0.0000000000000000e+00 -2.6801504257509181e-03 0.0000000000000000e+00  0.0000000000000000e+00 -2.6809422757713836e-03 0.0000000000000000e+00  0.0000000000000000e+00 -2.7805498858903999e-03 0.0000000000000000e+00  0.0000000000000000e+00 -2.7797460835468067e-03 0.0000000000000000e+00  0.0000000000000000e+00 -2.7165675343708835e-03 0.0000000000000000e+00  0.0000000000000000e+00 -2.7171552870191473e-03 0.0000000000000000e+00  0.0000000000000000e+00 -3.4212145974982081e-03 0.0000000000000000e+00  0.0000000000000000e+00 -3.4132645431708391e-03 0.0000000000000000e+00  0.0000000000000000e+00 0.0000000000000000e+00 0.0000000000000000e+00  0.0000000000000000e+00 1.3583150375653588e-04 0.0000000000000000e+00  0.0000000000000000e+00 0.0000000000000000e+00 0.0000000000000000e+00  0.0000000000000000e+00 1.3586706929854433e-04 0.0000000000000000e+00  0.0000000000000000e+00 -2.6886405612409135e-03 0.0000000000000000e+00  0.0000000000000000e+00 -2.6960201635316265e-03 0.0000000000000000e+00  0.0000000000000000e+00 -2.7030757509527753e-03 0.0000000000000000e+00  0.0000000000000000e+00 -2.7098045882217080e-03 0.0000000000000000e+00  0.0000000000000000e+00 -2.7162060379563443e-03 0.0000000000000000e+00  0.0000000000000000e+00 -2.7222809600086603e-03 0.0000000000000000e+00  0.0000000000000000e+00 -2.7280314150477034e-03 0.0000000000000000e+00  0.0000000000000000e+00 -2.7334603884764195e-03 0.0000000000000000e+00  0.0000000000000000e+00 -2.7385714578097033e-03 0.0000000000000000e+00  0.0000000000000000e+00 -2.7433686205994819e-03 0.0000000000000000e+00  0.0000000000000000e+00 -2.7478562854773799e-03 0.0000000000000000e+00  0.0000000000000000e+00 -2.7520392634280398e-03 0.0000000000000000e+00  0.0000000000000000e+00 -2.7559227024746987e-03 0.0000000000000000e+00  0.0000000000000000e+00 -2.7595120750009004e-03 0.0000000000000000e+00  0.0000000000000000e+00 -2.7628134642971726e-03 0.0000000000000000e+00  0.0000000000000000e+00 -2.7658333531717988e-03 0.0000000000000000e+00  0.0000000000000000e+00 -2.7685785767253635e-03 0.0000000000000000e+00  0.0000000000000000e+00 -2.7710561806896530e-03 0.0000000000000000e+00  0.0000000000000000e+00 -2.7732727424422689e-03 0.0000000000000000e+00  0.0000000000000000e+00 -2.7752339653543587e-03 0.0000000000000000e+00  0.0000000000000000e+00 -2.7769436536147136e-03 0.0000000000000000e+00  0.0000000000000000e+00 -2.7784025620508400e-03 0.0000000000000000e+00  0.0000000000000000e+00 -2.7796074107333296e-03 0.0000000000000000e+00  0.0000000000000000e+00 -2.7788013378568762e-03 0.0000000000000000e+00  0.0000000000000000e+00 -2.7775944258679659e-03 0.0000000000000000e+00  0.0000000000000000e+00 -2.7761336529376953e-03 0.0000000000000000e+00  0.0000000000000000e+00 -2.7744223916360117e-03 0.0000000000000000e+00  0.0000000000000000e+00 -2.7724598237035079e-03 0.0000000000000000e+00  0.0000000000000000e+00 -2.7702421972218595e-03 0.0000000000000000e+00  0.0000000000000000e+00 -2.7677638176292632e-03 0.0000000000000000e+00  0.0000000000000000e+00 -2.7650180630435397e-03 0.0000000000000000e+00  0.0000000000000000e+00 -2.7619979756503491e-03 0.0000000000000000e+00  0.0000000000000000e+00 -2.7586966027564109e-03 0.0000000000000000e+00  0.0000000000000000e+00 -2.7551075169926910e-03 0.0000000000000000e+00  0.0000000000000000e+00 -2.7512246183686580e-03 0.0000000000000000e+00  0.0000000000000000e+00 -2.7470424274295456e-03 0.0000000000000000e+00  0.0000000000000000e+00 -2.7425556702283210e-03 0.0000000000000000e+00  0.0000000000000000e+00 -2.7377596687557966e-03 0.0000000000000000e+00  0.0000000000000000e+00 -2.7326500691120374e-03 0.0000000000000000e+00  0.0000000000000000e+00 -2.7272226444019832e-03 0.0000000000000000e+00  0.0000000000000000e+00 -2.7214739565760231e-03 0.0000000000000000e+00  0.0000000000000000e+00 -2.7154010372272934e-03 0.0000000000000000e+00  0.0000000000000000e+00 -2.7090017805515973e-03 0.0000000000000000e+00  0.0000000000000000e+00 -2.7022752795021290e-03 0.0000000000000000e+00  0.0000000000000000e+00 -2.6952223323612754e-03 0.0000000000000000e+00  0.0000000000000000e+00 -2.6878455876929276e-03 0.0000000000000000e+00  0.0000000000000000e+00 -2.7293756377506704e-03 0.0000000000000000e+00  0.0000000000000000e+00 -2.7386108491007678e-03 0.0000000000000000e+00  0.0000000000000000e+00 -2.7478522882951276e-03 0.0000000000000000e+00  0.0000000000000000e+00 -2.7573653575060589e-03 0.0000000000000000e+00  0.0000000000000000e+00 -2.7672791164248742e-03 0.0000000000000000e+00  0.0000000000000000e+00 -2.7776542013470697e-03 0.0000000000000000e+00  0.0000000000000000e+00 -2.7885444146365738e-03 0.0000000000000000e+00  0.0000000000000000e+00 -2.7999976667678005e-03 0.0000000000000000e+00  0.0000000000000000e+00 -2.8120571515601865e-03 0.0000000000000000e+00  0.0000000000000000e+00 -2.8247770298059621e-03 0.0000000000000000e+00  0.0000000000000000e+00 -2.8382093430585034e-03 0.0000000000000000e+00  0.0000000000000000e+00 -2.8524158036848596e-03 0.0000000000000000e+00  0.0000000000000000e+00 -2.8674660439851388e-03 0.0000000000000000e+00  0.0000000000000000e+00 -2.8834453668015150e-03 0.0000000000000000e+00  0.0000000000000000e+00 -2.9004446306215240e-03 0.0000000000000000e+00  0.0000000000000000e+00 -2.9185862183107908e-03 0.0000000000000000e+00  0.0000000000000000e+00 -2.9380208432693445e-03 0.0000000000000000e+00  0.0000000000000000e+00 -2.9589667587290986e-03 0.0000000000000000e+00  0.0000000000000000e+00 -2.9817521213970030e-03 0.0000000000000000e+00  0.0000000000000000e+00 -3.0069718621959017e-03 0.0000000000000000e+00  0.0000000000000000e+00 -3.0372996123979447e-03 0.0000000000000000e+00  0.0000000000000000e+00 -3.0748711328814245e-03 0.0000000000000000e+00  0.0000000000000000e+00 -3.1609548938474814e-03 0.0000000000000000e+00  -4.0132785000678906e-04 -4.2375973297896245e-03 0.0000000000000000e+00  -4.0580194316209444e-04 -4.5158676890000426e-03 0.0000000000000000e+00  -4.0707553221799988e-04 -4.6935014715542558e-03 0.0000000000000000e+00  -4.0309621626186077e-04 -4.8459244311229591e-03 0.0000000000000000e+00  -3.9571746847541408e-04 -4.9807490701166239e-03 0.0000000000000000e+00  -3.8561543407528999e-04 -5.1023015627187657e-03 0.0000000000000000e+00  -3.7324448013443937e-04 -5.2128254495135201e-03 0.0000000000000000e+00  -3.5891863451042381e-04 -5.3137191316682221e-03 0.0000000000000000e+00  -3.4300092460609258e-04 -5.4060286835388221e-03 0.0000000000000000e+00  -3.2569211485167172e-04 -5.4904613304577301e-03 0.0000000000000000e+00  -3.0720544611716145e-04 -5.5675960240009603e-03 0.0000000000000000e+00  -2.8770701915900387e-04 -5.6378887401452808e-03 0.0000000000000000e+00  -2.6733750677719067e-04 -5.7017134378556465e-03 0.0000000000000000e+00  -2.4621538267823669e-04 -5.7593745774048490e-03 0.0000000000000000e+00  -2.2445055862453707e-04 -5.8111281199233877e-03 0.0000000000000000e+00  -2.0213143700509480e-04 -5.8571885233088244e-03 0.0000000000000000e+00  -1.7933780000373365e-04 -5.8977344395336265e-03 0.0000000000000000e+00  -1.5614449514615575e-04 -5.9329161249055363e-03 0.0000000000000000e+00  -1.3261619267892116e-04 -5.9628583734071339e-03 0.0000000000000000e+00  -1.0881301111260203e-04 -5.9876639869797278e-03 0.0000000000000000e+00  -8.4788312637359064e-05 -6.0074139180361103e-03 0.0000000000000000e+00  -6.0594384765920923e-05 -6.0221734737098262e-03 0.0000000000000000e+00  -3.6285729614977582e-05 -6.0319897451666894e-03 0.0000000000000000e+00  -1.1904293097102396e-05 -6.0368921628080954e-03 0.0000000000000000e+00  1.2499771484348688e-05 -6.0368969530922387e-03 0.0000000000000000e+00  3.6880759942526983e-05 -6.0320042492216916e-03 0.0000000000000000e+00  6.1192890582794258e-05 -6.0221989525695617e-03 0.0000000000000000e+00  8.5386466304385145e-05 -6.0074500911685745e-03 0.0000000000000000e+00  1.0941024545028762e-04 -5.9877092017608319e-03 0.0000000000000000e+00  1.3321908451426981e-04 -5.9629155346622720e-03 0.0000000000000000e+00  1.5675110802947125e-04 -5.9329849644171803e-03 0.0000000000000000e+00  1.7994870064631013e-04 -5.8978151379630306e-03 0.0000000000000000e+00  2.0274105906063552e-04 -5.8572780548770149e-03 0.0000000000000000e+00  2.2506888147956971e-04 -5.8112311792820701e-03 0.0000000000000000e+00  2.4684119304508678e-04 -5.7594906693586934e-03 0.0000000000000000e+00  2.6796740968741125e-04 -5.7018428317754952e-03 0.0000000000000000e+00  2.8833859220649024e-04 -5.6380290123736526e-03 0.0000000000000000e+00  3.0785043273829607e-04 -5.5677539115957615e-03 0.0000000000000000e+00  3.2634763518441412e-04 -5.4906398489742636e-03 0.0000000000000000e+00  3.4365210042441884e-04 -5.4062226844249182e-03 0.0000000000000000e+00  3.5959733075003908e-04 -5.3139512947704155e-03 0.0000000000000000e+00  3.7391803784298373e-04 -5.2130736637284120e-03 0.0000000000000000e+00  3.8632288254583511e-04 -5.1025889444863302e-03 0.0000000000000000e+00  3.9644609544098926e-04 -4.9810691475873211e-03 0.0000000000000000e+00  4.0388849011448993e-04 -4.8462712016550278e-03 0.0000000000000000e+00  4.0791806435115392e-04 -4.6937930814440676e-03 0.0000000000000000e+00  4.0707829865724250e-04 -4.5148348664143800e-03 0.0000000000000000e+00  3.9841188827180614e-04 -4.2455023122116419e-03 0.0000000000000000e+00  0.0000000000000000e+00 -3.1574530174933936e-03 0.0000000000000000e+00  0.0000000000000000e+00 -3.0733357841342250e-03 0.0000000000000000e+00  0.0000000000000000e+00 -3.0356269759654339e-03 0.0000000000000000e+00  0.0000000000000000e+00 -3.0060097000973152e-03 0.0000000000000000e+00  0.0000000000000000e+00 -2.9807953552029669e-03 0.0000000000000000e+00  0.0000000000000000e+00 -2.9580347244201710e-03 0.0000000000000000e+00  0.0000000000000000e+00 -2.9371148422494865e-03 0.0000000000000000e+00  0.0000000000000000e+00 -2.9176976405052872e-03 0.0000000000000000e+00  0.0000000000000000e+00 -2.8995725185022277e-03 0.0000000000000000e+00  0.0000000000000000e+00 -2.8825905815742826e-03 0.0000000000000000e+00  0.0000000000000000e+00 -2.8666294249540618e-03 0.0000000000000000e+00  0.0000000000000000e+00 -2.8515927997638372e-03 0.0000000000000000e+00  0.0000000000000000e+00 -2.8373995843670526e-03 0.0000000000000000e+00  0.0000000000000000e+00 -2.8239816241240074e-03 0.0000000000000000e+00  0.0000000000000000e+00 -2.8112743431049484e-03 0.0000000000000000e+00  0.0000000000000000e+00 -2.7992255372172705e-03 0.0000000000000000e+00  0.0000000000000000e+00 -2.7877855466555811e-03 0.0000000000000000e+00  0.0000000000000000e+00 -2.7769069698203265e-03 0.0000000000000000e+00  0.0000000000000000e+00 -2.7665428703025764e-03 0.0000000000000000e+00  0.0000000000000000e+00 -2.7566471684013060e-03 0.0000000000000000e+00  0.0000000000000000e+00 -2.7471429498862666e-03 0.0000000000000000e+00  0.0000000000000000e+00 -2.7379294985837776e-03 0.0000000000000000e+00  0.0000000000000000e+00 -2.7287155207902369e-03 0.0000000000000000e+00  0.0000000000000000e+00 8.2507380961594533e-07 0.0000000000000000e+00  0.0000000000000000e+00 4.6834821639692318e-06 0.0000000000000000e+00  0.0000000000000000e+00 1.1209463118478011e-05 0.0000000000000000e+00  0.0000000000000000e+00 1.9955601493414166e-05 0.0000000000000000e+00  0.0000000000000000e+00 3.0464602146045368e-05 0.0000000000000000e+00  0.0000000000000000e+00 4.2252099422327977e-05 0.0000000000000000e+00  0.0000000000000000e+00 5.4796839315610924e-05 0.0000000000000000e+00  0.0000000000000000e+00 6.7625548079724567e-05 0.0000000000000000e+00  0.0000000000000000e+00 8.0259645110516986e-05 0.0000000000000000e+00  0.0000000000000000e+00 9.2265321953752217e-05 0.0000000000000000e+00  0.0000000000000000e+00 1.0326779414017689e-04 0.0000000000000000e+00  0.0000000000000000e+00 1.1294935643961217e-04 0.0000000000000000e+00  0.0000000000000000e+00 1.2105691256626897e-04 0.0000000000000000e+00  0.0000000000000000e+00 1.2744489149000575e-04 0.0000000000000000e+00  0.0000000000000000e+00 1.3205918403430420e-04 0.0000000000000000e+00  0.0000000000000000e+00 1.3495905741242280e-04 0.0000000000000000e+00  0.0000000000000000e+00 1.3632555828977597e-04 0.0000000000000000e+00  0.0000000000000000e+00 1.3647243774630503e-04 0.0000000000000000e+00  0.0000000000000000e+00 0.0000000000000000e+00 0.0000000000000000e+00  0.0000000000000000e+00 0.0000000000000000e+00 0.0000000000000000e+00  0.0000000000000000e+00 0.0000000000000000e+00 0.0000000000000000e+00  0.0000000000000000e+00 0.0000000000000000e+00 0.0000000000000000e+00  0.0000000000000000e+00 0.0000000000000000e+00 0.0000000000000000e+00  0.0000000000000000e+00 0.0000000000000000e+00 0.0000000000000000e+00  0.0000000000000000e+00 0.0000000000000000e+00 0.0000000000000000e+00  0.0000000000000000e+00 0.0000000000000000e+00 0.0000000000000000e+00  0.0000000000000000e+00 0.0000000000000000e+00 0.0000000000000000e+00  0.0000000000000000e+00 0.0000000000000000e+00 0.0000000000000000e+00  0.0000000000000000e+00 0.0000000000000000e+00 0.0000000000000000e+00  0.0000000000000000e+00 0.0000000000000000e+00 0.0000000000000000e+00  0.0000000000000000e+00 0.0000000000000000e+00 0.0000000000000000e+00  0.0000000000000000e+00 0.0000000000000000e+00 0.0000000000000000e+00  0.0000000000000000e+00 0.0000000000000000e+00 0.0000000000000000e+00  0.0000000000000000e+00 0.0000000000000000e+00 0.0000000000000000e+00  0.0000000000000000e+00 0.0000000000000000e+00 0.0000000000000000e+00  0.0000000000000000e+00 0.0000000000000000e+00 0.0000000000000000e+00  0.0000000000000000e+00 0.0000000000000000e+00 0.0000000000000000e+00  0.0000000000000000e+00 0.0000000000000000e+00 0.0000000000000000e+00  0.0000000000000000e+00 0.0000000000000000e+00 0.0000000000000000e+00  0.0000000000000000e+00 0.0000000000000000e+00 0.0000000000000000e+00  0.0000000000000000e+00 0.0000000000000000e+00 0.0000000000000000e+00  0.0000000000000000e+00 0.0000000000000000e+00 0.0000000000000000e+00  0.0000000000000000e+00 0.0000000000000000e+00 0.0000000000000000e+00  0.0000000000000000e+00 0.0000000000000000e+00 0.0000000000000000e+00  0.0000000000000000e+00 0.0000000000000000e+00 0.0000000000000000e+00  0.0000000000000000e+00 0.0000000000000000e+00 0.0000000000000000e+00  0.0000000000000000e+00 0.0000000000000000e+00 0.0000000000000000e+00  0.0000000000000000e+00 0.0000000000000000e+00 0.0000000000000000e+00  0.0000000000000000e+00 0.0000000000000000e+00 0.0000000000000000e+00  0.0000000000000000e+00 0.0000000000000000e+00 0.0000000000000000e+00  0.0000000000000000e+00 0.0000000000000000e+00 0.0000000000000000e+00  0.0000000000000000e+00 0.0000000000000000e+00 0.0000000000000000e+00  0.0000000000000000e+00 0.0000000000000000e+00 0.0000000000000000e+00  0.0000000000000000e+00 0.0000000000000000e+00 0.0000000000000000e+00  0.0000000000000000e+00 0.0000000000000000e+00 0.0000000000000000e+00  0.0000000000000000e+00 0.0000000000000000e+00 0.0000000000000000e+00  0.0000000000000000e+00 0.0000000000000000e+00 0.0000000000000000e+00  0.0000000000000000e+00 0.0000000000000000e+00 0.0000000000000000e+00  0.0000000000000000e+00 0.0000000000000000e+00 0.0000000000000000e+00  0.0000000000000000e+00 0.0000000000000000e+00 0.0000000000000000e+00  0.0000000000000000e+00 0.0000000000000000e+00 0.0000000000000000e+00  0.0000000000000000e+00 0.0000000000000000e+00 0.0000000000000000e+00  0.0000000000000000e+00 0.0000000000000000e+00 0.0000000000000000e+00  0.0000000000000000e+00 0.0000000000000000e+00 0.0000000000000000e+00  0.0000000000000000e+00 0.0000000000000000e+00 0.0000000000000000e+00  0.0000000000000000e+00 0.0000000000000000e+00 0.0000000000000000e+00  0.0000000000000000e+00 0.0000000000000000e+00 0.0000000000000000e+00  0.0000000000000000e+00 0.0000000000000000e+00 0.0000000000000000e+00  0.0000000000000000e+00 0.0000000000000000e+00 0.0000000000000000e+00  0.0000000000000000e+00 0.0000000000000000e+00 0.0000000000000000e+00  0.0000000000000000e+00 0.0000000000000000e+00 0.0000000000000000e+00  0.0000000000000000e+00 0.0000000000000000e+00 0.0000000000000000e+00  0.0000000000000000e+00 0.0000000000000000e+00 0.0000000000000000e+00  0.0000000000000000e+00 0.0000000000000000e+00 0.0000000000000000e+00  0.0000000000000000e+00 0.0000000000000000e+00 0.0000000000000000e+00  0.0000000000000000e+00 0.0000000000000000e+00 0.0000000000000000e+00  0.0000000000000000e+00 0.0000000000000000e+00 0.0000000000000000e+00  0.0000000000000000e+00 0.0000000000000000e+00 0.0000000000000000e+00  0.0000000000000000e+00 0.0000000000000000e+00 0.0000000000000000e+00  0.0000000000000000e+00 0.0000000000000000e+00 0.0000000000000000e+00  0.0000000000000000e+00 0.0000000000000000e+00 0.0000000000000000e+00  0.0000000000000000e+00 0.0000000000000000e+00 0.0000000000000000e+00  0.0000000000000000e+00 0.0000000000000000e+00 0.0000000000000000e+00  0.0000000000000000e+00 0.0000000000000000e+00 0.0000000000000000e+00  0.0000000000000000e+00 0.0000000000000000e+00 0.0000000000000000e+00  0.0000000000000000e+00 0.0000000000000000e+00 0.0000000000000000e+00  0.0000000000000000e+00 0.0000000000000000e+00 0.0000000000000000e+00  0.0000000000000000e+00 0.0000000000000000e+00 0.0000000000000000e+00  0.0000000000000000e+00 0.0000000000000000e+00 0.0000000000000000e+00  0.0000000000000000e+00 0.0000000000000000e+00 0.0000000000000000e+00  0.0000000000000000e+00 0.0000000000000000e+00 0.0000000000000000e+00  0.0000000000000000e+00 0.0000000000000000e+00 0.0000000000000000e+00  0.0000000000000000e+00 0.0000000000000000e+00 0.0000000000000000e+00  0.0000000000000000e+00 0.0000000000000000e+00 0.0000000000000000e+00  0.0000000000000000e+00 0.0000000000000000e+00 0.0000000000000000e+00  0.0000000000000000e+00 0.0000000000000000e+00 0.0000000000000000e+00  0.0000000000000000e+00 1.3650530703108251e-04 0.0000000000000000e+00  0.0000000000000000e+00 1.3635824699889592e-04 0.0000000000000000e+00  0.0000000000000000e+00 1.3499090878625855e-04 0.0000000000000000e+00  0.0000000000000000e+00 1.3208558835499433e-04 0.0000000000000000e+00  0.0000000000000000e+00 1.2746954424508824e-04 0.0000000000000000e+00  0.0000000000000000e+00 1.2107896081768822e-04 0.0000000000000000e+00  0.0000000000000000e+00 1.1296651279204377e-04 0.0000000000000000e+00  0.0000000000000000e+00 1.0328458664881934e-04 0.0000000000000000e+00  0.0000000000000000e+00 9.2281739135219480e-05 0.0000000000000000e+00  0.0000000000000000e+00 8.0267480386451385e-05 0.0000000000000000e+00  0.0000000000000000e+00 6.7630731345239741e-05 0.0000000000000000e+00  0.0000000000000000e+00 5.4807985418746574e-05 0.0000000000000000e+00  0.0000000000000000e+00 4.2253805185548915e-05 0.0000000000000000e+00  0.0000000000000000e+00 3.0471358731060814e-05 0.0000000000000000e+00  0.0000000000000000e+00 1.9957450386659200e-05 0.0000000000000000e+00  0.0000000000000000e+00 1.1207404034302733e-05 0.0000000000000000e+00  0.0000000000000000e+00 4.6822863942437562e-06 0.0000000000000000e+00  0.0000000000000000e+00 8.2435610928497664e-07 0.0000000000000000e+00  -4.6981254375739124e-05 -2.6785614121234971e-03 0.0000000000000000e+00  -9.5015472778188029e-05 -2.6711756850414407e-03 0.0000000000000000e+00  -1.4419290815370007e-04 -2.6583326055192049e-03 0.0000000000000000e+00  -1.9455487767386630e-04 -2.6394485556947289e-03 0.0000000000000000e+00  -2.4603512425613915e-04 -2.6138127410194533e-03 0.0000000000000000e+00  -2.9838919071327566e-04 -2.5806198974286511e-03 0.0000000000000000e+00  -3.5109397616468996e-04 -2.5390592326129083e-03 0.0000000000000000e+00  -4.0344423293794528e-04 -2.4884289156563476e-03 0.0000000000000000e+00  -4.5441156686914819e-04 -2.4282791401325650e-03 0.0000000000000000e+00  -5.0277606704469729e-04 -2.3585425141553185e-03 0.0000000000000000e+00  -5.4741927008375880e-04 -2.2795752796857310e-03 0.0000000000000000e+00  -5.8718734036339380e-04 -2.1921748382730233e-03 0.0000000000000000e+00  -6.2118621427193778e-04 -2.0975096559249758e-03 0.0000000000000000e+00  -6.4884325009832548e-04 -1.9970131199921605e-03 0.0000000000000000e+00  -6.6984614031244914e-04 -1.8921818262057387e-03 0.0000000000000000e+00  -6.8