<?xml version="1.0"?>
<VTKFile type="UnstructuredGrid"  version="0.1"  >
<UnstructuredGrid>
<Piece  NumberOfPoints="6792" NumberOfCells="13154">
<Points>
<DataArray  type="Float64"  NumberOfComponents="3"  format="ascii">4.8 0 0  5.2 0 0  5.2 -0.4 0  4.8 -0.4 0  4.5 -0.4 0  5.5 -0.4 0  5.5 -0.6000000000000001 0  4.5 -0.6000000000000001 0  0 -3 0  0 0 0  10 -3 0  10 0 0  5.2 -0.01666666666666669 0  5.2 -0.03333333333333339 0  5.2 -0.05000000000000009 0  5.2 -0.06666666666666679 0  5.2 -0.0833333333333335 0  5.2 -0.1000000000000002 0  5.2 -0.1166666666666669 0  5.2 -0.1333333333333336 0  5.2 -0.1500000000000002 0  5.2 -0.1666666666666669 0  5.2 -0.1833333333333335 0  5.2 -0.2000000000000001 0  5.2 -0.2166666666666668 0  5.2 -0.2333333333333335 0  5.2 -0.2500000000000002 0  5.2 -0.2666666666666669 0  5.2 -0.2833333333333335 0  5.2 -0.3000000000000002 0  5.2 -0.3166666666666668 0  5.2 -0.3333333333333335 0  5.2 -0.3500000000000001 0  5.2 -0.3666666666666668 0  5.2 -0.3833333333333334 0  4.8 -0.3833333333333333 0  4.8 -0.3666666666666666 0  4.8 -0.3499999999999999 0  4.8 -0.3333333333333333 0  4.8 -0.3166666666666665 0  4.8 -0.2999999999999998 0  4.8 -0.2833333333333331 0  4.8 -0.2666666666666664 0  4.8 -0.2499999999999998 0  4.8 -0.2333333333333331 0  4.8 -0.2166666666666665 0  4.8 -0.1999999999999999 0  4.8 -0.1833333333333332 0  4.8 -0.1666666666666665 0  4.8 -0.1499999999999998 0  4.8 -0.1333333333333331 0  4.8 -0.1166666666666665 0  4.8 -0.09999999999999987 0  4.8 -0.0833333333333332 0  4.8 -0.06666666666666654 0  4.8 -0.04999999999999988 0  4.8 -0.03333333333333327 0  4.8 -0.01666666666666661 0  5.5 -0.4083333333333334 0  5.5 -0.4166666666666667 0  5.5 -0.425 0  5.5 -0.4333333333333334 0  5.5 -0.4416666666666668 0  5.5 -0.4500000000000001 0  5.5 -0.4583333333333334 0  5.5 -0.4666666666666668 0  5.5 -0.4750000000000001 0  5.5 -0.4833333333333335 0  5.5 -0.4916666666666668 0  5.5 -0.5000000000000002 0  5.5 -0.5083333333333335 0  5.5 -0.5166666666666668 0  5.5 -0.5250000000000002 0  5.5 -0.5333333333333335 0  5.5 -0.5416666666666669 0  5.5 -0.5500000000000002 0  5.5 -0.5583333333333335 0  5.5 -0.5666666666666668 0  5.5 -0.5750000000000002 0  5.5 -0.5833333333333335 0  5.5 -0.5916666666666668 0  5.479591836734694 -0.6000000000000001 0  5.459183673469388 -0.6000000000000001 0  5.438775510204081 -0.6000000000000001 0  5.418367346938775 -0.6000000000000001 0  5.397959183673469 -0.6000000000000001 0  5.377551020408164 -0.6000000000000001 0  5.357142857142857 -0.6000000000000001 0  5.336734693877551 -0.6000000000000001 0  5.316326530612245 -0.6000000000000001 0  5.295918367346939 -0.6000000000000001 0  5.275510204081633 -0.6000000000000001 0  5.255102040816326 -0.6000000000000001 0  5.23469387755102 -0.6000000000000001 0  5.214285714285714 -0.6000000000000001 0  5.193877551020408 -0.6000000000000001 0  5.173469387755102 -0.6000000000000001 0  5.153061224489796 -0.6000000000000001 0  5.13265306122449 -0.6000000000000001 0  5.112244897959184 -0.6000000000000001 0  5.091836734693878 -0.6000000000000001 0  5.071428571428571 -0.6000000000000001 0  5.051020408163265 -0.6000000000000001 0  5.030612244897959 -0.6000000000000001 0  5.010204081632653 -0.6000000000000001 0  4.989795918367347 -0.6000000000000001 0  4.969387755102041 -0.6000000000000001 0  4.948979591836735 -0.6000000000000001 0  4.928571428571429 -0.6000000000000001 0  4.908163265306122 -0.6000000000000001 0  4.887755102040816 -0.6000000000000001 0  4.86734693877551 -0.6000000000000001 0  4.846938775510204 -0.6000000000000001 0  4.826530612244898 -0.6000000000000001 0  4.806122448979592 -0.6000000000000001 0  4.785714285714286 -0.6000000000000001 0  4.76530612244898 -0.6000000000000001 0  4.744897959183674 -0.6000000000000001 0  4.724489795918368 -0.6000000000000001 0  4.704081632653061 -0.6000000000000001 0  4.683673469387755 -0.6000000000000001 0  4.663265306122449 -0.6000000000000001 0  4.642857142857143 -0.6000000000000001 0  4.622448979591836 -0.6000000000000001 0  4.602040816326531 -0.6000000000000001 0  4.581632653061225 -0.6000000000000001 0  4.561224489795919 -0.6000000000000001 0  4.540816326530612 -0.6000000000000001 0  4.520408163265306 -0.6000000000000001 0  4.5 -0.5916666666666668 0  4.5 -0.5833333333333334 0  4.5 -0.5750000000000001 0  4.5 -0.5666666666666668 0  4.5 -0.5583333333333333 0  4.5 -0.55 0  4.5 -0.5416666666666667 0  4.5 -0.5333333333333333 0  4.5 -0.525 0  4.5 -0.5166666666666666 0  4.5 -0.5083333333333333 0  4.5 -0.4999999999999999 0  4.5 -0.4916666666666666 0  4.5 -0.4833333333333332 0  4.5 -0.4749999999999999 0  4.5 -0.4666666666666666 0  4.5 -0.4583333333333333 0  4.5 -0.45 0  4.5 -0.4416666666666667 0  4.5 -0.4333333333333333 0  4.5 -0.425 0  4.5 -0.4166666666666667 0  4.5 -0.4083333333333334 0  0 -2.842105263157895 0  0 -2.684210526315789 0  0 -2.526315789473684 0  0 -2.368421052631579 0  0 -2.210526315789473 0  0 -2.052631578947369 0  0 -1.894736842105263 0  0 -1.736842105263158 0  0 -1.578947368421053 0  0 -1.421052631578947 0  0 -1.263157894736842 0  0 -1.105263157894737 0  0 -0.9473684210526319 0  0 -0.7894736842105265 0  0 -0.6315789473684212 0  0 -0.4736842105263159 0  0 -0.3157894736842106 0  0 -0.1578947368421053 0  9.836518447033493 -3 0  9.676485174132324 -3 0  9.519716728676565 -3 0  9.366040597429432 -3 0  9.215293522901804 -3 0  9.067325347766827 -3 0  8.921978167503752 -3 0  8.779125793186953 -3 0  8.638633440048579 -3 0  8.500376249002967 -3 0  8.364235730108557 -3 0  8.230099119300583 -3 0  8.097858693472926 -3 0  7.96741165420296 -3 0  7.838659590098249 -3 0  7.711508416266758 -3 0  7.585867779025237 -3 0  7.461651037321721 -3 0  7.338774694871047 -3 0  7.217158563845377 -3 0  7.096725097152937 -3 0  6.977399455051415 -3 0  6.859109304538208 -3 0  6.741784490575633 -3 0  6.625356935727237 -3 0  6.509760461250432 -3 0  6.394930659317325 -3 0  6.2808046903675 -3 0  6.167321173775116 -3 0  6.054420032640893 -3 0  5.942042373994132 -3 0  5.830130346471836 -3 0  5.718627047087892 -3 0  5.607476358937133 -3 0  5.496622874861212 -3 0  5.386011773348871 -3 0  5.275588701244851 -3 0  5.1652996754838 -3 0  5.055090972556302 -3 0  4.944909027443701 -3 0  4.834700324516204 -3 0  4.724411298755151 -3 0  4.613988226651132 -3 0  4.50337712513879 -3 0  4.392523641062869 -3 0  4.281372952912111 -3 0  4.169869653528168 -3 0  4.05795762600587 -3 0  3.94557996735911 -3 0  3.832678826224885 -3 0  3.719195309632506 -3 0  3.605069340682676 -3 0  3.490239538749567 -3 0  3.374643064272765 -3 0  3.25821550942437 -3 0  3.140890695461794 -3 0  3.022600544948583 -3 0  2.903274902847057 -3 0  2.782841436154621 -3 0  2.661225305128949 -3 0  2.538348962678273 -3 0  2.414132220974763 -3 0  2.288491583733238 -3 0  2.161340409901745 -3 0  2.032588345797035 -3 0  1.902141306527067 -3 0  1.76990088069941 -3 0  1.63576426989143 -3 0  1.499623750997021 -3 0  1.361366559951406 -3 0  1.220874206813038 -3 0  1.078021832496241 -3 0  0.9326746522331657 -3 0  0.7847064770981866 -3 0  0.6339594025705644 -3 0  0.4802832713234277 -3 0  0.3235148258676688 -3 0  0.1634815529665037 -3 0  10 -0.1578947368421053 0  10 -0.3157894736842105 0  10 -0.4736842105263158 0  10 -0.631578947368421 0  10 -0.7894736842105263 0  10 -0.9473684210526315 0  10 -1.105263157894737 0  10 -1.263157894736842 0  10 -1.421052631578947 0  10 -1.578947368421053 0  10 -1.736842105263158 0  10 -1.894736842105263 0  10 -2.052631578947368 0  10 -2.210526315789473 0  10 -2.368421052631579 0  10 -2.526315789473684 0  10 -2.684210526315789 0  10 -2.842105263157895 0  5.242711110728958 0 0  5.286293876649897 0 0  5.330766086621492 0 0  5.376145892152014 0 0  5.42245181646005 0 0  5.469702760230978 0 0  5.517918009047484 0 0  5.567117241926971 0 0  5.617320540136478 0 0  5.668548395689594 0 0  5.720821717944563 0 0  5.774161842706401 0 0  5.828590541705438 0 0  5.884130030266638 0 0  5.94080297745657 0 0  5.998632515975636 0 0  6.057642249464515 0 0  6.117856263073772 0 0  6.179299133754786 0 0  6.241995940196628 0 0  6.305972273202026 0 0  6.371254245734116 0 0  6.437868503398305 0 0  6.505842236065488 0 0  6.57520318781872 0 0  6.645979668702895 0 0  6.718200567773351 0 0  6.791895362948095 0 0  6.867094133486367 0 0  6.943827572999363 0 0  7.022127001505145 0 0  7.102024377265316 0 0  7.18355231127951 0 0  7.266744080958588 0 0  7.351633642095368 0 0  7.438255642858786 0 0  7.526645439729658 0 0  7.616839110635373 0 0  7.70887346833099 0 0  7.802786078238742 0 0  7.898615271798998 0 0  7.99640016325088 0 0  8.096180665028355 0 0  8.197997502914994 0 0  8.301892235603667 0 0  8.40790726914452 0 0  8.516085874883178 0 0  8.626472207502559 0 0  8.739111322234072 0 0  8.854049194324977 0 0  8.971332737055752 0 0  9.091009821249205 0 0  9.213129294849979 0 0  9.337741002569205 0 0  9.464895806341062 0 0  9.594645606616213 0 0  9.727043362350333 0 0  9.862143112515479 0 0  5.2125 -0.4 0  5.225 -0.4 0  5.2375 -0.4 0  5.25 -0.4 0  5.2625 -0.4 0  5.275 -0.4 0  5.2875 -0.4 0  5.3 -0.4 0  5.3125 -0.4 0  5.325 -0.4 0  5.337499999999999 -0.4 0  5.35 -0.4 0  5.3625 -0.4 0  5.375 -0.4 0  5.3875 -0.4 0  5.4 -0.4 0  5.4125 -0.4 0  5.425 -0.4 0  5.4375 -0.4 0  5.45 -0.4 0  5.4625 -0.4 0  5.475 -0.4 0  5.4875 -0.4 0  4.5125 -0.4 0  4.525 -0.4 0  4.5375 -0.4 0  4.55 -0.4 0  4.5625 -0.4 0  4.575 -0.4 0  4.587499999999999 -0.4 0  4.6 -0.4 0  4.6125 -0.4 0  4.625 -0.4 0  4.637499999999999 -0.4 0  4.649999999999999 -0.4 0  4.6625 -0.4 0  4.675 -0.4 0  4.6875 -0.4 0  4.699999999999999 -0.4 0  4.712499999999999 -0.4 0  4.725 -0.4 0  4.7375 -0.4 0  4.75 -0.4 0  4.7625 -0.4 0  4.774999999999999 -0.4 0  4.7875 -0.4 0  0.1378568874845195 0 0  0.2729566376496684 0 0  0.4053543933837926 0 0  0.5351041936589437 0 0  0.6622589974307957 0 0  0.7868707051500208 0 0  0.9089901787507969 0 0  1.028667262944252 0 0  1.145950805675029 0 0  1.260888677765933 0 0  1.373527792497444 0 0  1.483914125116827 0 0  1.592092730855484 0 0  1.698107764396336 0 0  1.802002497085009 0 0  1.903819334971649 0 0  2.003599836749125 0 0  2.1013847282010
[...]
<PointData  Vectors="displacement"> 
<DataArray  type="Float64"  Name="displacement"  NumberOfComponents="3" format="ascii">0.0000000000000000e+00 -2.4239948265711154e-03 0.0000000000000000e+00  0.0000000000000000e+00 -2.4247072243975703e-03 0.0000000000000000e+00  0.0000000000000000e+00 -2.5157418811264792e-03 0.0000000000000000e+00  0.0000000000000000e+00 -2.5150210452469330e-03 0.0000000000000000e+00  0.0000000000000000e+00 -2.4577845511437745e-03 0.0000000000000000e+00  0.0000000000000000e+00 -2.4583009221929193e-03 0.0000000000000000e+00  0.0000000000000000e+00 -3.0860180843584875e-03 0.0000000000000000e+00  0.0000000000000000e+00 -3.0794801089750615e-03 0.0000000000000000e+00  0.0000000000000000e+00 0.0000000000000000e+00 0.0000000000000000e+00  0.0000000000000000e+00 1.2155773245709758e-04 0.0000000000000000e+00  0.0000000000000000e+00 0.0000000000000000e+00 0.0000000000000000e+00  0.0000000000000000e+00 1.2158899875401024e-04 0.0000000000000000e+00  0.0000000000000000e+00 -2.4317162068801992e-03 0.0000000000000000e+00  0.0000000000000000e+00 -2.4384361056797332e-03 0.0000000000000000e+00  0.0000000000000000e+00 -2.4448622678397581e-03 0.0000000000000000e+00  0.0000000000000000e+00 -2.4509923574851217e-03 0.0000000000000000e+00  0.0000000000000000e+00 -2.4568259157949860e-03 0.0000000000000000e+00  0.0000000000000000e+00 -2.4623638104193102e-03 0.0000000000000000e+00  0.0000000000000000e+00 -2.4676079584056896e-03 0.0000000000000000e+00  0.0000000000000000e+00 -2.4725610829545593e-03 0.0000000000000000e+00  0.0000000000000000e+00 -2.4772264031621867e-03 0.0000000000000000e+00  0.0000000000000000e+00 -2.4816074869150060e-03 0.0000000000000000e+00  0.0000000000000000e+00 -2.4857082457329992e-03 0.0000000000000000e+00  0.0000000000000000e+00 -2.4895329212405834e-03 0.0000000000000000e+00  0.0000000000000000e+00 -2.4930860430881366e-03 0.0000000000000000e+00  0.0000000000000000e+00 -2.4963724252937327e-03 0.0000000000000000e+00  0.0000000000000000e+00 -2.4993974287228155e-03 0.0000000000000000e+00  0.0000000000000000e+00 -2.5021667890765681e-03 0.0000000000000000e+00  0.0000000000000000e+00 -2.5046865879043254e-03 0.0000000000000000e+00  0.0000000000000000e+00 -2.5069631337987959e-03 0.0000000000000000e+00  0.0000000000000000e+00 -2.5090023642118965e-03 0.0000000000000000e+00  0.0000000000000000e+00 -2.5108094867445333e-03 0.0000000000000000e+00  0.0000000000000000e+00 -2.5123880519873540e-03 0.0000000000000000e+00  0.0000000000000000e+00 -2.5137389071043688e-03 0.0000000000000000e+00  0.0000000000000000e+00 -2.5148592848656410e-03 0.0000000000000000e+00  0.0000000000000000e+00 -2.5141362431938073e-03 0.0000000000000000e+00  0.0000000000000000e+00 -2.5130138501466017e-03 0.0000000000000000e+00  0.0000000000000000e+00 -2.5116611645680099e-03 0.0000000000000000e+00  0.0000000000000000e+00 -2.5100810314280693e-03 0.0000000000000000e+00  0.0000000000000000e+00 -2.5082725508278024e-03 0.0000000000000000e+00  0.0000000000000000e+00 -2.5062322185371226e-03 0.0000000000000000e+00  0.0000000000000000e+00 -2.5039548355676642e-03 0.0000000000000000e+00  0.0000000000000000e+00 -2.5014344284702123e-03 0.0000000000000000e+00  0.0000000000000000e+00 -2.4986647566809139e-03 0.0000000000000000e+00  0.0000000000000000e+00 -2.4956396491312410e-03 0.0000000000000000e+00  0.0000000000000000e+00 -2.4923534053501641e-03 0.0000000000000000e+00  0.0000000000000000e+00 -2.4888006590087224e-03 0.0000000000000000e+00  0.0000000000000000e+00 -2.4849765964216688e-03 0.0000000000000000e+00  0.0000000000000000e+00 -2.4808765571242564e-03 0.0000000000000000e+00  0.0000000000000000e+00 -2.4764964328430699e-03 0.0000000000000000e+00  0.0000000000000000e+00 -2.4718323615243449e-03 0.0000000000000000e+00  0.0000000000000000e+00 -2.4668805607208624e-03 0.0000000000000000e+00  0.0000000000000000e+00 -2.4616379428149394e-03 0.0000000000000000e+00  0.0000000000000000e+00 -2.4561018005768284e-03 0.0000000000000000e+00  0.0000000000000000e+00 -2.4502701730858131e-03 0.0000000000000000e+00  0.0000000000000000e+00 -2.4441421545414251e-03 0.0000000000000000e+00  0.0000000000000000e+00 -2.4377183455427929e-03 0.0000000000000000e+00  0.0000000000000000e+00 -2.4310010044297182e-03 0.0000000000000000e+00  0.0000000000000000e+00 -2.4694377851296632e-03 0.0000000000000000e+00  0.0000000000000000e+00 -2.4778866920919648e-03 0.0000000000000000e+00  0.0000000000000000e+00 -2.4863352313034925e-03 0.0000000000000000e+00  0.0000000000000000e+00 -2.4950314305742191e-03 0.0000000000000000e+00  0.0000000000000000e+00 -2.5040952295640726e-03 0.0000000000000000e+00  0.0000000000000000e+00 -2.5135827657425652e-03 0.0000000000000000e+00  0.0000000000000000e+00 -2.5235439837449003e-03 0.0000000000000000e+00  0.0000000000000000e+00 -2.5340232277412931e-03 0.0000000000000000e+00  0.0000000000000000e+00 -2.5450608392620861e-03 0.0000000000000000e+00  0.0000000000000000e+00 -2.5567069969366597e-03 0.0000000000000000e+00  0.0000000000000000e+00 -2.5690102980482025e-03 0.0000000000000000e+00  0.0000000000000000e+00 -2.5820282246953449e-03 0.0000000000000000e+00  0.0000000000000000e+00 -2.5958256967237633e-03 0.0000000000000000e+00  0.0000000000000000e+00 -2.6104819731853184e-03 0.0000000000000000e+00  0.0000000000000000e+00 -2.6260815089133274e-03 0.0000000000000000e+00  0.0000000000000000e+00 -2.6427365274482436e-03 0.0000000000000000e+00  0.0000000000000000e+00 -2.6605828252614558e-03 0.0000000000000000e+00  0.0000000000000000e+00 -2.6798103878431559e-03 0.0000000000000000e+00  0.0000000000000000e+00 -2.7006965574091026e-03 0.0000000000000000e+00  0.0000000000000000e+00 -2.7237611794015096e-03 0.0000000000000000e+00  0.0000000000000000e+00 -2.7502428614897419e-03 0.0000000000000000e+00  0.0000000000000000e+00 -2.7818976577545498e-03 0.0000000000000000e+00  0.0000000000000000e+00 -2.8548188795845769e-03 0.0000000000000000e+00  -3.4406223187468868e-04 -3.7314526393207406e-03 0.0000000000000000e+00  -3.4692116448670332e-04 -3.9460391682301504e-03 0.0000000000000000e+00  -3.5439729017146103e-04 -4.0978628726092677e-03 0.0000000000000000e+00  -3.5651120377498663e-04 -4.2346828991832817e-03 0.0000000000000000e+00  -3.5419510751647729e-04 -4.3592682666035009e-03 0.0000000000000000e+00  -3.4825337419282145e-04 -4.4734291382351795e-03 0.0000000000000000e+00  -3.3934440025811148e-04 -4.5782952244671615e-03 0.0000000000000000e+00  -3.2791896885395655e-04 -4.6746540805299016e-03 0.0000000000000000e+00  -3.1448407868254927e-04 -4.7631553946590518e-03 0.0000000000000000e+00  -2.9934211567301004e-04 -4.8442747361402876e-03 0.0000000000000000e+00  -2.8280499469772382e-04 -4.9184432575387080e-03 0.0000000000000000e+00  -2.6511516684925280e-04 -4.9860276035447407e-03 0.0000000000000000e+00  -2.4647219758122592e-04 -5.0473523504429739e-03 0.0000000000000000e+00  -2.2703927458509485e-04 -5.1026970618817417e-03 0.0000000000000000e+00  -2.0695928655540624e-04 -5.1523092154127665e-03 0.0000000000000000e+00  -1.8634201077959129e-04 -5.1964047824698276e-03 0.0000000000000000e+00  -1.6528100419394175e-04 -5.2351692498747299e-03 0.0000000000000000e+00  -1.4385849771254291e-04 -5.2687625056176716e-03 0.0000000000000000e+00  -1.2214139736057146e-04 -5.2973197761421644e-03 0.0000000000000000e+00  -1.0018841335233555e-04 -5.3209538983405519e-03 0.0000000000000000e+00  -7.8048932018651732e-05 -5.3397548356852679e-03 0.0000000000000000e+00  -5.5769493509125927e-05 -5.3537953419777184e-03 0.0000000000000000e+00  -3.3396409248264939e-05 -5.3631283518629320e-03 0.0000000000000000e+00  -1.0964225293498625e-05 -5.3677872760000125e-03 0.0000000000000000e+00  1.1486099436524759e-05 -5.3677902085999506e-03 0.0000000000000000e+00  3.3917662882213463e-05 -5.3631372751499927e-03 0.0000000000000000e+00  5.6293296138095326e-05 -5.3538114473621785e-03 0.0000000000000000e+00  7.8571802155312257e-05 -5.3397777882274169e-03 0.0000000000000000e+00  1.0070930267765642e-04 -5.3209821860391356e-03 0.0000000000000000e+00  1.2266595633223060e-04 -5.2973564997165403e-03 0.0000000000000000e+00  1.4438462260735161e-04 -5.2688074987937662e-03 0.0000000000000000e+00  1.6580875960838675e-04 -5.2352229160057950e-03 0.0000000000000000e+00  1.8686445269025111e-04 -5.1964643995195325e-03 0.0000000000000000e+00  2.0748666513306410e-04 -5.1523803493859809e-03 0.0000000000000000e+00  2.2756972576635530e-04 -5.1027796190222735e-03 0.0000000000000000e+00  2.4700119242183677e-04 -5.0474477545448034e-03 0.0000000000000000e+00  2.6563772561672349e-04 -4.9861338777899512e-03 0.0000000000000000e+00  2.8333684421548764e-04 -4.9185665254826367e-03 0.0000000000000000e+00  2.9987705268462840e-04 -4.8444193308388745e-03 0.0000000000000000e+00  3.1500272033627754e-04 -4.7633167167800226e-03 0.0000000000000000e+00  3.2846227335845080e-04 -4.6748500918971725e-03 0.0000000000000000e+00  3.3986705636659969e-04 -4.5785056416348564e-03 0.0000000000000000e+00  3.4878890836924229e-04 -4.4736726989192321e-03 0.0000000000000000e+00  3.5471720975386109e-04 -4.3595452405419009e-03 0.0000000000000000e+00  3.5706892715242102e-04 -4.2350006919304028e-03 0.0000000000000000e+00  3.5510608352498104e-04 -4.0980377278633760e-03 0.0000000000000000e+00  3.4797954075411824e-04 -3.9447375862988058e-03 0.0000000000000000e+00  3.4100178146276566e-04 -3.7388784056551099e-03 0.0000000000000000e+00  0.0000000000000000e+00 -2.8518876805087518e-03 0.0000000000000000e+00  0.0000000000000000e+00 -2.7805885182649193e-03 0.0000000000000000e+00  0.0000000000000000e+00 -2.7489661481898062e-03 0.0000000000000000e+00  0.0000000000000000e+00 -2.7227804100263772e-03 0.0000000000000000e+00  0.0000000000000000e+00 -2.6997821905444157e-03 0.0000000000000000e+00  0.0000000000000000e+00 -2.6789339218386489e-03 0.0000000000000000e+00  0.0000000000000000e+00 -2.6597358490066526e-03 0.0000000000000000e+00  0.0000000000000000e+00 -2.6419097002511435e-03 0.0000000000000000e+00  0.0000000000000000e+00 -2.6252731071315480e-03 0.0000000000000000e+00  0.0000000000000000e+00 -2.6096923228519676e-03 0.0000000000000000e+00  0.0000000000000000e+00 -2.5950551931430699e-03 0.0000000000000000e+00  0.0000000000000000e+00 -2.5812724971517429e-03 0.0000000000000000e+00  0.0000000000000000e+00 -2.5682687616274558e-03 0.0000000000000000e+00  0.0000000000000000e+00 -2.5559804069468172e-03 0.0000000000000000e+00  0.0000000000000000e+00 -2.5443474010011908e-03 0.0000000000000000e+00  0.0000000000000000e+00 -2.5333210595580454e-03 0.0000000000000000e+00  0.0000000000000000e+00 -2.5228551990164900e-03 0.0000000000000000e+00  0.0000000000000000e+00 -2.5129059242656464e-03 0.0000000000000000e+00  0.0000000000000000e+00 -2.5034294821515762e-03 0.0000000000000000e+00  0.0000000000000000e+00 -2.4943833885852987e-03 0.0000000000000000e+00  0.0000000000000000e+00 -2.4856961780917461e-03 0.0000000000000000e+00  0.0000000000000000e+00 -2.4772743702046389e-03 0.0000000000000000e+00  0.0000000000000000e+00 -2.4688463437166921e-03 0.0000000000000000e+00  0.0000000000000000e+00 7.8855975631557756e-07 0.0000000000000000e+00  0.0000000000000000e+00 4.2965973823172449e-06 0.0000000000000000e+00  0.0000000000000000e+00 1.0194874651902213e-05 0.0000000000000000e+00  0.0000000000000000e+00 1.8080833641125789e-05 0.0000000000000000e+00  0.0000000000000000e+00 2.7543091967752695e-05 0.0000000000000000e+00  0.0000000000000000e+00 3.8145983350015885e-05 0.0000000000000000e+00  0.0000000000000000e+00 4.9420731423733881e-05 0.0000000000000000e+00  0.0000000000000000e+00 6.0941723836783743e-05 0.0000000000000000e+00  0.0000000000000000e+00 7.2278619586191599e-05 0.0000000000000000e+00  0.0000000000000000e+00 8.3041364307195054e-05 0.0000000000000000e+00  0.0000000000000000e+00 9.2893021795007009e-05 0.0000000000000000e+00  0.0000000000000000e+00 1.0154803460873619e-04 0.0000000000000000e+00  0.0000000000000000e+00 1.0877905069478996e-04 0.0000000000000000e+00  0.0000000000000000e+00 1.1445550040862339e-04 0.0000000000000000e+00  0.0000000000000000e+00 1.1852921392714429e-04 0.0000000000000000e+00  0.0000000000000000e+00 1.2105415346145770e-04 0.0000000000000000e+00  0.0000000000000000e+00 1.2219399592747768e-04 0.0000000000000000e+00  0.0000000000000000e+00 1.2223198787603948e-04 0.0000000000000000e+00  0.0000000000000000e+00 0.0000000000000000e+00 0.0000000000000000e+00  0.0000000000000000e+00 0.0000000000000000e+00 0.0000000000000000e+00  0.0000000000000000e+00 0.0000000000000000e+00 0.0000000000000000e+00  0.0000000000000000e+00 0.0000000000000000e+00 0.0000000000000000e+00  0.0000000000000000e+00 0.0000000000000000e+00 0.0000000000000000e+00  0.0000000000000000e+00 0.0000000000000000e+00 0.0000000000000000e+00  0.0000000000000000e+00 0.0000000000000000e+00 0.0000000000000000e+00  0.0000000000000000e+00 0.0000000000000000e+00 0.0000000000000000e+00  0.0000000000000000e+00 0.0000000000000000e+00 0.0000000000000000e+00  0.0000000000000000e+00 0.0000000000000000e+00 0.0000000000000000e+00  0.0000000000000000e+00 0.0000000000000000e+00 0.0000000000000000e+00  0.0000000000000000e+00 0.0000000000000000e+00 0.0000000000000000e+00  0.0000000000000000e+00 0.0000000000000000e+00 0.0000000000000000e+00  0.0000000000000000e+00 0.0000000000000000e+00 0.0000000000000000e+00  0.0000000000000000e+00 0.0000000000000000e+00 0.0000000000000000e+00  0.0000000000000000e+00 0.0000000000000000e+00 0.0000000000000000e+00  0.0000000000000000e+00 0.0000000000000000e+00 0.0000000000000000e+00  0.0000000000000000e+00 0.0000000000000000e+00 0.0000000000000000e+00  0.0000000000000000e+00 0.0000000000000000e+00 0.0000000000000000e+00  0.0000000000000000e+00 0.0000000000000000e+00 0.0000000000000000e+00  0.0000000000000000e+00 0.0000000000000000e+00 0.0000000000000000e+00  0.0000000000000000e+00 0.0000000000000000e+00 0.0000000000000000e+00  0.0000000000000000e+00 0.0000000000000000e+00 0.0000000000000000e+00  0.0000000000000000e+00 0.0000000000000000e+00 0.0000000000000000e+00  0.0000000000000000e+00 0.0000000000000000e+00 0.0000000000000000e+00  0.0000000000000000e+00 0.0000000000000000e+00 0.0000000000000000e+00  0.0000000000000000e+00 0.0000000000000000e+00 0.0000000000000000e+00  0.0000000000000000e+00 0.0000000000000000e+00 0.0000000000000000e+00  0.0000000000000000e+00 0.0000000000000000e+00 0.0000000000000000e+00  0.0000000000000000e+00 0.0000000000000000e+00 0.0000000000000000e+00  0.0000000000000000e+00 0.0000000000000000e+00 0.0000000000000000e+00  0.0000000000000000e+00 0.0000000000000000e+00 0.0000000000000000e+00  0.0000000000000000e+00 0.0000000000000000e+00 0.0000000000000000e+00  0.0000000000000000e+00 0.0000000000000000e+00 0.0000000000000000e+00  0.0000000000000000e+00 0.0000000000000000e+00 0.0000000000000000e+00  0.0000000000000000e+00 0.0000000000000000e+00 0.0000000000000000e+00  0.0000000000000000e+00 0.0000000000000000e+00 0.0000000000000000e+00  0.0000000000000000e+00 0.0000000000000000e+00 0.0000000000000000e+00  0.0000000000000000e+00 0.0000000000000000e+00 0.0000000000000000e+00  0.0000000000000000e+00 0.0000000000000000e+00 0.0000000000000000e+00  0.0000000000000000e+00 0.0000000000000000e+00 0.0000000000000000e+00  0.0000000000000000e+00 0.0000000000000000e+00 0.0000000000000000e+00  0.0000000000000000e+00 0.0000000000000000e+00 0.0000000000000000e+00  0.0000000000000000e+00 0.0000000000000000e+00 0.0000000000000000e+00  0.0000000000000000e+00 0.0000000000000000e+00 0.0000000000000000e+00  0.0000000000000000e+00 0.0000000000000000e+00 0.0000000000000000e+00  0.0000000000000000e+00 0.0000000000000000e+00 0.0000000000000000e+00  0.0000000000000000e+00 0.0000000000000000e+00 0.0000000000000000e+00  0.0000000000000000e+00 0.0000000000000000e+00 0.0000000000000000e+00  0.0000000000000000e+00 0.0000000000000000e+00 0.0000000000000000e+00  0.0000000000000000e+00 0.0000000000000000e+00 0.0000000000000000e+00  0.0000000000000000e+00 0.0000000000000000e+00 0.0000000000000000e+00  0.0000000000000000e+00 0.0000000000000000e+00 0.0000000000000000e+00  0.0000000000000000e+00 0.0000000000000000e+00 0.0000000000000000e+00  0.0000000000000000e+00 0.0000000000000000e+00 0.0000000000000000e+00  0.0000000000000000e+00 0.0000000000000000e+00 0.0000000000000000e+00  0.0000000000000000e+00 0.0000000000000000e+00 0.0000000000000000e+00  0.0000000000000000e+00 0.0000000000000000e+00 0.0000000000000000e+00  0.0000000000000000e+00 0.0000000000000000e+00 0.0000000000000000e+00  0.0000000000000000e+00 0.0000000000000000e+00 0.0000000000000000e+00  0.0000000000000000e+00 0.0000000000000000e+00 0.0000000000000000e+00  0.0000000000000000e+00 0.0000000000000000e+00 0.0000000000000000e+00  0.0000000000000000e+00 0.0000000000000000e+00 0.0000000000000000e+00  0.0000000000000000e+00 0.0000000000000000e+00 0.0000000000000000e+00  0.0000000000000000e+00 0.0000000000000000e+00 0.0000000000000000e+00  0.0000000000000000e+00 0.0000000000000000e+00 0.0000000000000000e+00  0.0000000000000000e+00 0.0000000000000000e+00 0.0000000000000000e+00  0.0000000000000000e+00 0.0000000000000000e+00 0.0000000000000000e+00  0.0000000000000000e+00 0.0000000000000000e+00 0.0000000000000000e+00  0.0000000000000000e+00 0.0000000000000000e+00 0.0000000000000000e+00  0.0000000000000000e+00 0.0000000000000000e+00 0.0000000000000000e+00  0.0000000000000000e+00 0.0000000000000000e+00 0.0000000000000000e+00  0.0000000000000000e+00 0.0000000000000000e+00 0.0000000000000000e+00  0.0000000000000000e+00 0.0000000000000000e+00 0.0000000000000000e+00  0.0000000000000000e+00 0.0000000000000000e+00 0.0000000000000000e+00  0.0000000000000000e+00 0.0000000000000000e+00 0.0000000000000000e+00  0.0000000000000000e+00 0.0000000000000000e+00 0.0000000000000000e+00  0.0000000000000000e+00 0.0000000000000000e+00 0.0000000000000000e+00  0.0000000000000000e+00 1.2226068874993630e-04 0.0000000000000000e+00  0.0000000000000000e+00 1.2222241007592421e-04 0.0000000000000000e+00  0.0000000000000000e+00 1.2108170797046523e-04 0.0000000000000000e+00  0.0000000000000000e+00 1.1855176582448553e-04 0.0000000000000000e+00  0.0000000000000000e+00 1.1447641408942087e-04 0.0000000000000000e+00  0.0000000000000000e+00 1.0879758721991852e-04 0.0000000000000000e+00  0.0000000000000000e+00 1.0156216797164496e-04 0.0000000000000000e+00  0.0000000000000000e+00 9.2906846013140560e-05 0.0000000000000000e+00  0.0000000000000000e+00 8.3054901674043381e-05 0.0000000000000000e+00  0.0000000000000000e+00 7.2284519589201770e-05 0.0000000000000000e+00  0.0000000000000000e+00 6.0945339180142177e-05 0.0000000000000000e+00  0.0000000000000000e+00 4.9429820553167613e-05 0.0000000000000000e+00  0.0000000000000000e+00 3.8146718958122824e-05 0.0000000000000000e+00  0.0000000000000000e+00 2.7548505503913896e-05 0.0000000000000000e+00  0.0000000000000000e+00 1.8081979176733831e-05 0.0000000000000000e+00  0.0000000000000000e+00 1.0192648821563930e-05 0.0000000000000000e+00  0.0000000000000000e+00 4.2952833286456101e-06 0.0000000000000000e+00  0.0000000000000000e+00 7.8780190707255815e-07 0.0000000000000000e+00  -4.2771556032983323e-05 -2.4225459862138123e-03 0.0000000000000000e+00  -8.6499298972847916e-05 -2.4158417759321481e-03 0.0000000000000000e+00  -1.3126262648791904e-04 -2.4041846361674245e-03 0.0000000000000000e+00  -1.7709554508805943e-04 -2.3870469163224605e-03 0.0000000000000000e+00  -2.2393383647071257e-04 -2.3637875572347332e-03 0.0000000000000000e+00  -2.7155148332106267e-04 -2.3336827771651327e-03 0.0000000000000000e+00  -3.1947138409130048e-04 -2.2960066718861081e-03 0.0000000000000000e+00  -3.6705400291336628e-04 -2.2501334798699273e-03 0.0000000000000000e+00  -4.1337029132925925e-04 -2.1956648651625028e-03 0.0000000000000000e+00  -4.5732037837185527e-04 -2.1325449172383561e-03 0.0000000000000000e+00  -4.9789569320582774e-04 -2.0610961745725124e-03 0.0000000000000000e+00  -5.3405419212980258e-04 -1.9820362461372650e-03 0.0000000000000000e+00  -5.6498583244602644e-04 -1.8964163297653972e-03 0.0000000000000000e+00  -5.9016850809152346e-04 -1.8055275923829562e-03 0.0000000000000000e+00  -6.0931529835557606e-04 -1.7107203239833421e-03 0.0000000000000000e+00  -6.2