<?xml version="1.0"?>
<VTKFile type="UnstructuredGrid"  version="0.1"  >
<UnstructuredGrid>
<Piece  NumberOfPoints="1250" NumberOfCells="2352">
<Points>
<DataArray  type="Float64"  NumberOfComponents="3"  format="ascii">0 0 0  0.0336 0 0  0.0336 0.07729999999999999 0  0 0.07729999999999999 0  0.001400000000000002 0 0  0.002800000000000005 0 0  0.004200000000000008 0 0  0.005600000000000009 0 0  0.007000000000000011 0 0  0.008400000000000013 0 0  0.009800000000000019 0 0  0.01120000000000002 0 0  0.01260000000000003 0 0  0.01400000000000003 0 0  0.01540000000000004 0 0  0.01680000000000005 0 0  0.01820000000000004 0 0  0.01960000000000004 0 0  0.02100000000000004 0 0  0.02240000000000003 0 0  0.02380000000000003 0 0  0.02520000000000002 0 0  0.02660000000000002 0 0  0.02800000000000001 0 0  0.02940000000000001 0 0  0.03080000000000001 0 0  0.0322 0 0  0.0336 0.001577551020408161 0  0.0336 0.003155102040816321 0  0.0336 0.004732653061224482 0  0.0336 0.006310204081632642 0  0.0336 0.007887755102040803 0  0.0336 0.009465306122448964 0  0.0336 0.01104285714285712 0  0.0336 0.01262040816326528 0  0.0336 0.01419795918367344 0  0.0336 0.0157755102040816 0  0.0336 0.01735306122448976 0  0.0336 0.01893061224489792 0  0.0336 0.02050816326530608 0  0.0336 0.02208571428571425 0  0.0336 0.02366326530612241 0  0.0336 0.02524081632653058 0  0.0336 0.02681836734693874 0  0.0336 0.02839591836734691 0  0.0336 0.02997346938775507 0  0.0336 0.03155102040816323 0  0.0336 0.0331285714285714 0  0.0336 0.03470612244897956 0  0.0336 0.03628367346938772 0  0.0336 0.03786122448979588 0  0.0336 0.03943877551020405 0  0.0336 0.04101632653061221 0  0.0336 0.04259387755102037 0  0.0336 0.04417142857142854 0  0.0336 0.04574897959183671 0  0.0336 0.04732653061224486 0  0.0336 0.04890408163265302 0  0.0336 0.05048163265306119 0  0.0336 0.05205918367346936 0  0.0336 0.05363673469387752 0  0.0336 0.05521428571428568 0  0.0336 0.05679183673469385 0  0.0336 0.05836938775510202 0  0.0336 0.05994693877551018 0  0.0336 0.06152448979591834 0  0.0336 0.0631020408163265 0  0.0336 0.06467959183673468 0  0.0336 0.06625714285714283 0  0.0336 0.06783469387755101 0  0.0336 0.06941224489795916 0  0.0336 0.07098979591836733 0  0.0336 0.07256734693877549 0  0.0336 0.07414489795918365 0  0.0336 0.07572244897959182 0  0.03219999999999999 0.07729999999999999 0  0.03079999999999999 0.07729999999999999 0  0.02939999999999999 0.07729999999999999 0  0.02799999999999999 0.07729999999999999 0  0.02659999999999999 0.07729999999999999 0  0.02519999999999999 0.07729999999999999 0  0.02379999999999998 0.07729999999999999 0  0.02239999999999998 0.07729999999999999 0  0.02099999999999997 0.07729999999999999 0  0.01959999999999996 0.07729999999999999 0  0.01819999999999996 0.07729999999999999 0  0.01679999999999995 0.07729999999999999 0  0.01539999999999996 0.07729999999999999 0  0.01399999999999996 0.07729999999999999 0  0.01259999999999996 0.07729999999999999 0  0.01119999999999997 0.07729999999999999 0  0.009799999999999972 0.07729999999999999 0  0.008399999999999977 0.07729999999999999 0  0.006999999999999978 0.07729999999999999 0  0.005599999999999983 0.07729999999999999 0  0.004199999999999988 0.07729999999999999 0  0.00279999999999999 0.07729999999999999 0  0.001399999999999998 0.07729999999999999 0  0 0.07572244897959184 0  0 0.07414489795918368 0  0 0.07256734693877551 0  0 0.07098979591836735 0  0 0.06941224489795919 0  0 0.06783469387755103 0  0 0.06625714285714288 0  0 0.06467959183673472 0  0 0.06310204081632656 0  0 0.0615244897959184 0  0 0.05994693877551023 0  0 0.05836938775510207 0  0 0.05679183673469392 0  0 0.05521428571428574 0  0 0.05363673469387759 0  0 0.05205918367346941 0  0 0.05048163265306126 0  0 0.04890408163265308 0  0 0.04732653061224493 0  0 0.04574897959183676 0  0 0.0441714285714286 0  0 0.04259387755102043 0  0 0.04101632653061228 0  0 0.03943877551020411 0  0 0.03786122448979595 0  0 0.03628367346938779 0  0 0.03470612244897962 0  0 0.03312857142857146 0  0 0.03155102040816329 0  0 0.02997346938775513 0  0 0.02839591836734697 0  0 0.0268183673469388 0  0 0.02524081632653064 0  0 0.02366326530612247 0  0 0.02208571428571431 0  0 0.02050816326530614 0  0 0.01893061224489798 0  0 0.01735306122448981 0  0 0.01577551020408165 0  0 0.01419795918367349 0  0 0.01262040816326532 0  0 0.01104285714285716 0  0 0.009465306122448988 0  0 0.00788775510204083 0  0 0.006310204081632659 0  0 0.004732653061224501 0  0 0.003155102040816343 0  0 0.001577551020408172 0  0.001400000000000004 0.001577551020408172 0  0.001400000000000004 0.003155102040816329 0  0.001400000000000002 0.004732653061224501 0  0.001400000000000002 0.006310204081632645 0  0.001400000000000005 0.007887755102040823 0  0.001400000000000002 0.009465306122448981 0  0.001400000000000002 0.01104285714285717 0  0.001400000000000004 0.01262040816326531 0  0.0014 0.01419795918367349 0  0.001400000000000002 0.01577551020408166 0  0.001400000000000005 0.0173530612244898 0  0.001400000000000002 0.01893061224489797 0  0.001400000000000002 0.02050816326530613 0  0.001400000000000002 0.02208571428571431 0  0.001400000000000002 0.02366326530612247 0  0.001400000000000002 0.02524081632653063 0  0.001400000000000002 0.0268183673469388 0  0.001400000000000002 0.02839591836734696 0  0.001400000000000002 0.02997346938775513 0  0.001400000000000002 0.03155102040816328 0  0.001400000000000002 0.03312857142857147 0  0.001399999999999997 0.03470612244897962 0  0.001400000000000005 0.03628367346938778 0  0.001400000000000002 0.03786122448979594 0  0.001400000000000002 0.03943877551020411 0  0.001400000000000002 0.04101632653061228 0  0.001400000000000002 0.04259387755102043 0  0.001400000000000002 0.0441714285714286 0  0.0014 0.04574897959183676 0  0.001400000000000002 0.04732653061224492 0  0.001400000000000004 0.04890408163265308 0  0.001400000000000002 0.05048163265306126 0  0.001400000000000002 0.05205918367346941 0  0.0014 0.05363673469387758 0  0.001400000000000004 0.05521428571428574 0  0.001399999999999998 0.05679183673469391 0  0.001400000000000002 0.05836938775510207 0  0.0014 0.05994693877551023 0  0.001400000000000002 0.0615244897959184 0  0.001400000000000002 0.06310204081632656 0  0.001400000000000002 0.06467959183673472 0  0.0014 0.06625714285714286 0  0.001400000000000002 0.06783469387755102 0  0.001399999999999998 0.06941224489795919 0  0.001400000000000002 0.07098979591836735 0  0.0014 0.07256734693877552 0  0.001400000000000002 0.07414489795918368 0  0.001400000000000002 0.07572244897959184 0  0.002800000000000006 0.001577551020408165 0  0.002800000000000004 0.003155102040816343 0  0.002800000000000002 0.004732653061224487 0  0.002800000000000002 0.006310204081632652 0  0.002800000000000002 0.007887755102040813 0  0.0028 0.009465306122448981 0  0.002799999999999997 0.01104285714285715 0  0.0028 0.01262040816326532 0  0.0028 0.01419795918367348 0  0.0028 0.01577551020408165 0  0.002799999999999997 0.0173530612244898 0  0.0028 0.01893061224489797 0  0.002800000000000004 0.02050816326530613 0  0.0028 0.0220857142857143 0  0.0028 0.02366326530612247 0  0.002800000000000004 0.02524081632653064 0  0.0028 0.0268183673469388 0  0.0028 0.02839591836734696 0  0.002799999999999995 0.02997346938775512 0  0.002799999999999997 0.03155102040816328 0  0.002799999999999995 0.03312857142857146 0  0.0028 0.03470612244897962 0  0.002799999999999995 0.03628367346938778 0  0.002799999999999997 0.03786122448979594 0  0.002799999999999997 0.03943877551020411 0  0.002799999999999997 0.04101632653061228 0  0.002799999999999997 0.04259387755102043 0  0.002799999999999995 0.0441714285714286 0  0.002799999999999997 0.04574897959183676 0  0.002799999999999997 0.04732653061224493 0  0.002799999999999995 0.04890408163265308 0  0.002799999999999993 0.05048163265306124 0  0.002799999999999995 0.05205918367346941 0  0.002799999999999995 0.05363673469387757 0  0.002799999999999992 0.05521428571428574 0  0.002799999999999997 0.05679183673469391 0  0.002799999999999993 0.05836938775510207 0  0.002799999999999993 0.05994693877551022 0  0.002799999999999992 0.0615244897959184 0  0.002799999999999988 0.06310204081632655 0  0.002799999999999992 0.0646795918367347 0  0.002799999999999992 0.06625714285714286 0  0.00279999999999999 0.06783469387755103 0  0.00279999999999999 0.06941224489795919 0  0.002799999999999988 0.07098979591836735 0  0.00279999999999999 0.07256734693877552 0  0.002799999999999988 0.07414489795918368 0  0.00279999999999999 0.07572244897959184 0  0.004200000000000006 0.001577551020408172 0  0.004200000000000006 0.003155102040816329 0  0.004200000000000008 0.00473265306122448 0  0.004200000000000009 0.006310204081632652 0  0.004200000000000008 0.00788775510204082 0  0.004200000000000008 0.009465306122448978 0  0.004200000000000006 0.01104285714285716 0  0.004200000000000006 0.01262040816326532 0  0.004200000000000004 0.01419795918367349 0  0.004200000000000002 0.01577551020408165 0  0.004200000000000004 0.0173530612244898 0  0.004200000000000006 0.01893061224489797 0  0.004200000000000006 0.02050816326530613 0  0.004200000000000002 0.0220857142857143 0  0.004200000000000004 0.02366326530612247 0  0.004199999999999999 0.02524081632653062 0  0.004200000000000004 0.0268183673469388 0  0.004200000000000004 0.02839591836734696 0  0.004200000000000002 0.02997346938775512 0  0.004199999999999999 0.03155102040816328 0  0.004200000000000001 0.03312857142857145 0  0.004200000000000001 0.03470612244897962 0  0.004199999999999995 0.03628367346938778 0  0.004199999999999999 0.03786122448979594 0  0.004199999999999999 0.0394387755102041 0  0.004199999999999997 0.04101632653061227 0  0.004199999999999999 0.04259387755102043 0  0.004199999999999999 0.04417142857142859 0  0.004199999999999999 0.04574897959183676 0  0.004199999999999999 0.04732653061224492 0  0.004199999999999997 0.04890408163265308 0  0.004199999999999997 0.05048163265306124 0  0.004199999999999999 0.05205918367346941 0  0.004199999999999992 0.05363673469387757 0  0.0
[...]
<PointData  Vectors="displacement"> 
<DataArray  type="Float64"  Name="displacement"  NumberOfComponents="3" format="ascii">0.0000000000000000e+00 0.0000000000000000e+00 0.0000000000000000e+00  0.0000000000000000e+00 0.0000000000000000e+00 0.0000000000000000e+00  1.0610683412939253e-02 -8.7989238421473825e-02 0.0000000000000000e+00  -1.0299998905688326e-02 -8.7927814556992015e-02 0.0000000000000000e+00  0.0000000000000000e+00 0.0000000000000000e+00 0.0000000000000000e+00  0.0000000000000000e+00 0.0000000000000000e+00 0.0000000000000000e+00  0.0000000000000000e+00 0.0000000000000000e+00 0.0000000000000000e+00  0.0000000000000000e+00 0.0000000000000000e+00 0.0000000000000000e+00  0.0000000000000000e+00 0.0000000000000000e+00 0.0000000000000000e+00  0.0000000000000000e+00 0.0000000000000000e+00 0.0000000000000000e+00  0.0000000000000000e+00 0.0000000000000000e+00 0.0000000000000000e+00  0.0000000000000000e+00 0.0000000000000000e+00 0.0000000000000000e+00  0.0000000000000000e+00 0.0000000000000000e+00 0.0000000000000000e+00  0.0000000000000000e+00 0.0000000000000000e+00 0.0000000000000000e+00  0.0000000000000000e+00 0.0000000000000000e+00 0.0000000000000000e+00  0.0000000000000000e+00 0.0000000000000000e+00 0.0000000000000000e+00  0.0000000000000000e+00 0.0000000000000000e+00 0.0000000000000000e+00  0.0000000000000000e+00 0.0000000000000000e+00 0.0000000000000000e+00  0.0000000000000000e+00 0.0000000000000000e+00 0.0000000000000000e+00  0.0000000000000000e+00 0.0000000000000000e+00 0.0000000000000000e+00  0.0000000000000000e+00 0.0000000000000000e+00 0.0000000000000000e+00  0.0000000000000000e+00 0.0000000000000000e+00 0.0000000000000000e+00  0.0000000000000000e+00 0.0000000000000000e+00 0.0000000000000000e+00  0.0000000000000000e+00 0.0000000000000000e+00 0.0000000000000000e+00  0.0000000000000000e+00 0.0000000000000000e+00 0.0000000000000000e+00  0.0000000000000000e+00 0.0000000000000000e+00 0.0000000000000000e+00  0.0000000000000000e+00 0.0000000000000000e+00 0.0000000000000000e+00  3.5979040203285143e-03 -3.3871255892108424e-03 0.0000000000000000e+00  5.4076507825302064e-03 -5.1972914055723116e-03 0.0000000000000000e+00  6.7128756695720923e-03 -6.8183602728104651e-03 0.0000000000000000e+00  7.6956871000978177e-03 -8.3744888394932850e-03 0.0000000000000000e+00  8.4472147671011098e-03 -9.9113445132335051e-03 0.0000000000000000e+00  9.0244171946324229e-03 -1.1451386383031087e-02 0.0000000000000000e+00  9.4667511099214320e-03 -1.3006810806848299e-02 0.0000000000000000e+00  9.8034963425989181e-03 -1.4584133428997092e-02 0.0000000000000000e+00  1.0057247052581918e-02 -1.6186416604611478e-02 0.0000000000000000e+00  1.0245828451963767e-02 -1.7814543555270373e-02 0.0000000000000000e+00  1.0383471719793941e-02 -1.9468009080282057e-02 0.0000000000000000e+00  1.0481597296411019e-02 -2.1145438681189323e-02 0.0000000000000000e+00  1.0549374216824543e-02 -2.2844942726374370e-02 0.0000000000000000e+00  1.0594142315167079e-02 -2.4564363137896866e-02 0.0000000000000000e+00  1.0621744662034310e-02 -2.6301445910634678e-02 0.0000000000000000e+00  1.0636797184523601e-02 -2.8053960282344005e-02 0.0000000000000000e+00  1.0642911472861165e-02 -2.9819778548266989e-02 0.0000000000000000e+00  1.0642880775029185e-02 -3.1596926532738934e-02 0.0000000000000000e+00  1.0638835842986945e-02 -3.3383612222219507e-02 0.0000000000000000e+00  1.0632375413891264e-02 -3.5178238348980304e-02 0.0000000000000000e+00  1.0624675026508183e-02 -3.6979403451251391e-02 0.0000000000000000e+00  1.0616577219547013e-02 -3.8785894952064678e-02 0.0000000000000000e+00  1.0608665731142483e-02 -4.0596677007622525e-02 0.0000000000000000e+00  1.0601326006159238e-02 -4.2410875230122699e-02 0.0000000000000000e+00  1.0594794062263452e-02 -4.4227759862426712e-02 0.0000000000000000e+00  1.0589195538371838e-02 -4.6046728554409840e-02 0.0000000000000000e+00  1.0584576537890935e-02 -4.7867289548883286e-02 0.0000000000000000e+00  1.0580927680145387e-02 -4.9689045816078095e-02 0.0000000000000000e+00  1.0578202586432439e-02 -5.1511680468427017e-02 0.0000000000000000e+00  1.0576331853481526e-02 -5.3334943631359058e-02 0.0000000000000000e+00  1.0575233408136642e-02 -5.5158640831642083e-02 0.0000000000000000e+00  1.0574819993779646e-02 -5.6982622884201202e-02 0.0000000000000000e+00  1.0575004411762129e-02 -5.8806777204158077e-02 0.0000000000000000e+00  1.0575703029706306e-02 -6.0631020437037643e-02 0.0000000000000000e+00  1.0576837972316802e-02 -6.2455292281698424e-02 0.0000000000000000e+00  1.0578338328318213e-02 -6.4279550373526451e-02 0.0000000000000000e+00  1.0580140638115618e-02 -6.6103766096610103e-02 0.0000000000000000e+00  1.0582188869528561e-02 -6.7927921200559321e-02 0.0000000000000000e+00  1.0584434042299740e-02 -6.9752005108556170e-02 0.0000000000000000e+00  1.0586833625082870e-02 -7.1576012816928630e-02 0.0000000000000000e+00  1.0589350800748801e-02 -7.3399943302322440e-02 0.0000000000000000e+00  1.0591953677403242e-02 -7.5223798370225053e-02 0.0000000000000000e+00  1.0594614515309060e-02 -7.7047581898397083e-02 0.0000000000000000e+00  1.0597309048971451e-02 -7.8871299451318627e-02 0.0000000000000000e+00  1.0600016021096028e-02 -8.0694958267615149e-02 0.0000000000000000e+00  1.0602717141810112e-02 -8.2518567651104047e-02 0.0000000000000000e+00  1.0605397940714800e-02 -8.4342139808116612e-02 0.0000000000000000e+00  1.0608050801360139e-02 -8.6165690888497126e-02 0.0000000000000000e+00  9.7392820918953821e-03 -8.7986905786461941e-02 0.0000000000000000e+00  8.8678822434110956e-03 -8.7984587303489653e-02 0.0000000000000000e+00  7.9964957638067186e-03 -8.7982290275698358e-02 0.0000000000000000e+00  7.1251338756107398e-03 -8.7980010078195350e-02 0.0000000000000000e+00  6.2538038314638895e-03 -8.7977736566296677e-02 0.0000000000000000e+00  5.3825090667778807e-03 -8.7975457450407746e-02 0.0000000000000000e+00  4.5112498084565701e-03 -8.7973160132779865e-02 0.0000000000000000e+00  3.6400236904276352e-03 -8.7970832816099603e-02 0.0000000000000000e+00  2.7688263140510042e-03 -8.7968465204442875e-02 0.0000000000000000e+00  1.8976517471092432e-03 -8.7966048949666698e-02 0.0000000000000000e+00  1.0264929651616305e-03 -8.7963577930139411e-02 0.0000000000000000e+00  1.5534224459388615e-04 -8.7961048416246787e-02 0.0000000000000000e+00  -7.1580847901809457e-04 -8.7958459157000859e-02 0.0000000000000000e+00  -1.5869672706327305e-03 -8.7955811407035178e-02 0.0000000000000000e+00  -2.4581418554249289e-03 -8.7953108900228297e-02 0.0000000000000000e+00  -3.3293392603016012e-03 -8.7950357763728865e-02 0.0000000000000000e+00  -4.2005654206610657e-03 -8.7947566353118858e-02 0.0000000000000000e+00  -5.0718247388016873e-03 -8.7944744974366454e-02 0.0000000000000000e+00  -5.9431195847097643e-03 -8.7941905437925502e-02 0.0000000000000000e+00  -6.8144497356058386e-03 -8.7939060356906476e-02 0.0000000000000000e+00  -7.6858117605332057e-03 -8.7936222031312447e-02 0.0000000000000000e+00  -8.5571984049185538e-03 -8.7933400582726473e-02 0.0000000000000000e+00  -9.4285983724967850e-03 -8.7930600567477868e-02 0.0000000000000000e+00  -1.0303134291172611e-02 -8.6104266411580740e-02 0.0000000000000000e+00  -1.0306249423787401e-02 -8.4280715445468890e-02 0.0000000000000000e+00  -1.0309336730066383e-02 -8.2457143369290942e-02 0.0000000000000000e+00  -1.0312403671950965e-02 -8.0633534040000288e-02 0.0000000000000000e+00  -1.0315464709651645e-02 -7.8809875259304135e-02 0.0000000000000000e+00  -1.0318538157266653e-02 -7.6986157731163268e-02 0.0000000000000000e+00  -1.0321645291666522e-02 -7.5162374223839978e-02 0.0000000000000000e+00  -1.0324810390109332e-02 -7.3338519179033695e-02 0.0000000000000000e+00  -1.0328061197994858e-02 -7.1514588724983827e-02 0.0000000000000000e+00  -1.0331429608218666e-02 -6.9690581062597526e-02 0.0000000000000000e+00  -1.0334952434961348e-02 -6.7866497222576025e-02 0.0000000000000000e+00  -1.0338672202787662e-02 -6.6042342217479358e-02 0.0000000000000000e+00  -1.0342637880999770e-02 -6.4218126635234338e-02 0.0000000000000000e+00  -1.0346905485923895e-02 -6.2393868740412924e-02 0.0000000000000000e+00  -1.0351538455302329e-02 -6.0569597167290039e-02 0.0000000000000000e+00  -1.0356607671041809e-02 -5.8745354304507287e-02 0.0000000000000000e+00  -1.0362190969511203e-02 -5.6921200484901568e-02 0.0000000000000000e+00  -1.0368371931853949e-02 -5.5097219105026837e-02 0.0000000000000000e+00  -1.0375237689427313e-02 -5.3273522805893370e-02 0.0000000000000000e+00  -1.0382875410305484e-02 -5.1450260847682880e-02 0.0000000000000000e+00  -1.0391367050531538e-02 -4.9627627804239946e-02 0.0000000000000000e+00  -1.0400781857255183e-02 -4.7805873684787906e-02 0.0000000000000000e+00  -1.0411165999022519e-02 -4.5985315556524409e-02 0.0000000000000000e+00  -1.0422528570571559e-02 -4.4166350687492695e-02 0.0000000000000000e+00  -1.0434823075280205e-02 -4.2349471148296153e-02 0.0000000000000000e+00  -1.0447923328204614e-02 -4.0535279696581550e-02 0.0000000000000000e+00  -1.0461592547317270e-02 -3.8724506611324372e-02 0.0000000000000000e+00  -1.0475444211383481e-02 -3.6918026935186775e-02 0.0000000000000000e+00  -1.0488893061033153e-02 -3.5116877311821643e-02 0.0000000000000000e+00  -1.0501094404725212e-02 -3.3322271259042538e-02 0.0000000000000000e+00  -1.0510869659353711e-02 -3.1535611284957375e-02 0.0000000000000000e+00  -1.0516615793771996e-02 -2.9758495716938813e-02 0.0000000000000000e+00  -1.0516196023820626e-02 -2.7992717452587842e-02 0.0000000000000000e+00  -1.0506808670970537e-02 -2.6240251027710972e-02 0.0000000000000000e+00  -1.0484830431637299e-02 -2.4503223377559166e-02 0.0000000000000000e+00  -1.0445629205305149e-02 -2.2783862348400904e-02 0.0000000000000000e+00  -1.0383339727030958e-02 -2.1084415210165228e-02 0.0000000000000000e+00  -1.0290591879219520e-02 -1.9407026757542675e-02 0.0000000000000000e+00  -1.0158175508466379e-02 -1.7753562328560190e-02 0.0000000000000000e+00  -9.9746145733847109e-03 -1.6125353726924242e-02 0.0000000000000000e+00  -9.7256030217222917e-03 -1.4522832530816779e-02 0.0000000000000000e+00  -9.3932155384670087e-03 -1.2944988917064854e-02 0.0000000000000000e+00  -8.9547274318620956e-03 -1.1388539023107304e-02 0.0000000000000000e+00  -8.3807153372311063e-03 -9.8465625682787952e-03 0.0000000000000000e+00  -7.6317766731471039e-03 -8.3061621735196507e-03 0.0000000000000000e+00  -6.6521741355315368e-03 -6.7449351660484654e-03 0.0000000000000000e+00  -5.3503321872561561e-03 -5.1279096391765649e-03 0.0000000000000000e+00  -3.4796276705300840e-03 -3.3699868619938168e-03 0.0000000000000000e+00  -2.4780356306978771e-03 -1.9251265243158517e-03 0.0000000000000000e+00  -4.4617241971365773e-03 -3.9731400300466882e-03 0.0000000000000000e+00  -5.8419779706178577e-03 -5.8385258682786432e-03 0.0000000000000000e+00  -6.8534873478003026e-03 -7.5873326106595902e-03 0.0000000000000000e+00  -7.6142298440812954e-03 -9.2767740961800897e-03 0.0000000000000000e+00  -8.1898912473527194e-03 -1.0938904715071905e-02 0.0000000000000000e+00  -8.6243076168894071e-03 -1.2592502088317076e-02 0.0000000000000000e+00  -8.9494079140857909e-03 -1.4248870134777276e-02 0.0000000000000000e+00  -9.1894724322287378e-03 -1.5914705424357210e-02 0.0000000000000000e+00  -9.3634248166225096e-03 -1.7593738747189419e-02 0.0000000000000000e+00  -9.4862169377424432e-03 -1.9287752649374695e-02 0.0000000000000000e+00  -9.5697365813927487e-03 -2.0997244249303704e-02 0.0000000000000000e+00  -9.6234450944483602e-03 -2.2721873228210614e-02 0.0000000000000000e+00  -9.6548517598907049e-03 -2.4460772329235249e-02 0.0000000000000000e+00  -9.6698826166621947e-03 -2.6212765435497963e-02 0.0000000000000000e+00  -9.6731762990999882e-03 -2.7976521006343430e-02 0.0000000000000000e+00  -9.6683261200891067e-03 -2.9750658979712692e-02 0.0000000000000000e+00  -9.6580803563080537e-03 -3.1533823571789500e-02 0.0000000000000000e+00  -9.6445086698724435e-03 -3.3324730888468705e-02 0.0000000000000000e+00  -9.6291403317119960e-03 -3.5122197955112823e-02 0.0000000000000000e+00  -9.6130785955347922e-03 -3.6925158167276963e-02 0.0000000000000000e+00  -9.5970947671644800e-03 -3.8732666993389023e-02 0.0000000000000000e+00  -9.5817049811688093e-03 -4.0543900870708145e-02 0.0000000000000000e+00  -9.5672323049352508e-03 -4.2358151542837418e-02 0.0000000000000000e+00  -9.5538564718601927e-03 -4.4174817539692053e-02 0.0000000000000000e+00  -9.5416532667214164e-03 -4.5993394066568195e-02 0.0000000000000000e+00  -9.5306253327008400e-03 -4.7813462225316121e-02 0.0000000000000000e+00  -9.5207259354083314e-03 -4.9634678220745389e-02 0.0000000000000000e+00  -9.5118770034313214e-03 -5.1456762995880583e-02 0.0000000000000000e+00  -9.5039825677941080e-03 -5.3279492579466743e-02 0.0000000000000000e+00  -9.4969385448945755e-03 -5.5102689308872133e-02 0.0000000000000000e+00  -9.4906396492684501e-03 -5.6926214003349865e-02 0.0000000000000000e+00  -9.4849840836592255e-03 -5.8749959099870283e-02 0.0000000000000000e+00  -9.4798765335701498e-03 -6.0573842720859854e-02 0.0000000000000000e+00  -9.4752298905679769e-03 -6.2397803615614880e-02 0.0000000000000000e+00  -9.4709660416556242e-03 -6.4221796901172343e-02 0.0000000000000000e+00  -9.4670159894647034e-03 -6.6045790521040898e-02 0.0000000000000000e+00  -9.4633195082677850e-03 -6.7869762339060002e-02 0.0000000000000000e+00  -9.4598244924321614e-03 -6.9693697788960562e-02 0.0000000000000000e+00  -9.4564861157539707e-03 -7.1517588006522623e-02 0.0000000000000000e+00  -9.4532658914355978e-03 -7.3341428379477699e-02 0.0000000000000000e+00  -9.4501307034900658e-03 -7.5165217459476255e-02 0.0000000000000000e+00  -9.4470518729906118e-03 -7.6988956189331298e-02 0.0000000000000000e+00  -9.4440043324940919e-03 -7.8812647405178335e-02 0.0000000000000000e+00  -9.4409660239245484e-03 -8.0636295572115949e-02 0.0000000000000000e+00  -9.4379177483868565e-03 -8.2459906689988705e-02 0.0000000000000000e+00  -9.4348439805815951e-03 -8.4283488239663709e-02 0.0000000000000000e+00  -9.4317357929690430e-03 -8.6107049068369995e-02 0.0000000000000000e+00  -1.8867887358839908e-03 -1.5209863129803857e-03 0.0000000000000000e+00  -3.6429266648599439e-03 -3.3249907665849053e-03 0.0000000000000000e+00  -5.0084939968235084e-03 -5.1782334605857527e-03 0.0000000000000000e+00  -6.0341161284252626e-03 -6.9924922219331796e-03 0.0000000000000000e+00  -6.8054698952405334e-03 -8.7645739853557964e-03 0.0000000000000000e+00  -7.3860028423004534e-03 -1.0507926270786573e-02 0.0000000000000000e+00  -7.8208519622318309e-03 -1.2235362954147618e-02 0.0000000000000000e+00  -8.1433485488737363e-03 -1.3956493722254944e-02 0.0000000000000000e+00  -8.3788975400061281e-03 -1.5677968021876498e-02 0.0000000000000000e+00  -8.5472597824498443e-03 -1.7404127158821156e-02 0.0000000000000000e+00  -8.6639866184940930e-03 -1.9137608021305996e-02 0.0000000000000000e+00  -8.7413816052703923e-03 -2.0879823632719681e-02 0.0000000000000000e+00  -8.7891836909278660e-03 -2.2631328394130550e-02 0.0000000000000000e+00  -8.8150773553046530e-03 -2.4392090869022894e-02 0.0000000000000000e+00  -8.8250889502126326e-03 -2.6161695579650278e-02 0.0000000000000000e+00  -8.8239035881393490e-03 -2.7939490903836395e-02 0.0000000000000000e+00  -8.8151232711002753e-03 -2.9724696112064009e-02 0.0000000000000000e+00  -8.8014793446406260e-03 -3.1516477439620577e-02 0.0000000000000000e+00  -8.7850080688550262e-03 -3.3314000746286647e-02 0.0000000000000000e+00  -8.7671956326332342e-03 -3.5116466572554086e-02 0.0000000000000000e+00  -8.7490974775800787e-03 -3.6923132085114482e-02 0.0000000000000000e+00  -8.7314358870268453e-03 -3.8733323393457177e-02 0.0000000000000000e+00  -8.7146791802243783e-03 -4.0546440931471833e-02 0.0000000000000000e+00  -8.6991053946389851e-03 -4.2361959977461366e-02 0.0000000000000000e+00  -8.6848529678548343e-03 -4.4179427894743925e-02 0.0000000000000000e+00  -8.6719606086891159e-03 -4.5998459285761600e-02 0.0000000000000000e+00  -8.6603982579710834e-03 -4.7818729945024792e-02 0.0000000000000000e+00  -8.6500907761844908e-03 -4.9639970254583762e-02 0.0000000000000000e+00  -8.6409357556027737e-03 -5.1461958477524425e-02 0.0000000000000000e+00  -8.6328166382087634e-03 -5.3284514260022377e-02 0.0000000000000000e+00  -8.6256121275072161e-03 -5.5107492542359124e-02 0.0000000000000000e+00  -8.6192027119555842e-03 -5.6930777997050735e-02 0.0000000000000000e+00  -8.6134749693578053e-03 -5.8754280052092225e-02 0.0000000000000000e+00  -8.6083241939342546e-03 -6.0577928514543307e-02 0.0000000000000000e+00  -8.6036557793163059e-03 -6.2401669780362441e-02 0.0000000000000000e+00  -8.5993856996232597e-03 -6.4225463597378907e-02 0.0000000000000000e+00  -8.5954403552039055e-03 -6.6049280337019303e-02 0.0000000000000000e+00  -8.5917559877500636e-03 -6.7873098724806138e-02 0.0000000000000000e+00  -8.5882778196810072e-03 -6.9696903978091251e-02 0.0000000000000000e+00  -8.5849590336316978e-03 -7.1520686300601849e-02 0.0000000000000000e+00  -8.5817596787613158e-03 -7.3344439686022431e-02 0.0000000000000000e+00  -8.5786455715422556e-03 -7.5168160985908339e-02 0.0000000000000000e+00  -8.5755872514490846e-03 -7.6991849199643372e-02 0.0000000000000000e+00  -8.5725590614153593e-03 -7.8815504945033477e-02 0.0000000000000000e+00  -8.5695384597627312e-03 -8.0639130068782108e-02 0.0000000000000000e+00  -8.5665057534158266e-03 -8.2462727371861069e-02 0.0000000000000000e+00  -8.5634445805926555e-03 -8.4286300539706149e-02 0.0000000000000000e+00  -8.5603435060456461e-03 -8.6109854874232866e-02 0.0000000000000000e+00  -1.5211242006845248e-03 -1.3784154352073825e-03 0.0000000000000000e+00  -2.9986504699659041e-03 -2.9986982385541575e-03 0.0000000000000000e+00  -4.2472066594593082e-03 -4.7530323552501573e-03 0.0000000000000000e+00  -5.2330775335045427e-03 -6.5476816692632304e-03 0.0000000000000000e+00  -5.9910259075879584e-03 -8.3425050809017940e-03 0.0000000000000000e+00  -6.5660806617847435e-03 -1.0127046808249220e-02 0.0000000000000000e+00  -6.9973982336408161e-03 -1.1901815968032154e-02 0.0000000000000000e+00  -7.3164686739220393e-03 -1.3670330657296920e-02 0.0000000000000000e+00  -7.5482592127233891e-03 -1.5436292370644256e-02 0.0000000000000000e+00  -7.7125643393110167e-03 -1.7202716839368689e-02 0.0000000000000000e+00  -7.8251015670777399e-03 -1.8971774039286644e-02 0.0000000000000000e+00  -7.8983487870105448e-03 -2.0744871187960701e-02 0.0000000000000000e+00  -7.9421858332045427e-03 -2.2522803022161808e-02 0.0000000000000000e+00  -7.9643956174973839e-03 -2.4305904024058907e-02 0.0000000000000000e+00  -7.9710638589753063e-03 -2.6094180389641317e-02 0.0000000000000000e+00  -7.9669033632574771e-03 -2.7887416510496942e-02 0.0000000000000000e+00  -7.9555200613272131e-03 -2.9685257219967912e-02 0.0000000000000000e+00  -7.9396325319812198e-03 -3.1487269235681951e-02 0.0000000000000000e+00  -7.9212533721729570e-03 -3.3292985651544559e-02 0.0000000000000000e+00  -7.9018387194655891e-03 -3.5101937062368749e-02 0.0000000000000000e+00  -7.8824109348980299e-03 -3.6913672400848981e-02 0.0000000000000000e+00  -7.8636585953966009e-03 -3.8727772024374357e-02 0.0000000000000000e+00  -7.8460173305458011e-03 -4.0543855087318850e-02 0.0000000000000000e+00  -7.8297345610110446e-03 -4.2361582800362757e-02 0.0000000000000000e+00  -7.8149207970681315e-03 -4.4180658816627381e-02 0.0000000000000000e+00  -7.8015898060515938e-03 -4.6000827689850074e-02 0.0000000000000000e+00  -7.7896896432614986e-03 -4.7821872113922852e-02 0.0000000000000000e+00  -7.7791262561662652e-03 -4.9643609466647781e-02 0.0000000000000000e+00  -7.7697811144875799e-03 -5.1465888034876062e-02 0.0000000000000000e+00  -7.7615240882075746e-03 -5.3288583185681464e-02 0.0000000000000000e+00  -7.7542225911379145e-03 -5.5111593662376668e-02 0.0000000000000000e+00  -7.7477478285996916e-03 -5.6934838119612932e-02 0.0000000000000000e+00  -7.7419788327187074e-03 -5.8758251964025621e-02 0.0000000000000000e+00  -7.7368048361908933e-03 -6.0581784532266446e-02 0.0000000000000000e+00  -7.7321264231962313e-03 -6.2405396613819900e-02 0.0000000000000000e+00  -7.7278558023675730e-03 -6.4229058309349649