<?xml version="1.0"?>
<VTKFile type="UnstructuredGrid"  version="0.1"  >
<UnstructuredGrid>
<Piece  NumberOfPoints="6382" NumberOfCells="12354">
<Points>
<DataArray  type="Float64"  NumberOfComponents="3"  format="ascii">0 -3 0  0 0 0  10 -3 0  10 0 0  5.2 0 0  5.2 -0.4 0  5.5 -0.4 0  5.5 -0.6000000000000001 0  4.5 -0.6000000000000001 0  4.5 -0.4 0  4.8 -0.4 0  4.8 0 0  0 -2.666666666666667 0  0 -2.333333333333333 0  0 -2 0  0 -1.666666666666667 0  0 -1.333333333333333 0  0 -1 0  0 -0.666666666666667 0  0 -0.3333333333333335 0  9.836518447033493 -3 0  9.676485174132324 -3 0  9.519716728676565 -3 0  9.366040597429432 -3 0  9.215293522901804 -3 0  9.067325347766827 -3 0  8.921978167503752 -3 0  8.779125793186953 -3 0  8.638633440048579 -3 0  8.500376249002967 -3 0  8.364235730108557 -3 0  8.230099119300583 -3 0  8.097858693472926 -3 0  7.96741165420296 -3 0  7.838659590098249 -3 0  7.711508416266758 -3 0  7.585867779025237 -3 0  7.461651037321721 -3 0  7.338774694871047 -3 0  7.217158563845377 -3 0  7.096725097152937 -3 0  6.977399455051415 -3 0  6.859109304538208 -3 0  6.741784490575633 -3 0  6.625356935727237 -3 0  6.509760461250432 -3 0  6.394930659317325 -3 0  6.2808046903675 -3 0  6.167321173775116 -3 0  6.054420032640893 -3 0  5.942042373994132 -3 0  5.830130346471836 -3 0  5.718627047087892 -3 0  5.607476358937133 -3 0  5.496622874861212 -3 0  5.386011773348871 -3 0  5.275588701244851 -3 0  5.1652996754838 -3 0  5.055090972556302 -3 0  4.944909027443701 -3 0  4.834700324516204 -3 0  4.724411298755151 -3 0  4.613988226651132 -3 0  4.50337712513879 -3 0  4.392523641062869 -3 0  4.281372952912111 -3 0  4.169869653528168 -3 0  4.05795762600587 -3 0  3.94557996735911 -3 0  3.832678826224885 -3 0  3.719195309632506 -3 0  3.605069340682676 -3 0  3.490239538749567 -3 0  3.374643064272765 -3 0  3.25821550942437 -3 0  3.140890695461794 -3 0  3.022600544948583 -3 0  2.903274902847057 -3 0  2.782841436154621 -3 0  2.661225305128949 -3 0  2.538348962678273 -3 0  2.414132220974763 -3 0  2.288491583733238 -3 0  2.161340409901745 -3 0  2.032588345797035 -3 0  1.902141306527067 -3 0  1.76990088069941 -3 0  1.63576426989143 -3 0  1.499623750997021 -3 0  1.361366559951406 -3 0  1.220874206813038 -3 0  1.078021832496241 -3 0  0.9326746522331657 -3 0  0.7847064770981866 -3 0  0.6339594025705644 -3 0  0.4802832713234277 -3 0  0.3235148258676688 -3 0  0.1634815529665037 -3 0  10 -0.3333333333333333 0  10 -0.6666666666666666 0  10 -1 0  10 -1.333333333333333 0  10 -1.666666666666667 0  10 -2 0  10 -2.333333333333333 0  10 -2.666666666666667 0  5.242711110725164 0 0  5.286293876642154 0 0  5.330766086609641 0 0  5.37614589213589 0 0  5.422451816439484 0 0  5.469702760205794 0 0  5.517918009017504 0 0  5.567117241892008 0 0  5.617320540096343 0 0  5.668548395644089 0 0  5.720821717893487 0 0  5.774161842649544 0 0  5.828590541642586 0 0  5.88413003019757 0 0  5.940802977381058 0 0  5.998632515893446 0 0  6.057642249375406 0 0  6.117856262977496 0 0  6.179299133651088 0 0  6.241995940085244 0 0  6.305972273082686 0 0  6.371254245606542 0 0  6.43786850326221 0 0  6.505842235920577 0 0  6.575203187664691 0 0  6.645979668539436 0 0  6.71820056760014 0 0  6.791895362764803 0 0  6.867094133292654 0 0  6.943827572794882 0 0  7.022127001289535 0 0  7.10202437703821 0 0  7.183552311040527 0 0  7.266744080707336 0 0  7.351633641831447 0 0  7.438255642584554 0 0  7.526645439439152 0 0  7.616839110330926 0 0  7.708873468012155 0 0  7.802786077905059 0 0  7.898615271449994 0 0  7.996400162886068 0 0  8.096180664647234 0 0  8.197997502517053 0 0  8.301892235188374 0 0  8.407907268711336 0 0  8.516085874431543 0 0  8.626472207031901 0 0  8.739111321743804 0 0  8.854049193814495 0 0  8.971332736524433 0 0  9.091009820696414 0 0  9.21312929427506 0 0  9.337741001971482 0 0  9.464895805719847 0 0  9.594645605970797 0 0  9.727043361679982 0 0  9.862143111819449 0 0  5.2 -0.01666666666666669 0  5.2 -0.03333333333333339 0  5.2 -0.05000000000000009 0  5.2 -0.06666666666666679 0  5.2 -0.0833333333333335 0  5.2 -0.1000000000000002 0  5.2 -0.1166666666666669 0  5.2 -0.1333333333333336 0  5.2 -0.1500000000000002 0  5.2 -0.1666666666666669 0  5.2 -0.1833333333333335 0  5.2 -0.2000000000000001 0  5.2 -0.2166666666666668 0  5.2 -0.2333333333333335 0  5.2 -0.2500000000000002 0  5.2 -0.2666666666666669 0  5.2 -0.2833333333333335 0  5.2 -0.3000000000000002 0  5.2 -0.3166666666666668 0  5.2 -0.3333333333333335 0  5.2 -0.3500000000000001 0  5.2 -0.3666666666666668 0  5.2 -0.3833333333333334 0  5.2125 -0.4 0  5.225 -0.4 0  5.2375 -0.4 0  5.25 -0.4 0  5.2625 -0.4 0  5.275 -0.4 0  5.2875 -0.4 0  5.3 -0.4 0  5.3125 -0.4 0  5.325 -0.4 0  5.337499999999999 -0.4 0  5.35 -0.4 0  5.3625 -0.4 0  5.375 -0.4 0  5.3875 -0.4 0  5.4 -0.4 0  5.4125 -0.4 0  5.425 -0.4 0  5.4375 -0.4 0  5.45 -0.4 0  5.4625 -0.4 0  5.475 -0.4 0  5.4875 -0.4 0  5.5 -0.4083333333333334 0  5.5 -0.4166666666666667 0  5.5 -0.425 0  5.5 -0.4333333333333334 0  5.5 -0.4416666666666668 0  5.5 -0.4500000000000001 0  5.5 -0.4583333333333334 0  5.5 -0.4666666666666668 0  5.5 -0.4750000000000001 0  5.5 -0.4833333333333335 0  5.5 -0.4916666666666668 0  5.5 -0.5000000000000002 0  5.5 -0.5083333333333335 0  5.5 -0.5166666666666668 0  5.5 -0.5250000000000002 0  5.5 -0.5333333333333335 0  5.5 -0.5416666666666669 0  5.5 -0.5500000000000002 0  5.5 -0.5583333333333335 0  5.5 -0.5666666666666668 0  5.5 -0.5750000000000002 0  5.5 -0.5833333333333335 0  5.5 -0.5916666666666668 0  5.479591836734694 -0.6000000000000001 0  5.459183673469388 -0.6000000000000001 0  5.438775510204081 -0.6000000000000001 0  5.418367346938775 -0.6000000000000001 0  5.397959183673469 -0.6000000000000001 0  5.377551020408164 -0.6000000000000001 0  5.357142857142857 -0.6000000000000001 0  5.336734693877551 -0.6000000000000001 0  5.316326530612245 -0.6000000000000001 0  5.295918367346939 -0.6000000000000001 0  5.275510204081633 -0.6000000000000001 0  5.255102040816326 -0.6000000000000001 0  5.23469387755102 -0.6000000000000001 0  5.214285714285714 -0.6000000000000001 0  5.193877551020408 -0.6000000000000001 0  5.173469387755102 -0.6000000000000001 0  5.153061224489796 -0.6000000000000001 0  5.13265306122449 -0.6000000000000001 0  5.112244897959184 -0.6000000000000001 0  5.091836734693878 -0.6000000000000001 0  5.071428571428571 -0.6000000000000001 0  5.051020408163265 -0.6000000000000001 0  5.030612244897959 -0.6000000000000001 0  5.010204081632653 -0.6000000000000001 0  4.989795918367347 -0.6000000000000001 0  4.969387755102041 -0.6000000000000001 0  4.948979591836735 -0.6000000000000001 0  4.928571428571429 -0.6000000000000001 0  4.908163265306122 -0.6000000000000001 0  4.887755102040816 -0.6000000000000001 0  4.86734693877551 -0.6000000000000001 0  4.846938775510204 -0.6000000000000001 0  4.826530612244898 -0.6000000000000001 0  4.806122448979592 -0.6000000000000001 0  4.785714285714286 -0.6000000000000001 0  4.76530612244898 -0.6000000000000001 0  4.744897959183674 -0.6000000000000001 0  4.724489795918368 -0.6000000000000001 0  4.704081632653061 -0.6000000000000001 0  4.683673469387755 -0.6000000000000001 0  4.663265306122449 -0.6000000000000001 0  4.642857142857143 -0.6000000000000001 0  4.622448979591836 -0.6000000000000001 0  4.602040816326531 -0.6000000000000001 0  4.581632653061225 -0.6000000000000001 0  4.561224489795919 -0.6000000000000001 0  4.540816326530612 -0.6000000000000001 0  4.520408163265306 -0.6000000000000001 0  4.5 -0.5916666666666668 0  4.5 -0.5833333333333334 0  4.5 -0.5750000000000001 0  4.5 -0.5666666666666668 0  4.5 -0.5583333333333333 0  4.5 -0.55 0  4.5 -0.5416666666666667 0  4.5 -0.5333333333333333 0  4.5 -0.525 0  4.5 -0.5166666666666666 0  4.5 -0.5083333333333333 0  4.5 -0.4999999999999999 0  4.5 -0.4916666666666666 0  4.5 -0.4833333333333332 0  4.5 -0.4749999999999999 0  4.5 -0.4666666666666666 0  4.5 -0.4583333333333333 0  4.5 -0.45 0  4.5 -0.4416666666666667 0  4.5 -0.4333333333333333 0  4.5 -0.425 0  4.5 -0.4166666666666667 0  4.5 -0.4083333333333334 0  4.5125 -0.4 0  4.525 -0.4 0  4.5375 -0.4 0  4.55 -0.4 0  4.5625 -0.4 0  4.575 -0.4 0  4.587499999999999 -0.4 0  4.6 -0.4 0  4.6125 -0.4 0  4.625 -0.4 0  4.637499999999999 -0.4 0  4.649999999999999 -0.4 0  4.6625 -0.4 0  4.675 -0.4 0  4.6875 -0.4 0  4.699999999999999 -0.4 0  4.712499999999999 -0.4 0  4.725 -0.4 0  4.7375 -0.4 0  4.75 -0.4 0  4.7625 -0.4 0  4.774999999999999 -0.4 0  4.7875 -0.4 0  4.8 -0.3833333333333333 0  4.8 -0.3666666666666666 0  4.8 -0.3499999999999999 0  4.8 -0.3333333333333333 0  4.8 -0.3166666666666665 0  4.8 -0.2999999999999998 0  4.8 -0.2833333333333331 0  4.8 -0.2666666666666664 0  4.8 -0.2499999999999998 0  4.8 -0.2333333333333331 0  4.8 -0.2166666666666665 0  4.8 -0.1999999999999999 0  4.8 -0.1833333333333332 0  4.8 -0.1666666666666665 0  4.8 -0.1499999999999998 0  4.8 -0.1333333333333331 0  4.8 -0.1166666666666665 0  4.8 -0.09999999999999987 0  4.8 -0.0833333333333332 0  4.8 -0.06666666666666654 0  4.8 -0.04999999999999988 0  4.8 -0.03333333333333327 0  4.8 -0.01666666666666661 0  0.1378568875240437 0 0  0.2729566377271358 0 0  0.4053543934976697 0 0  0.5351041938077431 0 0  0.6622589976130751 0 0  0.7868707053643811 0 0  0.9089901789958823 0 0  1.028667263218748 0 0  1.14595080597766 0 0  1.260888678095464 0 0  1.373527792852679 0 0  1.483914125496606 0 0  1.592092731258683 0 0  1.698107764821866 0 0  1.802002497531814 0 0  1.90381933543871 0 0  2.003599837235452 0 0  2.101384728705643 0 0  2.197213922283282 0 0  2.291126532207516 0 0  2.38316088991875 0 0  2.473354560839241 0 0  2.56174435771825 0 0  2.648366358500676 0 0  2.733255919649871 0 0  2.81644768934063 0 0  2.897975623365796 0 0  2.977872999136252 0 0  3.056172427651654 0 0  3.132905867173631 0 0  3.208104637720262 0 0  3.28179943290277 0 0  3.354020331980409 0 0  3.42479681287121 0 0  3.494157764630528 0 0  3.562131497303279 0 0  3.628745754972536 0 0  3.69402772750921 0 0  3.758004060518725 0 0  3.820700866964234 0 0  3.882143737648484 0 0  3.942357751260559 0 0  4.0013674
[...]
<PointData  Vectors="displacement"> 
<DataArray  type="Float64"  Name="displacement"  NumberOfComponents="3" format="ascii">0.0000000000000000e+00 0.0000000000000000e+00 0.0000000000000000e+00  -1.0192745976179553e-03 -9.1579794417621271e-05 0.0000000000000000e+00  0.0000000000000000e+00 0.0000000000000000e+00 0.0000000000000000e+00  1.0199497183961529e-03 -9.1315216918566540e-05 0.0000000000000000e+00  0.0000000000000000e+00 -4.0640477666559422e-03 0.0000000000000000e+00  0.0000000000000000e+00 -4.1188453678178650e-03 0.0000000000000000e+00  0.0000000000000000e+00 -4.0887337324289697e-03 0.0000000000000000e+00  0.0000000000000000e+00 -5.5253607142874894e-03 0.0000000000000000e+00  0.0000000000000000e+00 -5.3010521987101452e-03 0.0000000000000000e+00  0.0000000000000000e+00 -4.0759239775663347e-03 0.0000000000000000e+00  0.0000000000000000e+00 -4.1058425067416427e-03 0.0000000000000000e+00  0.0000000000000000e+00 -4.0515992285512998e-03 0.0000000000000000e+00  -2.4352566876625881e-04 -1.7955603805843874e-04 0.0000000000000000e+00  -4.5175569363770888e-04 -2.2883383220498763e-04 0.0000000000000000e+00  -6.2427827044119540e-04 -2.2668113246389533e-04 0.0000000000000000e+00  -7.5502396878644284e-04 -1.9619327629330930e-04 0.0000000000000000e+00  -8.4549745618398139e-04 -1.5675561447348629e-04 0.0000000000000000e+00  -9.0362075043659530e-04 -1.2158496912076966e-04 0.0000000000000000e+00  -9.4271440972714727e-04 -9.9476014894877765e-05 0.0000000000000000e+00  -9.7779934225855061e-04 -9.1609414129296255e-05 0.0000000000000000e+00  0.0000000000000000e+00 0.0000000000000000e+00 0.0000000000000000e+00  0.0000000000000000e+00 0.0000000000000000e+00 0.0000000000000000e+00  0.0000000000000000e+00 0.0000000000000000e+00 0.0000000000000000e+00  0.0000000000000000e+00 0.0000000000000000e+00 0.0000000000000000e+00  0.0000000000000000e+00 0.0000000000000000e+00 0.0000000000000000e+00  0.0000000000000000e+00 0.0000000000000000e+00 0.0000000000000000e+00  0.0000000000000000e+00 0.0000000000000000e+00 0.0000000000000000e+00  0.0000000000000000e+00 0.0000000000000000e+00 0.0000000000000000e+00  0.0000000000000000e+00 0.0000000000000000e+00 0.0000000000000000e+00  0.0000000000000000e+00 0.0000000000000000e+00 0.0000000000000000e+00  0.0000000000000000e+00 0.0000000000000000e+00 0.0000000000000000e+00  0.0000000000000000e+00 0.0000000000000000e+00 0.0000000000000000e+00  0.0000000000000000e+00 0.0000000000000000e+00 0.0000000000000000e+00  0.0000000000000000e+00 0.0000000000000000e+00 0.0000000000000000e+00  0.0000000000000000e+00 0.0000000000000000e+00 0.0000000000000000e+00  0.0000000000000000e+00 0.0000000000000000e+00 0.0000000000000000e+00  0.0000000000000000e+00 0.0000000000000000e+00 0.0000000000000000e+00  0.0000000000000000e+00 0.0000000000000000e+00 0.0000000000000000e+00  0.0000000000000000e+00 0.0000000000000000e+00 0.0000000000000000e+00  0.0000000000000000e+00 0.0000000000000000e+00 0.0000000000000000e+00  0.0000000000000000e+00 0.0000000000000000e+00 0.0000000000000000e+00  0.0000000000000000e+00 0.0000000000000000e+00 0.0000000000000000e+00  0.0000000000000000e+00 0.0000000000000000e+00 0.0000000000000000e+00  0.0000000000000000e+00 0.0000000000000000e+00 0.0000000000000000e+00  0.0000000000000000e+00 0.0000000000000000e+00 0.0000000000000000e+00  0.0000000000000000e+00 0.0000000000000000e+00 0.0000000000000000e+00  0.0000000000000000e+00 0.0000000000000000e+00 0.0000000000000000e+00  0.0000000000000000e+00 0.0000000000000000e+00 0.0000000000000000e+00  0.0000000000000000e+00 0.0000000000000000e+00 0.0000000000000000e+00  0.0000000000000000e+00 0.0000000000000000e+00 0.0000000000000000e+00  0.0000000000000000e+00 0.0000000000000000e+00 0.0000000000000000e+00  0.0000000000000000e+00 0.0000000000000000e+00 0.0000000000000000e+00  0.0000000000000000e+00 0.0000000000000000e+00 0.0000000000000000e+00  0.0000000000000000e+00 0.0000000000000000e+00 0.0000000000000000e+00  0.0000000000000000e+00 0.0000000000000000e+00 0.0000000000000000e+00  0.0000000000000000e+00 0.0000000000000000e+00 0.0000000000000000e+00  0.0000000000000000e+00 0.0000000000000000e+00 0.0000000000000000e+00  0.0000000000000000e+00 0.0000000000000000e+00 0.0000000000000000e+00  0.0000000000000000e+00 0.0000000000000000e+00 0.0000000000000000e+00  0.0000000000000000e+00 0.0000000000000000e+00 0.0000000000000000e+00  0.0000000000000000e+00 0.0000000000000000e+00 0.0000000000000000e+00  0.0000000000000000e+00 0.0000000000000000e+00 0.0000000000000000e+00  0.0000000000000000e+00 0.0000000000000000e+00 0.0000000000000000e+00  0.0000000000000000e+00 0.0000000000000000e+00 0.0000000000000000e+00  0.0000000000000000e+00 0.0000000000000000e+00 0.0000000000000000e+00  0.0000000000000000e+00 0.0000000000000000e+00 0.0000000000000000e+00  0.0000000000000000e+00 0.0000000000000000e+00 0.0000000000000000e+00  0.0000000000000000e+00 0.0000000000000000e+00 0.0000000000000000e+00  0.0000000000000000e+00 0.0000000000000000e+00 0.0000000000000000e+00  0.0000000000000000e+00 0.0000000000000000e+00 0.0000000000000000e+00  0.0000000000000000e+00 0.0000000000000000e+00 0.0000000000000000e+00  0.0000000000000000e+00 0.0000000000000000e+00 0.0000000000000000e+00  0.0000000000000000e+00 0.0000000000000000e+00 0.0000000000000000e+00  0.0000000000000000e+00 0.0000000000000000e+00 0.0000000000000000e+00  0.0000000000000000e+00 0.0000000000000000e+00 0.0000000000000000e+00  0.0000000000000000e+00 0.0000000000000000e+00 0.0000000000000000e+00  0.0000000000000000e+00 0.0000000000000000e+00 0.0000000000000000e+00  0.0000000000000000e+00 0.0000000000000000e+00 0.0000000000000000e+00  0.0000000000000000e+00 0.0000000000000000e+00 0.0000000000000000e+00  0.0000000000000000e+00 0.0000000000000000e+00 0.0000000000000000e+00  0.0000000000000000e+00 0.0000000000000000e+00 0.0000000000000000e+00  0.0000000000000000e+00 0.0000000000000000e+00 0.0000000000000000e+00  0.0000000000000000e+00 0.0000000000000000e+00 0.0000000000000000e+00  0.0000000000000000e+00 0.0000000000000000e+00 0.0000000000000000e+00  0.0000000000000000e+00 0.0000000000000000e+00 0.0000000000000000e+00  0.0000000000000000e+00 0.0000000000000000e+00 0.0000000000000000e+00  0.0000000000000000e+00 0.0000000000000000e+00 0.0000000000000000e+00  0.0000000000000000e+00 0.0000000000000000e+00 0.0000000000000000e+00  0.0000000000000000e+00 0.0000000000000000e+00 0.0000000000000000e+00  0.0000000000000000e+00 0.0000000000000000e+00 0.0000000000000000e+00  0.0000000000000000e+00 0.0000000000000000e+00 0.0000000000000000e+00  0.0000000000000000e+00 0.0000000000000000e+00 0.0000000000000000e+00  0.0000000000000000e+00 0.0000000000000000e+00 0.0000000000000000e+00  0.0000000000000000e+00 0.0000000000000000e+00 0.0000000000000000e+00  0.0000000000000000e+00 0.0000000000000000e+00 0.0000000000000000e+00  0.0000000000000000e+00 0.0000000000000000e+00 0.0000000000000000e+00  0.0000000000000000e+00 0.0000000000000000e+00 0.0000000000000000e+00  0.0000000000000000e+00 0.0000000000000000e+00 0.0000000000000000e+00  9.7846185801780386e-04 -9.1375334297859670e-05 0.0000000000000000e+00  9.4349760251404480e-04 -9.9133188124391513e-05 0.0000000000000000e+00  9.0445469724428830e-04 -1.2135472047516690e-04 0.0000000000000000e+00  8.4641894051691125e-04 -1.5661516273904815e-04 0.0000000000000000e+00  7.5594142229798910e-04 -1.9603440717091478e-04 0.0000000000000000e+00  6.2498540381594346e-04 -2.2698794636787176e-04 0.0000000000000000e+00  4.5221787518856456e-04 -2.2916117358332479e-04 0.0000000000000000e+00  2.4405812599796598e-04 -1.7960418748103575e-04 0.0000000000000000e+00  -4.4142208277246346e-05 -4.0615032102887753e-03 0.0000000000000000e+00  -8.9907467811180288e-05 -4.0534622170954179e-03 0.0000000000000000e+00  -1.3799809576322259e-04 -4.0389995070141457e-03 0.0000000000000000e+00  -1.8912781114431999e-04 -4.0166402092163510e-03 0.0000000000000000e+00  -2.4376632241928785e-04 -3.9842765246119729e-03 0.0000000000000000e+00  -3.0191559271737625e-04 -3.9392852258778952e-03 0.0000000000000000e+00  -3.6276207406513898e-04 -3.8786262757735134e-03 0.0000000000000000e+00  -4.2460991867777475e-04 -3.7994075642481767e-03 0.0000000000000000e+00  -4.8477127493593757e-04 -3.6995187962919661e-03 0.0000000000000000e+00  -5.4001696257382440e-04 -3.5780991261128046e-03 0.0000000000000000e+00  -5.8692627174642450e-04 -3.4359360202430478e-03 0.0000000000000000e+00  -6.2271223102242860e-04 -3.2753221962927665e-03 0.0000000000000000e+00  -6.4535706639070895e-04 -3.0997083075461297e-03 0.0000000000000000e+00  -6.5393016232883250e-04 -2.9131408841682671e-03 0.0000000000000000e+00  -6.4849322631887118e-04 -2.7197802715459565e-03 0.0000000000000000e+00  -6.2977662579080196e-04 -2.5234974872839688e-03 0.0000000000000000e+00  -5.9933613094477706e-04 -2.3277057524426869e-03 0.0000000000000000e+00  -5.5859934291151994e-04 -2.1351437850738084e-03 0.0000000000000000e+00  -5.0939863695046914e-04 -1.9479711499689183e-03 0.0000000000000000e+00  -4.5349869236984683e-04 -1.7677995581447828e-03 0.0000000000000000e+00  -3.9243440049393640e-04 -1.5957425005268928e-03 0.0000000000000000e+00  -3.2768857367913824e-04 -1.4325210095414670e-03 0.0000000000000000e+00  -2.6044251214515701e-04 -1.2785604766905668e-03 0.0000000000000000e+00  -1.9182817794063397e-04 -1.1340435605306782e-03 0.0000000000000000e+00  -1.2264272066710377e-04 -9.9899415072494230e-04 0.0000000000000000e+00  -5.3654683336616375e-05 -8.7329158041709177e-04 0.0000000000000000e+00  1.4558291436751033e-05 -7.5673803143365057e-04 0.0000000000000000e+00  8.1525615608691061e-05 -6.4907254410576510e-04 0.0000000000000000e+00  1.4692406264624528e-04 -5.5001631931940920e-04 0.0000000000000000e+00  2.1041967590129516e-04 -4.5925441811360719e-04 0.0000000000000000e+00  2.7182192953522667e-04 -3.7645711677582742e-04 0.0000000000000000e+00  3.3096602700539426e-04 -3.0130492613096962e-04 0.0000000000000000e+00  3.8773469529485634e-04 -2.3347703014594415e-04 0.0000000000000000e+00  4.4204264102661744e-04 -1.7265686488362951e-04 0.0000000000000000e+00  4.9384707930732541e-04 -1.1852568275103394e-04 0.0000000000000000e+00  5.4310727684092164e-04 -7.0800567009581024e-05 0.0000000000000000e+00  5.8980796847744074e-04 -2.9182897803667076e-05 0.0000000000000000e+00  6.3396779265180111e-04 6.6188910344356067e-06 0.0000000000000000e+00  6.7557502264086757e-04 3.6877063499313757e-05 0.0000000000000000e+00  7.1467430210253396e-04 6.1862570317459842e-05 0.0000000000000000e+00  7.5126540555499474e-04 8.1834839351488761e-05 0.0000000000000000e+00  7.8539785701663427e-04 9.7055476525622657e-05 0.0000000000000000e+00  8.1709761040390247e-04 1.0778331966780605e-04 0.0000000000000000e+00  8.4639770639298722e-04 1.1426881868099642e-04 0.0000000000000000e+00  8.7333189761713901e-04 1.1676521808375259e-04 0.0000000000000000e+00  8.9792849235521832e-04 1.1552572333900348e-04 0.0000000000000000e+00  9.2020765339857389e-04 1.1081143489618805e-04 0.0000000000000000e+00  9.4020551425612461e-04 1.0289998676373865e-04 0.0000000000000000e+00  9.5791529627653016e-04 9.2063937129807785e-05 0.0000000000000000e+00  9.7335141999937405e-04 7.8617417448569428e-05 0.0000000000000000e+00  9.8651845307451392e-04 6.2898428586181159e-05 0.0000000000000000e+00  9.9741304018430678e-04 4.5280401654791092e-05 0.0000000000000000e+00  1.0060515876994965e-03 2.6193570652677721e-05 0.0000000000000000e+00  1.0124744108260715e-03 6.1185595884582936e-06 0.0000000000000000e+00  1.0167793840843251e-03 -1.4399127128885485e-05 0.0000000000000000e+00  1.0191673591052341e-03 -3.4787322402149320e-05 0.0000000000000000e+00  1.0200480849095826e-03 -5.4496266989890003e-05 0.0000000000000000e+00  1.0199913584986479e-03 -7.3144983023796549e-05 0.0000000000000000e+00  0.0000000000000000e+00 -4.0712383734502243e-03 0.0000000000000000e+00  0.0000000000000000e+00 -4.0780315513513571e-03 0.0000000000000000e+00  0.0000000000000000e+00 -4.0843723296671601e-03 0.0000000000000000e+00  0.0000000000000000e+00 -4.0902218290289052e-03 0.0000000000000000e+00  0.0000000000000000e+00 -4.0955495979736545e-03 0.0000000000000000e+00  0.0000000000000000e+00 -4.1003375818099638e-03 0.0000000000000000e+00  0.0000000000000000e+00 -4.1045765025606255e-03 0.0000000000000000e+00  0.0000000000000000e+00 -4.1082661367129614e-03 0.0000000000000000e+00  0.0000000000000000e+00 -4.1114141510901463e-03 0.0000000000000000e+00  0.0000000000000000e+00 -4.1140369909897986e-03 0.0000000000000000e+00  0.0000000000000000e+00 -4.1161570729654528e-03 0.0000000000000000e+00  0.0000000000000000e+00 -4.1178060116750454e-03 0.0000000000000000e+00  0.0000000000000000e+00 -4.1190198296694415e-03 0.0000000000000000e+00  0.0000000000000000e+00 -4.1198435336755827e-03 0.0000000000000000e+00  0.0000000000000000e+00 -4.1203278848823549e-03 0.0000000000000000e+00  0.0000000000000000e+00 -4.1205252543535581e-03 0.0000000000000000e+00  0.0000000000000000e+00 -4.1204985156624210e-03 0.0000000000000000e+00  0.0000000000000000e+00 -4.1203070610913994e-03 0.0000000000000000e+00  0.0000000000000000e+00 -4.1200132519534065e-03 0.0000000000000000e+00  0.0000000000000000e+00 -4.1196761202937932e-03 0.0000000000000000e+00  0.0000000000000000e+00 -4.1193509685821398e-03 0.0000000000000000e+00  0.0000000000000000e+00 -4.1190823747747855e-03 0.0000000000000000e+00  0.0000000000000000e+00 -4.1189066072075510e-03 0.0000000000000000e+00  0.0000000000000000e+00 -4.1186267777580769e-03 0.0000000000000000e+00  0.0000000000000000e+00 -4.1179717821298641e-03 0.0000000000000000e+00  0.0000000000000000e+00 -4.1168831015286934e-03 0.0000000000000000e+00  0.0000000000000000e+00 -4.1153653093342277e-03 0.0000000000000000e+00  0.0000000000000000e+00 -4.1134250832170968e-03 0.0000000000000000e+00  0.0000000000000000e+00 -4.1110712690455029e-03 0.0000000000000000e+00  0.0000000000000000e+00 -4.1083162637845705e-03 0.0000000000000000e+00  0.0000000000000000e+00 -4.1051749135659777e-03 0.0000000000000000e+00  0.0000000000000000e+00 -4.1016662075000392e-03 0.0000000000000000e+00  0.0000000000000000e+00 -4.0978141952601041e-03 0.0000000000000000e+00  0.0000000000000000e+00 -4.0936489384069156e-03 0.0000000000000000e+00  0.0000000000000000e+00 -4.0892083615559653e-03 0.0000000000000000e+00  0.0000000000000000e+00 -4.0845401440549878e-03 0.0000000000000000e+00  0.0000000000000000e+00 -4.0797045885442619e-03 0.0000000000000000e+00  0.0000000000000000e+00 -4.0747797805415044e-03 0.0000000000000000e+00  0.0000000000000000e+00 -4.0698665792411404e-03 0.0000000000000000e+00  0.0000000000000000e+00 -4.0651006287885623e-03 0.0000000000000000e+00  0.0000000000000000e+00 -4.0606668088701090e-03 0.0000000000000000e+00  0.0000000000000000e+00 -4.0568255715865897e-03 0.0000000000000000e+00  0.0000000000000000e+00 -4.0539627851074352e-03 0.0000000000000000e+00  0.0000000000000000e+00 -4.0527125934550099e-03 0.0000000000000000e+00  0.0000000000000000e+00 -4.0541947291872389e-03 0.0000000000000000e+00  0.0000000000000000e+00 -4.0611394685721941e-03 0.0000000000000000e+00  0.0000000000000000e+00 -4.1090862587660117e-03 0.0000000000000000e+00  0.0000000000000000e+00 -4.1243857971654712e-03 0.0000000000000000e+00  0.0000000000000000e+00 -4.1392138667733719e-03 0.0000000000000000e+00  0.0000000000000000e+00 -4.1542003873032808e-03 0.0000000000000000e+00  0.0000000000000000e+00 -4.1695812794030427e-03 0.0000000000000000e+00  0.0000000000000000e+00 -4.1854699521760687e-03 0.0000000000000000e+00  0.0000000000000000e+00 -4.2019585830483427e-03 0.0000000000000000e+00  0.0000000000000000e+00 -4.2191003940128830e-03 0.0000000000000000e+00  0.0000000000000000e+00 -4.2369488465092888e-03 0.0000000000000000e+00  0.0000000000000000e+00 -4.2555356369161626e-03 0.0000000000000000e+00  0.0000000000000000e+00 -4.2749018035025711e-03 0.0000000000000000e+00  0.0000000000000000e+00 -4.2950340131149792e-03 0.0000000000000000e+00  0.0000000000000000e+00 -4.3159452416606549e-03 0.0000000000000000e+00  0.0000000000000000e+00 -4.3375782991716752e-03 0.0000000000000000e+00  0.0000000000000000e+00 -4.3598462454161177e-03 0.0000000000000000e+00  0.0000000000000000e+00 -4.3825664844024765e-03 0.0000000000000000e+00  0.0000000000000000e+00 -4.4054429052798891e-03 0.0000000000000000e+00  0.0000000000000000e+00 -4.4280294172796796e-03 0.0000000000000000e+00  0.0000000000000000e+00 -4.4497313323200189e-03 0.0000000000000000e+00  0.0000000000000000e+00 -4.4701042032475663e-03 0.0000000000000000e+00  0.0000000000000000e+00 -4.4901720383820343e-03 0.0000000000000000e+00  0.0000000000000000e+00 -4.5124696050500160e-03 0.0000000000000000e+00  0.0000000000000000e+00 -4.6628201651906839e-03 0.0000000000000000e+00  -1.2523603648235872e-03 -1.3643055575984794e-02 0.0000000000000000e+00  -1.2579510953343656e-03 -1.3852203758875952e-02 0.0000000000000000e+00  -1.2416234672433689e-03 -1.4144925186711326e-02 0.0000000000000000e+00  -1.2057099068813464e-03 -1.4426770637175521e-02 0.0000000000000000e+00  -1.1623611656737102e-03 -1.4685318344421022e-02 0.0000000000000000e+00  -1.1136690350658349e-03 -1.4922608930099154e-02 0.0000000000000000e+00  -1.0613003261268046e-03 -1.5139738594961483e-02 0.0000000000000000e+00  -1.0064064458965524e-03 -1.5338022095303635e-02 0.0000000000000000e+00  -9.4976209347166860e-04 -1.5518930545814760e-02 0.0000000000000000e+00  -8.9187130496266095e-04 -1.5683843146298889e-02 0.0000000000000000e+00  -8.3303952109318297e-04 -1.5833958144593787e-02 0.0000000000000000e+00  -7.7348751341938481e-04 -1.5970261303200537e-02 0.0000000000000000e+00  -7.1337379170089256e-04 -1.6093606231386986e-02 0.0000000000000000e+00  -6.5280253156855617e-04 -1.6204685045757370e-02 0.0000000000000000e+00  -5.9187531438653846e-04 -1.6304097588877665e-02 0.0000000000000000e+00  -5.3066432185677824e-04 -1.6392359749012975e-02 0.0000000000000000e+00  -4.6921109179016464e-04 -1.6469888754656308e-02 0.0000000000000000e+00  -4.0756662926220467e-04 -1.6537051302601774e-02 0.0000000000000000e+00  -3.4576546981073415e-04 -1.6594150681686157e-02 0.0000000000000000e+00  -2.8383455855985880e-04 -1.6641422049179368e-02 0.0000000000000000e+00  -2.2180676917643420e-04 -1.6679059767337842e-02 0.0000000000000000e+00  -1.5970160664140865e-04 -1.6707214222133313e-02 0.0000000000000000e+00  -9.7546943070987396e-05 -1.6726000430357591e-02 0.0000000000000000e+00  -3.5364935808298063e-05 -1.6735490084365534e-02 0.0000000000000000e+00  2.6829135660157946e-05 -1.6735719368731149e-02 0.0000000000000000e+00  8.9011327853034006e-05 -1.6726690039925631e-02 0.0000000000000000e+00  1.5115898015633544e-04 -1.6708361521153639e-02 0.0000000000000000e+00  2.1325335448934814e-04 -1.6680664482901734e-02 0.0000000000000000e+00  2.7526651771911652e-04 -1.6643494280557163e-02 0.0000000000000000e+00  3.3718366353593639e-04 -1.6596699159785719e-02 0.0000000000000000e+00  3.9897084576455362e-04 -1.6540076138771353e-02 0.0000000000000000e+00  4.6060937004472328e-04 -1.6473389757048418e-02 0.0000000000000000e+00  5.2204434347636621e-04 -1.6396334591824002e-02 0.0000000000000000e+00  5.8325719930467563e-04 -1.6308558520340223e-02 0.0000000000000000e+00  6.4419347730016287e-04 -1.6209624646633738e-02 0.0000000000000000e+00  7.0478914377708208e-04 -1.6099019208231157e-02 0.0000000000000000e+00  7.6496517960241610e-04 -1.5976133123127727e-02 0.0000000000000000e+00  8.2462629788881145e-04 -1.5840234915035379e-02 0.0000000000000000e+00  8.8359053944324806e-04 -1.5690435151868545e-02 0.0000000000000000e+00  9.4170411208027802e-04 -1.5525727871478318e-02 0.0000000000000000e+00  9.9866139791018513e-04 -1.5344861202204742e-02 0.0000000000000000e+00  1.0539505953110504e-03 -1.5146404618616702e-02 0.0000000000000000e+00  1.1068461841790430e-03 -1.4928727694952054e-02 0.0000000000000000e+00  1.1563276570133879e-03 -1.4690322453999132e-02 0.0000000000000000e+00  1.2010026230615837e-03 -1.4429459704951244e-02 0.0000000000000000e+00  1.2386371815469286e-03 -1.4143214507729806e-02 0.0000000000000000e+00  1.2642707222724446e-03 -1.3830952659801398e-02 0.0000000000000000e+00  1.2961564589383811e-03 -1.34874238