<?xml version="1.0"?>
<VTKFile type="UnstructuredGrid"  version="0.1"  >
<UnstructuredGrid>
<Piece  NumberOfPoints="6382" NumberOfCells="12354">
<Points>
<DataArray  type="Float64"  NumberOfComponents="3"  format="ascii">0 -3 0  0 0 0  10 -3 0  10 0 0  5.2 0 0  5.2 -0.4 0  5.5 -0.4 0  5.5 -0.6000000000000001 0  4.5 -0.6000000000000001 0  4.5 -0.4 0  4.8 -0.4 0  4.8 0 0  0 -2.666666666666667 0  0 -2.333333333333333 0  0 -2 0  0 -1.666666666666667 0  0 -1.333333333333333 0  0 -1 0  0 -0.666666666666667 0  0 -0.3333333333333335 0  9.836518447033493 -3 0  9.676485174132324 -3 0  9.519716728676565 -3 0  9.366040597429432 -3 0  9.215293522901804 -3 0  9.067325347766827 -3 0  8.921978167503752 -3 0  8.779125793186953 -3 0  8.638633440048579 -3 0  8.500376249002967 -3 0  8.364235730108557 -3 0  8.230099119300583 -3 0  8.097858693472926 -3 0  7.96741165420296 -3 0  7.838659590098249 -3 0  7.711508416266758 -3 0  7.585867779025237 -3 0  7.461651037321721 -3 0  7.338774694871047 -3 0  7.217158563845377 -3 0  7.096725097152937 -3 0  6.977399455051415 -3 0  6.859109304538208 -3 0  6.741784490575633 -3 0  6.625356935727237 -3 0  6.509760461250432 -3 0  6.394930659317325 -3 0  6.2808046903675 -3 0  6.167321173775116 -3 0  6.054420032640893 -3 0  5.942042373994132 -3 0  5.830130346471836 -3 0  5.718627047087892 -3 0  5.607476358937133 -3 0  5.496622874861212 -3 0  5.386011773348871 -3 0  5.275588701244851 -3 0  5.1652996754838 -3 0  5.055090972556302 -3 0  4.944909027443701 -3 0  4.834700324516204 -3 0  4.724411298755151 -3 0  4.613988226651132 -3 0  4.50337712513879 -3 0  4.392523641062869 -3 0  4.281372952912111 -3 0  4.169869653528168 -3 0  4.05795762600587 -3 0  3.94557996735911 -3 0  3.832678826224885 -3 0  3.719195309632506 -3 0  3.605069340682676 -3 0  3.490239538749567 -3 0  3.374643064272765 -3 0  3.25821550942437 -3 0  3.140890695461794 -3 0  3.022600544948583 -3 0  2.903274902847057 -3 0  2.782841436154621 -3 0  2.661225305128949 -3 0  2.538348962678273 -3 0  2.414132220974763 -3 0  2.288491583733238 -3 0  2.161340409901745 -3 0  2.032588345797035 -3 0  1.902141306527067 -3 0  1.76990088069941 -3 0  1.63576426989143 -3 0  1.499623750997021 -3 0  1.361366559951406 -3 0  1.220874206813038 -3 0  1.078021832496241 -3 0  0.9326746522331657 -3 0  0.7847064770981866 -3 0  0.6339594025705644 -3 0  0.4802832713234277 -3 0  0.3235148258676688 -3 0  0.1634815529665037 -3 0  10 -0.3333333333333333 0  10 -0.6666666666666666 0  10 -1 0  10 -1.333333333333333 0  10 -1.666666666666667 0  10 -2 0  10 -2.333333333333333 0  10 -2.666666666666667 0  5.242711110725164 0 0  5.286293876642154 0 0  5.330766086609641 0 0  5.37614589213589 0 0  5.422451816439484 0 0  5.469702760205794 0 0  5.517918009017504 0 0  5.567117241892008 0 0  5.617320540096343 0 0  5.668548395644089 0 0  5.720821717893487 0 0  5.774161842649544 0 0  5.828590541642586 0 0  5.88413003019757 0 0  5.940802977381058 0 0  5.998632515893446 0 0  6.057642249375406 0 0  6.117856262977496 0 0  6.179299133651088 0 0  6.241995940085244 0 0  6.305972273082686 0 0  6.371254245606542 0 0  6.43786850326221 0 0  6.505842235920577 0 0  6.575203187664691 0 0  6.645979668539436 0 0  6.71820056760014 0 0  6.791895362764803 0 0  6.867094133292654 0 0  6.943827572794882 0 0  7.022127001289535 0 0  7.10202437703821 0 0  7.183552311040527 0 0  7.266744080707336 0 0  7.351633641831447 0 0  7.438255642584554 0 0  7.526645439439152 0 0  7.616839110330926 0 0  7.708873468012155 0 0  7.802786077905059 0 0  7.898615271449994 0 0  7.996400162886068 0 0  8.096180664647234 0 0  8.197997502517053 0 0  8.301892235188374 0 0  8.407907268711336 0 0  8.516085874431543 0 0  8.626472207031901 0 0  8.739111321743804 0 0  8.854049193814495 0 0  8.971332736524433 0 0  9.091009820696414 0 0  9.21312929427506 0 0  9.337741001971482 0 0  9.464895805719847 0 0  9.594645605970797 0 0  9.727043361679982 0 0  9.862143111819449 0 0  5.2 -0.01666666666666669 0  5.2 -0.03333333333333339 0  5.2 -0.05000000000000009 0  5.2 -0.06666666666666679 0  5.2 -0.0833333333333335 0  5.2 -0.1000000000000002 0  5.2 -0.1166666666666669 0  5.2 -0.1333333333333336 0  5.2 -0.1500000000000002 0  5.2 -0.1666666666666669 0  5.2 -0.1833333333333335 0  5.2 -0.2000000000000001 0  5.2 -0.2166666666666668 0  5.2 -0.2333333333333335 0  5.2 -0.2500000000000002 0  5.2 -0.2666666666666669 0  5.2 -0.2833333333333335 0  5.2 -0.3000000000000002 0  5.2 -0.3166666666666668 0  5.2 -0.3333333333333335 0  5.2 -0.3500000000000001 0  5.2 -0.3666666666666668 0  5.2 -0.3833333333333334 0  5.2125 -0.4 0  5.225 -0.4 0  5.2375 -0.4 0  5.25 -0.4 0  5.2625 -0.4 0  5.275 -0.4 0  5.2875 -0.4 0  5.3 -0.4 0  5.3125 -0.4 0  5.325 -0.4 0  5.337499999999999 -0.4 0  5.35 -0.4 0  5.3625 -0.4 0  5.375 -0.4 0  5.3875 -0.4 0  5.4 -0.4 0  5.4125 -0.4 0  5.425 -0.4 0  5.4375 -0.4 0  5.45 -0.4 0  5.4625 -0.4 0  5.475 -0.4 0  5.4875 -0.4 0  5.5 -0.4083333333333334 0  5.5 -0.4166666666666667 0  5.5 -0.425 0  5.5 -0.4333333333333334 0  5.5 -0.4416666666666668 0  5.5 -0.4500000000000001 0  5.5 -0.4583333333333334 0  5.5 -0.4666666666666668 0  5.5 -0.4750000000000001 0  5.5 -0.4833333333333335 0  5.5 -0.4916666666666668 0  5.5 -0.5000000000000002 0  5.5 -0.5083333333333335 0  5.5 -0.5166666666666668 0  5.5 -0.5250000000000002 0  5.5 -0.5333333333333335 0  5.5 -0.5416666666666669 0  5.5 -0.5500000000000002 0  5.5 -0.5583333333333335 0  5.5 -0.5666666666666668 0  5.5 -0.5750000000000002 0  5.5 -0.5833333333333335 0  5.5 -0.5916666666666668 0  5.479591836734694 -0.6000000000000001 0  5.459183673469388 -0.6000000000000001 0  5.438775510204081 -0.6000000000000001 0  5.418367346938775 -0.6000000000000001 0  5.397959183673469 -0.6000000000000001 0  5.377551020408164 -0.6000000000000001 0  5.357142857142857 -0.6000000000000001 0  5.336734693877551 -0.6000000000000001 0  5.316326530612245 -0.6000000000000001 0  5.295918367346939 -0.6000000000000001 0  5.275510204081633 -0.6000000000000001 0  5.255102040816326 -0.6000000000000001 0  5.23469387755102 -0.6000000000000001 0  5.214285714285714 -0.6000000000000001 0  5.193877551020408 -0.6000000000000001 0  5.173469387755102 -0.6000000000000001 0  5.153061224489796 -0.6000000000000001 0  5.13265306122449 -0.6000000000000001 0  5.112244897959184 -0.6000000000000001 0  5.091836734693878 -0.6000000000000001 0  5.071428571428571 -0.6000000000000001 0  5.051020408163265 -0.6000000000000001 0  5.030612244897959 -0.6000000000000001 0  5.010204081632653 -0.6000000000000001 0  4.989795918367347 -0.6000000000000001 0  4.969387755102041 -0.6000000000000001 0  4.948979591836735 -0.6000000000000001 0  4.928571428571429 -0.6000000000000001 0  4.908163265306122 -0.6000000000000001 0  4.887755102040816 -0.6000000000000001 0  4.86734693877551 -0.6000000000000001 0  4.846938775510204 -0.6000000000000001 0  4.826530612244898 -0.6000000000000001 0  4.806122448979592 -0.6000000000000001 0  4.785714285714286 -0.6000000000000001 0  4.76530612244898 -0.6000000000000001 0  4.744897959183674 -0.6000000000000001 0  4.724489795918368 -0.6000000000000001 0  4.704081632653061 -0.6000000000000001 0  4.683673469387755 -0.6000000000000001 0  4.663265306122449 -0.6000000000000001 0  4.642857142857143 -0.6000000000000001 0  4.622448979591836 -0.6000000000000001 0  4.602040816326531 -0.6000000000000001 0  4.581632653061225 -0.6000000000000001 0  4.561224489795919 -0.6000000000000001 0  4.540816326530612 -0.6000000000000001 0  4.520408163265306 -0.6000000000000001 0  4.5 -0.5916666666666668 0  4.5 -0.5833333333333334 0  4.5 -0.5750000000000001 0  4.5 -0.5666666666666668 0  4.5 -0.5583333333333333 0  4.5 -0.55 0  4.5 -0.5416666666666667 0  4.5 -0.5333333333333333 0  4.5 -0.525 0  4.5 -0.5166666666666666 0  4.5 -0.5083333333333333 0  4.5 -0.4999999999999999 0  4.5 -0.4916666666666666 0  4.5 -0.4833333333333332 0  4.5 -0.4749999999999999 0  4.5 -0.4666666666666666 0  4.5 -0.4583333333333333 0  4.5 -0.45 0  4.5 -0.4416666666666667 0  4.5 -0.4333333333333333 0  4.5 -0.425 0  4.5 -0.4166666666666667 0  4.5 -0.4083333333333334 0  4.5125 -0.4 0  4.525 -0.4 0  4.5375 -0.4 0  4.55 -0.4 0  4.5625 -0.4 0  4.575 -0.4 0  4.587499999999999 -0.4 0  4.6 -0.4 0  4.6125 -0.4 0  4.625 -0.4 0  4.637499999999999 -0.4 0  4.649999999999999 -0.4 0  4.6625 -0.4 0  4.675 -0.4 0  4.6875 -0.4 0  4.699999999999999 -0.4 0  4.712499999999999 -0.4 0  4.725 -0.4 0  4.7375 -0.4 0  4.75 -0.4 0  4.7625 -0.4 0  4.774999999999999 -0.4 0  4.7875 -0.4 0  4.8 -0.3833333333333333 0  4.8 -0.3666666666666666 0  4.8 -0.3499999999999999 0  4.8 -0.3333333333333333 0  4.8 -0.3166666666666665 0  4.8 -0.2999999999999998 0  4.8 -0.2833333333333331 0  4.8 -0.2666666666666664 0  4.8 -0.2499999999999998 0  4.8 -0.2333333333333331 0  4.8 -0.2166666666666665 0  4.8 -0.1999999999999999 0  4.8 -0.1833333333333332 0  4.8 -0.1666666666666665 0  4.8 -0.1499999999999998 0  4.8 -0.1333333333333331 0  4.8 -0.1166666666666665 0  4.8 -0.09999999999999987 0  4.8 -0.0833333333333332 0  4.8 -0.06666666666666654 0  4.8 -0.04999999999999988 0  4.8 -0.03333333333333327 0  4.8 -0.01666666666666661 0  0.1378568875240437 0 0  0.2729566377271358 0 0  0.4053543934976697 0 0  0.5351041938077431 0 0  0.6622589976130751 0 0  0.7868707053643811 0 0  0.9089901789958823 0 0  1.028667263218748 0 0  1.14595080597766 0 0  1.260888678095464 0 0  1.373527792852679 0 0  1.483914125496606 0 0  1.592092731258683 0 0  1.698107764821866 0 0  1.802002497531814 0 0  1.90381933543871 0 0  2.003599837235452 0 0  2.101384728705643 0 0  2.197213922283282 0 0  2.291126532207516 0 0  2.38316088991875 0 0  2.473354560839241 0 0  2.56174435771825 0 0  2.648366358500676 0 0  2.733255919649871 0 0  2.81644768934063 0 0  2.897975623365796 0 0  2.977872999136252 0 0  3.056172427651654 0 0  3.132905867173631 0 0  3.208104637720262 0 0  3.28179943290277 0 0  3.354020331980409 0 0  3.42479681287121 0 0  3.494157764630528 0 0  3.562131497303279 0 0  3.628745754972536 0 0  3.69402772750921 0 0  3.758004060518725 0 0  3.820700866964234 0 0  3.882143737648484 0 0  3.942357751260559 0 0  4.0013674
[...]
<PointData  Vectors="displacement"> 
<DataArray  type="Float64"  Name="displacement"  NumberOfComponents="3" format="ascii">0.0000000000000000e+00 0.0000000000000000e+00 0.0000000000000000e+00  -1.6898635573772657e-03 -2.5268415249792416e-04 0.0000000000000000e+00  0.0000000000000000e+00 0.0000000000000000e+00 0.0000000000000000e+00  1.6893460983973677e-03 -2.5189744300933349e-04 0.0000000000000000e+00  0.0000000000000000e+00 -4.4364228489839532e-03 0.0000000000000000e+00  0.0000000000000000e+00 -4.4451061392655321e-03 0.0000000000000000e+00  0.0000000000000000e+00 -4.4573155828731541e-03 0.0000000000000000e+00  0.0000000000000000e+00 -6.5694797083552751e-03 0.0000000000000000e+00  0.0000000000000000e+00 -6.1050815586739630e-03 0.0000000000000000e+00  0.0000000000000000e+00 -4.4382397406656955e-03 0.0000000000000000e+00  0.0000000000000000e+00 -4.4258653717918614e-03 0.0000000000000000e+00  0.0000000000000000e+00 -4.4182597809693525e-03 0.0000000000000000e+00  -3.5178923163947461e-04 -2.7380399026875305e-04 0.0000000000000000e+00  -6.5406040929133946e-04 -3.6535477198735205e-04 0.0000000000000000e+00  -9.1449388224239551e-04 -3.8518555858790588e-04 0.0000000000000000e+00  -1.1253098235171613e-03 -3.6332903550966364e-04 0.0000000000000000e+00  -1.2871984442520497e-03 -3.2492996285426209e-04 0.0000000000000000e+00  -1.4087190626371736e-03 -2.8728758775913217e-04 0.0000000000000000e+00  -1.5052240313898387e-03 -2.6233106304958279e-04 0.0000000000000000e+00  -1.5945458014093004e-03 -2.5292294692719929e-04 0.0000000000000000e+00  0.0000000000000000e+00 0.0000000000000000e+00 0.0000000000000000e+00  0.0000000000000000e+00 0.0000000000000000e+00 0.0000000000000000e+00  0.0000000000000000e+00 0.0000000000000000e+00 0.0000000000000000e+00  0.0000000000000000e+00 0.0000000000000000e+00 0.0000000000000000e+00  0.0000000000000000e+00 0.0000000000000000e+00 0.0000000000000000e+00  0.0000000000000000e+00 0.0000000000000000e+00 0.0000000000000000e+00  0.0000000000000000e+00 0.0000000000000000e+00 0.0000000000000000e+00  0.0000000000000000e+00 0.0000000000000000e+00 0.0000000000000000e+00  0.0000000000000000e+00 0.0000000000000000e+00 0.0000000000000000e+00  0.0000000000000000e+00 0.0000000000000000e+00 0.0000000000000000e+00  0.0000000000000000e+00 0.0000000000000000e+00 0.0000000000000000e+00  0.0000000000000000e+00 0.0000000000000000e+00 0.0000000000000000e+00  0.0000000000000000e+00 0.0000000000000000e+00 0.0000000000000000e+00  0.0000000000000000e+00 0.0000000000000000e+00 0.0000000000000000e+00  0.0000000000000000e+00 0.0000000000000000e+00 0.0000000000000000e+00  0.0000000000000000e+00 0.0000000000000000e+00 0.0000000000000000e+00  0.0000000000000000e+00 0.0000000000000000e+00 0.0000000000000000e+00  0.0000000000000000e+00 0.0000000000000000e+00 0.0000000000000000e+00  0.0000000000000000e+00 0.0000000000000000e+00 0.0000000000000000e+00  0.0000000000000000e+00 0.0000000000000000e+00 0.0000000000000000e+00  0.0000000000000000e+00 0.0000000000000000e+00 0.0000000000000000e+00  0.0000000000000000e+00 0.0000000000000000e+00 0.0000000000000000e+00  0.0000000000000000e+00 0.0000000000000000e+00 0.0000000000000000e+00  0.0000000000000000e+00 0.0000000000000000e+00 0.0000000000000000e+00  0.0000000000000000e+00 0.0000000000000000e+00 0.0000000000000000e+00  0.0000000000000000e+00 0.0000000000000000e+00 0.0000000000000000e+00  0.0000000000000000e+00 0.0000000000000000e+00 0.0000000000000000e+00  0.0000000000000000e+00 0.0000000000000000e+00 0.0000000000000000e+00  0.0000000000000000e+00 0.0000000000000000e+00 0.0000000000000000e+00  0.0000000000000000e+00 0.0000000000000000e+00 0.0000000000000000e+00  0.0000000000000000e+00 0.0000000000000000e+00 0.0000000000000000e+00  0.0000000000000000e+00 0.0000000000000000e+00 0.0000000000000000e+00  0.0000000000000000e+00 0.0000000000000000e+00 0.0000000000000000e+00  0.0000000000000000e+00 0.0000000000000000e+00 0.0000000000000000e+00  0.0000000000000000e+00 0.0000000000000000e+00 0.0000000000000000e+00  0.0000000000000000e+00 0.0000000000000000e+00 0.0000000000000000e+00  0.0000000000000000e+00 0.0000000000000000e+00 0.0000000000000000e+00  0.0000000000000000e+00 0.0000000000000000e+00 0.0000000000000000e+00  0.0000000000000000e+00 0.0000000000000000e+00 0.0000000000000000e+00  0.0000000000000000e+00 0.0000000000000000e+00 0.0000000000000000e+00  0.0000000000000000e+00 0.0000000000000000e+00 0.0000000000000000e+00  0.0000000000000000e+00 0.0000000000000000e+00 0.0000000000000000e+00  0.0000000000000000e+00 0.0000000000000000e+00 0.0000000000000000e+00  0.0000000000000000e+00 0.0000000000000000e+00 0.0000000000000000e+00  0.0000000000000000e+00 0.0000000000000000e+00 0.0000000000000000e+00  0.0000000000000000e+00 0.0000000000000000e+00 0.0000000000000000e+00  0.0000000000000000e+00 0.0000000000000000e+00 0.0000000000000000e+00  0.0000000000000000e+00 0.0000000000000000e+00 0.0000000000000000e+00  0.0000000000000000e+00 0.0000000000000000e+00 0.0000000000000000e+00  0.0000000000000000e+00 0.0000000000000000e+00 0.0000000000000000e+00  0.0000000000000000e+00 0.0000000000000000e+00 0.0000000000000000e+00  0.0000000000000000e+00 0.0000000000000000e+00 0.0000000000000000e+00  0.0000000000000000e+00 0.0000000000000000e+00 0.0000000000000000e+00  0.0000000000000000e+00 0.0000000000000000e+00 0.0000000000000000e+00  0.0000000000000000e+00 0.0000000000000000e+00 0.0000000000000000e+00  0.0000000000000000e+00 0.0000000000000000e+00 0.0000000000000000e+00  0.0000000000000000e+00 0.0000000000000000e+00 0.0000000000000000e+00  0.0000000000000000e+00 0.0000000000000000e+00 0.0000000000000000e+00  0.0000000000000000e+00 0.0000000000000000e+00 0.0000000000000000e+00  0.0000000000000000e+00 0.0000000000000000e+00 0.0000000000000000e+00  0.0000000000000000e+00 0.0000000000000000e+00 0.0000000000000000e+00  0.0000000000000000e+00 0.0000000000000000e+00 0.0000000000000000e+00  0.0000000000000000e+00 0.0000000000000000e+00 0.0000000000000000e+00  0.0000000000000000e+00 0.0000000000000000e+00 0.0000000000000000e+00  0.0000000000000000e+00 0.0000000000000000e+00 0.0000000000000000e+00  0.0000000000000000e+00 0.0000000000000000e+00 0.0000000000000000e+00  0.0000000000000000e+00 0.0000000000000000e+00 0.0000000000000000e+00  0.0000000000000000e+00 0.0000000000000000e+00 0.0000000000000000e+00  0.0000000000000000e+00 0.0000000000000000e+00 0.0000000000000000e+00  0.0000000000000000e+00 0.0000000000000000e+00 0.0000000000000000e+00  0.0000000000000000e+00 0.0000000000000000e+00 0.0000000000000000e+00  0.0000000000000000e+00 0.0000000000000000e+00 0.0000000000000000e+00  0.0000000000000000e+00 0.0000000000000000e+00 0.0000000000000000e+00  0.0000000000000000e+00 0.0000000000000000e+00 0.0000000000000000e+00  0.0000000000000000e+00 0.0000000000000000e+00 0.0000000000000000e+00  0.0000000000000000e+00 0.0000000000000000e+00 0.0000000000000000e+00  0.0000000000000000e+00 0.0000000000000000e+00 0.0000000000000000e+00  0.0000000000000000e+00 0.0000000000000000e+00 0.0000000000000000e+00  1.5941253950094326e-03 -2.5214903711609022e-04 0.0000000000000000e+00  1.5050857957753462e-03 -2.6148254451946815e-04 0.0000000000000000e+00  1.4087772007222422e-03 -2.8653693445784617e-04 0.0000000000000000e+00  1.2875130502988544e-03 -3.2431471739507734e-04 0.0000000000000000e+00  1.1257720682304143e-03 -3.6270552335592425e-04 0.0000000000000000e+00  9.1484739897263075e-04 -3.8521771013181575e-04 0.0000000000000000e+00  6.5427620846768048e-04 -3.6549013607134364e-04 0.0000000000000000e+00  3.5227786648686941e-04 -2.7362222349384561e-04 0.0000000000000000e+00  -3.3281866317290456e-05 -4.4344542218072444e-03 0.0000000000000000e+00  -6.8483048248096817e-05 -4.4280714149069148e-03 0.0000000000000000e+00  -1.0681079060204102e-04 -4.4160694023031161e-03 0.0000000000000000e+00  -1.4953096847792244e-04 -4.3963752930424828e-03 0.0000000000000000e+00  -1.9758400527492503e-04 -4.3659035025446066e-03 0.0000000000000000e+00  -2.5120180894897367e-04 -4.3207406587264935e-03 0.0000000000000000e+00  -3.0945217429162165e-04 -4.2562682042813806e-03 0.0000000000000000e+00  -3.7004434477934920e-04 -4.1680537345734668e-03 0.0000000000000000e+00  -4.2922576109845887e-04 -4.0528011594258328e-03 0.0000000000000000e+00  -4.8244458792926328e-04 -3.9090744189456527e-03 0.0000000000000000e+00  -5.2489632748338596e-04 -3.7378695805478303e-03 0.0000000000000000e+00  -5.5273045416847006e-04 -3.5423861881667485e-03 0.0000000000000000e+00  -5.6324924937440441e-04 -3.3274759459492858e-03 0.0000000000000000e+00  -5.5533524027911953e-04 -3.0987990703732374e-03 0.0000000000000000e+00  -5.2928085630816243e-04 -2.8621203125817349e-03 0.0000000000000000e+00  -4.8630500893552336e-04 -2.6227293073966557e-03 0.0000000000000000e+00  -4.2874040321995926e-04 -2.3852124601015301e-03 0.0000000000000000e+00  -3.5869201994810450e-04 -2.1531783934988884e-03 0.0000000000000000e+00  -2.7878035231960341e-04 -1.9293998198465193e-03 0.0000000000000000e+00  -1.9147626015833064e-04 -1.7158776847637880e-03 0.0000000000000000e+00  -9.8899804931477012e-05 -1.5139277064678235e-03 0.0000000000000000e+00  -3.0574316935444925e-06 -1.3243311137497566e-03 0.0000000000000000e+00  9.4471838711012883e-05 -1.1474764377453607e-03 0.0000000000000000e+00  1.9221816274057280e-04 -9.8343023248241503e-04 0.0000000000000000e+00  2.8915597626668759e-04 -8.3206092802796732e-04 0.0000000000000000e+00  3.8433262890202305e-04 -6.9305239741272143e-04 0.0000000000000000e+00  4.7706189757524328e-04 -5.6599887459494070e-04 0.0000000000000000e+00  5.6679582912349505e-04 -4.5042542106116918e-04 0.0000000000000000e+00  6.5320592989413437e-04 -3.4584114087923563e-04 0.0000000000000000e+00  7.3594339752778150e-04 -2.5172744636465003e-04 0.0000000000000000e+00  8.1486481338605469e-04 -1.6754993791003638e-04 0.0000000000000000e+00  8.8985646946471706e-04 -9.2808023288265708e-05 0.0000000000000000e+00  9.6087084105486503e-04 -2.7009729263603202e-05 0.0000000000000000e+00  1.0279027717893397e-03 3.0319265039786165e-05 0.0000000000000000e+00  1.0910163055618128e-03 7.9642041392402737e-05 0.0000000000000000e+00  1.1502502969584604e-03 1.2136421223325416e-04 0.0000000000000000e+00  1.2056985593955176e-03 1.5589621663744533e-04 0.0000000000000000e+00  1.2574974234677513e-03 1.8363094363237656e-04 0.0000000000000000e+00  1.3057214707116085e-03 2.0492271358993165e-04 0.0000000000000000e+00  1.3505398220167697e-03 2.2011297031623316e-04 0.0000000000000000e+00  1.3920350739928986e-03 2.2951746262874577e-04 0.0000000000000000e+00  1.4303716568711280e-03 2.3344155326885378e-04 0.0000000000000000e+00  1.4656656107224014e-03 2.3217882996196914e-04 0.0000000000000000e+00  1.4980408365924459e-03 2.2600057050627562e-04 0.0000000000000000e+00  1.5276163899064779e-03 2.1517076988119990e-04 0.0000000000000000e+00  1.5544970124291369e-03 1.9994329337939834e-04 0.0000000000000000e+00  1.5787701222431142e-03 1.8057254122872023e-04 0.0000000000000000e+00  1.6005361244852052e-03 1.5732289618152395e-04 0.0000000000000000e+00  1.6198286580738290e-03 1.3044599165835521e-04 0.0000000000000000e+00  1.6367005646366565e-03 1.0023534007881577e-04 0.0000000000000000e+00  1.6511767801050575e-03 6.7008611424099372e-05 0.0000000000000000e+00  1.6632588516238113e-03 3.1124311770646858e-05 0.0000000000000000e+00  1.6729553813313964e-03 -6.9898754026315098e-06 0.0000000000000000e+00  1.6802844146233031e-03 -4.6839297765421393e-05 0.0000000000000000e+00  1.6853127263423526e-03 -8.7837481915377483e-05 0.0000000000000000e+00  1.6882098063500973e-03 -1.2933954786345902e-04 0.0000000000000000e+00  1.6893720808618588e-03 -1.7068748709510203e-04 0.0000000000000000e+00  1.6893953012736785e-03 -2.1136633983824904e-04 0.0000000000000000e+00  0.0000000000000000e+00 -4.4418164552454554e-03 0.0000000000000000e+00  0.0000000000000000e+00 -4.4468401923184603e-03 0.0000000000000000e+00  0.0000000000000000e+00 -4.4513974660263453e-03 0.0000000000000000e+00  0.0000000000000000e+00 -4.4554185339342571e-03 0.0000000000000000e+00  0.0000000000000000e+00 -4.4588471052332632e-03 0.0000000000000000e+00  0.0000000000000000e+00 -4.4616479675787298e-03 0.0000000000000000e+00  0.0000000000000000e+00 -4.4638007497920795e-03 0.0000000000000000e+00  0.0000000000000000e+00 -4.4653009518655067e-03 0.0000000000000000e+00  0.0000000000000000e+00 -4.4661580482855002e-03 0.0000000000000000e+00  0.0000000000000000e+00 -4.4663972926939580e-03 0.0000000000000000e+00  0.0000000000000000e+00 -4.4660548130632544e-03 0.0000000000000000e+00  0.0000000000000000e+00 -4.4651839643518034e-03 0.0000000000000000e+00  0.0000000000000000e+00 -4.4638458911582350e-03 0.0000000000000000e+00  0.0000000000000000e+00 -4.4621188752966617e-03 0.0000000000000000e+00  0.0000000000000000e+00 -4.4600918881166837e-03 0.0000000000000000e+00  0.0000000000000000e+00 -4.4578569640694567e-03 0.0000000000000000e+00  0.0000000000000000e+00 -4.4555261057435402e-03 0.0000000000000000e+00  0.0000000000000000e+00 -4.4532047056671598e-03 0.0000000000000000e+00  0.0000000000000000e+00 -4.4510043066746689e-03 0.0000000000000000e+00  0.0000000000000000e+00 -4.4490304460628842e-03 0.0000000000000000e+00  0.0000000000000000e+00 -4.4473823630417891e-03 0.0000000000000000e+00  0.0000000000000000e+00 -4.4461398616245365e-03 0.0000000000000000e+00  0.0000000000000000e+00 -4.4453681480140592e-03 0.0000000000000000e+00  0.0000000000000000e+00 -4.4449057607831386e-03 0.0000000000000000e+00  0.0000000000000000e+00 -4.4443054881613004e-03 0.0000000000000000e+00  0.0000000000000000e+00 -4.4433086282241671e-03 0.0000000000000000e+00  0.0000000000000000e+00 -4.4419207041902775e-03 0.0000000000000000e+00  0.0000000000000000e+00 -4.4401498301117380e-03 0.0000000000000000e+00  0.0000000000000000e+00 -4.4380066812891245e-03 0.0000000000000000e+00  0.0000000000000000e+00 -4.4355069434753270e-03 0.0000000000000000e+00  0.0000000000000000e+00 -4.4326689833722793e-03 0.0000000000000000e+00  0.0000000000000000e+00 -4.4295164724587298e-03 0.0000000000000000e+00  0.0000000000000000e+00 -4.4260799732606000e-03 0.0000000000000000e+00  0.0000000000000000e+00 -4.4223979157579597e-03 0.0000000000000000e+00  0.0000000000000000e+00 -4.4185192303490750e-03 0.0000000000000000e+00  0.0000000000000000e+00 -4.4145060089945997e-03 0.0000000000000000e+00  0.0000000000000000e+00 -4.4104370277089546e-03 0.0000000000000000e+00  0.0000000000000000e+00 -4.4064153916779482e-03 0.0000000000000000e+00  0.0000000000000000e+00 -4.4025745302653648e-03 0.0000000000000000e+00  0.0000000000000000e+00 -4.3990958962569068e-03 0.0000000000000000e+00  0.0000000000000000e+00 -4.3962278667203395e-03 0.0000000000000000e+00  0.0000000000000000e+00 -4.3943199564188615e-03 0.0000000000000000e+00  0.0000000000000000e+00 -4.3938934346762232e-03 0.0000000000000000e+00  0.0000000000000000e+00 -4.3958120822738291e-03 0.0000000000000000e+00  0.0000000000000000e+00 -4.4015931657605100e-03 0.0000000000000000e+00  0.0000000000000000e+00 -4.4149349955830818e-03 0.0000000000000000e+00  0.0000000000000000e+00 -4.4782854602388707e-03 0.0000000000000000e+00  0.0000000000000000e+00 -4.4935317267780581e-03 0.0000000000000000e+00  0.0000000000000000e+00 -4.5078929382369780e-03 0.0000000000000000e+00  0.0000000000000000e+00 -4.5220339712046366e-03 0.0000000000000000e+00  0.0000000000000000e+00 -4.5361466782153706e-03 0.0000000000000000e+00  0.0000000000000000e+00 -4.5502717743942534e-03 0.0000000000000000e+00  0.0000000000000000e+00 -4.5644141713149702e-03 0.0000000000000000e+00  0.0000000000000000e+00 -4.5785211641985362e-03 0.0000000000000000e+00  0.0000000000000000e+00 -4.5925163309369615e-03 0.0000000000000000e+00  0.0000000000000000e+00 -4.6062868566175575e-03 0.0000000000000000e+00  0.0000000000000000e+00 -4.6196968347263735e-03 0.0000000000000000e+00  0.0000000000000000e+00 -4.6325857163051747e-03 0.0000000000000000e+00  0.0000000000000000e+00 -4.6447902782722891e-03 0.0000000000000000e+00  0.0000000000000000e+00 -4.6561653296029390e-03 0.0000000000000000e+00  0.0000000000000000e+00 -4.6666314817272684e-03 0.0000000000000000e+00  0.0000000000000000e+00 -4.6762382407023479e-03 0.0000000000000000e+00  0.0000000000000000e+00 -4.6852459142544770e-03 0.0000000000000000e+00  0.0000000000000000e+00 -4.6941824371844014e-03 0.0000000000000000e+00  0.0000000000000000e+00 -4.7038123911277699e-03 0.0000000000000000e+00  0.0000000000000000e+00 -4.7150482993974455e-03 0.0000000000000000e+00  0.0000000000000000e+00 -4.7293211391110836e-03 0.0000000000000000e+00  0.0000000000000000e+00 -4.7531436421863003e-03 0.0000000000000000e+00  0.0000000000000000e+00 -5.0224745134221423e-03 0.0000000000000000e+00  -1.2414146595229358e-03 -1.9910230408402223e-02 0.0000000000000000e+00  -1.3005990874448707e-03 -2.0056452593788913e-02 0.0000000000000000e+00  -1.2810792890929458e-03 -2.0389118992255359e-02 0.0000000000000000e+00  -1.2513617542182795e-03 -2.0702871281088046e-02 0.0000000000000000e+00  -1.2146379348102071e-03 -2.0988919656202025e-02 0.0000000000000000e+00  -1.1734767242730377e-03 -2.1250204803457209e-02 0.0000000000000000e+00  -1.1280966930519905e-03 -2.1491186635074853e-02 0.0000000000000000e+00  -1.0785602310830853e-03 -2.1714438821884174e-02 0.0000000000000000e+00  -1.0251899896970601e-03 -2.1921266991682765e-02 0.0000000000000000e+00  -9.6853767349488053e-04 -2.2112315796454000e-02 0.0000000000000000e+00  -9.0921918099545306e-04 -2.2288041557783574e-02 0.0000000000000000e+00  -8.4779228760426309e-04 -2.2448892690187426e-02 0.0000000000000000e+00  -7.8471148198691262e-04 -2.2595348393884027e-02 0.0000000000000000e+00  -7.2032381884914141e-04 -2.2727887644702394e-02 0.0000000000000000e+00  -6.5490085226045419e-04 -2.2846967326474461e-02 0.0000000000000000e+00  -5.8865364541182605e-04 -2.2953014486072825e-02 0.0000000000000000e+00  -5.2174537352132802e-04 -2.3046399205088164e-02 0.0000000000000000e+00  -4.5430623820534886e-04 -2.3127450059686628e-02 0.0000000000000000e+00  -3.8644384644271625e-04 -2.3196456702386702e-02 0.0000000000000000e+00  -3.1824800816516199e-04 -2.3253657730410250e-02 0.0000000000000000e+00  -2.4979461403800692e-04 -2.3299249500937327e-02 0.0000000000000000e+00  -1.8115400986445961e-04 -2.3333377359323865e-02 0.0000000000000000e+00  -1.1238320509716473e-04 -2.3356159600093192e-02 0.0000000000000000e+00  -4.3535840377008239e-05 -2.3367676506786610e-02 0.0000000000000000e+00  2.5325669871685586e-05 -2.3367958219003226e-02 0.0000000000000000e+00  9.4156266976765657e-05 -2.3357009383513413e-02 0.0000000000000000e+00  1.6290576148852295e-04 -2.3334797276993235e-02 0.0000000000000000e+00  2.3150806405324958e-04 -2.3301244426139883e-02 0.0000000000000000e+00  2.9991277443833155e-04 -2.3256241065291554e-02 0.0000000000000000e+00  3.6805353548252531e-04 -2.3199630881712209e-02 0.0000000000000000e+00  4.3585690313375673e-04 -2.3131221622046446e-02 0.0000000000000000e+00  5.0323268526286332e-04 -2.3050773173537507e-02 0.0000000000000000e+00  5.7007733197335722e-04 -2.2957987214181044e-02 0.0000000000000000e+00  6.3626881039919019e-04 -2.2852539115770992e-02 0.0000000000000000e+00  7.0164053291781156e-04 -2.2734038689454714e-02 0.0000000000000000e+00  7.6598625878282879e-04 -2.2602060342810478e-02 0.0000000000000000e+00  8.2904346223217084e-04 -2.2456126270533356e-02 0.0000000000000000e+00  8.9046229252774569e-04 -2.2295736272888656e-02 0.0000000000000000e+00  9.4978155146629582e-04 -2.2120386152866316e-02 0.0000000000000000e+00  1.0064858684650933e-03 -2.1929606830591326e-02 0.0000000000000000e+00  1.0599245084066803e-03 -2.1722887467248549e-02 0.0000000000000000e+00  1.1095048760824716e-03 -2.1499565586097908e-02 0.0000000000000000e+00  1.1549042942144427e-03 -2.1258245322317203e-02 0.0000000000000000e+00  1.1960359618993939e-03 -2.0996178142726623e-02 0.0000000000000000e+00  1.2325459438760386e-03 -2.0709313383546809e-02 0.0000000000000000e+00  1.2649497240954757e-03 -2.0388999952680117e-02 0.0000000000000000e+00  1.2866002559945499e-03 -2.0034261738503978e-02 0.0000000000000000e+00  1.3320482214323425e-03 -1.96202639453303