<?xml version="1.0"?>
<VTKFile type="UnstructuredGrid"  version="0.1"  >
<UnstructuredGrid>
<Piece  NumberOfPoints="6792" NumberOfCells="13154">
<Points>
<DataArray  type="Float64"  NumberOfComponents="3"  format="ascii">4.8 0 0  5.2 0 0  5.2 -0.4 0  4.8 -0.4 0  4.5 -0.4 0  5.5 -0.4 0  5.5 -0.6000000000000001 0  4.5 -0.6000000000000001 0  0 -3 0  0 0 0  10 -3 0  10 0 0  5.2 -0.01666666666666669 0  5.2 -0.03333333333333339 0  5.2 -0.05000000000000009 0  5.2 -0.06666666666666679 0  5.2 -0.0833333333333335 0  5.2 -0.1000000000000002 0  5.2 -0.1166666666666669 0  5.2 -0.1333333333333336 0  5.2 -0.1500000000000002 0  5.2 -0.1666666666666669 0  5.2 -0.1833333333333335 0  5.2 -0.2000000000000001 0  5.2 -0.2166666666666668 0  5.2 -0.2333333333333335 0  5.2 -0.2500000000000002 0  5.2 -0.2666666666666669 0  5.2 -0.2833333333333335 0  5.2 -0.3000000000000002 0  5.2 -0.3166666666666668 0  5.2 -0.3333333333333335 0  5.2 -0.3500000000000001 0  5.2 -0.3666666666666668 0  5.2 -0.3833333333333334 0  4.8 -0.3833333333333333 0  4.8 -0.3666666666666666 0  4.8 -0.3499999999999999 0  4.8 -0.3333333333333333 0  4.8 -0.3166666666666665 0  4.8 -0.2999999999999998 0  4.8 -0.2833333333333331 0  4.8 -0.2666666666666664 0  4.8 -0.2499999999999998 0  4.8 -0.2333333333333331 0  4.8 -0.2166666666666665 0  4.8 -0.1999999999999999 0  4.8 -0.1833333333333332 0  4.8 -0.1666666666666665 0  4.8 -0.1499999999999998 0  4.8 -0.1333333333333331 0  4.8 -0.1166666666666665 0  4.8 -0.09999999999999987 0  4.8 -0.0833333333333332 0  4.8 -0.06666666666666654 0  4.8 -0.04999999999999988 0  4.8 -0.03333333333333327 0  4.8 -0.01666666666666661 0  5.5 -0.4083333333333334 0  5.5 -0.4166666666666667 0  5.5 -0.425 0  5.5 -0.4333333333333334 0  5.5 -0.4416666666666668 0  5.5 -0.4500000000000001 0  5.5 -0.4583333333333334 0  5.5 -0.4666666666666668 0  5.5 -0.4750000000000001 0  5.5 -0.4833333333333335 0  5.5 -0.4916666666666668 0  5.5 -0.5000000000000002 0  5.5 -0.5083333333333335 0  5.5 -0.5166666666666668 0  5.5 -0.5250000000000002 0  5.5 -0.5333333333333335 0  5.5 -0.5416666666666669 0  5.5 -0.5500000000000002 0  5.5 -0.5583333333333335 0  5.5 -0.5666666666666668 0  5.5 -0.5750000000000002 0  5.5 -0.5833333333333335 0  5.5 -0.5916666666666668 0  5.479591836734694 -0.6000000000000001 0  5.459183673469388 -0.6000000000000001 0  5.438775510204081 -0.6000000000000001 0  5.418367346938775 -0.6000000000000001 0  5.397959183673469 -0.6000000000000001 0  5.377551020408164 -0.6000000000000001 0  5.357142857142857 -0.6000000000000001 0  5.336734693877551 -0.6000000000000001 0  5.316326530612245 -0.6000000000000001 0  5.295918367346939 -0.6000000000000001 0  5.275510204081633 -0.6000000000000001 0  5.255102040816326 -0.6000000000000001 0  5.23469387755102 -0.6000000000000001 0  5.214285714285714 -0.6000000000000001 0  5.193877551020408 -0.6000000000000001 0  5.173469387755102 -0.6000000000000001 0  5.153061224489796 -0.6000000000000001 0  5.13265306122449 -0.6000000000000001 0  5.112244897959184 -0.6000000000000001 0  5.091836734693878 -0.6000000000000001 0  5.071428571428571 -0.6000000000000001 0  5.051020408163265 -0.6000000000000001 0  5.030612244897959 -0.6000000000000001 0  5.010204081632653 -0.6000000000000001 0  4.989795918367347 -0.6000000000000001 0  4.969387755102041 -0.6000000000000001 0  4.948979591836735 -0.6000000000000001 0  4.928571428571429 -0.6000000000000001 0  4.908163265306122 -0.6000000000000001 0  4.887755102040816 -0.6000000000000001 0  4.86734693877551 -0.6000000000000001 0  4.846938775510204 -0.6000000000000001 0  4.826530612244898 -0.6000000000000001 0  4.806122448979592 -0.6000000000000001 0  4.785714285714286 -0.6000000000000001 0  4.76530612244898 -0.6000000000000001 0  4.744897959183674 -0.6000000000000001 0  4.724489795918368 -0.6000000000000001 0  4.704081632653061 -0.6000000000000001 0  4.683673469387755 -0.6000000000000001 0  4.663265306122449 -0.6000000000000001 0  4.642857142857143 -0.6000000000000001 0  4.622448979591836 -0.6000000000000001 0  4.602040816326531 -0.6000000000000001 0  4.581632653061225 -0.6000000000000001 0  4.561224489795919 -0.6000000000000001 0  4.540816326530612 -0.6000000000000001 0  4.520408163265306 -0.6000000000000001 0  4.5 -0.5916666666666668 0  4.5 -0.5833333333333334 0  4.5 -0.5750000000000001 0  4.5 -0.5666666666666668 0  4.5 -0.5583333333333333 0  4.5 -0.55 0  4.5 -0.5416666666666667 0  4.5 -0.5333333333333333 0  4.5 -0.525 0  4.5 -0.5166666666666666 0  4.5 -0.5083333333333333 0  4.5 -0.4999999999999999 0  4.5 -0.4916666666666666 0  4.5 -0.4833333333333332 0  4.5 -0.4749999999999999 0  4.5 -0.4666666666666666 0  4.5 -0.4583333333333333 0  4.5 -0.45 0  4.5 -0.4416666666666667 0  4.5 -0.4333333333333333 0  4.5 -0.425 0  4.5 -0.4166666666666667 0  4.5 -0.4083333333333334 0  0 -2.842105263157895 0  0 -2.684210526315789 0  0 -2.526315789473684 0  0 -2.368421052631579 0  0 -2.210526315789473 0  0 -2.052631578947369 0  0 -1.894736842105263 0  0 -1.736842105263158 0  0 -1.578947368421053 0  0 -1.421052631578947 0  0 -1.263157894736842 0  0 -1.105263157894737 0  0 -0.9473684210526319 0  0 -0.7894736842105265 0  0 -0.6315789473684212 0  0 -0.4736842105263159 0  0 -0.3157894736842106 0  0 -0.1578947368421053 0  9.836518447033493 -3 0  9.676485174132324 -3 0  9.519716728676565 -3 0  9.366040597429432 -3 0  9.215293522901804 -3 0  9.067325347766827 -3 0  8.921978167503752 -3 0  8.779125793186953 -3 0  8.638633440048579 -3 0  8.500376249002967 -3 0  8.364235730108557 -3 0  8.230099119300583 -3 0  8.097858693472926 -3 0  7.96741165420296 -3 0  7.838659590098249 -3 0  7.711508416266758 -3 0  7.585867779025237 -3 0  7.461651037321721 -3 0  7.338774694871047 -3 0  7.217158563845377 -3 0  7.096725097152937 -3 0  6.977399455051415 -3 0  6.859109304538208 -3 0  6.741784490575633 -3 0  6.625356935727237 -3 0  6.509760461250432 -3 0  6.394930659317325 -3 0  6.2808046903675 -3 0  6.167321173775116 -3 0  6.054420032640893 -3 0  5.942042373994132 -3 0  5.830130346471836 -3 0  5.718627047087892 -3 0  5.607476358937133 -3 0  5.496622874861212 -3 0  5.386011773348871 -3 0  5.275588701244851 -3 0  5.1652996754838 -3 0  5.055090972556302 -3 0  4.944909027443701 -3 0  4.834700324516204 -3 0  4.724411298755151 -3 0  4.613988226651132 -3 0  4.50337712513879 -3 0  4.392523641062869 -3 0  4.281372952912111 -3 0  4.169869653528168 -3 0  4.05795762600587 -3 0  3.94557996735911 -3 0  3.832678826224885 -3 0  3.719195309632506 -3 0  3.605069340682676 -3 0  3.490239538749567 -3 0  3.374643064272765 -3 0  3.25821550942437 -3 0  3.140890695461794 -3 0  3.022600544948583 -3 0  2.903274902847057 -3 0  2.782841436154621 -3 0  2.661225305128949 -3 0  2.538348962678273 -3 0  2.414132220974763 -3 0  2.288491583733238 -3 0  2.161340409901745 -3 0  2.032588345797035 -3 0  1.902141306527067 -3 0  1.76990088069941 -3 0  1.63576426989143 -3 0  1.499623750997021 -3 0  1.361366559951406 -3 0  1.220874206813038 -3 0  1.078021832496241 -3 0  0.9326746522331657 -3 0  0.7847064770981866 -3 0  0.6339594025705644 -3 0  0.4802832713234277 -3 0  0.3235148258676688 -3 0  0.1634815529665037 -3 0  10 -0.1578947368421053 0  10 -0.3157894736842105 0  10 -0.4736842105263158 0  10 -0.631578947368421 0  10 -0.7894736842105263 0  10 -0.9473684210526315 0  10 -1.105263157894737 0  10 -1.263157894736842 0  10 -1.421052631578947 0  10 -1.578947368421053 0  10 -1.736842105263158 0  10 -1.894736842105263 0  10 -2.052631578947368 0  10 -2.210526315789473 0  10 -2.368421052631579 0  10 -2.526315789473684 0  10 -2.684210526315789 0  10 -2.842105263157895 0  5.242711110728958 0 0  5.286293876649897 0 0  5.330766086621492 0 0  5.376145892152014 0 0  5.42245181646005 0 0  5.469702760230978 0 0  5.517918009047484 0 0  5.567117241926971 0 0  5.617320540136478 0 0  5.668548395689594 0 0  5.720821717944563 0 0  5.774161842706401 0 0  5.828590541705438 0 0  5.884130030266638 0 0  5.94080297745657 0 0  5.998632515975636 0 0  6.057642249464515 0 0  6.117856263073772 0 0  6.179299133754786 0 0  6.241995940196628 0 0  6.305972273202026 0 0  6.371254245734116 0 0  6.437868503398305 0 0  6.505842236065488 0 0  6.57520318781872 0 0  6.645979668702895 0 0  6.718200567773351 0 0  6.791895362948095 0 0  6.867094133486367 0 0  6.943827572999363 0 0  7.022127001505145 0 0  7.102024377265316 0 0  7.18355231127951 0 0  7.266744080958588 0 0  7.351633642095368 0 0  7.438255642858786 0 0  7.526645439729658 0 0  7.616839110635373 0 0  7.70887346833099 0 0  7.802786078238742 0 0  7.898615271798998 0 0  7.99640016325088 0 0  8.096180665028355 0 0  8.197997502914994 0 0  8.301892235603667 0 0  8.40790726914452 0 0  8.516085874883178 0 0  8.626472207502559 0 0  8.739111322234072 0 0  8.854049194324977 0 0  8.971332737055752 0 0  9.091009821249205 0 0  9.213129294849979 0 0  9.337741002569205 0 0  9.464895806341062 0 0  9.594645606616213 0 0  9.727043362350333 0 0  9.862143112515479 0 0  5.2125 -0.4 0  5.225 -0.4 0  5.2375 -0.4 0  5.25 -0.4 0  5.2625 -0.4 0  5.275 -0.4 0  5.2875 -0.4 0  5.3 -0.4 0  5.3125 -0.4 0  5.325 -0.4 0  5.337499999999999 -0.4 0  5.35 -0.4 0  5.3625 -0.4 0  5.375 -0.4 0  5.3875 -0.4 0  5.4 -0.4 0  5.4125 -0.4 0  5.425 -0.4 0  5.4375 -0.4 0  5.45 -0.4 0  5.4625 -0.4 0  5.475 -0.4 0  5.4875 -0.4 0  4.5125 -0.4 0  4.525 -0.4 0  4.5375 -0.4 0  4.55 -0.4 0  4.5625 -0.4 0  4.575 -0.4 0  4.587499999999999 -0.4 0  4.6 -0.4 0  4.6125 -0.4 0  4.625 -0.4 0  4.637499999999999 -0.4 0  4.649999999999999 -0.4 0  4.6625 -0.4 0  4.675 -0.4 0  4.6875 -0.4 0  4.699999999999999 -0.4 0  4.712499999999999 -0.4 0  4.725 -0.4 0  4.7375 -0.4 0  4.75 -0.4 0  4.7625 -0.4 0  4.774999999999999 -0.4 0  4.7875 -0.4 0  0.1378568874845195 0 0  0.2729566376496684 0 0  0.4053543933837926 0 0  0.5351041936589437 0 0  0.6622589974307957 0 0  0.7868707051500208 0 0  0.9089901787507969 0 0  1.028667262944252 0 0  1.145950805675029 0 0  1.260888677765933 0 0  1.373527792497444 0 0  1.483914125116827 0 0  1.592092730855484 0 0  1.698107764396336 0 0  1.802002497085009 0 0  1.903819334971649 0 0  2.003599836749125 0 0  2.1013847282010
[...]
<PointData  Vectors="displacement"> 
<DataArray  type="Float64"  Name="displacement"  NumberOfComponents="3" format="ascii">0.0000000000000000e+00 -1.0538760344666195e-03 0.0000000000000000e+00  0.0000000000000000e+00 -1.0541553781122641e-03 0.0000000000000000e+00  0.0000000000000000e+00 -1.0936772711479549e-03 0.0000000000000000e+00  0.0000000000000000e+00 -1.0934032798762174e-03 0.0000000000000000e+00  0.0000000000000000e+00 -1.0695396020229799e-03 0.0000000000000000e+00  0.0000000000000000e+00 -1.0697310193270601e-03 0.0000000000000000e+00  0.0000000000000000e+00 -1.3238793575774178e-03 0.0000000000000000e+00  0.0000000000000000e+00 -1.3232487673813932e-03 0.0000000000000000e+00  0.0000000000000000e+00 0.0000000000000000e+00 0.0000000000000000e+00  0.0000000000000000e+00 5.2076951165109343e-05 0.0000000000000000e+00  0.0000000000000000e+00 0.0000000000000000e+00 0.0000000000000000e+00  0.0000000000000000e+00 5.2095266510172799e-05 0.0000000000000000e+00  0.0000000000000000e+00 -1.0572206660117321e-03 0.0000000000000000e+00  0.0000000000000000e+00 -1.0601584222082300e-03 0.0000000000000000e+00  0.0000000000000000e+00 -1.0629663264787111e-03 0.0000000000000000e+00  0.0000000000000000e+00 -1.0656431662043663e-03 0.0000000000000000e+00  0.0000000000000000e+00 -1.0681886212493225e-03 0.0000000000000000e+00  0.0000000000000000e+00 -1.0706030125683329e-03 0.0000000000000000e+00  0.0000000000000000e+00 -1.0728871806315523e-03 0.0000000000000000e+00  0.0000000000000000e+00 -1.0750423688080906e-03 0.0000000000000000e+00  0.0000000000000000e+00 -1.0770700848634035e-03 0.0000000000000000e+00  0.0000000000000000e+00 -1.0789720288652167e-03 0.0000000000000000e+00  0.0000000000000000e+00 -1.0807500882387782e-03 0.0000000000000000e+00  0.0000000000000000e+00 -1.0824063377695926e-03 0.0000000000000000e+00  0.0000000000000000e+00 -1.0839430068590233e-03 0.0000000000000000e+00  0.0000000000000000e+00 -1.0853624707575953e-03 0.0000000000000000e+00  0.0000000000000000e+00 -1.0866673708515987e-03 0.0000000000000000e+00  0.0000000000000000e+00 -1.0878605164176232e-03 0.0000000000000000e+00  0.0000000000000000e+00 -1.0889448570722761e-03 0.0000000000000000e+00  0.0000000000000000e+00 -1.0899234174762283e-03 0.0000000000000000e+00  0.0000000000000000e+00 -1.0907989994896859e-03 0.0000000000000000e+00  0.0000000000000000e+00 -1.0915740047005545e-03 0.0000000000000000e+00  0.0000000000000000e+00 -1.0922499980558209e-03 0.0000000000000000e+00  0.0000000000000000e+00 -1.0928272222170848e-03 0.0000000000000000e+00  0.0000000000000000e+00 -1.0933041898645982e-03 0.0000000000000000e+00  0.0000000000000000e+00 -1.0930289492764337e-03 0.0000000000000000e+00  0.0000000000000000e+00 -1.0925508103049682e-03 0.0000000000000000e+00  0.0000000000000000e+00 -1.0919724831017787e-03 0.0000000000000000e+00  0.0000000000000000e+00 -1.0912954928528648e-03 0.0000000000000000e+00  0.0000000000000000e+00 -1.0905195654352128e-03 0.0000000000000000e+00  0.0000000000000000e+00 -1.0896431572182683e-03 0.0000000000000000e+00  0.0000000000000000e+00 -1.0886638705618680e-03 0.0000000000000000e+00  0.0000000000000000e+00 -1.0875788840429353e-03 0.0000000000000000e+00  0.0000000000000000e+00 -1.0863852189189581e-03 0.0000000000000000e+00  0.0000000000000000e+00 -1.0850798702364513e-03 0.0000000000000000e+00  0.0000000000000000e+00 -1.0836600629661576e-03 0.0000000000000000e+00  0.0000000000000000e+00 -1.0821231473620975e-03 0.0000000000000000e+00  0.0000000000000000e+00 -1.0804667460725581e-03 0.0000000000000000e+00  0.0000000000000000e+00 -1.0786885862061318e-03 0.0000000000000000e+00  0.0000000000000000e+00 -1.0767866463725641e-03 0.0000000000000000e+00  0.0000000000000000e+00 -1.0747590646606462e-03 0.0000000000000000e+00  0.0000000000000000e+00 -1.0726040475225705e-03 0.0000000000000000e+00  0.0000000000000000e+00 -1.0703201448610544e-03 0.0000000000000000e+00  0.0000000000000000e+00 -1.0679061209840277e-03 0.0000000000000000e+00  0.0000000000000000e+00 -1.0653611164810821e-03 0.0000000000000000e+00  0.0000000000000000e+00 -1.0626847872219041e-03 0.0000000000000000e+00  0.0000000000000000e+00 -1.0598775211595498e-03 0.0000000000000000e+00  0.0000000000000000e+00 -1.0569404909821279e-03 0.0000000000000000e+00  0.0000000000000000e+00 -1.0749779289307851e-03 0.0000000000000000e+00  0.0000000000000000e+00 -1.0789698071511191e-03 0.0000000000000000e+00  0.0000000000000000e+00 -1.0829577160217352e-03 0.0000000000000000e+00  0.0000000000000000e+00 -1.0870660656208044e-03 0.0000000000000000e+00  0.0000000000000000e+00 -1.0913531157041440e-03 0.0000000000000000e+00  0.0000000000000000e+00 -1.0958499344235603e-03 0.0000000000000000e+00  0.0000000000000000e+00 -1.1005829587256339e-03 0.0000000000000000e+00  0.0000000000000000e+00 -1.1055776383952450e-03 0.0000000000000000e+00  0.0000000000000000e+00 -1.1108565945674180e-03 0.0000000000000000e+00  0.0000000000000000e+00 -1.1164501726111441e-03 0.0000000000000000e+00  0.0000000000000000e+00 -1.1223877178403686e-03 0.0000000000000000e+00  0.0000000000000000e+00 -1.1287053045342798e-03 0.0000000000000000e+00  0.0000000000000000e+00 -1.1354447204872996e-03 0.0000000000000000e+00  0.0000000000000000e+00 -1.1426591474103156e-03 0.0000000000000000e+00  0.0000000000000000e+00 -1.1504062055504788e-03 0.0000000000000000e+00  0.0000000000000000e+00 -1.1587657923965951e-03 0.0000000000000000e+00  0.0000000000000000e+00 -1.1678353774743271e-03 0.0000000000000000e+00  0.0000000000000000e+00 -1.1777502679890717e-03 0.0000000000000000e+00  0.0000000000000000e+00 -1.1886833705838542e-03 0.0000000000000000e+00  0.0000000000000000e+00 -1.2008864344289431e-03 0.0000000000000000e+00  0.0000000000000000e+00 -1.2147638211201790e-03 0.0000000000000000e+00  0.0000000000000000e+00 -1.2309217576528368e-03 0.0000000000000000e+00  0.0000000000000000e+00 -1.2517643045422094e-03 0.0000000000000000e+00  -1.1339161404888827e-04 -1.4962025577564286e-03 0.0000000000000000e+00  -1.2589253827478909e-04 -1.6035668444043031e-03 0.0000000000000000e+00  -1.3088141368790087e-04 -1.6865858626009293e-03 0.0000000000000000e+00  -1.3238623900682626e-04 -1.7569686994730487e-03 0.0000000000000000e+00  -1.3161647629384400e-04 -1.8184318582964757e-03 0.0000000000000000e+00  -1.2926010262161668e-04 -1.8729834576944918e-03 0.0000000000000000e+00  -1.2575004670781998e-04 -1.9218729101559671e-03 0.0000000000000000e+00  -1.2132207426215108e-04 -1.9659395607603807e-03 0.0000000000000000e+00  -1.1620513415181211e-04 -2.0058244348197161e-03 0.0000000000000000e+00  -1.1051036333711487e-04 -2.0419653729487940e-03 0.0000000000000000e+00  -1.0434761811752800e-04 -2.0747182797896434e-03 0.0000000000000000e+00  -9.7794980340100093e-05 -2.1043603290834523e-03 0.0000000000000000e+00  -9.0914919427848191e-05 -2.1311151079482448e-03 0.0000000000000000e+00  -8.3757256816902032e-05 -2.1551622656630137e-03 0.0000000000000000e+00  -7.6366789214804112e-05 -2.1766504223467579e-03 0.0000000000000000e+00  -6.8777972600824676e-05 -2.1957021186901023e-03 0.0000000000000000e+00  -6.1021078140781630e-05 -2.2124183097294672e-03 0.0000000000000000e+00  -5.3124024713227370e-05 -2.2268828924464548e-03 0.0000000000000000e+00  -4.5110280030027466e-05 -2.2391647528562601e-03 0.0000000000000000e+00  -3.7001339001376741e-05 -2.2493201490696073e-03 0.0000000000000000e+00  -2.8815858334493404e-05 -2.2573931585802417e-03 0.0000000000000000e+00  -2.0572210089375423e-05 -2.2634189050521900e-03 0.0000000000000000e+00  -1.2289203322874369e-05 -2.2674227332203870e-03 0.0000000000000000e+00  -3.9811414302802184e-06 -2.2694205604442334e-03 0.0000000000000000e+00  4.3347494391602439e-06 -2.2694209114504172e-03 0.0000000000000000e+00  1.2642897053862931e-05 -2.2674238290433992e-03 0.0000000000000000e+00  2.0927695988426347e-05 -2.2634212337669427e-03 0.0000000000000000e+00  2.9172053571265297e-05 -2.2573964685120664e-03 0.0000000000000000e+00  3.7358249170835017e-05 -2.2493236666225021e-03 0.0000000000000000e+00  4.5470598726614413e-05 -2.2391698053178108e-03 0.0000000000000000e+00  5.3487359759171907e-05 -2.2268891491655611e-03 0.0000000000000000e+00  6.1387930486199417e-05 -2.2124256856508504e-03 0.0000000000000000e+00  6.9146509812405716e-05 -2.1957089745775998e-03 0.0000000000000000e+00  7.6741161925219519e-05 -2.1766590388186879e-03 0.0000000000000000e+00  8.4137669274325573e-05 -2.1551723388032636e-03 0.0000000000000000e+00  9.1300466278611774e-05 -2.1311261742058799e-03 0.0000000000000000e+00  9.8185377589302432e-05 -2.1043706420070560e-03 0.0000000000000000e+00  1.0474861041123918e-04 -2.0747310839807358e-03 0.0000000000000000e+00  1.1092218365100171e-04 -2.0419808741684886e-03 0.0000000000000000e+00  1.1662026734995422e-04 -2.0058380628354472e-03 0.0000000000000000e+00  1.2175919752231519e-04 -1.9659629128528887e-03 0.0000000000000000e+00  1.2619096557376876e-04 -1.9218892637835202e-03 0.0000000000000000e+00  1.2972755707211801e-04 -1.8730033714061739e-03 0.0000000000000000e+00  1.3209357702215620e-04 -1.8184499946801653e-03 0.0000000000000000e+00  1.3288876504696104e-04 -1.7569929947992549e-03 0.0000000000000000e+00  1.3139693955309007e-04 -1.6865911527855588e-03 0.0000000000000000e+00  1.2633628448612509e-04 -1.6034475988624987e-03 0.0000000000000000e+00  1.1325022677221936e-04 -1.4959120472817925e-03 0.0000000000000000e+00  0.0000000000000000e+00 -1.2511527018442318e-03 0.0000000000000000e+00  0.0000000000000000e+00 -1.2303886475988782e-03 0.0000000000000000e+00  0.0000000000000000e+00 -1.2142728661891763e-03 0.0000000000000000e+00  0.0000000000000000e+00 -1.2004402655626935e-03 0.0000000000000000e+00  0.0000000000000000e+00 -1.1882618037331247e-03 0.0000000000000000e+00  0.0000000000000000e+00 -1.1773546149736324e-03 0.0000000000000000e+00  0.0000000000000000e+00 -1.1674620642372015e-03 0.0000000000000000e+00  0.0000000000000000e+00 -1.1584063918650466e-03 0.0000000000000000e+00  0.0000000000000000e+00 -1.1500594894937248e-03 0.0000000000000000e+00  0.0000000000000000e+00 -1.1423251316445846e-03 0.0000000000000000e+00  0.0000000000000000e+00 -1.1351233354257677e-03 0.0000000000000000e+00  0.0000000000000000e+00 -1.1283929926544131e-03 0.0000000000000000e+00  0.0000000000000000e+00 -1.1220838907349412e-03 0.0000000000000000e+00  0.0000000000000000e+00 -1.1161551661868728e-03 0.0000000000000000e+00  0.0000000000000000e+00 -1.1105690564698187e-03 0.0000000000000000e+00  0.0000000000000000e+00 -1.1052961331923918e-03 0.0000000000000000e+00  0.0000000000000000e+00 -1.1003090776101219e-03 0.0000000000000000e+00  0.0000000000000000e+00 -1.0955819054604104e-03 0.0000000000000000e+00  0.0000000000000000e+00 -1.0910913302661174e-03 0.0000000000000000e+00  0.0000000000000000e+00 -1.0868120574594130e-03 0.0000000000000000e+00  0.0000000000000000e+00 -1.0827090812812832e-03 0.0000000000000000e+00  0.0000000000000000e+00 -1.0787329127320241e-03 0.0000000000000000e+00  0.0000000000000000e+00 -1.0747505575221341e-03 0.0000000000000000e+00  0.0000000000000000e+00 3.1402647741884100e-07 0.0000000000000000e+00  0.0000000000000000e+00 1.7944344296285071e-06 0.0000000000000000e+00  0.0000000000000000e+00 4.3002973568921818e-06 0.0000000000000000e+00  0.0000000000000000e+00 7.6594650804723611e-06 0.0000000000000000e+00  0.0000000000000000e+00 1.1696052910095391e-05 0.0000000000000000e+00  0.0000000000000000e+00 1.6223829125740487e-05 0.0000000000000000e+00  0.0000000000000000e+00 2.1042417038307702e-05 0.0000000000000000e+00  0.0000000000000000e+00 2.5969841660176275e-05 0.0000000000000000e+00  0.0000000000000000e+00 3.0822061509920581e-05 0.0000000000000000e+00  0.0000000000000000e+00 3.5432178422743806e-05 0.0000000000000000e+00  0.0000000000000000e+00 3.9655935925620180e-05 0.0000000000000000e+00  0.0000000000000000e+00 4.3370978918622175e-05 0.0000000000000000e+00  0.0000000000000000e+00 4.6479751801636766e-05 0.0000000000000000e+00  0.0000000000000000e+00 4.8926058811475782e-05 0.0000000000000000e+00  0.0000000000000000e+00 5.0688892166644761e-05 0.0000000000000000e+00  0.0000000000000000e+00 5.1790887776444247e-05 0.0000000000000000e+00  0.0000000000000000e+00 5.2301572282957940e-05 0.0000000000000000e+00  0.0000000000000000e+00 5.2341568099073798e-05 0.0000000000000000e+00  0.0000000000000000e+00 0.0000000000000000e+00 0.0000000000000000e+00  0.0000000000000000e+00 0.0000000000000000e+00 0.0000000000000000e+00  0.0000000000000000e+00 0.0000000000000000e+00 0.0000000000000000e+00  0.0000000000000000e+00 0.0000000000000000e+00 0.0000000000000000e+00  0.0000000000000000e+00 0.0000000000000000e+00 0.0000000000000000e+00  0.0000000000000000e+00 0.0000000000000000e+00 0.0000000000000000e+00  0.0000000000000000e+00 0.0000000000000000e+00 0.0000000000000000e+00  0.0000000000000000e+00 0.0000000000000000e+00 0.0000000000000000e+00  0.0000000000000000e+00 0.0000000000000000e+00 0.0000000000000000e+00  0.0000000000000000e+00 0.0000000000000000e+00 0.0000000000000000e+00  0.0000000000000000e+00 0.0000000000000000e+00 0.0000000000000000e+00  0.0000000000000000e+00 0.0000000000000000e+00 0.0000000000000000e+00  0.0000000000000000e+00 0.0000000000000000e+00 0.0000000000000000e+00  0.0000000000000000e+00 0.0000000000000000e+00 0.0000000000000000e+00  0.0000000000000000e+00 0.0000000000000000e+00 0.0000000000000000e+00  0.0000000000000000e+00 0.0000000000000000e+00 0.0000000000000000e+00  0.0000000000000000e+00 0.0000000000000000e+00 0.0000000000000000e+00  0.0000000000000000e+00 0.0000000000000000e+00 0.0000000000000000e+00  0.0000000000000000e+00 0.0000000000000000e+00 0.0000000000000000e+00  0.0000000000000000e+00 0.0000000000000000e+00 0.0000000000000000e+00  0.0000000000000000e+00 0.0000000000000000e+00 0.0000000000000000e+00  0.0000000000000000e+00 0.0000000000000000e+00 0.0000000000000000e+00  0.0000000000000000e+00 0.0000000000000000e+00 0.0000000000000000e+00  0.0000000000000000e+00 0.0000000000000000e+00 0.0000000000000000e+00  0.0000000000000000e+00 0.0000000000000000e+00 0.0000000000000000e+00  0.0000000000000000e+00 0.0000000000000000e+00 0.0000000000000000e+00  0.0000000000000000e+00 0.0000000000000000e+00 0.0000000000000000e+00  0.0000000000000000e+00 0.0000000000000000e+00 0.0000000000000000e+00  0.0000000000000000e+00 0.0000000000000000e+00 0.0000000000000000e+00  0.0000000000000000e+00 0.0000000000000000e+00 0.0000000000000000e+00  0.0000000000000000e+00 0.0000000000000000e+00 0.0000000000000000e+00  0.0000000000000000e+00 0.0000000000000000e+00 0.0000000000000000e+00  0.0000000000000000e+00 0.0000000000000000e+00 0.0000000000000000e+00  0.0000000000000000e+00 0.0000000000000000e+00 0.0000000000000000e+00  0.0000000000000000e+00 0.0000000000000000e+00 0.0000000000000000e+00  0.0000000000000000e+00 0.0000000000000000e+00 0.0000000000000000e+00  0.0000000000000000e+00 0.0000000000000000e+00 0.0000000000000000e+00  0.0000000000000000e+00 0.0000000000000000e+00 0.0000000000000000e+00  0.0000000000000000e+00 0.0000000000000000e+00 0.0000000000000000e+00  0.0000000000000000e+00 0.0000000000000000e+00 0.0000000000000000e+00  0.0000000000000000e+00 0.0000000000000000e+00 0.0000000000000000e+00  0.0000000000000000e+00 0.0000000000000000e+00 0.0000000000000000e+00  0.0000000000000000e+00 0.0000000000000000e+00 0.0000000000000000e+00  0.0000000000000000e+00 0.0000000000000000e+00 0.0000000000000000e+00  0.0000000000000000e+00 0.0000000000000000e+00 0.0000000000000000e+00  0.0000000000000000e+00 0.0000000000000000e+00 0.0000000000000000e+00  0.0000000000000000e+00 0.0000000000000000e+00 0.0000000000000000e+00  0.0000000000000000e+00 0.0000000000000000e+00 0.0000000000000000e+00  0.0000000000000000e+00 0.0000000000000000e+00 0.0000000000000000e+00  0.0000000000000000e+00 0.0000000000000000e+00 0.0000000000000000e+00  0.0000000000000000e+00 0.0000000000000000e+00 0.0000000000000000e+00  0.0000000000000000e+00 0.0000000000000000e+00 0.0000000000000000e+00  0.0000000000000000e+00 0.0000000000000000e+00 0.0000000000000000e+00  0.0000000000000000e+00 0.0000000000000000e+00 0.0000000000000000e+00  0.0000000000000000e+00 0.0000000000000000e+00 0.0000000000000000e+00  0.0000000000000000e+00 0.0000000000000000e+00 0.0000000000000000e+00  0.0000000000000000e+00 0.0000000000000000e+00 0.0000000000000000e+00  0.0000000000000000e+00 0.0000000000000000e+00 0.0000000000000000e+00  0.0000000000000000e+00 0.0000000000000000e+00 0.0000000000000000e+00  0.0000000000000000e+00 0.0000000000000000e+00 0.0000000000000000e+00  0.0000000000000000e+00 0.0000000000000000e+00 0.0000000000000000e+00  0.0000000000000000e+00 0.0000000000000000e+00 0.0000000000000000e+00  0.0000000000000000e+00 0.0000000000000000e+00 0.0000000000000000e+00  0.0000000000000000e+00 0.0000000000000000e+00 0.0000000000000000e+00  0.0000000000000000e+00 0.0000000000000000e+00 0.0000000000000000e+00  0.0000000000000000e+00 0.0000000000000000e+00 0.0000000000000000e+00  0.0000000000000000e+00 0.0000000000000000e+00 0.0000000000000000e+00  0.0000000000000000e+00 0.0000000000000000e+00 0.0000000000000000e+00  0.0000000000000000e+00 0.0000000000000000e+00 0.0000000000000000e+00  0.0000000000000000e+00 0.0000000000000000e+00 0.0000000000000000e+00  0.0000000000000000e+00 0.0000000000000000e+00 0.0000000000000000e+00  0.0000000000000000e+00 0.0000000000000000e+00 0.0000000000000000e+00  0.0000000000000000e+00 0.0000000000000000e+00 0.0000000000000000e+00  0.0000000000000000e+00 0.0000000000000000e+00 0.0000000000000000e+00  0.0000000000000000e+00 0.0000000000000000e+00 0.0000000000000000e+00  0.0000000000000000e+00 0.0000000000000000e+00 0.0000000000000000e+00  0.0000000000000000e+00 0.0000000000000000e+00 0.0000000000000000e+00  0.0000000000000000e+00 0.0000000000000000e+00 0.0000000000000000e+00  0.0000000000000000e+00 5.2358020939290946e-05 0.0000000000000000e+00  0.0000000000000000e+00 5.2317157655939031e-05 0.0000000000000000e+00  0.0000000000000000e+00 5.1805391686305483e-05 0.0000000000000000e+00  0.0000000000000000e+00 5.0700594762466537e-05 0.0000000000000000e+00  0.0000000000000000e+00 4.8936439252576031e-05 0.0000000000000000e+00  0.0000000000000000e+00 4.6488548107566054e-05 0.0000000000000000e+00  0.0000000000000000e+00 4.3377382395487862e-05 0.0000000000000000e+00  0.0000000000000000e+00 3.9661769332886187e-05 0.0000000000000000e+00  0.0000000000000000e+00 3.5437514401204568e-05 0.0000000000000000e+00  0.0000000000000000e+00 3.0823825032747821e-05 0.0000000000000000e+00  0.0000000000000000e+00 2.5970400014242288e-05 0.0000000000000000e+00  0.0000000000000000e+00 2.1045157551297237e-05 0.0000000000000000e+00  0.0000000000000000e+00 1.6222923968512254e-05 0.0000000000000000e+00  0.0000000000000000e+00 1.1697145150255518e-05 0.0000000000000000e+00  0.0000000000000000e+00 7.6588163244103110e-06 0.0000000000000000e+00  0.0000000000000000e+00 4.2983718264002369e-06 0.0000000000000000e+00  0.0000000000000000e+00 1.7931415914044142e-06 0.0000000000000000e+00  0.0000000000000000e+00 3.1329673115933090e-07 0.0000000000000000e+00  -1.8708658455988929e-05 -1.0532044888887642e-03 0.0000000000000000e+00  -3.7839636597998940e-05 -1.0502535773320725e-03 0.0000000000000000e+00  -5.7431419781105770e-05 -1.0451183501162615e-03 0.0000000000000000e+00  -7.7502042651026582e-05 -1.0375591988867894e-03 0.0000000000000000e+00  -9.8024104566533799e-05 -1.0272829076081380e-03 0.0000000000000000e+00  -1.1889472137445442e-04 -1.0139567599525162e-03 0.0000000000000000e+00  -1.3989303010117799e-04 -9.9724711328224506e-04 0.0000000000000000e+00  -1.6072135116687120e-04 -9.7686920162091354e-04 0.0000000000000000e+00  -1.8094763493475477e-04 -9.5264894819804445e-04 0.0000000000000000e+00  -2.0006510639551084e-04 -9.2457770643762627e-04 0.0000000000000000e+00  -2.1761525111076282e-04 -8.9282648580809101e-04 0.0000000000000000e+00  -2.3313453902501537e-04 -8.5774915123532796e-04 0.0000000000000000e+00  -2.4627489020017729e-04 -8.1984788252175464e-04 0.0000000000000000e+00  -2.5682860292862246e-04 -7.7972454976167507e-04 0.0000000000000000e+00  -2.6469234201111801e-04 -7.3799665386317409e-04 0.0000000000000000e+00  -2.6