<?xml version="1.0"?>
<VTKFile type="UnstructuredGrid"  version="0.1"  >
<UnstructuredGrid>
<Piece  NumberOfPoints="1250" NumberOfCells="2352">
<Points>
<DataArray  type="Float64"  NumberOfComponents="3"  format="ascii">0 0 0  0.0336 0 0  0.0336 0.07729999999999999 0  0 0.07729999999999999 0  0.001400000000000002 0 0  0.002800000000000005 0 0  0.004200000000000008 0 0  0.005600000000000009 0 0  0.007000000000000011 0 0  0.008400000000000013 0 0  0.009800000000000019 0 0  0.01120000000000002 0 0  0.01260000000000003 0 0  0.01400000000000003 0 0  0.01540000000000004 0 0  0.01680000000000005 0 0  0.01820000000000004 0 0  0.01960000000000004 0 0  0.02100000000000004 0 0  0.02240000000000003 0 0  0.02380000000000003 0 0  0.02520000000000002 0 0  0.02660000000000002 0 0  0.02800000000000001 0 0  0.02940000000000001 0 0  0.03080000000000001 0 0  0.0322 0 0  0.0336 0.001577551020408161 0  0.0336 0.003155102040816321 0  0.0336 0.004732653061224482 0  0.0336 0.006310204081632642 0  0.0336 0.007887755102040803 0  0.0336 0.009465306122448964 0  0.0336 0.01104285714285712 0  0.0336 0.01262040816326528 0  0.0336 0.01419795918367344 0  0.0336 0.0157755102040816 0  0.0336 0.01735306122448976 0  0.0336 0.01893061224489792 0  0.0336 0.02050816326530608 0  0.0336 0.02208571428571425 0  0.0336 0.02366326530612241 0  0.0336 0.02524081632653058 0  0.0336 0.02681836734693874 0  0.0336 0.02839591836734691 0  0.0336 0.02997346938775507 0  0.0336 0.03155102040816323 0  0.0336 0.0331285714285714 0  0.0336 0.03470612244897956 0  0.0336 0.03628367346938772 0  0.0336 0.03786122448979588 0  0.0336 0.03943877551020405 0  0.0336 0.04101632653061221 0  0.0336 0.04259387755102037 0  0.0336 0.04417142857142854 0  0.0336 0.04574897959183671 0  0.0336 0.04732653061224486 0  0.0336 0.04890408163265302 0  0.0336 0.05048163265306119 0  0.0336 0.05205918367346936 0  0.0336 0.05363673469387752 0  0.0336 0.05521428571428568 0  0.0336 0.05679183673469385 0  0.0336 0.05836938775510202 0  0.0336 0.05994693877551018 0  0.0336 0.06152448979591834 0  0.0336 0.0631020408163265 0  0.0336 0.06467959183673468 0  0.0336 0.06625714285714283 0  0.0336 0.06783469387755101 0  0.0336 0.06941224489795916 0  0.0336 0.07098979591836733 0  0.0336 0.07256734693877549 0  0.0336 0.07414489795918365 0  0.0336 0.07572244897959182 0  0.03219999999999999 0.07729999999999999 0  0.03079999999999999 0.07729999999999999 0  0.02939999999999999 0.07729999999999999 0  0.02799999999999999 0.07729999999999999 0  0.02659999999999999 0.07729999999999999 0  0.02519999999999999 0.07729999999999999 0  0.02379999999999998 0.07729999999999999 0  0.02239999999999998 0.07729999999999999 0  0.02099999999999997 0.07729999999999999 0  0.01959999999999996 0.07729999999999999 0  0.01819999999999996 0.07729999999999999 0  0.01679999999999995 0.07729999999999999 0  0.01539999999999996 0.07729999999999999 0  0.01399999999999996 0.07729999999999999 0  0.01259999999999996 0.07729999999999999 0  0.01119999999999997 0.07729999999999999 0  0.009799999999999972 0.07729999999999999 0  0.008399999999999977 0.07729999999999999 0  0.006999999999999978 0.07729999999999999 0  0.005599999999999983 0.07729999999999999 0  0.004199999999999988 0.07729999999999999 0  0.00279999999999999 0.07729999999999999 0  0.001399999999999998 0.07729999999999999 0  0 0.07572244897959184 0  0 0.07414489795918368 0  0 0.07256734693877551 0  0 0.07098979591836735 0  0 0.06941224489795919 0  0 0.06783469387755103 0  0 0.06625714285714288 0  0 0.06467959183673472 0  0 0.06310204081632656 0  0 0.0615244897959184 0  0 0.05994693877551023 0  0 0.05836938775510207 0  0 0.05679183673469392 0  0 0.05521428571428574 0  0 0.05363673469387759 0  0 0.05205918367346941 0  0 0.05048163265306126 0  0 0.04890408163265308 0  0 0.04732653061224493 0  0 0.04574897959183676 0  0 0.0441714285714286 0  0 0.04259387755102043 0  0 0.04101632653061228 0  0 0.03943877551020411 0  0 0.03786122448979595 0  0 0.03628367346938779 0  0 0.03470612244897962 0  0 0.03312857142857146 0  0 0.03155102040816329 0  0 0.02997346938775513 0  0 0.02839591836734697 0  0 0.0268183673469388 0  0 0.02524081632653064 0  0 0.02366326530612247 0  0 0.02208571428571431 0  0 0.02050816326530614 0  0 0.01893061224489798 0  0 0.01735306122448981 0  0 0.01577551020408165 0  0 0.01419795918367349 0  0 0.01262040816326532 0  0 0.01104285714285716 0  0 0.009465306122448988 0  0 0.00788775510204083 0  0 0.006310204081632659 0  0 0.004732653061224501 0  0 0.003155102040816343 0  0 0.001577551020408172 0  0.001400000000000004 0.001577551020408172 0  0.001400000000000004 0.003155102040816329 0  0.001400000000000002 0.004732653061224501 0  0.001400000000000002 0.006310204081632645 0  0.001400000000000005 0.007887755102040823 0  0.001400000000000002 0.009465306122448981 0  0.001400000000000002 0.01104285714285717 0  0.001400000000000004 0.01262040816326531 0  0.0014 0.01419795918367349 0  0.001400000000000002 0.01577551020408166 0  0.001400000000000005 0.0173530612244898 0  0.001400000000000002 0.01893061224489797 0  0.001400000000000002 0.02050816326530613 0  0.001400000000000002 0.02208571428571431 0  0.001400000000000002 0.02366326530612247 0  0.001400000000000002 0.02524081632653063 0  0.001400000000000002 0.0268183673469388 0  0.001400000000000002 0.02839591836734696 0  0.001400000000000002 0.02997346938775513 0  0.001400000000000002 0.03155102040816328 0  0.001400000000000002 0.03312857142857147 0  0.001399999999999997 0.03470612244897962 0  0.001400000000000005 0.03628367346938778 0  0.001400000000000002 0.03786122448979594 0  0.001400000000000002 0.03943877551020411 0  0.001400000000000002 0.04101632653061228 0  0.001400000000000002 0.04259387755102043 0  0.001400000000000002 0.0441714285714286 0  0.0014 0.04574897959183676 0  0.001400000000000002 0.04732653061224492 0  0.001400000000000004 0.04890408163265308 0  0.001400000000000002 0.05048163265306126 0  0.001400000000000002 0.05205918367346941 0  0.0014 0.05363673469387758 0  0.001400000000000004 0.05521428571428574 0  0.001399999999999998 0.05679183673469391 0  0.001400000000000002 0.05836938775510207 0  0.0014 0.05994693877551023 0  0.001400000000000002 0.0615244897959184 0  0.001400000000000002 0.06310204081632656 0  0.001400000000000002 0.06467959183673472 0  0.0014 0.06625714285714286 0  0.001400000000000002 0.06783469387755102 0  0.001399999999999998 0.06941224489795919 0  0.001400000000000002 0.07098979591836735 0  0.0014 0.07256734693877552 0  0.001400000000000002 0.07414489795918368 0  0.001400000000000002 0.07572244897959184 0  0.002800000000000006 0.001577551020408165 0  0.002800000000000004 0.003155102040816343 0  0.002800000000000002 0.004732653061224487 0  0.002800000000000002 0.006310204081632652 0  0.002800000000000002 0.007887755102040813 0  0.0028 0.009465306122448981 0  0.002799999999999997 0.01104285714285715 0  0.0028 0.01262040816326532 0  0.0028 0.01419795918367348 0  0.0028 0.01577551020408165 0  0.002799999999999997 0.0173530612244898 0  0.0028 0.01893061224489797 0  0.002800000000000004 0.02050816326530613 0  0.0028 0.0220857142857143 0  0.0028 0.02366326530612247 0  0.002800000000000004 0.02524081632653064 0  0.0028 0.0268183673469388 0  0.0028 0.02839591836734696 0  0.002799999999999995 0.02997346938775512 0  0.002799999999999997 0.03155102040816328 0  0.002799999999999995 0.03312857142857146 0  0.0028 0.03470612244897962 0  0.002799999999999995 0.03628367346938778 0  0.002799999999999997 0.03786122448979594 0  0.002799999999999997 0.03943877551020411 0  0.002799999999999997 0.04101632653061228 0  0.002799999999999997 0.04259387755102043 0  0.002799999999999995 0.0441714285714286 0  0.002799999999999997 0.04574897959183676 0  0.002799999999999997 0.04732653061224493 0  0.002799999999999995 0.04890408163265308 0  0.002799999999999993 0.05048163265306124 0  0.002799999999999995 0.05205918367346941 0  0.002799999999999995 0.05363673469387757 0  0.002799999999999992 0.05521428571428574 0  0.002799999999999997 0.05679183673469391 0  0.002799999999999993 0.05836938775510207 0  0.002799999999999993 0.05994693877551022 0  0.002799999999999992 0.0615244897959184 0  0.002799999999999988 0.06310204081632655 0  0.002799999999999992 0.0646795918367347 0  0.002799999999999992 0.06625714285714286 0  0.00279999999999999 0.06783469387755103 0  0.00279999999999999 0.06941224489795919 0  0.002799999999999988 0.07098979591836735 0  0.00279999999999999 0.07256734693877552 0  0.002799999999999988 0.07414489795918368 0  0.00279999999999999 0.07572244897959184 0  0.004200000000000006 0.001577551020408172 0  0.004200000000000006 0.003155102040816329 0  0.004200000000000008 0.00473265306122448 0  0.004200000000000009 0.006310204081632652 0  0.004200000000000008 0.00788775510204082 0  0.004200000000000008 0.009465306122448978 0  0.004200000000000006 0.01104285714285716 0  0.004200000000000006 0.01262040816326532 0  0.004200000000000004 0.01419795918367349 0  0.004200000000000002 0.01577551020408165 0  0.004200000000000004 0.0173530612244898 0  0.004200000000000006 0.01893061224489797 0  0.004200000000000006 0.02050816326530613 0  0.004200000000000002 0.0220857142857143 0  0.004200000000000004 0.02366326530612247 0  0.004199999999999999 0.02524081632653062 0  0.004200000000000004 0.0268183673469388 0  0.004200000000000004 0.02839591836734696 0  0.004200000000000002 0.02997346938775512 0  0.004199999999999999 0.03155102040816328 0  0.004200000000000001 0.03312857142857145 0  0.004200000000000001 0.03470612244897962 0  0.004199999999999995 0.03628367346938778 0  0.004199999999999999 0.03786122448979594 0  0.004199999999999999 0.0394387755102041 0  0.004199999999999997 0.04101632653061227 0  0.004199999999999999 0.04259387755102043 0  0.004199999999999999 0.04417142857142859 0  0.004199999999999999 0.04574897959183676 0  0.004199999999999999 0.04732653061224492 0  0.004199999999999997 0.04890408163265308 0  0.004199999999999997 0.05048163265306124 0  0.004199999999999999 0.05205918367346941 0  0.004199999999999992 0.05363673469387757 0  0.0
[...]
<PointData  Vectors="displacement"> 
<DataArray  type="Float64"  Name="displacement"  NumberOfComponents="3" format="ascii">0.0000000000000000e+00 0.0000000000000000e+00 0.0000000000000000e+00  0.0000000000000000e+00 0.0000000000000000e+00 0.0000000000000000e+00  7.9919067092517060e-03 -6.6536000822582181e-02 0.0000000000000000e+00  -7.8310229038348750e-03 -6.6504562956740815e-02 0.0000000000000000e+00  0.0000000000000000e+00 0.0000000000000000e+00 0.0000000000000000e+00  0.0000000000000000e+00 0.0000000000000000e+00 0.0000000000000000e+00  0.0000000000000000e+00 0.0000000000000000e+00 0.0000000000000000e+00  0.0000000000000000e+00 0.0000000000000000e+00 0.0000000000000000e+00  0.0000000000000000e+00 0.0000000000000000e+00 0.0000000000000000e+00  0.0000000000000000e+00 0.0000000000000000e+00 0.0000000000000000e+00  0.0000000000000000e+00 0.0000000000000000e+00 0.0000000000000000e+00  0.0000000000000000e+00 0.0000000000000000e+00 0.0000000000000000e+00  0.0000000000000000e+00 0.0000000000000000e+00 0.0000000000000000e+00  0.0000000000000000e+00 0.0000000000000000e+00 0.0000000000000000e+00  0.0000000000000000e+00 0.0000000000000000e+00 0.0000000000000000e+00  0.0000000000000000e+00 0.0000000000000000e+00 0.0000000000000000e+00  0.0000000000000000e+00 0.0000000000000000e+00 0.0000000000000000e+00  0.0000000000000000e+00 0.0000000000000000e+00 0.0000000000000000e+00  0.0000000000000000e+00 0.0000000000000000e+00 0.0000000000000000e+00  0.0000000000000000e+00 0.0000000000000000e+00 0.0000000000000000e+00  0.0000000000000000e+00 0.0000000000000000e+00 0.0000000000000000e+00  0.0000000000000000e+00 0.0000000000000000e+00 0.0000000000000000e+00  0.0000000000000000e+00 0.0000000000000000e+00 0.0000000000000000e+00  0.0000000000000000e+00 0.0000000000000000e+00 0.0000000000000000e+00  0.0000000000000000e+00 0.0000000000000000e+00 0.0000000000000000e+00  0.0000000000000000e+00 0.0000000000000000e+00 0.0000000000000000e+00  0.0000000000000000e+00 0.0000000000000000e+00 0.0000000000000000e+00  2.5951503440831930e-03 -2.4014088067575291e-03 0.0000000000000000e+00  4.0262954679467257e-03 -3.8195785773690208e-03 0.0000000000000000e+00  5.0268115653020187e-03 -5.0722475726366735e-03 0.0000000000000000e+00  5.7778843980783373e-03 -6.2667435412475303e-03 0.0000000000000000e+00  6.3527290994157331e-03 -7.4401140796807042e-03 0.0000000000000000e+00  6.7945070941716357e-03 -8.6120137101996126e-03 0.0000000000000000e+00  7.1332642685523751e-03 -9.7932429427189174e-03 0.0000000000000000e+00  7.3913510753214938e-03 -1.0989578589909612e-02 0.0000000000000000e+00  7.5860070130757381e-03 -1.2203826517948924e-02 0.0000000000000000e+00  7.7308237004639667e-03 -1.3436960399829685e-02 0.0000000000000000e+00  7.8366485436569891e-03 -1.4688800612227217e-02 0.0000000000000000e+00  7.9121865699012025e-03 -1.5958447521792644e-02 0.0000000000000000e+00  7.9644289698403530e-03 -1.7244571482611482e-02 0.0000000000000000e+00  7.9989755939287865e-03 -1.8545612295573083e-02 0.0000000000000000e+00  8.0202881972448806e-03 -1.9859917668782201e-02 0.0000000000000000e+00  8.0318954044355552e-03 -2.1185838589053315e-02 0.0000000000000000e+00  8.0365618510860638e-03 -2.2521793315009812e-02 0.0000000000000000e+00  8.0364292716348096e-03 -2.3866308173865886e-02 0.0000000000000000e+00  8.0331346893369824e-03 -2.5218041179902076e-02 0.0000000000000000e+00  8.0279093868774968e-03 -2.6575793053598095e-02 0.0000000000000000e+00  8.0216614843816401e-03 -2.7938509187798454e-02 0.0000000000000000e+00  8.0150444388168447e-03 -2.9305275320541838e-02 0.0000000000000000e+00  8.0085134456919418e-03 -3.0675309051042859e-02 0.0000000000000000e+00  8.0023714831448066e-03 -3.2047948832077892e-02 0.0000000000000000e+00  7.9968065437666640e-03 -3.3422641663661573e-02 0.0000000000000000e+00  7.9919214279111916e-03 -3.4798930383126050e-02 0.0000000000000000e+00  7.9877573136255837e-03 -3.6176441183370892e-02 0.0000000000000000e+00  7.9843121691967125e-03 -3.7554871783979336e-02 0.0000000000000000e+00  7.9815549342393110e-03 -3.8933980520122091e-02 0.0000000000000000e+00  7.9794362650645583e-03 -4.0313576493630481e-02 0.0000000000000000e+00  7.9778965207549565e-03 -4.1693510842123159e-02 0.0000000000000000e+00  7.9768715586624982e-03 -4.3073669119285597e-02 0.0000000000000000e+00  7.9762968122568216e-03 -4.4453964736892858e-02 0.0000000000000000e+00  7.9761100402595715e-03 -4.5834333392322922e-02 0.0000000000000000e+00  7.9762530633511255e-03 -4.7214728390341826e-02 0.0000000000000000e+00  7.9766727427098474e-03 -4.8595116761765783e-02 0.0000000000000000e+00  7.9773214023768774e-03 -4.9975476081796484e-02 0.0000000000000000e+00  7.9781568540208594e-03 -5.1355791895514577e-02 0.0000000000000000e+00  7.9791421472379456e-03 -5.2736055665835883e-02 0.0000000000000000e+00  7.9802451403617729e-03 -5.4116263169249175e-02 0.0000000000000000e+00  7.9814379654893370e-03 -5.5496413276329017e-02 0.0000000000000000e+00  7.9826964472709365e-03 -5.6876507067183592e-02 0.0000000000000000e+00  7.9839995293411146e-03 -5.8256547246845737e-02 0.0000000000000000e+00  7.9853287688666560e-03 -5.9636537842605246e-02 0.0000000000000000e+00  7.9866679877041019e-03 -6.1016484184909486e-02 0.0000000000000000e+00  7.9880032414037152e-03 -6.2396393195495094e-02 0.0000000000000000e+00  7.9893234591821901e-03 -6.3776274016774076e-02 0.0000000000000000e+00  7.9906227310507123e-03 -6.5156138805294098e-02 0.0000000000000000e+00  7.3325251858523764e-03 -6.6534864164926211e-02 0.0000000000000000e+00  6.6731448396018392e-03 -6.6533738205951293e-02 0.0000000000000000e+00  6.0137746733564083e-03 -6.6532628360905094e-02 0.0000000000000000e+00  5.3544231333849659e-03 -6.6531531043103539e-02 0.0000000000000000e+00  4.6950956480605295e-03 -6.6530438531245698e-02 0.0000000000000000e+00  4.0357947621547652e-03 -6.6529341517923737e-02 0.0000000000000000e+00  3.3765206072284564e-03 -6.6528230490209478e-02 0.0000000000000000e+00  2.7172713721489031e-03 -6.6527096558586837e-02 0.0000000000000000e+00  2.0580437285199781e-03 -6.6525931977804653e-02 0.0000000000000000e+00  1.3988332070769150e-03 -6.6524730476085051e-02 0.0000000000000000e+00  7.3963452848246436e-04 -6.6523487458904074e-02 0.0000000000000000e+00  8.0441896094534551e-05 -6.6522200128885198e-02 0.0000000000000000e+00  -5.7875073849714131e-04 -6.6520867548032353e-02 0.0000000000000000e+00  -1.2379494241142558e-03 -6.6519490657040034e-02 0.0000000000000000e+00  -1.8971599586008925e-03 -6.6518072256455438e-02 0.0000000000000000e+00  -2.5563876231948133e-03 -6.6516616944930620e-02 0.0000000000000000e+00  -3.2156368896149512e-03 -6.6515130999839314e-02 0.0000000000000000e+00  -3.8749110890864500e-03 -6.6513622174020640e-02 0.0000000000000000e+00  -4.5342120357824058e-03 -6.6512099366955152e-02 0.0000000000000000e+00  -5.1935396013743085e-03 -6.6510572103278986e-02 0.0000000000000000e+00  -5.8528912446542637e-03 -6.6509049698489767e-02 0.0000000000000000e+00  -6.5122615361912920e-03 -6.6507539856862724e-02 0.0000000000000000e+00  -7.1716419745437299e-03 -6.6506046113755962e-02 0.0000000000000000e+00  -7.8326911368490643e-03 -6.5124700477219938e-02 0.0000000000000000e+00  -7.8343440755832081e-03 -6.3744835776912034e-02 0.0000000000000000e+00  -7.8359761513004077e-03 -6.2364955017800663e-02 0.0000000000000000e+00  -7.8375931579938978e-03 -6.0985046049119841e-02 0.0000000000000000e+00  -7.8392061591227268e-03 -5.9605099734799862e-02 0.0000000000000000e+00  -7.8408291174252055e-03 -5.8225109159081419e-02 0.0000000000000000e+00  -7.8424782256279833e-03 -5.6845068996765627e-02 0.0000000000000000e+00  -7.8441719351218502e-03 -5.5464975225235351e-02 0.0000000000000000e+00  -7.8459313061058598e-03 -5.4084825143940168e-02 0.0000000000000000e+00  -7.8477805141121352e-03 -5.2704617677461797e-02 0.0000000000000000e+00  -7.8497474240896929e-03 -5.1324353960489046e-02 0.0000000000000000e+00  -7.8518641716803367e-03 -4.9944038222728457e-02 0.0000000000000000e+00  -7.8541676979216723e-03 -4.8563679008779323e-02 0.0000000000000000e+00  -7.8567001778959700e-03 -4.7183290782856338e-02 0.0000000000000000e+00  -7.8595092696467465e-03 -4.5802895981412059e-02 0.0000000000000000e+00  -7.8626480883849902e-03 -4.4422527588400970e-02 0.0000000000000000e+00  -7.8661747828166605e-03 -4.3042232317961740e-02 0.0000000000000000e+00  -7.8701515549496181e-03 -4.1662074497137949e-02 0.0000000000000000e+00  -7.8746429212726808e-03 -4.0282140745983977e-02 0.0000000000000000e+00  -7.8797129608634536e-03 -3.8902545552636107e-02 0.0000000000000000e+00  -7.8854212338518061e-03 -3.7523437834806911e-02 0.0000000000000000e+00  -7.8918169808594400e-03 -3.6145008564249188e-02 0.0000000000000000e+00  -7.8989311298176094e-03 -3.4767499503951783e-02 0.0000000000000000e+00  -7.9067655404351268e-03 -3.3391213065356265e-02 0.0000000000000000e+00  -7.9152788083993193e-03 -3.2016523230104267e-02 0.0000000000000000e+00  -7.9243678313941617e-03 -3.0643887392246064e-02 0.0000000000000000e+00  -7.9338442078772855e-03 -2.9273858856083905e-02 0.0000000000000000e+00  -7.9434043981796657e-03 -2.7907099564586497e-02 0.0000000000000000e+00  -7.9525924265706534e-03 -2.6544392425387801e-02 0.0000000000000000e+00  -7.9607537419393946e-03 -2.5186652336572437e-02 0.0000000000000000e+00  -7.9669786799797717e-03 -2.3834934682270471e-02 0.0000000000000000e+00  -7.9700337708356675e-03 -2.2490439655875435e-02 0.0000000000000000e+00  -7.9682788897671147e-03 -2.1154510259463837e-02 0.0000000000000000e+00  -7.9595679077442451e-03 -1.9828621195533924e-02 0.0000000000000000e+00  -7.9411299755309233e-03 -1.8514355065956705e-02 0.0000000000000000e+00  -7.9094277074776131e-03 -1.7213361237565953e-02 0.0000000000000000e+00  -7.8599870305570835e-03 -1.5927291257600121e-02 0.0000000000000000e+00  -7.7871908115261885e-03 -1.4657702475220302e-02 0.0000000000000000e+00  -7.6840236270338839e-03 -1.3405917884931454e-02 0.0000000000000000e+00  -7.5417464282990978e-03 -1.2172823797736274e-02 0.0000000000000000e+00  -7.3494638964059361e-03 -1.0958574896099960e-02 0.0000000000000000e+00  -7.0935167577235968e-03 -9.7621521076119901e-03 0.0000000000000000e+00  -6.7565705885165618e-03 -8.5806670773808814e-03 0.0000000000000000e+00  -6.3161480858096274e-03 -7.4081917680811574e-03 0.0000000000000000e+00  -5.7420757353900233e-03 -6.2336635839517060e-03 0.0000000000000000e+00  -4.9913170553795346e-03 -5.0370890145017529e-03 0.0000000000000000e+00  -3.9921001968275822e-03 -3.7801368642548707e-03 0.0000000000000000e+00  -2.5743594750261213e-03 -2.3332658369187545e-03 0.0000000000000000e+00  -1.8125227772372193e-03 -1.3908292321886939e-03 0.0000000000000000e+00  -3.3080570180533328e-03 -2.9306141589742793e-03 0.0000000000000000e+00  -4.3694383825075003e-03 -4.3537606996624017e-03 0.0000000000000000e+00  -5.1478848222708982e-03 -5.6880713159434635e-03 0.0000000000000000e+00  -5.7328494724258735e-03 -6.9742625574664230e-03 0.0000000000000000e+00  -6.1756365442090008e-03 -8.2374005448483025e-03 0.0000000000000000e+00  -6.5102060549330687e-03 -9.4924499612909358e-03 0.0000000000000000e+00  -6.7611139751576803e-03 -1.0748461522020004e-02 0.0000000000000000e+00  -6.9469589432719255e-03 -1.2010830393794438e-02 0.0000000000000000e+00  -7.0822031477219194e-03 -1.3282603316531021e-02 0.0000000000000000e+00  -7.1782590036556975e-03 -1.4565286898840570e-02 0.0000000000000000e+00  -7.2441953960606575e-03 -1.5859371807706250e-02 0.0000000000000000e+00  -7.2872303073248405e-03 -1.7164685412984635e-02 0.0000000000000000e+00  -7.3130951281145905e-03 -1.8480635254717111e-02 0.0000000000000000e+00  -7.3263165750369784e-03 -1.9806379606164503e-02 0.0000000000000000e+00  -7.3304420488835963e-03 -2.1140947364662183e-02 0.0000000000000000e+00  -7.3282236225411228e-03 -2.2483321653028528e-02 0.0000000000000000e+00  -7.3217700588680008e-03 -2.3832496925217907e-02 0.0000000000000000e+00  -7.3126730519311534e-03 -2.5187516546312943e-02 0.0000000000000000e+00  -7.3021120762034953e-03 -2.6547495979896901e-02 0.0000000000000000e+00  -7.2909411801206419e-03 -2.7911635451596254e-02 0.0000000000000000e+00  -7.2797604232553619e-03 -2.9279225042393945e-02 0.0000000000000000e+00  -7.2689742382228001e-03 -3.0649644475735260e-02 0.0000000000000000e+00  -7.2588386951137184e-03 -3.2022359328348758e-02 0.0000000000000000e+00  -7.2494994029419606e-03 -3.3396914974470004e-02 0.0000000000000000e+00  -7.2410215718936273e-03 -3.4772929240488339e-02 0.0000000000000000e+00  -7.2334135695175704e-03 -3.6150084484005793e-02 0.0000000000000000e+00  -7.2266451284907999e-03 -3.7528119604692663e-02 0.0000000000000000e+00  -7.2206612019115046e-03 -3.8906822333770547e-02 0.0000000000000000e+00  -7.2153923143195419e-03 -4.0286022025961168e-02 0.0000000000000000e+00  -7.2107621232253725e-03 -4.1665583085201324e-02 0.0000000000000000e+00  -7.2066927870448041e-03 -4.3045399087336823e-02 0.0000000000000000e+00  -7.2031086308253101e-03 -4.4425387614344523e-02 0.0000000000000000e+00  -7.1999385104673953e-03 -4.5805485781165792e-02 0.0000000000000000e+00  -7.1971171984485001e-03 -4.7185646414507385e-02 0.0000000000000000e+00  -7.1945860483007620e-03 -4.8565834830138044e-02 0.0000000000000000e+00  -7.1922931401287131e-03 -4.9946026149018038e-02 0.0000000000000000e+00  -7.1901930641199334e-03 -5.1326203091243500e-02 0.0000000000000000e+00  -7.1882464622325991e-03 -5.2706354188885467e-02 0.0000000000000000e+00  -7.1864194191630822e-03 -5.4086472363267191e-02 0.0000000000000000e+00  -7.1846827717926241e-03 -5.5466553818218356e-02 0.0000000000000000e+00  -7.1830113917276481e-03 -5.6846597207595925e-02 0.0000000000000000e+00  -7.1813834897260344e-03 -5.8226603041963670e-02 0.0000000000000000e+00  -7.1797799980025797e-03 -5.9606573304117477e-02 0.0000000000000000e+00  -7.1781841177691449e-03 -6.0986511242342660e-02 0.0000000000000000e+00  -7.1765812044995497e-03 -6.2366421293819259e-02 0.0000000000000000e+00  -7.1749593780279456e-03 -6.3746309040441942e-02 0.0000000000000000e+00  -7.1733117243711160e-03 -6.5126181119556259e-02 0.0000000000000000e+00  -1.3944184422377843e-03 -1.1326658585421240e-03 0.0000000000000000e+00  -2.7042841919350169e-03 -2.4764170040958672e-03 0.0000000000000000e+00  -3.7413871462563682e-03 -3.8714398325405837e-03 0.0000000000000000e+00  -4.5268357433796346e-03 -5.2452261154222347e-03 0.0000000000000000e+00  -5.1193008114370341e-03 -6.5893458736201362e-03 0.0000000000000000e+00  -5.5659541386747762e-03 -7.9117630218457739e-03 0.0000000000000000e+00  -5.9011464973237173e-03 -9.2216054660266104e-03 0.0000000000000000e+00  -6.1503598209561262e-03 -1.0526079999603550e-02 0.0000000000000000e+00  -6.3330158132383976e-03 -1.1830289071941481e-02 0.0000000000000000e+00  -6.4642097612988949e-03 -1.3137614651282020e-02 0.0000000000000000e+00  -6.5558142245957770e-03 -1.4450143097604562e-02 0.0000000000000000e+00  -6.6172202186683838e-03 -1.5769020848065553e-02 0.0000000000000000e+00  -6.6558626202988551e-03 -1.7094730320661247e-02 0.0000000000000000e+00  -6.6776111790341286e-03 -1.8427297977910751e-02 0.0000000000000000e+00  -6.6870732868856758e-03 -1.9766449065082719e-02 0.0000000000000000e+00  -6.6878353914989960e-03 -2.1111721428080054e-02 0.0000000000000000e+00  -6.6826592637597793e-03 -2.2462548150499122e-02 0.0000000000000000e+00  -6.6736433486724572e-03 -2.3818316494350393e-02 0.0000000000000000e+00  -6.6623560376662012e-03 -2.5178408889941030e-02 0.0000000000000000e+00  -6.6499457482158504e-03 -2.6542230405545961e-02 0.0000000000000000e+00  -6.6372315409910744e-03 -2.7909226127987873e-02 0.0000000000000000e+00  -6.6247772864702851e-03 -2.9278891115544152e-02 0.0000000000000000e+00  -6.6129519120539035e-03 -3.0650774984154288e-02 0.0000000000000000e+00  -6.6019779076219075e-03 -3.2024482714974968e-02 0.0000000000000000e+00  -6.5919699839357372e-03 -3.3399672896872408e-02 0.0000000000000000e+00  -6.5829655346976807e-03 -3.4776054320608700e-02 0.0000000000000000e+00  -6.5749483354426777e-03 -3.6153381606771319e-02 0.0000000000000000e+00  -6.5678667148059361e-03 -3.7531450364935250e-02 0.0000000000000000e+00  -6.5616472539874078e-03 -3.8910092237612250e-02 0.0000000000000000e+00  -6.5562049078788636e-03 -4.0289170071491236e-02 0.0000000000000000e+00  -6.5514502961948658e-03 -4.1668573373927348e-02 0.0000000000000000e+00  -6.5472947847841564e-03 -4.3048214149333609e-02 0.0000000000000000e+00  -6.5436538655181450e-03 -4.4428023163683328e-02 0.0000000000000000e+00  -6.5404492468557375e-03 -4.5807946652160529e-02 0.0000000000000000e+00  -6.5376099852196366e-03 -4.7187943462123585e-02 0.0000000000000000e+00  -6.5350729183750490e-03 -4.8567982608578239e-02 0.0000000000000000e+00  -6.5327826047102879e-03 -4.9948041210343214e-02 0.0000000000000000e+00  -6.5306909253353270e-03 -5.1328102770456477e-02 0.0000000000000000e+00  -6.5287564680263340e-03 -5.2708155762869219e-02 0.0000000000000000e+00  -6.5269437822648652e-03 -5.4088192488058087e-02 0.0000000000000000e+00  -6.5252225723571337e-03 -5.5468208161982266e-02 0.0000000000000000e+00  -6.5235668809579574e-03 -5.6848200204974220e-02 0.0000000000000000e+00  -6.5219543095851908e-03 -5.8228167698855804e-02 0.0000000000000000e+00  -6.5203653295698378e-03 -5.9608110981123202e-02 0.0000000000000000e+00  -6.5187827644268264e-03 -6.0988031345393830e-02 0.0000000000000000e+00  -6.5171915871774745e-03 -6.2367930828942729e-02 0.0000000000000000e+00  -6.5155792807331230e-03 -6.3747812154437672e-02 0.0000000000000000e+00  -6.5139370361449482e-03 -6.5127679276091657e-02 0.0000000000000000e+00  -1.1306756510939993e-03 -1.0351530388698963e-03 0.0000000000000000e+00  -2.2325129107546786e-03 -2.2477058704913071e-03 0.0000000000000000e+00  -3.1739741842135658e-03 -3.5649218590050099e-03 0.0000000000000000e+00  -3.9241385295863520e-03 -4.9183460586153718e-03 0.0000000000000000e+00  -4.5040671063978225e-03 -6.2754837205118916e-03 0.0000000000000000e+00  -4.9456375585455008e-03 -7.6264146657647591e-03 0.0000000000000000e+00  -5.2778381012521672e-03 -8.9704554133327990e-03 0.0000000000000000e+00  -5.5243887717015480e-03 -1.0309799550546625e-02 0.0000000000000000e+00  -5.7042259566369401e-03 -1.1647069658024768e-02 0.0000000000000000e+00  -5.8324056501356473e-03 -1.2984497930259443e-02 0.0000000000000000e+00  -5.9208991900296156e-03 -1.4323730348779628e-02 0.0000000000000000e+00  -5.9792189905345620e-03 -1.5665855919617538e-02 0.0000000000000000e+00  -6.0149032791448160e-03 -1.7011505539282368e-02 0.0000000000000000e+00  -6.0338961938118081e-03 -1.8360960836639077e-02 0.0000000000000000e+00  -6.0408512350735594e-03 -1.9714251573416428e-02 0.0000000000000000e+00  -6.0393773970285917e-03 -2.1071235534999479e-02 0.0000000000000000e+00  -6.0322410201708926e-03 -2.2431660873609986e-02 0.0000000000000000e+00  -6.0215323199993929e-03 -2.3795213034527245e-02 0.0000000000000000e+00  -6.0088029887286959e-03 -2.5161548958907889e-02 0.0000000000000000e+00  -5.9951796812968165e-03 -2.6530321170538128e-02 0.0000000000000000e+00  -5.9814571937872188e-03 -2.7901194031023657e-02 0.0000000000000000e+00  -5.9681744777163037e-03 -2.9273854066542374e-02 0.0000000000000000e+00  -5.9556761609457750e-03 -3.0648015903780711e-02 0.0000000000000000e+00  -5.9441618814311996e-03 -3.2023425030950618e-02 0.0000000000000000e+00  -5.9337254378253228e-03 -3.3399858328889816e-02 0.0000000000000000e+00  -5.9243854974812419e-03 -3.4777123095219707e-02 0.0000000000000000e+00  -5.9161093663194046e-03 -3.6155055105877174e-02 0.0000000000000000e+00  -5.9088311114227155e-03 -3.7533516116614367e-02 0.0000000000000000e+00  -5.9024651342225705e-03 -3.8912391096008296e-02 0.0000000000000000e+00  -5.8969161190449504e-03 -4.0291585395531924e-02 0.0000000000000000e+00  -5.8920861281443462e-03 -4.1671021996469319e-02 0.0000000000000000e+00  -5.8878794795503989e-03 -4.3050638923856833e-02 0.0000000000000000e+00  -5.8842059271758847e-03 -4.4430386880825228e-02 0.0000000000000000e+00  -5.8809825624867905e-03 -4.5810227129951427e-02 0.0000000000000000e+00  -5.8781347722134149e-03 -4.7190129629248213e-02 0.0000000000000000e+00  -5.8755965155656408e-03 -4.8570071417413166