<?xml version="1.0"?>
<VTKFile type="UnstructuredGrid"  version="0.1"  >
<UnstructuredGrid>
<Piece  NumberOfPoints="1250" NumberOfCells="2352">
<Points>
<DataArray  type="Float64"  NumberOfComponents="3"  format="ascii">0 0 0  0.0336 0 0  0.0336 0.07729999999999999 0  0 0.07729999999999999 0  0.001400000000000002 0 0  0.002800000000000005 0 0  0.004200000000000008 0 0  0.005600000000000009 0 0  0.007000000000000011 0 0  0.008400000000000013 0 0  0.009800000000000019 0 0  0.01120000000000002 0 0  0.01260000000000003 0 0  0.01400000000000003 0 0  0.01540000000000004 0 0  0.01680000000000005 0 0  0.01820000000000004 0 0  0.01960000000000004 0 0  0.02100000000000004 0 0  0.02240000000000003 0 0  0.02380000000000003 0 0  0.02520000000000002 0 0  0.02660000000000002 0 0  0.02800000000000001 0 0  0.02940000000000001 0 0  0.03080000000000001 0 0  0.0322 0 0  0.0336 0.001577551020408161 0  0.0336 0.003155102040816321 0  0.0336 0.004732653061224482 0  0.0336 0.006310204081632642 0  0.0336 0.007887755102040803 0  0.0336 0.009465306122448964 0  0.0336 0.01104285714285712 0  0.0336 0.01262040816326528 0  0.0336 0.01419795918367344 0  0.0336 0.0157755102040816 0  0.0336 0.01735306122448976 0  0.0336 0.01893061224489792 0  0.0336 0.02050816326530608 0  0.0336 0.02208571428571425 0  0.0336 0.02366326530612241 0  0.0336 0.02524081632653058 0  0.0336 0.02681836734693874 0  0.0336 0.02839591836734691 0  0.0336 0.02997346938775507 0  0.0336 0.03155102040816323 0  0.0336 0.0331285714285714 0  0.0336 0.03470612244897956 0  0.0336 0.03628367346938772 0  0.0336 0.03786122448979588 0  0.0336 0.03943877551020405 0  0.0336 0.04101632653061221 0  0.0336 0.04259387755102037 0  0.0336 0.04417142857142854 0  0.0336 0.04574897959183671 0  0.0336 0.04732653061224486 0  0.0336 0.04890408163265302 0  0.0336 0.05048163265306119 0  0.0336 0.05205918367346936 0  0.0336 0.05363673469387752 0  0.0336 0.05521428571428568 0  0.0336 0.05679183673469385 0  0.0336 0.05836938775510202 0  0.0336 0.05994693877551018 0  0.0336 0.06152448979591834 0  0.0336 0.0631020408163265 0  0.0336 0.06467959183673468 0  0.0336 0.06625714285714283 0  0.0336 0.06783469387755101 0  0.0336 0.06941224489795916 0  0.0336 0.07098979591836733 0  0.0336 0.07256734693877549 0  0.0336 0.07414489795918365 0  0.0336 0.07572244897959182 0  0.03219999999999999 0.07729999999999999 0  0.03079999999999999 0.07729999999999999 0  0.02939999999999999 0.07729999999999999 0  0.02799999999999999 0.07729999999999999 0  0.02659999999999999 0.07729999999999999 0  0.02519999999999999 0.07729999999999999 0  0.02379999999999998 0.07729999999999999 0  0.02239999999999998 0.07729999999999999 0  0.02099999999999997 0.07729999999999999 0  0.01959999999999996 0.07729999999999999 0  0.01819999999999996 0.07729999999999999 0  0.01679999999999995 0.07729999999999999 0  0.01539999999999996 0.07729999999999999 0  0.01399999999999996 0.07729999999999999 0  0.01259999999999996 0.07729999999999999 0  0.01119999999999997 0.07729999999999999 0  0.009799999999999972 0.07729999999999999 0  0.008399999999999977 0.07729999999999999 0  0.006999999999999978 0.07729999999999999 0  0.005599999999999983 0.07729999999999999 0  0.004199999999999988 0.07729999999999999 0  0.00279999999999999 0.07729999999999999 0  0.001399999999999998 0.07729999999999999 0  0 0.07572244897959184 0  0 0.07414489795918368 0  0 0.07256734693877551 0  0 0.07098979591836735 0  0 0.06941224489795919 0  0 0.06783469387755103 0  0 0.06625714285714288 0  0 0.06467959183673472 0  0 0.06310204081632656 0  0 0.0615244897959184 0  0 0.05994693877551023 0  0 0.05836938775510207 0  0 0.05679183673469392 0  0 0.05521428571428574 0  0 0.05363673469387759 0  0 0.05205918367346941 0  0 0.05048163265306126 0  0 0.04890408163265308 0  0 0.04732653061224493 0  0 0.04574897959183676 0  0 0.0441714285714286 0  0 0.04259387755102043 0  0 0.04101632653061228 0  0 0.03943877551020411 0  0 0.03786122448979595 0  0 0.03628367346938779 0  0 0.03470612244897962 0  0 0.03312857142857146 0  0 0.03155102040816329 0  0 0.02997346938775513 0  0 0.02839591836734697 0  0 0.0268183673469388 0  0 0.02524081632653064 0  0 0.02366326530612247 0  0 0.02208571428571431 0  0 0.02050816326530614 0  0 0.01893061224489798 0  0 0.01735306122448981 0  0 0.01577551020408165 0  0 0.01419795918367349 0  0 0.01262040816326532 0  0 0.01104285714285716 0  0 0.009465306122448988 0  0 0.00788775510204083 0  0 0.006310204081632659 0  0 0.004732653061224501 0  0 0.003155102040816343 0  0 0.001577551020408172 0  0.001400000000000004 0.001577551020408172 0  0.001400000000000004 0.003155102040816329 0  0.001400000000000002 0.004732653061224501 0  0.001400000000000002 0.006310204081632645 0  0.001400000000000005 0.007887755102040823 0  0.001400000000000002 0.009465306122448981 0  0.001400000000000002 0.01104285714285717 0  0.001400000000000004 0.01262040816326531 0  0.0014 0.01419795918367349 0  0.001400000000000002 0.01577551020408166 0  0.001400000000000005 0.0173530612244898 0  0.001400000000000002 0.01893061224489797 0  0.001400000000000002 0.02050816326530613 0  0.001400000000000002 0.02208571428571431 0  0.001400000000000002 0.02366326530612247 0  0.001400000000000002 0.02524081632653063 0  0.001400000000000002 0.0268183673469388 0  0.001400000000000002 0.02839591836734696 0  0.001400000000000002 0.02997346938775513 0  0.001400000000000002 0.03155102040816328 0  0.001400000000000002 0.03312857142857147 0  0.001399999999999997 0.03470612244897962 0  0.001400000000000005 0.03628367346938778 0  0.001400000000000002 0.03786122448979594 0  0.001400000000000002 0.03943877551020411 0  0.001400000000000002 0.04101632653061228 0  0.001400000000000002 0.04259387755102043 0  0.001400000000000002 0.0441714285714286 0  0.0014 0.04574897959183676 0  0.001400000000000002 0.04732653061224492 0  0.001400000000000004 0.04890408163265308 0  0.001400000000000002 0.05048163265306126 0  0.001400000000000002 0.05205918367346941 0  0.0014 0.05363673469387758 0  0.001400000000000004 0.05521428571428574 0  0.001399999999999998 0.05679183673469391 0  0.001400000000000002 0.05836938775510207 0  0.0014 0.05994693877551023 0  0.001400000000000002 0.0615244897959184 0  0.001400000000000002 0.06310204081632656 0  0.001400000000000002 0.06467959183673472 0  0.0014 0.06625714285714286 0  0.001400000000000002 0.06783469387755102 0  0.001399999999999998 0.06941224489795919 0  0.001400000000000002 0.07098979591836735 0  0.0014 0.07256734693877552 0  0.001400000000000002 0.07414489795918368 0  0.001400000000000002 0.07572244897959184 0  0.002800000000000006 0.001577551020408165 0  0.002800000000000004 0.003155102040816343 0  0.002800000000000002 0.004732653061224487 0  0.002800000000000002 0.006310204081632652 0  0.002800000000000002 0.007887755102040813 0  0.0028 0.009465306122448981 0  0.002799999999999997 0.01104285714285715 0  0.0028 0.01262040816326532 0  0.0028 0.01419795918367348 0  0.0028 0.01577551020408165 0  0.002799999999999997 0.0173530612244898 0  0.0028 0.01893061224489797 0  0.002800000000000004 0.02050816326530613 0  0.0028 0.0220857142857143 0  0.0028 0.02366326530612247 0  0.002800000000000004 0.02524081632653064 0  0.0028 0.0268183673469388 0  0.0028 0.02839591836734696 0  0.002799999999999995 0.02997346938775512 0  0.002799999999999997 0.03155102040816328 0  0.002799999999999995 0.03312857142857146 0  0.0028 0.03470612244897962 0  0.002799999999999995 0.03628367346938778 0  0.002799999999999997 0.03786122448979594 0  0.002799999999999997 0.03943877551020411 0  0.002799999999999997 0.04101632653061228 0  0.002799999999999997 0.04259387755102043 0  0.002799999999999995 0.0441714285714286 0  0.002799999999999997 0.04574897959183676 0  0.002799999999999997 0.04732653061224493 0  0.002799999999999995 0.04890408163265308 0  0.002799999999999993 0.05048163265306124 0  0.002799999999999995 0.05205918367346941 0  0.002799999999999995 0.05363673469387757 0  0.002799999999999992 0.05521428571428574 0  0.002799999999999997 0.05679183673469391 0  0.002799999999999993 0.05836938775510207 0  0.002799999999999993 0.05994693877551022 0  0.002799999999999992 0.0615244897959184 0  0.002799999999999988 0.06310204081632655 0  0.002799999999999992 0.0646795918367347 0  0.002799999999999992 0.06625714285714286 0  0.00279999999999999 0.06783469387755103 0  0.00279999999999999 0.06941224489795919 0  0.002799999999999988 0.07098979591836735 0  0.00279999999999999 0.07256734693877552 0  0.002799999999999988 0.07414489795918368 0  0.00279999999999999 0.07572244897959184 0  0.004200000000000006 0.001577551020408172 0  0.004200000000000006 0.003155102040816329 0  0.004200000000000008 0.00473265306122448 0  0.004200000000000009 0.006310204081632652 0  0.004200000000000008 0.00788775510204082 0  0.004200000000000008 0.009465306122448978 0  0.004200000000000006 0.01104285714285716 0  0.004200000000000006 0.01262040816326532 0  0.004200000000000004 0.01419795918367349 0  0.004200000000000002 0.01577551020408165 0  0.004200000000000004 0.0173530612244898 0  0.004200000000000006 0.01893061224489797 0  0.004200000000000006 0.02050816326530613 0  0.004200000000000002 0.0220857142857143 0  0.004200000000000004 0.02366326530612247 0  0.004199999999999999 0.02524081632653062 0  0.004200000000000004 0.0268183673469388 0  0.004200000000000004 0.02839591836734696 0  0.004200000000000002 0.02997346938775512 0  0.004199999999999999 0.03155102040816328 0  0.004200000000000001 0.03312857142857145 0  0.004200000000000001 0.03470612244897962 0  0.004199999999999995 0.03628367346938778 0  0.004199999999999999 0.03786122448979594 0  0.004199999999999999 0.0394387755102041 0  0.004199999999999997 0.04101632653061227 0  0.004199999999999999 0.04259387755102043 0  0.004199999999999999 0.04417142857142859 0  0.004199999999999999 0.04574897959183676 0  0.004199999999999999 0.04732653061224492 0  0.004199999999999997 0.04890408163265308 0  0.004199999999999997 0.05048163265306124 0  0.004199999999999999 0.05205918367346941 0  0.004199999999999992 0.05363673469387757 0  0.0
[...]
<PointData  Vectors="displacement"> 
<DataArray  type="Float64"  Name="displacement"  NumberOfComponents="3" format="ascii">0.0000000000000000e+00 0.0000000000000000e+00 0.0000000000000000e+00  0.0000000000000000e+00 0.0000000000000000e+00 0.0000000000000000e+00  5.9068697834931422e-03 -4.9411241491933468e-02 0.0000000000000000e+00  -5.8458529854392002e-03 -4.9399415707425606e-02 0.0000000000000000e+00  0.0000000000000000e+00 0.0000000000000000e+00 0.0000000000000000e+00  0.0000000000000000e+00 0.0000000000000000e+00 0.0000000000000000e+00  0.0000000000000000e+00 0.0000000000000000e+00 0.0000000000000000e+00  0.0000000000000000e+00 0.0000000000000000e+00 0.0000000000000000e+00  0.0000000000000000e+00 0.0000000000000000e+00 0.0000000000000000e+00  0.0000000000000000e+00 0.0000000000000000e+00 0.0000000000000000e+00  0.0000000000000000e+00 0.0000000000000000e+00 0.0000000000000000e+00  0.0000000000000000e+00 0.0000000000000000e+00 0.0000000000000000e+00  0.0000000000000000e+00 0.0000000000000000e+00 0.0000000000000000e+00  0.0000000000000000e+00 0.0000000000000000e+00 0.0000000000000000e+00  0.0000000000000000e+00 0.0000000000000000e+00 0.0000000000000000e+00  0.0000000000000000e+00 0.0000000000000000e+00 0.0000000000000000e+00  0.0000000000000000e+00 0.0000000000000000e+00 0.0000000000000000e+00  0.0000000000000000e+00 0.0000000000000000e+00 0.0000000000000000e+00  0.0000000000000000e+00 0.0000000000000000e+00 0.0000000000000000e+00  0.0000000000000000e+00 0.0000000000000000e+00 0.0000000000000000e+00  0.0000000000000000e+00 0.0000000000000000e+00 0.0000000000000000e+00  0.0000000000000000e+00 0.0000000000000000e+00 0.0000000000000000e+00  0.0000000000000000e+00 0.0000000000000000e+00 0.0000000000000000e+00  0.0000000000000000e+00 0.0000000000000000e+00 0.0000000000000000e+00  0.0000000000000000e+00 0.0000000000000000e+00 0.0000000000000000e+00  0.0000000000000000e+00 0.0000000000000000e+00 0.0000000000000000e+00  0.0000000000000000e+00 0.0000000000000000e+00 0.0000000000000000e+00  1.9186380784030563e-03 -1.7551768988238719e-03 0.0000000000000000e+00  2.9771490743684924e-03 -2.8186182290471369e-03 0.0000000000000000e+00  3.7224199623173727e-03 -3.7534962571694262e-03 0.0000000000000000e+00  4.2814141796727202e-03 -4.6428452223833605e-03 0.0000000000000000e+00  4.7090125003862717e-03 -5.5155586449068053e-03 0.0000000000000000e+00  5.0374779986723959e-03 -6.3866965746504651e-03 0.0000000000000000e+00  5.2892246041060858e-03 -7.2644914040881836e-03 0.0000000000000000e+00  5.4809099642207119e-03 -8.1533422943564481e-03 0.0000000000000000e+00  5.6253748073568938e-03 -9.0553940437805257e-03 0.0000000000000000e+00  5.7327385901126187e-03 -9.9714063329087565e-03 0.0000000000000000e+00  5.8110754466983595e-03 -1.0901268879239555e-02 0.0000000000000000e+00  5.8668638246471890e-03 -1.1844328730673453e-02 0.0000000000000000e+00  5.9053062861782425e-03 -1.2799608614183337e-02 0.0000000000000000e+00  5.9305699355681387e-03 -1.3765956785368480e-02 0.0000000000000000e+00  5.9459750693865374e-03 -1.4742150906841611e-02 0.0000000000000000e+00  5.9541477705057000e-03 -1.5726969549323760e-02 0.0000000000000000e+00  5.9571457778732342e-03 -1.6719240165883470e-02 0.0000000000000000e+00  5.9565634489502266e-03 -1.7717869700329680e-02 0.0000000000000000e+00  5.9536196706019041e-03 -1.8721862347759598e-02 0.0000000000000000e+00  5.9492314663802349e-03 -1.9730327897128190e-02 0.0000000000000000e+00  5.9440754091164517e-03 -2.0742483307925476e-02 0.0000000000000000e+00  5.9386385631912684e-03 -2.1757649582397481e-02 0.0000000000000000e+00  5.9332604312650004e-03 -2.2775245528114697e-02 0.0000000000000000e+00  5.9281672000932291e-03 -2.3794779629545706e-02 0.0000000000000000e+00  5.9234994346483655e-03 -2.4815840942444121e-02 0.0000000000000000e+00  5.9193342418661790e-03 -2.5838089678884357e-02 0.0000000000000000e+00  5.9157028072691813e-03 -2.6861247954459926e-02 0.0000000000000000e+00  5.9126040967906416e-03 -2.7885091014833097e-02 0.0000000000000000e+00  5.9100154119996065e-03 -2.8909439139761878e-02 0.0000000000000000e+00  5.9079003901739121e-03 -2.9934150332903187e-02 0.0000000000000000e+00  5.9062149520107063e-03 -3.0959113839726427e-02 0.0000000000000000e+00  5.9049116197335315e-03 -3.1984244489056721e-02 0.0000000000000000e+00  5.9039425571805245e-03 -3.3009477822047092e-02 0.0000000000000000e+00  5.9032616210490047e-03 -3.4034765952326795e-02 0.0000000000000000e+00  5.9028256584860422e-03 -3.5060074089862760e-02 0.0000000000000000e+00  5.9025952401192726e-03 -3.6085377656411260e-02 0.0000000000000000e+00  5.9025349787758391e-03 -3.7110659920520532e-02 0.0000000000000000e+00  5.9026135518633486e-03 -3.8135910083481148e-02 0.0000000000000000e+00  5.9028035190403193e-03 -3.9161121753394021e-02 0.0000000000000000e+00  5.9030810058639978e-03 -4.0186291751936117e-02 0.0000000000000000e+00  5.9034253082837218e-03 -4.1211419207054761e-02 0.0000000000000000e+00  5.9038184623102933e-03 -4.2236504894586253e-02 0.0000000000000000e+00  5.9042448189571698e-03 -4.3261550802812937e-02 0.0000000000000000e+00  5.9046906694274343e-03 -4.4286559906591055e-02 0.0000000000000000e+00  5.9051439863035231e-03 -4.5311536152267767e-02 0.0000000000000000e+00  5.9055944005004263e-03 -4.6336484671011577e-02 0.0000000000000000e+00  5.9060336762532173e-03 -4.7361412245993044e-02 0.0000000000000000e+00  5.9064574093822941e-03 -4.8386327902382918e-02 0.0000000000000000e+00  5.4171040868859714e-03 -4.9410877620416786e-02 0.0000000000000000e+00  4.9273392706336294e-03 -4.9410521696026229e-02 0.0000000000000000e+00  4.4375820230611812e-03 -4.9410177731428813e-02 0.0000000000000000e+00  3.9478386146547043e-03 -4.9409843053970726e-02 0.0000000000000000e+00  3.4581130726052704e-03 -4.9409511923309911e-02 0.0000000000000000e+00  2.9684072823236212e-03 -4.9409177424221462e-02 0.0000000000000000e+00  2.4787213378040002e-03 -4.9408832491375579e-02 0.0000000000000000e+00  1.9890538916149986e-03 -4.9408470524229316e-02 0.0000000000000000e+00  1.4994024710810077e-03 -4.9408085773080035e-02 0.0000000000000000e+00  1.0097637577970199e-03 -4.9407673582836750e-02 0.0000000000000000e+00  5.2013383308327770e-04 -4.9407230543744567e-02 0.0000000000000000e+00  3.0508395050861856e-05 -4.9406754579954942e-02 0.0000000000000000e+00  -4.5911704465446154e-04 -4.9406244995450134e-02 0.0000000000000000e+00  -9.4874697468880892e-04 -4.9405702488283007e-02 0.0000000000000000e+00  -1.4383856978230859e-03 -4.9405129136684364e-02 0.0000000000000000e+00  -1.9280371341317683e-03 -4.9404528353496791e-02 0.0000000000000000e+00  -2.4177046038215142e-03 -4.9403904797980139e-02 0.0000000000000000e+00  -2.9073905816464126e-03 -4.9403264225475321e-02 0.0000000000000000e+00  -3.3970964172756468e-03 -4.9402613243918127e-02 0.0000000000000000e+00  -3.8868220191031642e-03 -4.9401958927319231e-02 0.0000000000000000e+00  -4.3765655043697931e-03 -4.9401308196897829e-02 0.0000000000000000e+00  -4.8663228451367082e-03 -4.9400666780349677e-02 0.0000000000000000e+00  -5.3560877300070234e-03 -4.9400037312217426e-02 0.0000000000000000e+00  -5.8465511762771216e-03 -4.8374501774589095e-02 0.0000000000000000e+00  -5.8472380079036494e-03 -4.7349586183913724e-02 0.0000000000000000e+00  -5.8479093583679621e-03 -4.6324658655303233e-02 0.0000000000000000e+00  -5.8485695457228936e-03 -4.5299710167982704e-02 0.0000000000000000e+00  -5.8492268002721792e-03 -4.4274733943554079e-02 0.0000000000000000e+00  -5.8498915046097362e-03 -4.3249724855336361e-02 0.0000000000000000e+00  -5.8505756968649878e-03 -4.2224678960927825e-02 0.0000000000000000e+00  -5.8512930920188886e-03 -4.1199593288990005e-02 0.0000000000000000e+00  -5.8520593416630309e-03 -4.0174465854609875e-02 0.0000000000000000e+00  -5.8528924095838028e-03 -3.9149295885452719e-02 0.0000000000000000e+00  -5.8538129971703297e-03 -3.8124084257450223e-02 0.0000000000000000e+00  -5.8548449737533615e-03 -3.7098834153404502e-02 0.0000000000000000e+00  -5.8560157718628896e-03 -3.6073551970511535e-02 0.0000000000000000e+00  -5.8573567031261877e-03 -3.5048248513828963e-02 0.0000000000000000e+00  -5.8589031399643556e-03 -3.4022940522473254e-02 0.0000000000000000e+00  -5.8606944924082327e-03 -3.2997652583987555e-02 0.0000000000000000e+00  -5.8627738884018199e-03 -3.1972419499737836e-02 0.0000000000000000e+00  -5.8651874396035246e-03 -3.0947289169976300e-02 0.0000000000000000e+00  -5.8679829424084142e-03 -2.9922326070662142e-02 0.0000000000000000e+00  -5.8712078250491616e-03 -2.8897615394230997e-02 0.0000000000000000e+00  -5.8749061055086574e-03 -2.7873267921870278e-02 0.0000000000000000e+00  -5.8791140709442795e-03 -2.6849425683675432e-02 0.0000000000000000e+00  -5.8838543268426675e-03 -2.5826268443048233e-02 0.0000000000000000e+00  -5.8891277928346669e-03 -2.4804021010013635e-02 0.0000000000000000e+00  -5.8949031419013717e-03 -2.3782961341355456e-02 0.0000000000000000e+00  -5.9011030907923732e-03 -2.2763429319530130e-02 0.0000000000000000e+00  -5.9075868523592251e-03 -2.1745836012487502e-02 0.0000000000000000e+00  -5.9141279558624421e-03 -2.0730673097407532e-02 0.0000000000000000e+00  -5.9203865296515949e-03 -1.9718521976884167e-02 0.0000000000000000e+00  -5.9258750215385883e-03 -1.8710061919454627e-02 0.0000000000000000e+00  -5.9299162028957535e-03 -1.7706076309846244e-02 0.0000000000000000e+00  -5.9315921552195970e-03 -1.6707455788530137e-02 0.0000000000000000e+00  -5.9296827551771954e-03 -1.5715196682543928e-02 0.0000000000000000e+00  -5.9225919210437192e-03 -1.4730392660611635e-02 0.0000000000000000e+00  -5.9082594939670295e-03 -1.3754216951451292e-02 0.0000000000000000e+00  -5.8840559814159008e-03 -1.2787891681123547e-02 0.0000000000000000e+00  -5.8466562719338049e-03 -1.1832639789218440e-02 0.0000000000000000e+00  -5.7918864537390416e-03 -1.0889613328632503e-02 0.0000000000000000e+00  -5.7145343323416692e-03 -9.9597892459167940e-03 0.0000000000000000e+00  -5.6081078263861177e-03 -9.0438189684190432e-03 0.0000000000000000e+00  -5.4645135361546813e-03 -8.1418091528654406e-03 0.0000000000000000e+00  -5.2736050383447083e-03 -7.2529929867071611e-03 0.0000000000000000e+00  -5.0225051991961579e-03 -6.3752129621544836e-03 0.0000000000000000e+00  -4.6945139218661164e-03 -5.5040502304590311e-03 0.0000000000000000e+00  -4.2672063510509443e-03 -4.6312658305927672e-03 0.0000000000000000e+00  -3.7085765947220293e-03 -3.7419723737914853e-03 0.0000000000000000e+00  -2.9651612539475457e-03 -2.8075742493642456e-03 0.0000000000000000e+00  -1.9104433900038447e-03 -1.7307691349710479e-03 0.0000000000000000e+00  -1.3441811169859514e-03 -1.0316824525384702e-03 0.0000000000000000e+00  -2.4566633930925164e-03 -2.1759695127788040e-03 0.0000000000000000e+00  -3.2463571344929043e-03 -3.2337202161073111e-03 0.0000000000000000e+00  -3.8256427247646252e-03 -4.2253285532944064e-03 0.0000000000000000e+00  -4.2610980226379840e-03 -5.1810615522934764e-03 0.0000000000000000e+00  -4.5908864510531286e-03 -6.1195739794018735e-03 0.0000000000000000e+00  -4.8402523689967617e-03 -7.0520049268597614e-03 0.0000000000000000e+00  -5.0274426775282471e-03 -7.9850931212274226e-03 0.0000000000000000e+00  -5.1662750017534825e-03 -8.9228579018424854e-03 0.0000000000000000e+00  -5.2674930935031400e-03 -9.8675717389721390e-03 0.0000000000000000e+00  -5.3395751444263182e-03 -1.0820361397186135e-02 0.0000000000000000e+00  -5.3892588107623462e-03 -1.1781597696296482e-02 0.0000000000000000e+00  -5.4219072450945116e-03 -1.2751157680719606e-02 0.0000000000000000e+00  -5.4417796687531326e-03 -1.3728605617145348e-02 0.0000000000000000e+00  -5.4522406836844794e-03 -1.4713319806833719e-02 0.0000000000000000e+00  -5.4559275581777299e-03 -1.5704581745004640e-02 0.0000000000000000e+00  -5.4548867916821408e-03 -1.6701638317538580e-02 0.0000000000000000e+00  -5.4506869514514356e-03 -1.7703744311100552e-02 0.0000000000000000e+00  -5.4445123844516731e-03 -1.8710190413323152e-02 0.0000000000000000e+00  -5.4372410604135741e-03 -1.9720320514626244e-02 0.0000000000000000e+00  -5.4295090213286306e-03 -2.0733541184399875e-02 0.0000000000000000e+00  -5.4217634386822585e-03 -2.1749325514967669e-02 0.0000000000000000e+00  -5.4143059691102013e-03 -2.2767213015040009e-02 0.0000000000000000e+00  -5.4073278742450080e-03 -2.3786806838055993e-02 0.0000000000000000e+00  -5.4009381903442457e-03 -2.4807769318959075e-02 0.0000000000000000e+00  -5.3951860773792763e-03 -2.5829816546018416e-02 0.0000000000000000e+00  -5.3900783362063227e-03 -2.6852712499001855e-02 0.0000000000000000e+00  -5.3855929525557745e-03 -2.7876263131536905e-02 0.0000000000000000e+00  -5.3816894068714717e-03 -2.8900310656182451e-02 0.0000000000000000e+00  -5.3783163795862307e-03 -2.9924728199291727e-02 0.0000000000000000e+00  -5.3754173825446977e-03 -3.0949414923906047e-02 0.0000000000000000e+00  -5.3729347591411330e-03 -3.1974291668244011e-02 0.0000000000000000e+00  -5.3708124182197045e-03 -3.2999297111098475e-02 0.0000000000000000e+00  -5.3689975994967963e-03 -3.4024384450506560e-02 0.0000000000000000e+00  -5.3674419105929315e-03 -3.5049518565833805e-02 0.0000000000000000e+00  -5.3661018269370812e-03 -3.6074673623817485e-02 0.0000000000000000e+00  -5.3649388049815689e-03 -3.7099831084452570e-02 0.0000000000000000e+00  -5.3639191254859411e-03 -3.8124978061551532e-02 0.0000000000000000e+00  -5.3630135563030781e-03 -3.9150105994324523e-02 0.0000000000000000e+00  -5.3621969024828095e-03 -4.0175209589612827e-02 0.0000000000000000e+00  -5.3614474952185815e-03 -4.1200285998835413e-02 0.0000000000000000e+00  -5.3607466603083249e-03 -4.2225334198706277e-02 0.0000000000000000e+00  -5.3600782024527879e-03 -4.3250354549670661e-02 0.0000000000000000e+00  -5.3594279470364856e-03 -4.4275348509564716e-02 0.0000000000000000e+00  -5.3587834042995771e-03 -4.5300318479407138e-02 0.0000000000000000e+00  -5.3581336840076901e-03 -4.6325267746006656e-02 0.0000000000000000e+00  -5.3574699481258124e-03 -4.7350200448813148e-02 0.0000000000000000e+00  -5.3567870455415939e-03 -4.8375121513371616e-02 0.0000000000000000e+00  -1.0346463926824651e-03 -8.4083952667348197e-04 0.0000000000000000e+00  -2.0082891704350176e-03 -1.8388025767219461e-03 0.0000000000000000e+00  -2.7797178358455448e-03 -2.8752493269785561e-03 0.0000000000000000e+00  -3.3641886073236681e-03 -3.8959997784497112e-03 0.0000000000000000e+00  -3.8052406179217122e-03 -4.8946781541733828e-03 0.0000000000000000e+00  -4.1379293233364429e-03 -5.8771785624313223e-03 0.0000000000000000e+00  -4.3877829124288085e-03 -6.8502842302984278e-03 0.0000000000000000e+00  -4.5737353772372360e-03 -7.8193561584349609e-03 0.0000000000000000e+00  -4.7102159916146873e-03 -8.7881924170276713e-03 0.0000000000000000e+00  -4.8084392275743494e-03 -9.7593123040547562e-03 0.0000000000000000e+00  -4.8772255422170089e-03 -1.0734271788894842e-02 0.0000000000000000e+00  -4.9235523174413738e-03 -1.1713927750434294e-02 0.0000000000000000e+00  -4.9529442273005828e-03 -1.2698642993542545e-02 0.0000000000000000e+00  -4.9697636385977748e-03 -1.3688440881676173e-02 0.0000000000000000e+00  -4.9774354089621425e-03 -1.4683120360446856e-02 0.0000000000000000e+00  -4.9786260972788342e-03 -1.5682340584890243e-02 0.0000000000000000e+00  -4.9753896506689547e-03 -1.6685682383406598e-02 0.0000000000000000e+00  -4.9692871759623950e-03 -1.7692692116110131e-02 0.0000000000000000e+00  -4.9614858776534090e-03 -1.8702912193731706e-02 0.0000000000000000e+00  -4.9528407901579651e-03 -1.9715901546933465e-02 0.0000000000000000e+00  -4.9439620718165645e-03 -2.0731248593967855e-02 0.0000000000000000e+00  -4.9352700938877095e-03 -2.1748578683366673e-02 0.0000000000000000e+00  -4.9270402006418952e-03 -2.2767557542733394e-02 0.0000000000000000e+00  -4.9194387548544072e-03 -2.3787891913712399e-02 0.0000000000000000e+00  -4.9125518729998046e-03 -2.4809328275244607e-02 0.0000000000000000e+00  -4.9064080741581103e-03 -2.5831650336825888e-02 0.0000000000000000e+00  -4.9009959055707382e-03 -2.6854675809171020e-02 0.0000000000000000e+00  -4.8962774614856614e-03 -2.7878252822572634e-02 0.0000000000000000e+00  -4.8921985788373014e-03 -2.8902256256276949e-02 0.0000000000000000e+00  -4.8886963730198334e-03 -2.9926584159638420e-02 0.0000000000000000e+00  -4.8857046694427350e-03 -3.0951154382937152e-02 0.0000000000000000e+00  -4.8831577915173256e-03 -3.1975901488638540e-02 0.0000000000000000e+00  -4.8809930827998773e-03 -3.3000773979302421e-02 0.0000000000000000e+00  -4.8791524695527867e-03 -3.4025731853636505e-02 0.0000000000000000e+00  -4.8775833091377358e-03 -3.5050744485140763e-02 0.0000000000000000e+00  -4.8762387184568814e-03 -3.6075788806615085e-02 0.0000000000000000e+00  -4.8750775341007404e-03 -3.7100847777062636e-02 0.0000000000000000e+00  -4.8740640209518349e-03 -3.8125909104041657e-02 0.0000000000000000e+00  -4.8731674178330272e-03 -3.9150964193371038e-02 0.0000000000000000e+00  -4.8723613866496970e-03 -4.0176007298504686e-02 0.0000000000000000e+00  -4.8716234149158519e-03 -4.1201034843203414e-02 0.0000000000000000e+00  -4.8709342106413363e-03 -4.2226044892724544e-02 0.0000000000000000e+00  -4.8702771242703172e-03 -4.3251036750000867e-02 0.0000000000000000e+00  -4.8696376374300441e-03 -4.4276010653681211e-02 0.0000000000000000e+00  -4.8690029786772155e-03 -4.5300967555149632e-02 0.0000000000000000e+00  -4.8683619728624927e-03 -4.6325908960255666e-02 0.0000000000000000e+00  -4.8677053084127614e-03 -4.7350836885524814e-02 0.0000000000000000e+00  -4.8670264266900565e-03 -4.8375754263173844e-02 0.0000000000000000e+00  -8.3938709372414762e-04 -7.6872370112465239e-04 0.0000000000000000e+00  -1.6581863491133212e-03 -1.6691744605421925e-03 0.0000000000000000e+00  -2.3583162279925342e-03 -2.6475819240353669e-03 0.0000000000000000e+00  -2.9164798951208026e-03 -3.6530137462016635e-03 0.0000000000000000e+00  -3.3481971792020575e-03 -4.6612377354584063e-03 0.0000000000000000e+00  -3.6771142333480340e-03 -5.6648395669607020e-03 0.0000000000000000e+00  -3.9247571294257931e-03 -6.6632961406042955e-03 0.0000000000000000e+00  -4.1087445070566624e-03 -7.6582343641493364e-03 0.0000000000000000e+00  -4.2431428629121125e-03 -8.6516046402198774e-03 0.0000000000000000e+00  -4.3391367840428467e-03 -9.6450689451094591e-03 0.0000000000000000e+00  -4.4056200203436884e-03 -1.0639854055818991e-02 0.0000000000000000e+00  -4.4496602953443378e-03 -1.1636772744855245e-02 0.0000000000000000e+00  -4.4768593079079714e-03 -1.2636297024563720e-02 0.0000000000000000e+00  -4.4916349541263053e-03 -1.3638638946829158e-02 0.0000000000000000e+00  -4.4974465989381530e-03 -1.4643822970580124e-02 0.0000000000000000e+00  -4.4969777762790949e-03 -1.5651745352911597e-02 0.0000000000000000e+00  -4.4922860198885689e-03 -1.6662220517302501e-02 0.0000000000000000e+00  -4.4849264811328698e-03 -1.7675015971905635e-02 0.0000000000000000e+00  -4.4760540858312025e-03 -1.8689877773591001e-02 0.0000000000000000e+00  -4.4665078009309984e-03 -1.9706548471967882e-02 0.0000000000000000e+00  -4.4568798354728259e-03 -2.0724779229333991e-02 0.0000000000000000e+00  -4.4475721062940130e-03 -2.1744337530096632e-02 0.0000000000000000e+00  -4.4388419481239706e-03 -2.2765011622207659e-02 0.0000000000000000e+00  -4.4308387775493291e-03 -2.3786612594425501e-02 0.0000000000000000e+00  -4.4236331965666871e-03 -2.4808974792092469e-02 0.0000000000000000e+00  -4.4172398264226125e-03 -2.5831955109200128e-02 0.0000000000000000e+00  -4.4116349876911296e-03 -2.6855431561763933e-02 0.0000000000000000e+00  -4.4067701843856647e-03 -2.7879301442189725e-02 0.0000000000000000e+00  -4.4025822069433387e-03 -2.8903479271746746e-02 0.0000000000000000e+00  -4.3990005406504187e-03 -2.9927894704310284e-02 0.0000000000000000e+00  -4.3959526521739709e-03 -3.0952490485610457e-02 0.0000000000000000e+00  -4.3933676268864434e-03 -3.1977220535311920e-02 0.0000000000000000e+00  -4.3911785429535501e-03 -3.3002048191851305e-02 0.0000000000000000e+00  -4.3893238938254786e-03 -3.4026944640024169e-02 0.0000000000000000e+00  -4.3877483077954258e-03 -3.5051887527171519e-02 0.0000000000000000e+00  -4.3864027605481273e-03 -3.6076859764116558