<?xml version="1.0"?>
<VTKFile type="UnstructuredGrid"  version="0.1"  >
<UnstructuredGrid>
<Piece  NumberOfPoints="1250" NumberOfCells="2352">
<Points>
<DataArray  type="Float64"  NumberOfComponents="3"  format="ascii">0 0 0  0.0336 0 0  0.0336 0.07729999999999999 0  0 0.07729999999999999 0  0.001400000000000002 0 0  0.002800000000000005 0 0  0.004200000000000008 0 0  0.005600000000000009 0 0  0.007000000000000011 0 0  0.008400000000000013 0 0  0.009800000000000019 0 0  0.01120000000000002 0 0  0.01260000000000003 0 0  0.01400000000000003 0 0  0.01540000000000004 0 0  0.01680000000000005 0 0  0.01820000000000004 0 0  0.01960000000000004 0 0  0.02100000000000004 0 0  0.02240000000000003 0 0  0.02380000000000003 0 0  0.02520000000000002 0 0  0.02660000000000002 0 0  0.02800000000000001 0 0  0.02940000000000001 0 0  0.03080000000000001 0 0  0.0322 0 0  0.0336 0.001577551020408161 0  0.0336 0.003155102040816321 0  0.0336 0.004732653061224482 0  0.0336 0.006310204081632642 0  0.0336 0.007887755102040803 0  0.0336 0.009465306122448964 0  0.0336 0.01104285714285712 0  0.0336 0.01262040816326528 0  0.0336 0.01419795918367344 0  0.0336 0.0157755102040816 0  0.0336 0.01735306122448976 0  0.0336 0.01893061224489792 0  0.0336 0.02050816326530608 0  0.0336 0.02208571428571425 0  0.0336 0.02366326530612241 0  0.0336 0.02524081632653058 0  0.0336 0.02681836734693874 0  0.0336 0.02839591836734691 0  0.0336 0.02997346938775507 0  0.0336 0.03155102040816323 0  0.0336 0.0331285714285714 0  0.0336 0.03470612244897956 0  0.0336 0.03628367346938772 0  0.0336 0.03786122448979588 0  0.0336 0.03943877551020405 0  0.0336 0.04101632653061221 0  0.0336 0.04259387755102037 0  0.0336 0.04417142857142854 0  0.0336 0.04574897959183671 0  0.0336 0.04732653061224486 0  0.0336 0.04890408163265302 0  0.0336 0.05048163265306119 0  0.0336 0.05205918367346936 0  0.0336 0.05363673469387752 0  0.0336 0.05521428571428568 0  0.0336 0.05679183673469385 0  0.0336 0.05836938775510202 0  0.0336 0.05994693877551018 0  0.0336 0.06152448979591834 0  0.0336 0.0631020408163265 0  0.0336 0.06467959183673468 0  0.0336 0.06625714285714283 0  0.0336 0.06783469387755101 0  0.0336 0.06941224489795916 0  0.0336 0.07098979591836733 0  0.0336 0.07256734693877549 0  0.0336 0.07414489795918365 0  0.0336 0.07572244897959182 0  0.03219999999999999 0.07729999999999999 0  0.03079999999999999 0.07729999999999999 0  0.02939999999999999 0.07729999999999999 0  0.02799999999999999 0.07729999999999999 0  0.02659999999999999 0.07729999999999999 0  0.02519999999999999 0.07729999999999999 0  0.02379999999999998 0.07729999999999999 0  0.02239999999999998 0.07729999999999999 0  0.02099999999999997 0.07729999999999999 0  0.01959999999999996 0.07729999999999999 0  0.01819999999999996 0.07729999999999999 0  0.01679999999999995 0.07729999999999999 0  0.01539999999999996 0.07729999999999999 0  0.01399999999999996 0.07729999999999999 0  0.01259999999999996 0.07729999999999999 0  0.01119999999999997 0.07729999999999999 0  0.009799999999999972 0.07729999999999999 0  0.008399999999999977 0.07729999999999999 0  0.006999999999999978 0.07729999999999999 0  0.005599999999999983 0.07729999999999999 0  0.004199999999999988 0.07729999999999999 0  0.00279999999999999 0.07729999999999999 0  0.001399999999999998 0.07729999999999999 0  0 0.07572244897959184 0  0 0.07414489795918368 0  0 0.07256734693877551 0  0 0.07098979591836735 0  0 0.06941224489795919 0  0 0.06783469387755103 0  0 0.06625714285714288 0  0 0.06467959183673472 0  0 0.06310204081632656 0  0 0.0615244897959184 0  0 0.05994693877551023 0  0 0.05836938775510207 0  0 0.05679183673469392 0  0 0.05521428571428574 0  0 0.05363673469387759 0  0 0.05205918367346941 0  0 0.05048163265306126 0  0 0.04890408163265308 0  0 0.04732653061224493 0  0 0.04574897959183676 0  0 0.0441714285714286 0  0 0.04259387755102043 0  0 0.04101632653061228 0  0 0.03943877551020411 0  0 0.03786122448979595 0  0 0.03628367346938779 0  0 0.03470612244897962 0  0 0.03312857142857146 0  0 0.03155102040816329 0  0 0.02997346938775513 0  0 0.02839591836734697 0  0 0.0268183673469388 0  0 0.02524081632653064 0  0 0.02366326530612247 0  0 0.02208571428571431 0  0 0.02050816326530614 0  0 0.01893061224489798 0  0 0.01735306122448981 0  0 0.01577551020408165 0  0 0.01419795918367349 0  0 0.01262040816326532 0  0 0.01104285714285716 0  0 0.009465306122448988 0  0 0.00788775510204083 0  0 0.006310204081632659 0  0 0.004732653061224501 0  0 0.003155102040816343 0  0 0.001577551020408172 0  0.001400000000000004 0.001577551020408172 0  0.001400000000000004 0.003155102040816329 0  0.001400000000000002 0.004732653061224501 0  0.001400000000000002 0.006310204081632645 0  0.001400000000000005 0.007887755102040823 0  0.001400000000000002 0.009465306122448981 0  0.001400000000000002 0.01104285714285717 0  0.001400000000000004 0.01262040816326531 0  0.0014 0.01419795918367349 0  0.001400000000000002 0.01577551020408166 0  0.001400000000000005 0.0173530612244898 0  0.001400000000000002 0.01893061224489797 0  0.001400000000000002 0.02050816326530613 0  0.001400000000000002 0.02208571428571431 0  0.001400000000000002 0.02366326530612247 0  0.001400000000000002 0.02524081632653063 0  0.001400000000000002 0.0268183673469388 0  0.001400000000000002 0.02839591836734696 0  0.001400000000000002 0.02997346938775513 0  0.001400000000000002 0.03155102040816328 0  0.001400000000000002 0.03312857142857147 0  0.001399999999999997 0.03470612244897962 0  0.001400000000000005 0.03628367346938778 0  0.001400000000000002 0.03786122448979594 0  0.001400000000000002 0.03943877551020411 0  0.001400000000000002 0.04101632653061228 0  0.001400000000000002 0.04259387755102043 0  0.001400000000000002 0.0441714285714286 0  0.0014 0.04574897959183676 0  0.001400000000000002 0.04732653061224492 0  0.001400000000000004 0.04890408163265308 0  0.001400000000000002 0.05048163265306126 0  0.001400000000000002 0.05205918367346941 0  0.0014 0.05363673469387758 0  0.001400000000000004 0.05521428571428574 0  0.001399999999999998 0.05679183673469391 0  0.001400000000000002 0.05836938775510207 0  0.0014 0.05994693877551023 0  0.001400000000000002 0.0615244897959184 0  0.001400000000000002 0.06310204081632656 0  0.001400000000000002 0.06467959183673472 0  0.0014 0.06625714285714286 0  0.001400000000000002 0.06783469387755102 0  0.001399999999999998 0.06941224489795919 0  0.001400000000000002 0.07098979591836735 0  0.0014 0.07256734693877552 0  0.001400000000000002 0.07414489795918368 0  0.001400000000000002 0.07572244897959184 0  0.002800000000000006 0.001577551020408165 0  0.002800000000000004 0.003155102040816343 0  0.002800000000000002 0.004732653061224487 0  0.002800000000000002 0.006310204081632652 0  0.002800000000000002 0.007887755102040813 0  0.0028 0.009465306122448981 0  0.002799999999999997 0.01104285714285715 0  0.0028 0.01262040816326532 0  0.0028 0.01419795918367348 0  0.0028 0.01577551020408165 0  0.002799999999999997 0.0173530612244898 0  0.0028 0.01893061224489797 0  0.002800000000000004 0.02050816326530613 0  0.0028 0.0220857142857143 0  0.0028 0.02366326530612247 0  0.002800000000000004 0.02524081632653064 0  0.0028 0.0268183673469388 0  0.0028 0.02839591836734696 0  0.002799999999999995 0.02997346938775512 0  0.002799999999999997 0.03155102040816328 0  0.002799999999999995 0.03312857142857146 0  0.0028 0.03470612244897962 0  0.002799999999999995 0.03628367346938778 0  0.002799999999999997 0.03786122448979594 0  0.002799999999999997 0.03943877551020411 0  0.002799999999999997 0.04101632653061228 0  0.002799999999999997 0.04259387755102043 0  0.002799999999999995 0.0441714285714286 0  0.002799999999999997 0.04574897959183676 0  0.002799999999999997 0.04732653061224493 0  0.002799999999999995 0.04890408163265308 0  0.002799999999999993 0.05048163265306124 0  0.002799999999999995 0.05205918367346941 0  0.002799999999999995 0.05363673469387757 0  0.002799999999999992 0.05521428571428574 0  0.002799999999999997 0.05679183673469391 0  0.002799999999999993 0.05836938775510207 0  0.002799999999999993 0.05994693877551022 0  0.002799999999999992 0.0615244897959184 0  0.002799999999999988 0.06310204081632655 0  0.002799999999999992 0.0646795918367347 0  0.002799999999999992 0.06625714285714286 0  0.00279999999999999 0.06783469387755103 0  0.00279999999999999 0.06941224489795919 0  0.002799999999999988 0.07098979591836735 0  0.00279999999999999 0.07256734693877552 0  0.002799999999999988 0.07414489795918368 0  0.00279999999999999 0.07572244897959184 0  0.004200000000000006 0.001577551020408172 0  0.004200000000000006 0.003155102040816329 0  0.004200000000000008 0.00473265306122448 0  0.004200000000000009 0.006310204081632652 0  0.004200000000000008 0.00788775510204082 0  0.004200000000000008 0.009465306122448978 0  0.004200000000000006 0.01104285714285716 0  0.004200000000000006 0.01262040816326532 0  0.004200000000000004 0.01419795918367349 0  0.004200000000000002 0.01577551020408165 0  0.004200000000000004 0.0173530612244898 0  0.004200000000000006 0.01893061224489797 0  0.004200000000000006 0.02050816326530613 0  0.004200000000000002 0.0220857142857143 0  0.004200000000000004 0.02366326530612247 0  0.004199999999999999 0.02524081632653062 0  0.004200000000000004 0.0268183673469388 0  0.004200000000000004 0.02839591836734696 0  0.004200000000000002 0.02997346938775512 0  0.004199999999999999 0.03155102040816328 0  0.004200000000000001 0.03312857142857145 0  0.004200000000000001 0.03470612244897962 0  0.004199999999999995 0.03628367346938778 0  0.004199999999999999 0.03786122448979594 0  0.004199999999999999 0.0394387755102041 0  0.004199999999999997 0.04101632653061227 0  0.004199999999999999 0.04259387755102043 0  0.004199999999999999 0.04417142857142859 0  0.004199999999999999 0.04574897959183676 0  0.004199999999999999 0.04732653061224492 0  0.004199999999999997 0.04890408163265308 0  0.004199999999999997 0.05048163265306124 0  0.004199999999999999 0.05205918367346941 0  0.004199999999999992 0.05363673469387757 0  0.0
[...]
<PointData  Vectors="displacement"> 
<DataArray  type="Float64"  Name="displacement"  NumberOfComponents="3" format="ascii">0.0000000000000000e+00 0.0000000000000000e+00 0.0000000000000000e+00  0.0000000000000000e+00 0.0000000000000000e+00 0.0000000000000000e+00  3.6054919457678748e-03 -3.0160108443128091e-02 0.0000000000000000e+00  -3.5682479261778472e-03 -3.0152890107130070e-02 0.0000000000000000e+00  0.0000000000000000e+00 0.0000000000000000e+00 0.0000000000000000e+00  0.0000000000000000e+00 0.0000000000000000e+00 0.0000000000000000e+00  0.0000000000000000e+00 0.0000000000000000e+00 0.0000000000000000e+00  0.0000000000000000e+00 0.0000000000000000e+00 0.0000000000000000e+00  0.0000000000000000e+00 0.0000000000000000e+00 0.0000000000000000e+00  0.0000000000000000e+00 0.0000000000000000e+00 0.0000000000000000e+00  0.0000000000000000e+00 0.0000000000000000e+00 0.0000000000000000e+00  0.0000000000000000e+00 0.0000000000000000e+00 0.0000000000000000e+00  0.0000000000000000e+00 0.0000000000000000e+00 0.0000000000000000e+00  0.0000000000000000e+00 0.0000000000000000e+00 0.0000000000000000e+00  0.0000000000000000e+00 0.0000000000000000e+00 0.0000000000000000e+00  0.0000000000000000e+00 0.0000000000000000e+00 0.0000000000000000e+00  0.0000000000000000e+00 0.0000000000000000e+00 0.0000000000000000e+00  0.0000000000000000e+00 0.0000000000000000e+00 0.0000000000000000e+00  0.0000000000000000e+00 0.0000000000000000e+00 0.0000000000000000e+00  0.0000000000000000e+00 0.0000000000000000e+00 0.0000000000000000e+00  0.0000000000000000e+00 0.0000000000000000e+00 0.0000000000000000e+00  0.0000000000000000e+00 0.0000000000000000e+00 0.0000000000000000e+00  0.0000000000000000e+00 0.0000000000000000e+00 0.0000000000000000e+00  0.0000000000000000e+00 0.0000000000000000e+00 0.0000000000000000e+00  0.0000000000000000e+00 0.0000000000000000e+00 0.0000000000000000e+00  0.0000000000000000e+00 0.0000000000000000e+00 0.0000000000000000e+00  0.0000000000000000e+00 0.0000000000000000e+00 0.0000000000000000e+00  1.1711167491551002e-03 -1.0713417434379362e-03 0.0000000000000000e+00  1.8172208635755533e-03 -1.7204552826651151e-03 0.0000000000000000e+00  2.2721264705053844e-03 -2.2910951180124778e-03 0.0000000000000000e+00  2.6133307330469496e-03 -2.8339444863898066e-03 0.0000000000000000e+00  2.8743323054305405e-03 -3.3666396923456698e-03 0.0000000000000000e+00  3.0748242329558311e-03 -3.8983732338775060e-03 0.0000000000000000e+00  3.2284877453633985e-03 -4.4341700778200016e-03 0.0000000000000000e+00  3.3454904976411492e-03 -4.9767154264253009e-03 0.0000000000000000e+00  3.4336703369580307e-03 -5.5273184423075203e-03 0.0000000000000000e+00  3.4992040744842427e-03 -6.0864428265805922e-03 0.0000000000000000e+00  3.5470200778547518e-03 -6.6540212639513308e-03 0.0000000000000000e+00  3.5810727241351935e-03 -7.2296551992421477e-03 0.0000000000000000e+00  3.6045376032515395e-03 -7.8127481151507826e-03 0.0000000000000000e+00  3.6199582723596443e-03 -8.4025969988611796e-03 0.0000000000000000e+00  3.6293614059890447e-03 -8.9984557483317826e-03 0.0000000000000000e+00  3.6343499378409866e-03 -9.5995788158208927e-03 0.0000000000000000e+00  3.6361798903899898e-03 -1.0205250490863824e-02 0.0000000000000000e+00  3.6358244428655417e-03 -1.0814803583317998e-02 0.0000000000000000e+00  3.6340275911464206e-03 -1.1427630264216782e-02 0.0000000000000000e+00  3.6313490768812326e-03 -1.2043187157987212e-02 0.0000000000000000e+00  3.6282018730968285e-03 -1.2660996304837493e-02 0.0000000000000000e+00  3.6248832788307933e-03 -1.3280643251593144e-02 0.0000000000000000e+00  3.6216005229796778e-03 -1.3901773244433514e-02 0.0000000000000000e+00  3.6184916675891005e-03 -1.4524086267384910e-02 0.0000000000000000e+00  3.6156425120578034e-03 -1.5147331484348868e-02 0.0000000000000000e+00  3.6131001216582739e-03 -1.5771301492305892e-02 0.0000000000000000e+00  3.6108835317094387e-03 -1.6395826673501371e-02 0.0000000000000000e+00  3.6089921110277166e-03 -1.7020769840222660e-02 0.0000000000000000e+00  3.6074120047266747e-03 -1.7646021293101253e-02 0.0000000000000000e+00  3.6061210173785082e-03 -1.8271494359044654e-02 0.0000000000000000e+00  3.6050922434347193e-03 -1.8897121434638058e-02 0.0000000000000000e+00  3.6042967029538309e-03 -1.9522850532281231e-02 0.0000000000000000e+00  3.6037051972396387e-03 -2.0148642306963647e-02 0.0000000000000000e+00  3.6032895608996028e-03 -2.0774467529342176e-02 0.0000000000000000e+00  3.6030234538806370e-03 -2.1400304963942057e-02 0.0000000000000000e+00  3.6028828089035010e-03 -2.2026139608458676e-02 0.0000000000000000e+00  3.6028460260055469e-03 -2.2651961250187709e-02 0.0000000000000000e+00  3.6028939862018058e-03 -2.3277763297709111e-02 0.0000000000000000e+00  3.6030099401929234e-03 -2.3903541849474127e-02 0.0000000000000000e+00  3.6031793152671025e-03 -2.4529294965467352e-02 0.0000000000000000e+00  3.6033894738869213e-03 -2.5155022113396892e-02 0.0000000000000000e+00  3.6036294510200036e-03 -2.5780723766825216e-02 0.0000000000000000e+00  3.6038896946875639e-03 -2.6406401139379174e-02 0.0000000000000000e+00  3.6041618371823879e-03 -2.7032056046880110e-02 0.0000000000000000e+00  3.6044385370937490e-03 -2.7657690898137320e-02 0.0000000000000000e+00  3.6047134652398964e-03 -2.8283308825162754e-02 0.0000000000000000e+00  3.6049815945954806e-03 -2.8908913968333262e-02 0.0000000000000000e+00  3.6052402368950322e-03 -2.9534511836519305e-02 0.0000000000000000e+00  3.3065440530336237e-03 -3.0159886339734782e-02 0.0000000000000000e+00  3.0075966976588217e-03 -3.0159669087184714e-02 0.0000000000000000e+00  2.7086539621275847e-03 -3.0159459134768120e-02 0.0000000000000000e+00  2.4097196738794764e-03 -3.0159254851124889e-02 0.0000000000000000e+00  2.1107962910700815e-03 -3.0159052732409861e-02 0.0000000000000000e+00  1.8118849645345288e-03 -3.0158848557641608e-02 0.0000000000000000e+00  1.5129857516459294e-03 -3.0158638014216223e-02 0.0000000000000000e+00  1.2140978299461473e-03 -3.0158417073230803e-02 0.0000000000000000e+00  9.1521969013968563e-04 -3.0158182225126753e-02 0.0000000000000000e+00  6.1634930670660150e-04 -3.0157930628484760e-02 0.0000000000000000e+00  3.1748428772548529e-04 -3.0157660202025888e-02 0.0000000000000000e+00  1.8622007368036078e-05 -3.0157369678673780e-02 0.0000000000000000e+00  -2.8024027401053856e-04 -3.0157058633586475e-02 0.0000000000000000e+00  -5.7910529623929645e-04 -3.0156727492848100e-02 0.0000000000000000e+00  -8.7797568568489409e-04 -3.0156377524989220e-02 0.0000000000000000e+00  -1.1768538351200645e-03 -3.0156010813173432e-02 0.0000000000000000e+00  -1.4757417711644557e-03 -3.0155630201364591e-02 0.0000000000000000e+00  -1.7746410043822502e-03 -3.0155239202562956e-02 0.0000000000000000e+00  -2.0735523585974987e-03 -3.0154841850183904e-02 0.0000000000000000e+00  -2.3724757778948139e-03 -3.0154442462130063e-02 0.0000000000000000e+00  -2.6714101130575598e-03 -3.0154045263041666e-02 0.0000000000000000e+00  -2.9703529054737297e-03 -3.0153653749044756e-02 0.0000000000000000e+00  -3.2693003027322331e-03 -3.0153269528236763e-02 0.0000000000000000e+00  -3.5686740946113708e-03 -2.9527293290983095e-02 0.0000000000000000e+00  -3.5690933295002723e-03 -2.8901695462908571e-02 0.0000000000000000e+00  -3.5695031148486045e-03 -2.8276090348042394e-02 0.0000000000000000e+00  -3.5699060863509497e-03 -2.7650472440197391e-02 0.0000000000000000e+00  -3.5703072676992009e-03 -2.7024837601909782e-02 0.0000000000000000e+00  -3.5707129963208086e-03 -2.6399182703906780e-02 0.0000000000000000e+00  -3.5711306201649086e-03 -2.5773505339787273e-02 0.0000000000000000e+00  -3.5715685107133772e-03 -2.5147803695877179e-02 0.0000000000000000e+00  -3.5720362215351086e-03 -2.4522076560606211e-02 0.0000000000000000e+00  -3.5725447175386838e-03 -2.3896323462549225e-02 0.0000000000000000e+00  -3.5731066346369371e-03 -2.3270544936365892e-02 0.0000000000000000e+00  -3.5737365424213653e-03 -2.2644742924805509e-02 0.0000000000000000e+00  -3.5744511854232689e-03 -2.2018921332650068e-02 0.0000000000000000e+00  -3.5752696759346180e-03 -2.1393086755194472e-02 0.0000000000000000e+00  -3.5762136049137436e-03 -2.0767249409821515e-02 0.0000000000000000e+00  -3.5773070278340142e-03 -2.0141424304512053e-02 0.0000000000000000e+00  -3.5785762695443660e-03 -1.9515632681658329e-02 0.0000000000000000e+00  -3.5800494761220147e-03 -1.8889903779076605e-02 0.0000000000000000e+00  -3.5817558219899217e-03 -1.8264276952222509e-02 0.0000000000000000e+00  -3.5837242568485411e-03 -1.7638804201673620e-02 0.0000000000000000e+00  -3.5859816488173070e-03 -1.7013553147115775e-02 0.0000000000000000e+00  -3.5885501472000727e-03 -1.6388610482243604e-02 0.0000000000000000e+00  -3.5914435501510230e-03 -1.5764085932769858e-02 0.0000000000000000e+00  -3.5946624190032667e-03 -1.5140116720398082e-02 0.0000000000000000e+00  -3.5981876320699412e-03 -1.4516872507061272e-02 0.0000000000000000e+00  -3.6019720164579402e-03 -1.3894560753479585e-02 0.0000000000000000e+00  -3.6059296371545751e-03 -1.3273432371258744e-02 0.0000000000000000e+00  -3.6099222587734066e-03 -1.2653787475041103e-02 0.0000000000000000e+00  -3.6137424271901475e-03 -1.2035980946929434e-02 0.0000000000000000e+00  -3.6170925456146638e-03 -1.1420427405381531e-02 0.0000000000000000e+00  -3.6195592407287621e-03 -1.0807605020295883e-02 0.0000000000000000e+00  -3.6205822246147307e-03 -1.0198057429362670e-02 0.0000000000000000e+00  -3.6194167466667582e-03 -9.5923927802542084e-03 0.0000000000000000e+00  -3.6150885751826743e-03 -8.9912786369968252e-03 0.0000000000000000e+00  -3.6063402106033867e-03 -8.3954311262106340e-03 0.0000000000000000e+00  -3.5915666380072304e-03 -7.8055962209456521e-03 0.0000000000000000e+00  -3.5687382439077548e-03 -7.2225203908217427e-03 0.0000000000000000e+00  -3.5353073159187340e-03 -6.6469068369575937e-03 0.0000000000000000e+00  -3.4880923846761728e-03 -6.0793518773778737e-03 0.0000000000000000e+00  -3.4231307511708260e-03 -5.5202531365675473e-03 0.0000000000000000e+00  -3.3354822883022773e-03 -4.9696757166841727e-03 0.0000000000000000e+00  -3.2189537247039731e-03 -4.4271515633148286e-03 0.0000000000000000e+00  -3.0656849917171862e-03 -3.8913637561203240e-03 0.0000000000000000e+00  -2.8654825237365042e-03 -3.3596150757347807e-03 0.0000000000000000e+00  -2.6046584220700930e-03 -2.8268765459462759e-03 0.0000000000000000e+00  -2.2636766227524369e-03 -2.2840610593273022e-03 0.0000000000000000e+00  -1.8099036225394333e-03 -1.7137141522093678e-03 0.0000000000000000e+00  -1.1661147964958669e-03 -1.0564434979693539e-03 0.0000000000000000e+00  -8.2047418829013497e-04 -6.2972825025076279e-04 0.0000000000000000e+00  -1.4995218113681775e-03 -1.3281891831247413e-03 0.0000000000000000e+00  -1.9815426665086800e-03 -1.9738292228187746e-03 0.0000000000000000e+00  -2.3351325722589600e-03 -2.5790966494135016e-03 0.0000000000000000e+00  -2.6009299618699796e-03 -3.1624661423090479e-03 0.0000000000000000e+00  -2.8022293922013073e-03 -3.7353243770375604e-03 0.0000000000000000e+00  -2.9544397576993803e-03 -4.3044705397715976e-03 0.0000000000000000e+00  -3.0686987771926309e-03 -4.8740178791908282e-03 0.0000000000000000e+00  -3.1534405854859670e-03 -5.4464197582675599e-03 0.0000000000000000e+00  -3.2152230570734294e-03 -6.0230632692428090e-03 0.0000000000000000e+00  -3.2592211920525224e-03 -6.6046361775033103e-03 0.0000000000000000e+00  -3.2895475857901094e-03 -7.1913648276096288e-03 0.0000000000000000e+00  -3.3094758509019597e-03 -7.7831741687510230e-03 0.0000000000000000e+00  -3.3216057718364576e-03 -8.3797982338420680e-03 0.0000000000000000e+00  -3.3279910666646961e-03 -8.9808575444310715e-03 0.0000000000000000e+00  -3.3302414965501988e-03 -9.5859135326652831e-03 0.0000000000000000e+00  -3.3296062234944614e-03 -1.0194506505510669e-02 0.0000000000000000e+00  -3.3270426846523584e-03 -1.0806181592490069e-02 0.0000000000000000e+00  -3.3232737931070616e-03 -1.1420505836703862e-02 0.0000000000000000e+00  -3.3188354524604441e-03 -1.2037078755681080e-02 0.0000000000000000e+00  -3.3141158961358841e-03 -1.2655538125542912e-02 0.0000000000000000e+00  -3.3093880729621384e-03 -1.3275562327318056e-02 0.0000000000000000e+00  -3.3048361110155728e-03 -1.3896870281907664e-02 0.0000000000000000e+00  -3.3005767544095612e-03 -1.4519219758294049e-02 0.0000000000000000e+00  -3.2966765577428789e-03 -1.5142404649234898e-02 0.0000000000000000e+00  -3.2931655277512887e-03 -1.5766251657959439e-02 0.0000000000000000e+00  -3.2900478156067730e-03 -1.6390616720170115e-02 0.0000000000000000e+00  -3.2873099840278852e-03 -1.7015381391977214e-02 0.0000000000000000e+00  -3.2849273002985204e-03 -1.7640449361566050e-02 0.0000000000000000e+00  -3.2828684394880661e-03 -1.8265743186580818e-02 0.0000000000000000e+00  -3.2810989218133796e-03 -1.8891201317189556e-02 0.0000000000000000e+00  -3.2795835542813504e-03 -1.9516775433863386e-02 0.0000000000000000e+00  -3.2782880994332202e-03 -2.0142428106774551e-02 0.0000000000000000e+00  -3.2771803529400363e-03 -2.0768130768491152e-02 0.0000000000000000e+00  -3.2762307765961348e-03 -2.1393861981742847e-02 0.0000000000000000e+00  -3.2754128034555678e-03 -2.2019605978174452e-02 0.0000000000000000e+00  -3.2747029069372844e-03 -2.2645351441159513e-02 0.0000000000000000e+00  -3.2740805051672444e-03 -2.3271090505103044e-02 0.0000000000000000e+00  -3.2735277551465512e-03 -2.3896817944587857e-02 0.0000000000000000e+00  -3.2730292781393872e-03 -2.4522530528724877e-02 0.0000000000000000e+00  -3.2725718477313705e-03 -2.5148226518769811e-02 0.0000000000000000e+00  -3.2721440653835686e-03 -2.5773905290119560e-02 0.0000000000000000e+00  -3.2717360456535820e-03 -2.6399567062786150e-02 0.0000000000000000e+00  -3.2713391365033874e-03 -2.7025212726617589e-02 0.0000000000000000e+00  -3.2709457143133423e-03 -2.7650843747170729e-02 0.0000000000000000e+00  -3.2705491317975288e-03 -2.8276462130679532e-02 0.0000000000000000e+00  -3.2701439943112038e-03 -2.8902070403821162e-02 0.0000000000000000e+00  -3.2697271576689032e-03 -2.9527671573097110e-02 0.0000000000000000e+00  -6.3153740852047217e-04 -5.1323971108641726e-04 0.0000000000000000e+00  -1.2258388442915188e-03 -1.1223859883887335e-03 0.0000000000000000e+00  -1.6967108868148348e-03 -1.7550223164674533e-03 0.0000000000000000e+00  -2.0534657733014892e-03 -2.3780777868459562e-03 0.0000000000000000e+00  -2.3226793382119908e-03 -2.9876606915084630e-03 0.0000000000000000e+00  -2.5257490674911206e-03 -3.5873687329126664e-03 0.0000000000000000e+00  -2.6782571023916640e-03 -4.1813423223900003e-03 0.0000000000000000e+00  -2.7917605549370762e-03 -4.7728537590447746e-03 0.0000000000000000e+00  -2.8750669039726753e-03 -5.3642213454585114e-03 0.0000000000000000e+00  -2.9350213467013086e-03 -5.9569828349425825e-03 0.0000000000000000e+00  -2.9770077984961896e-03 -6.5520879750397805e-03 0.0000000000000000e+00  -3.0052851807760108e-03 -7.1500597957197074e-03 0.0000000000000000e+00  -3.0232256971835869e-03 -7.7511197493052696e-03 0.0000000000000000e+00  -3.0334920910922753e-03 -8.3552820966076233e-03 0.0000000000000000e+00  -3.0381748600159931e-03 -8.9624241161170102e-03 0.0000000000000000e+00  -3.0389016437937307e-03 -9.5723377596084232e-03 0.0000000000000000e+00  -3.0369261504084892e-03 -1.0184767169092446e-02 0.0000000000000000e+00  -3.0332012632499528e-03 -1.0799435447495898e-02 0.0000000000000000e+00  -3.0284394318146140e-03 -1.1416063287083097e-02 0.0000000000000000e+00  -3.0231625602265000e-03 -1.2034381463712747e-02 0.0000000000000000e+00  -3.0177430827973465e-03 -1.2654138752162319e-02 0.0000000000000000e+00  -3.0124375897758551e-03 -1.3275106469068097e-02 0.0000000000000000e+00  -3.0074141484440113e-03 -1.3897080578032189e-02 0.0000000000000000e+00  -3.0027743049114023e-03 -1.4519882077201205e-02 0.0000000000000000e+00  -2.9985706237793848e-03 -1.5143356219954626e-02 0.0000000000000000e+00  -2.9948205127981083e-03 -1.5767370984815933e-02 0.0000000000000000e+00  -2.9915169813227167e-03 -1.6391815104299337e-02 0.0000000000000000e+00  -2.9886368920759966e-03 -1.7016595878713299e-02 0.0000000000000000e+00  -2.9861471844854566e-03 -1.7641636935649695e-02 0.0000000000000000e+00  -2.9840094744410430e-03 -1.8266876045493721e-02 0.0000000000000000e+00  -2.9821833696602354e-03 -1.8892263064909830e-02 0.0000000000000000e+00  -2.9806287818356504e-03 -1.9517758051506781e-02 0.0000000000000000e+00  -2.9793074661250180e-03 -2.0143329571782130e-02 0.0000000000000000e+00  -2.9781839749222650e-03 -2.0768953209362680e-02 0.0000000000000000e+00  -2.9772261757078987e-03 -2.1394610270150986e-02 0.0000000000000000e+00  -2.9764054515260953e-03 -2.2020286674167788e-02 0.0000000000000000e+00  -2.9756966766593795e-03 -2.2645972019765630e-02 0.0000000000000000e+00  -2.9750780387633072e-03 -2.3271658803765843e-02 0.0000000000000000e+00  -2.9745307615349614e-03 -2.3897341780369463e-02 0.0000000000000000e+00  -2.9740387684750215e-03 -2.4523017441944545e-02 0.0000000000000000e+00  -2.9735883181959384e-03 -2.5148683605591849e-02 0.0000000000000000e+00  -2.9731676350673564e-03 -2.5774339090364470e-02 0.0000000000000000e+00  -2.9727665563733735e-03 -2.6399983470779900e-02 0.0000000000000000e+00  -2.9723762202501034e-03 -2.7025616892506859e-02 0.0000000000000000e+00  -2.9719888311412492e-03 -2.7651239936260306e-02 0.0000000000000000e+00  -2.9715975678517603e-03 -2.8276853521195165e-02 0.0000000000000000e+00  -2.9711967466941464e-03 -2.8902458878177627e-02 0.0000000000000000e+00  -2.9707823643439378e-03 -2.9528057797002353e-02 0.0000000000000000e+00  -5.1235316110435491e-04 -4.6922096042674108e-04 0.0000000000000000e+00  -1.0121397195886619e-03 -1.0188467486426489e-03 0.0000000000000000e+00  -1.4394917235798766e-03 -1.6160564990865406e-03 0.0000000000000000e+00  -1.7801890268919450e-03 -2.2297616372919491e-03 0.0000000000000000e+00  -2.0437047717207701e-03 -2.8451710852798375e-03 0.0000000000000000e+00  -2.2444723242514386e-03 -3.4577592161968286e-03 0.0000000000000000e+00  -2.3956309751041057e-03 -4.0672067351740946e-03 0.0000000000000000e+00  -2.5079349588528277e-03 -4.6745066898054889e-03 0.0000000000000000e+00  -2.5899703189204504e-03 -5.2808495855888116e-03 0.0000000000000000e+00  -2.6485640110392203e-03 -5.8872498755863549e-03 0.0000000000000000e+00  -2.6891446877423419e-03 -6.4944563717337376e-03 0.0000000000000000e+00  -2.7160264140414494e-03 -7.1029651819247072e-03 0.0000000000000000e+00  -2.7326284087231595e-03 -7.7130644175909145e-03 0.0000000000000000e+00  -2.7416473096616377e-03 -8.3248835129996965e-03 0.0000000000000000e+00  -2.7451946772740774e-03 -8.9384373976269145e-03 0.0000000000000000e+00  -2.7449085127938862e-03 -9.5536627478811920e-03 0.0000000000000000e+00  -2.7420447134386418e-03 -1.0170446289782135e-02 0.0000000000000000e+00  -2.7375525274449192e-03 -1.0788646112721720e-02 0.0000000000000000e+00  -2.7321369095335240e-03 -1.1408107212451751e-02 0.0000000000000000e+00  -2.7263099564126367e-03 -1.2028672443928547e-02 0.0000000000000000e+00  -2.7204331463277914e-03 -1.2650189919203976e-02 0.0000000000000000e+00  -2.7147518051407397e-03 -1.3272517713175972e-02 0.0000000000000000e+00  -2.7094230072967022e-03 -1.3895526574594407e-02 0.0000000000000000e+00  -2.7045379551277806e-03 -1.4519101194000085e-02 0.0000000000000000e+00  -2.7001397433591731e-03 -1.5143140457511100e-02 0.0000000000000000e+00  -2.6962372966478692e-03 -1.5767557014706689e-02 0.0000000000000000e+00  -2.6928161613182806e-03 -1.6392276407830059e-02 0.0000000000000000e+00  -2.6898467359240492e-03 -1.7017235945232814e-02 0.0000000000000000e+00  -2.6872904380047229e-03 -1.7642383451585794e-02 0.0000000000000000e+00  -2.6851042261116596e-03 -1.8267675988345364e-02 0.0000000000000000e+00  -2.6832438266520286e-03 -1.8893078608100012e-02 0.0000000000000000e+00  -2.6816659540739433e-03 -1.9518563183891811e-02 0.0000000000000000e+00  -2.6803297599850505e-03 -2.0144107337883407e-02 0.0000000000000000e+00  -2.6791977014263757e-03 -2.0769693481573311e-02 0.0000000000000000e+00  -2.6782359800833710e-03 -2.1395307971130793e-02 0.0000000000000000e+00  -2.6774146720233483e-03 -2.2020940375499842