<?xml version="1.0"?>
<VTKFile type="UnstructuredGrid"  version="0.1"  >
<UnstructuredGrid>
<Piece  NumberOfPoints="1250" NumberOfCells="2352">
<Points>
<DataArray  type="Float64"  NumberOfComponents="3"  format="ascii">0 0 0  0.0336 0 0  0.0336 0.07729999999999999 0  0 0.07729999999999999 0  0.001400000000000002 0 0  0.002800000000000005 0 0  0.004200000000000008 0 0  0.005600000000000009 0 0  0.007000000000000011 0 0  0.008400000000000013 0 0  0.009800000000000019 0 0  0.01120000000000002 0 0  0.01260000000000003 0 0  0.01400000000000003 0 0  0.01540000000000004 0 0  0.01680000000000005 0 0  0.01820000000000004 0 0  0.01960000000000004 0 0  0.02100000000000004 0 0  0.02240000000000003 0 0  0.02380000000000003 0 0  0.02520000000000002 0 0  0.02660000000000002 0 0  0.02800000000000001 0 0  0.02940000000000001 0 0  0.03080000000000001 0 0  0.0322 0 0  0.0336 0.001577551020408161 0  0.0336 0.003155102040816321 0  0.0336 0.004732653061224482 0  0.0336 0.006310204081632642 0  0.0336 0.007887755102040803 0  0.0336 0.009465306122448964 0  0.0336 0.01104285714285712 0  0.0336 0.01262040816326528 0  0.0336 0.01419795918367344 0  0.0336 0.0157755102040816 0  0.0336 0.01735306122448976 0  0.0336 0.01893061224489792 0  0.0336 0.02050816326530608 0  0.0336 0.02208571428571425 0  0.0336 0.02366326530612241 0  0.0336 0.02524081632653058 0  0.0336 0.02681836734693874 0  0.0336 0.02839591836734691 0  0.0336 0.02997346938775507 0  0.0336 0.03155102040816323 0  0.0336 0.0331285714285714 0  0.0336 0.03470612244897956 0  0.0336 0.03628367346938772 0  0.0336 0.03786122448979588 0  0.0336 0.03943877551020405 0  0.0336 0.04101632653061221 0  0.0336 0.04259387755102037 0  0.0336 0.04417142857142854 0  0.0336 0.04574897959183671 0  0.0336 0.04732653061224486 0  0.0336 0.04890408163265302 0  0.0336 0.05048163265306119 0  0.0336 0.05205918367346936 0  0.0336 0.05363673469387752 0  0.0336 0.05521428571428568 0  0.0336 0.05679183673469385 0  0.0336 0.05836938775510202 0  0.0336 0.05994693877551018 0  0.0336 0.06152448979591834 0  0.0336 0.0631020408163265 0  0.0336 0.06467959183673468 0  0.0336 0.06625714285714283 0  0.0336 0.06783469387755101 0  0.0336 0.06941224489795916 0  0.0336 0.07098979591836733 0  0.0336 0.07256734693877549 0  0.0336 0.07414489795918365 0  0.0336 0.07572244897959182 0  0.03219999999999999 0.07729999999999999 0  0.03079999999999999 0.07729999999999999 0  0.02939999999999999 0.07729999999999999 0  0.02799999999999999 0.07729999999999999 0  0.02659999999999999 0.07729999999999999 0  0.02519999999999999 0.07729999999999999 0  0.02379999999999998 0.07729999999999999 0  0.02239999999999998 0.07729999999999999 0  0.02099999999999997 0.07729999999999999 0  0.01959999999999996 0.07729999999999999 0  0.01819999999999996 0.07729999999999999 0  0.01679999999999995 0.07729999999999999 0  0.01539999999999996 0.07729999999999999 0  0.01399999999999996 0.07729999999999999 0  0.01259999999999996 0.07729999999999999 0  0.01119999999999997 0.07729999999999999 0  0.009799999999999972 0.07729999999999999 0  0.008399999999999977 0.07729999999999999 0  0.006999999999999978 0.07729999999999999 0  0.005599999999999983 0.07729999999999999 0  0.004199999999999988 0.07729999999999999 0  0.00279999999999999 0.07729999999999999 0  0.001399999999999998 0.07729999999999999 0  0 0.07572244897959184 0  0 0.07414489795918368 0  0 0.07256734693877551 0  0 0.07098979591836735 0  0 0.06941224489795919 0  0 0.06783469387755103 0  0 0.06625714285714288 0  0 0.06467959183673472 0  0 0.06310204081632656 0  0 0.0615244897959184 0  0 0.05994693877551023 0  0 0.05836938775510207 0  0 0.05679183673469392 0  0 0.05521428571428574 0  0 0.05363673469387759 0  0 0.05205918367346941 0  0 0.05048163265306126 0  0 0.04890408163265308 0  0 0.04732653061224493 0  0 0.04574897959183676 0  0 0.0441714285714286 0  0 0.04259387755102043 0  0 0.04101632653061228 0  0 0.03943877551020411 0  0 0.03786122448979595 0  0 0.03628367346938779 0  0 0.03470612244897962 0  0 0.03312857142857146 0  0 0.03155102040816329 0  0 0.02997346938775513 0  0 0.02839591836734697 0  0 0.0268183673469388 0  0 0.02524081632653064 0  0 0.02366326530612247 0  0 0.02208571428571431 0  0 0.02050816326530614 0  0 0.01893061224489798 0  0 0.01735306122448981 0  0 0.01577551020408165 0  0 0.01419795918367349 0  0 0.01262040816326532 0  0 0.01104285714285716 0  0 0.009465306122448988 0  0 0.00788775510204083 0  0 0.006310204081632659 0  0 0.004732653061224501 0  0 0.003155102040816343 0  0 0.001577551020408172 0  0.001400000000000004 0.001577551020408172 0  0.001400000000000004 0.003155102040816329 0  0.001400000000000002 0.004732653061224501 0  0.001400000000000002 0.006310204081632645 0  0.001400000000000005 0.007887755102040823 0  0.001400000000000002 0.009465306122448981 0  0.001400000000000002 0.01104285714285717 0  0.001400000000000004 0.01262040816326531 0  0.0014 0.01419795918367349 0  0.001400000000000002 0.01577551020408166 0  0.001400000000000005 0.0173530612244898 0  0.001400000000000002 0.01893061224489797 0  0.001400000000000002 0.02050816326530613 0  0.001400000000000002 0.02208571428571431 0  0.001400000000000002 0.02366326530612247 0  0.001400000000000002 0.02524081632653063 0  0.001400000000000002 0.0268183673469388 0  0.001400000000000002 0.02839591836734696 0  0.001400000000000002 0.02997346938775513 0  0.001400000000000002 0.03155102040816328 0  0.001400000000000002 0.03312857142857147 0  0.001399999999999997 0.03470612244897962 0  0.001400000000000005 0.03628367346938778 0  0.001400000000000002 0.03786122448979594 0  0.001400000000000002 0.03943877551020411 0  0.001400000000000002 0.04101632653061228 0  0.001400000000000002 0.04259387755102043 0  0.001400000000000002 0.0441714285714286 0  0.0014 0.04574897959183676 0  0.001400000000000002 0.04732653061224492 0  0.001400000000000004 0.04890408163265308 0  0.001400000000000002 0.05048163265306126 0  0.001400000000000002 0.05205918367346941 0  0.0014 0.05363673469387758 0  0.001400000000000004 0.05521428571428574 0  0.001399999999999998 0.05679183673469391 0  0.001400000000000002 0.05836938775510207 0  0.0014 0.05994693877551023 0  0.001400000000000002 0.0615244897959184 0  0.001400000000000002 0.06310204081632656 0  0.001400000000000002 0.06467959183673472 0  0.0014 0.06625714285714286 0  0.001400000000000002 0.06783469387755102 0  0.001399999999999998 0.06941224489795919 0  0.001400000000000002 0.07098979591836735 0  0.0014 0.07256734693877552 0  0.001400000000000002 0.07414489795918368 0  0.001400000000000002 0.07572244897959184 0  0.002800000000000006 0.001577551020408165 0  0.002800000000000004 0.003155102040816343 0  0.002800000000000002 0.004732653061224487 0  0.002800000000000002 0.006310204081632652 0  0.002800000000000002 0.007887755102040813 0  0.0028 0.009465306122448981 0  0.002799999999999997 0.01104285714285715 0  0.0028 0.01262040816326532 0  0.0028 0.01419795918367348 0  0.0028 0.01577551020408165 0  0.002799999999999997 0.0173530612244898 0  0.0028 0.01893061224489797 0  0.002800000000000004 0.02050816326530613 0  0.0028 0.0220857142857143 0  0.0028 0.02366326530612247 0  0.002800000000000004 0.02524081632653064 0  0.0028 0.0268183673469388 0  0.0028 0.02839591836734696 0  0.002799999999999995 0.02997346938775512 0  0.002799999999999997 0.03155102040816328 0  0.002799999999999995 0.03312857142857146 0  0.0028 0.03470612244897962 0  0.002799999999999995 0.03628367346938778 0  0.002799999999999997 0.03786122448979594 0  0.002799999999999997 0.03943877551020411 0  0.002799999999999997 0.04101632653061228 0  0.002799999999999997 0.04259387755102043 0  0.002799999999999995 0.0441714285714286 0  0.002799999999999997 0.04574897959183676 0  0.002799999999999997 0.04732653061224493 0  0.002799999999999995 0.04890408163265308 0  0.002799999999999993 0.05048163265306124 0  0.002799999999999995 0.05205918367346941 0  0.002799999999999995 0.05363673469387757 0  0.002799999999999992 0.05521428571428574 0  0.002799999999999997 0.05679183673469391 0  0.002799999999999993 0.05836938775510207 0  0.002799999999999993 0.05994693877551022 0  0.002799999999999992 0.0615244897959184 0  0.002799999999999988 0.06310204081632655 0  0.002799999999999992 0.0646795918367347 0  0.002799999999999992 0.06625714285714286 0  0.00279999999999999 0.06783469387755103 0  0.00279999999999999 0.06941224489795919 0  0.002799999999999988 0.07098979591836735 0  0.00279999999999999 0.07256734693877552 0  0.002799999999999988 0.07414489795918368 0  0.00279999999999999 0.07572244897959184 0  0.004200000000000006 0.001577551020408172 0  0.004200000000000006 0.003155102040816329 0  0.004200000000000008 0.00473265306122448 0  0.004200000000000009 0.006310204081632652 0  0.004200000000000008 0.00788775510204082 0  0.004200000000000008 0.009465306122448978 0  0.004200000000000006 0.01104285714285716 0  0.004200000000000006 0.01262040816326532 0  0.004200000000000004 0.01419795918367349 0  0.004200000000000002 0.01577551020408165 0  0.004200000000000004 0.0173530612244898 0  0.004200000000000006 0.01893061224489797 0  0.004200000000000006 0.02050816326530613 0  0.004200000000000002 0.0220857142857143 0  0.004200000000000004 0.02366326530612247 0  0.004199999999999999 0.02524081632653062 0  0.004200000000000004 0.0268183673469388 0  0.004200000000000004 0.02839591836734696 0  0.004200000000000002 0.02997346938775512 0  0.004199999999999999 0.03155102040816328 0  0.004200000000000001 0.03312857142857145 0  0.004200000000000001 0.03470612244897962 0  0.004199999999999995 0.03628367346938778 0  0.004199999999999999 0.03786122448979594 0  0.004199999999999999 0.0394387755102041 0  0.004199999999999997 0.04101632653061227 0  0.004199999999999999 0.04259387755102043 0  0.004199999999999999 0.04417142857142859 0  0.004199999999999999 0.04574897959183676 0  0.004199999999999999 0.04732653061224492 0  0.004199999999999997 0.04890408163265308 0  0.004199999999999997 0.05048163265306124 0  0.004199999999999999 0.05205918367346941 0  0.004199999999999992 0.05363673469387757 0  0.0
[...]
<PointData  Vectors="displacement"> 
<DataArray  type="Float64"  Name="displacement"  NumberOfComponents="3" format="ascii">0.0000000000000000e+00 0.0000000000000000e+00 0.0000000000000000e+00  0.0000000000000000e+00 0.0000000000000000e+00 0.0000000000000000e+00  2.8383659998593145e-03 -2.3743064093526205e-02 0.0000000000000000e+00  -2.8090462397575328e-03 -2.3737381573698230e-02 0.0000000000000000e+00  0.0000000000000000e+00 0.0000000000000000e+00 0.0000000000000000e+00  0.0000000000000000e+00 0.0000000000000000e+00 0.0000000000000000e+00  0.0000000000000000e+00 0.0000000000000000e+00 0.0000000000000000e+00  0.0000000000000000e+00 0.0000000000000000e+00 0.0000000000000000e+00  0.0000000000000000e+00 0.0000000000000000e+00 0.0000000000000000e+00  0.0000000000000000e+00 0.0000000000000000e+00 0.0000000000000000e+00  0.0000000000000000e+00 0.0000000000000000e+00 0.0000000000000000e+00  0.0000000000000000e+00 0.0000000000000000e+00 0.0000000000000000e+00  0.0000000000000000e+00 0.0000000000000000e+00 0.0000000000000000e+00  0.0000000000000000e+00 0.0000000000000000e+00 0.0000000000000000e+00  0.0000000000000000e+00 0.0000000000000000e+00 0.0000000000000000e+00  0.0000000000000000e+00 0.0000000000000000e+00 0.0000000000000000e+00  0.0000000000000000e+00 0.0000000000000000e+00 0.0000000000000000e+00  0.0000000000000000e+00 0.0000000000000000e+00 0.0000000000000000e+00  0.0000000000000000e+00 0.0000000000000000e+00 0.0000000000000000e+00  0.0000000000000000e+00 0.0000000000000000e+00 0.0000000000000000e+00  0.0000000000000000e+00 0.0000000000000000e+00 0.0000000000000000e+00  0.0000000000000000e+00 0.0000000000000000e+00 0.0000000000000000e+00  0.0000000000000000e+00 0.0000000000000000e+00 0.0000000000000000e+00  0.0000000000000000e+00 0.0000000000000000e+00 0.0000000000000000e+00  0.0000000000000000e+00 0.0000000000000000e+00 0.0000000000000000e+00  0.0000000000000000e+00 0.0000000000000000e+00 0.0000000000000000e+00  0.0000000000000000e+00 0.0000000000000000e+00 0.0000000000000000e+00  9.2194297273910978e-04 -8.4339669164261856e-04 0.0000000000000000e+00  1.4305781266445656e-03 -1.3544009672044339e-03 0.0000000000000000e+00  1.7886953065680434e-03 -1.8036280716268180e-03 0.0000000000000000e+00  2.0573029175050147e-03 -2.2309775743919423e-03 0.0000000000000000e+00  2.2627722404452832e-03 -2.6503333748252749e-03 0.0000000000000000e+00  2.4206063110502941e-03 -3.0689321202865003e-03 0.0000000000000000e+00  2.5415754591158199e-03 -3.4907296357305877e-03 0.0000000000000000e+00  2.6336840087812763e-03 -3.9178398037815606e-03 0.0000000000000000e+00  2.7031021801583893e-03 -4.3512932418164930e-03 0.0000000000000000e+00  2.7546925692747619e-03 -4.7914549911378434e-03 0.0000000000000000e+00  2.7923349549068568e-03 -5.2382720588552267e-03 0.0000000000000000e+00  2.8191423572978360e-03 -5.6914306887650146e-03 0.0000000000000000e+00  2.8376147089426104e-03 -6.1504612821398907e-03 0.0000000000000000e+00  2.8497543846234515e-03 -6.6148104033587132e-03 0.0000000000000000e+00  2.8571568515231823e-03 -7.0838906954951405e-03 0.0000000000000000e+00  2.8610839936193842e-03 -7.5571152379865598e-03 0.0000000000000000e+00  2.8625245945622067e-03 -8.0339205991905652e-03 0.0000000000000000e+00  2.8622447741706116e-03 -8.5137815443140624e-03 0.0000000000000000e+00  2.8608302313278882e-03 -8.9962195697024568e-03 0.0000000000000000e+00  2.8587216137148583e-03 -9.4808069116068400e-03 0.0000000000000000e+00  2.8562440277569122e-03 -9.9671673038081183e-03 0.0000000000000000e+00  2.8536315173772579e-03 -1.0454974474658310e-02 0.0000000000000000e+00  2.8510472202178581e-03 -1.0943949149873063e-02 0.0000000000000000e+00  2.8485998234210087e-03 -1.1433855146664579e-02 0.0000000000000000e+00  2.8463568711942313e-03 -1.1924494998317058e-02 0.0000000000000000e+00  2.8443554149222500e-03 -1.2415705430113007e-02 0.0000000000000000e+00  2.8426104398561330e-03 -1.2907352913181789e-02 0.0000000000000000e+00  2.8411214491066809e-03 -1.3399329448685776e-02 0.0000000000000000e+00  2.8398775356356363e-03 -1.3891548677547647e-02 0.0000000000000000e+00  2.8388612264466416e-03 -1.4383942367758402e-02 0.0000000000000000e+00  2.8380513405759874e-03 -1.4876457299608544e-02 0.0000000000000000e+00  2.8374250640271904e-03 -1.5369052546689323e-02 0.0000000000000000e+00  2.8369594105926025e-03 -1.5861697135269096e-02 0.0000000000000000e+00  2.8366322075163907e-03 -1.6354368055013897e-02 0.0000000000000000e+00  2.8364227190120868e-03 -1.6847048588635075e-02 0.0000000000000000e+00  2.8363119984981594e-03 -1.7339726925807736e-02 0.0000000000000000e+00  2.8362830417486933e-03 -1.7832395026743351e-02 0.0000000000000000e+00  2.8363207976478638e-03 -1.8325047702451691e-02 0.0000000000000000e+00  2.8364120805770281e-03 -1.8817681881500747e-02 0.0000000000000000e+00  2.8365454184013680e-03 -1.9310296036644345e-02 0.0000000000000000e+00  2.8367108624212148e-03 -1.9802889748844192e-02 0.0000000000000000e+00  2.8368997805897989e-03 -2.0295463390904798e-02 0.0000000000000000e+00  2.8371046532642487e-03 -2.0788017918234508e-02 0.0000000000000000e+00  2.8373188931005875e-03 -2.1280554760309704e-02 0.0000000000000000e+00  2.8375367206903710e-03 -2.1773075813427082e-02 0.0000000000000000e+00  2.8377531534862620e-03 -2.2265583543213070e-02 0.0000000000000000e+00  2.8379642340427731e-03 -2.2758081209113257e-02 0.0000000000000000e+00  2.8381678460658128e-03 -2.3250573147898010e-02 0.0000000000000000e+00  2.6030240417493720e-03 -2.3742889246174032e-02 0.0000000000000000e+00  2.3676825066670814e-03 -2.3742718217570798e-02 0.0000000000000000e+00  2.1323446084829173e-03 -2.3742552935881157e-02 0.0000000000000000e+00  1.8970133602875974e-03 -2.3742392116842870e-02 0.0000000000000000e+00  1.6616906972248839e-03 -2.3742233002109783e-02 0.0000000000000000e+00  1.4263775252713632e-03 -2.3742072268781594e-02 0.0000000000000000e+00  1.1910738895931036e-03 -2.3741906521829694e-02 0.0000000000000000e+00  9.5577914272306256e-04 -2.3741732589564597e-02 0.0000000000000000e+00  7.2049209649244347e-04 -2.3741547709142261e-02 0.0000000000000000e+00  4.8521115634299420e-04 -2.3741349643700706e-02 0.0000000000000000e+00  2.4993443927275326e-04 -2.3741136754786292e-02 0.0000000000000000e+00  1.4659878140292556e-05 -2.3740908044913349e-02 0.0000000000000000e+00  -2.2061468379603309e-04 -2.3740663179631881e-02 0.0000000000000000e+00  -4.5589140342292754e-04 -2.3740402494369754e-02 0.0000000000000000e+00  -6.9117234830563205e-04 -2.3740126987757463e-02 0.0000000000000000e+00  -9.2645940211629840e-04 -2.3739838299732273e-02 0.0000000000000000e+00  -1.1617541602789046e-03 -2.3739538669159364e-02 0.0000000000000000e+00  -1.3970578119609984e-03 -2.3739230861592131e-02 0.0000000000000000e+00  -1.6323710057049173e-03 -2.3738918052272469e-02 0.0000000000000000e+00  -1.8676936974921664e-03 -2.3738603640400313e-02 0.0000000000000000e+00  -2.1030249826202861e-03 -2.3738290951756263e-02 0.0000000000000000e+00  -2.3383629255862076e-03 -2.3737982738609775e-02 0.0000000000000000e+00  -2.5737044936407737e-03 -2.3737680266909880e-02 0.0000000000000000e+00  -2.8093817340562508e-03 -2.3244890463114443e-02 0.0000000000000000e+00  -2.8097117700326083e-03 -2.2752398555906838e-02 0.0000000000000000e+00  -2.8100343670089413e-03 -2.2259900912288785e-02 0.0000000000000000e+00  -2.8103515998937536e-03 -2.1767393197602288e-02 0.0000000000000000e+00  -2.8106674235083215e-03 -2.1274872154695031e-02 0.0000000000000000e+00  -2.8109868268912761e-03 -2.0782335320096920e-02 0.0000000000000000e+00  -2.8113155945983207e-03 -2.0289780799407089e-02 0.0000000000000000e+00  -2.8116603169449739e-03 -1.9797207164839577e-02 0.0000000000000000e+00  -2.8120285148258979e-03 -1.9304613462604977e-02 0.0000000000000000e+00  -2.8124288201904013e-03 -1.8811999321581396e-02 0.0000000000000000e+00  -2.8128711804592268e-03 -1.8319365162671113e-02 0.0000000000000000e+00  -2.8133670653107843e-03 -1.7826712515272507e-02 0.0000000000000000e+00  -2.8139296566101410e-03 -1.7334044453362910e-02 0.0000000000000000e+00  -2.8145740002041694e-03 -1.6841366168982970e-02 0.0000000000000000e+00  -2.8153170932302771e-03 -1.6348685705604254e-02 0.0000000000000000e+00  -2.8161778729760109e-03 -1.5856014878020210e-02 0.0000000000000000e+00  -2.8171770632586164e-03 -1.5363370408965153e-02 0.0000000000000000e+00  -2.8183368216282410e-03 -1.4870775315443376e-02 0.0000000000000000e+00  -2.8196801151838149e-03 -1.4378260579409293e-02 0.0000000000000000e+00  -2.8212297341150563e-03 -1.3885867137487833e-02 0.0000000000000000e+00  -2.8230068299202431e-03 -1.3393648222197610e-02 0.0000000000000000e+00  -2.8250288392853862e-03 -1.2901672081766322e-02 0.0000000000000000e+00  -2.8273066245871874e-03 -1.2410025096010399e-02 0.0000000000000000e+00  -2.8298406277261754e-03 -1.1918815290526229e-02 0.0000000000000000e+00  -2.8326157954595044e-03 -1.1428176228963208e-02 0.0000000000000000e+00  -2.8355949916798323e-03 -1.0938271231462732e-02 0.0000000000000000e+00  -2.8387105654197236e-03 -1.0449297824182496e-02 0.0000000000000000e+00  -2.8418536930770902e-03 -9.9614922675856279e-03 0.0000000000000000e+00  -2.8448610597030248e-03 -9.4751339369445204e-03 0.0000000000000000e+00  -2.8474983869733782e-03 -8.9905492340238303e-03 0.0000000000000000e+00  -2.8494402533397857e-03 -8.5081145904457641e-03 0.0000000000000000e+00  -2.8502455810797936e-03 -8.0282579763068518e-03 0.0000000000000000e+00  -2.8493280771632948e-03 -7.5514581461576316e-03 0.0000000000000000e+00  -2.8459207932290073e-03 -7.0782406291252219e-03 0.0000000000000000e+00  -2.8390337828155168e-03 -6.6091691844637488e-03 0.0000000000000000e+00  -2.8274035235376833e-03 -6.1448310675530160e-03 0.0000000000000000e+00  -2.8094322345657468e-03 -5.6858139246895104e-03 0.0000000000000000e+00  -2.7831142699786373e-03 -5.2326713397326235e-03 0.0000000000000000e+00  -2.7459450687876787e-03 -4.7858727545315640e-03 0.0000000000000000e+00  -2.6948050594323976e-03 -4.3457311926170467e-03 0.0000000000000000e+00  -2.6258052056848118e-03 -3.9122979046237495e-03 0.0000000000000000e+00  -2.5340699534903955e-03 -3.4852044221840477e-03 0.0000000000000000e+00  -2.4134115892241958e-03 -3.0634140207756056e-03 0.0000000000000000e+00  -2.2558053910266321e-03 -2.6448033574933650e-03 0.0000000000000000e+00  -2.0504757790764752e-03 -2.2254134510641108e-03 0.0000000000000000e+00  -1.7820432987625716e-03 -1.7980906211725732e-03 0.0000000000000000e+00  -1.4248177454033949e-03 -1.3490941198244077e-03 0.0000000000000000e+00  -9.1800526532654042e-04 -8.3166828563545564e-04 0.0000000000000000e+00  -6.4590521205819555e-04 -4.9574351615485962e-04 0.0000000000000000e+00  -1.1804746174600628e-03 -1.0455957399067200e-03 0.0000000000000000e+00  -1.5599378438472715e-03 -1.5538655583892615e-03 0.0000000000000000e+00  -1.8382958547570707e-03 -2.0303526814531999e-03 0.0000000000000000e+00  -2.0475406082806442e-03 -2.4896010056475694e-03 0.0000000000000000e+00  -2.2060103725840344e-03 -2.9405745095827870e-03 0.0000000000000000e+00  -2.3258355539335861e-03 -3.3886257440755431e-03 0.0000000000000000e+00  -2.4157841437474278e-03 -3.8369927985119627e-03 0.0000000000000000e+00  -2.4824957800634651e-03 -4.2876070437425856e-03 0.0000000000000000e+00  -2.5311330449301985e-03 -4.7415604459996995e-03 0.0000000000000000e+00  -2.5657698745945976e-03 -5.1993944376090328e-03 0.0000000000000000e+00  -2.5896438441327043e-03 -5.6612872047140115e-03 0.0000000000000000e+00  -2.6053320528377898e-03 -6.1271796647614949e-03 0.0000000000000000e+00  -2.6148811395309119e-03 -6.5968624394076390e-03 0.0000000000000000e+00  -2.6199078609914482e-03 -7.0700367902968558e-03 0.0000000000000000e+00  -2.6216794760077038e-03 -7.5463574618854935e-03 0.0000000000000000e+00  -2.6211793674319208e-03 -8.0254625681680323e-03 0.0000000000000000e+00  -2.6191612623860197e-03 -8.5069940196199033e-03 0.0000000000000000e+00  -2.6161942626588817e-03 -8.9906109778307656e-03 0.0000000000000000e+00  -2.6127002498094274e-03 -9.4759981693660223e-03 0.0000000000000000e+00  -2.6089848544049981e-03 -9.9628704392572473e-03 0.0000000000000000e+00  -2.6052629510554645e-03 -1.0450974598101515e-02 0.0000000000000000e+00  -2.6016794916507336e-03 -1.0940089370863548e-02 0.0000000000000000e+00  -2.5983263811311186e-03 -1.1430024065040062e-02 0.0000000000000000e+00  -2.5952560135424655e-03 -1.1920616425993506e-02 0.0000000000000000e+00  -2.5924920112086721e-03 -1.2411730028606443e-02 0.0000000000000000e+00  -2.5900376420736394e-03 -1.2903251460559520e-02 0.0000000000000000e+00  -2.5878823278519736e-03 -1.3395087478790644e-02 0.0000000000000000e+00  -2.5860065981075926e-03 -1.3887162263360585e-02 0.0000000000000000e+00  -2.5843857927887372e-03 -1.4379414849010506e-02 0.0000000000000000e+00  -2.5829927682363366e-03 -1.4871796781617390e-02 0.0000000000000000e+00  -2.5817998193281557e-03 -1.5364270022403171e-02 0.0000000000000000e+00  -2.5807799931711300e-03 -1.5856805105333237e-02 0.0000000000000000e+00  -2.5799079374211891e-03 -1.6349379541152693e-02 0.0000000000000000e+00  -2.5791603985972789e-03 -1.6841976453712545e-02 0.0000000000000000e+00  -2.5785164622951430e-03 -1.7334583429626783e-02 0.0000000000000000e+00  -2.5779576075892737e-03 -1.7827191560061816e-02 0.0000000000000000e+00  -2.5774676317277660e-03 -1.8319794652953532e-02 0.0000000000000000e+00  -2.5770324880944667e-03 -1.8812388594675624e-02 0.0000000000000000e+00  -2.5766400700250112e-03 -1.9304970841762217e-02 0.0000000000000000e+00  -2.5762799652357341e-03 -1.9797540025414614e-02 0.0000000000000000e+00  -2.5759432004087541e-03 -2.0290095653923992e-02 0.0000000000000000e+00  -2.5756219933872884e-03 -2.0782637900491306e-02 0.0000000000000000e+00  -2.5753095329924688e-03 -2.1275167465635205e-02 0.0000000000000000e+00  -2.5749998176513825e-03 -2.1767685503091931e-02 0.0000000000000000e+00  -2.5746876143942637e-03 -2.2260193592237160e-02 0.0000000000000000e+00  -2.5743686763731286e-03 -2.2752693722157172e-02 0.0000000000000000e+00  -2.5740405283781386e-03 -2.3245188259672277e-02 0.0000000000000000e+00  -4.9716774713314080e-04 -4.0403977255739493e-04 0.0000000000000000e+00  -9.6502206891035112e-04 -8.8358045894432896e-04 0.0000000000000000e+00  -1.3357085704712632e-03 -1.3816133129637500e-03 0.0000000000000000e+00  -1.6165581619607624e-03 -1.8721037896447033e-03 0.0000000000000000e+00  -1.8284922449754164e-03 -2.3519882039534910e-03 0.0000000000000000e+00  -1.9883556488760131e-03 -2.8240987897397802e-03 0.0000000000000000e+00  -2.1084151657126161e-03 -3.2916950197538538e-03 0.0000000000000000e+00  -2.1977689475036919e-03 -3.7573529592480450e-03 0.0000000000000000e+00  -2.2633505414253402e-03 -4.2228976549354555e-03 0.0000000000000000e+00  -2.3105487197436327e-03 -4.6895396785718553e-03 0.0000000000000000e+00  -2.3436018839225890e-03 -5.1580267037547589e-03 0.0000000000000000e+00  -2.3658628018875631e-03 -5.6287704774815117e-03 0.0000000000000000e+00  -2.3799861871445995e-03 -6.1019453345595122e-03 0.0000000000000000e+00  -2.3880682419237880e-03 -6.5775625015847697e-03 0.0000000000000000e+00  -2.3917546770339578e-03 -7.0555253680070554e-03 0.0000000000000000e+00  -2.3923268259653779e-03 -7.5356701511811479e-03 0.0000000000000000e+00  -2.3907716503216857e-03 -8.0177954309877241e-03 0.0000000000000000e+00  -2.3878392923458291e-03 -8.5016832246244834e-03 0.0000000000000000e+00  -2.3840906165350393e-03 -8.9871136515335560e-03 0.0000000000000000e+00  -2.3799364835827052e-03 -9.4738747693058345e-03 0.0000000000000000e+00  -2.3756700864576387e-03 -9.9617688048937985e-03 0.0000000000000000e+00  -2.3714934217386034e-03 -1.0450615730968558e-02 0.0000000000000000e+00  -2.3675387977114179e-03 -1.0940254923131783e-02 0.0000000000000000e+00  -2.3638861549304399e-03 -1.1430545465030792e-02 0.0000000000000000e+00  -2.3605768740392885e-03 -1.1921365534857958e-02 0.0000000000000000e+00  -2.3576246590114864e-03 -1.2412611200812605e-02 0.0000000000000000e+00  -2.3550240065734244e-03 -1.2904194869342094e-02 0.0000000000000000e+00  -2.3527567022728272e-03 -1.3396043564093510e-02 0.0000000000000000e+00  -2.3507967197015632e-03 -1.3888097162107271e-02 0.0000000000000000e+00  -2.3491138415815062e-03 -1.4380306674112142e-02 0.0000000000000000e+00  -2.3476762697327968e-03 -1.4872632625567381e-02 0.0000000000000000e+00  -2.3464524452751585e-03 -1.5365043572462864e-02 0.0000000000000000e+00  -2.3454122605668002e-03 -1.5857514769275351e-02 0.0000000000000000e+00  -2.3445278100454959e-03 -1.6350026994604732e-02 0.0000000000000000e+00  -2.3437737978980284e-03 -1.6842565531821056e-02 0.0000000000000000e+00  -2.3431276958825794e-03 -1.7335119296685346e-02 0.0000000000000000e+00  -2.3425697241790076e-03 -1.7827680100666626e-02 0.0000000000000000e+00  -2.3420827113672191e-03 -1.8320242037007217e-02 0.0000000000000000e+00  -2.3416518761023635e-03 -1.8812800976035601e-02 0.0000000000000000e+00  -2.3412645624168926e-03 -1.9305354156424492e-02 0.0000000000000000e+00  -2.3409099526227341e-03 -1.9797899859721312e-02 0.0000000000000000e+00  -2.3405787765428008e-03 -2.0290437156244436e-02 0.0000000000000000e+00  -2.3402630337411665e-03 -2.0782965711039564e-02 0.0000000000000000e+00  -2.3399557478569043e-03 -2.1275485638782066e-02 0.0000000000000000e+00  -2.3396507819627129e-03 -2.1767997396630517e-02 0.0000000000000000e+00  -2.3393427661816380e-03 -2.2260501708174986e-02 0.0000000000000000e+00  -2.3390272261214007e-03 -2.2752999542395229e-02 0.0000000000000000e+00  -2.3387010102286980e-03 -2.3245492308278520e-02 0.0000000000000000e+00  -4.0334185023109027e-04 -3.6938671352743682e-04 0.0000000000000000e+00  -7.9679084308044131e-04 -8.0207084467613307e-04 0.0000000000000000e+00  -1.1332168887756568e-03 -1.2722146907702637e-03 0.0000000000000000e+00  -1.4014254041489909e-03 -1.7553442676553760e-03 0.0000000000000000e+00  -1.6088739692270071e-03 -2.2398155352203121e-03 0.0000000000000000e+00  -1.7669250212192394e-03 -2.7220657659422021e-03 0.0000000000000000e+00  -1.8859222569968784e-03 -3.2018436000306920e-03 0.0000000000000000e+00  -1.9743317761182176e-03 -3.6799307983575377e-03 0.0000000000000000e+00  -2.0389128042565667e-03 -4.1572645673784540e-03 0.0000000000000000e+00  -2.0850397533713483e-03 -4.6346435190786506e-03 0.0000000000000000e+00  -2.1169862435418993e-03 -5.1126571437053138e-03 0.0000000000000000e+00  -2.1381484536071630e-03 -5.5916959942811859e-03 0.0000000000000000e+00  -2.1512181089949002e-03 -6.0719868819333091e-03 0.0000000000000000e+00  -2.1583180948400943e-03 -6.5536317017232028e-03 0.0000000000000000e+00  -2.1611107033860663e-03 -7.0366422066425044e-03 0.0000000000000000e+00  -2.1608854249655003e-03 -7.5209685462043884e-03 0.0000000000000000e+00  -2.1586309446220199e-03 -8.0065215472753422e-03 0.0000000000000000e+00  -2.1550945428822910e-03 -8.4931894929937430e-03 0.0000000000000000e+00  -2.1508311841009894e-03 -8.9808503587386571e-03 0.0000000000000000e+00  -2.1462440082398761e-03 -9.4693804345820937e-03 0.0000000000000000e+00  -2.1416175832794770e-03 -9.9586601491606277e-03 0.0000000000000000e+00  -2.1371450380896816e-03 -1.0448577774202409e-02 0.0000000000000000e+00  -2.1329500270209825e-03 -1.0939031558723306e-02 0.0000000000000000e+00  -2.1291043476539713e-03 -1.1429930727191607e-02 0.0000000000000000e+00  -2.1256419256233763e-03 -1.1921195679317301e-02 0.0000000000000000e+00  -2.1225697867230005e-03 -1.2412757649875528e-02 0.0000000000000000e+00  -2.1198765525273786e-03 -1.2904558023185421e-02 0.0000000000000000e+00  -2.1175389197702309e-03 -1.3396547446247156e-02 0.0000000000000000e+00  -2.1155265150252416e-03 -1.3888684844865462e-02 0.0000000000000000e+00  -2.1138054545987981e-03 -1.4380936416357050e-02 0.0000000000000000e+00  -2.1123408848114419e-03 -1.4873274648929853e-02 0.0000000000000000e+00  -2.1110987298031754e-03 -1.5365677400085096e-02 0.0000000000000000e+00  -2.1100468323289536e-03 -1.5858127053227412e-02 0.0000000000000000e+00  -2.1091556372934126e-03 -1.6350609762089685e-02 0.0000000000000000e+00  -2.1083985375127622e-03 -1.6843114785783871e-02 0.0000000000000000e+00  -2.1077519758485024e-03 -1.7335633912627588