<?xml version="1.0"?>
<VTKFile type="UnstructuredGrid"  version="0.1"  >
<UnstructuredGrid>
<Piece  NumberOfPoints="6382" NumberOfCells="12354">
<Points>
<DataArray  type="Float64"  NumberOfComponents="3"  format="ascii">0 -3 0  0 0 0  10 -3 0  10 0 0  5.2 0 0  5.2 -0.4 0  5.5 -0.4 0  5.5 -0.6000000000000001 0  4.5 -0.6000000000000001 0  4.5 -0.4 0  4.8 -0.4 0  4.8 0 0  0 -2.666666666666667 0  0 -2.333333333333333 0  0 -2 0  0 -1.666666666666667 0  0 -1.333333333333333 0  0 -1 0  0 -0.666666666666667 0  0 -0.3333333333333335 0  9.836518447033493 -3 0  9.676485174132324 -3 0  9.519716728676565 -3 0  9.366040597429432 -3 0  9.215293522901804 -3 0  9.067325347766827 -3 0  8.921978167503752 -3 0  8.779125793186953 -3 0  8.638633440048579 -3 0  8.500376249002967 -3 0  8.364235730108557 -3 0  8.230099119300583 -3 0  8.097858693472926 -3 0  7.96741165420296 -3 0  7.838659590098249 -3 0  7.711508416266758 -3 0  7.585867779025237 -3 0  7.461651037321721 -3 0  7.338774694871047 -3 0  7.217158563845377 -3 0  7.096725097152937 -3 0  6.977399455051415 -3 0  6.859109304538208 -3 0  6.741784490575633 -3 0  6.625356935727237 -3 0  6.509760461250432 -3 0  6.394930659317325 -3 0  6.2808046903675 -3 0  6.167321173775116 -3 0  6.054420032640893 -3 0  5.942042373994132 -3 0  5.830130346471836 -3 0  5.718627047087892 -3 0  5.607476358937133 -3 0  5.496622874861212 -3 0  5.386011773348871 -3 0  5.275588701244851 -3 0  5.1652996754838 -3 0  5.055090972556302 -3 0  4.944909027443701 -3 0  4.834700324516204 -3 0  4.724411298755151 -3 0  4.613988226651132 -3 0  4.50337712513879 -3 0  4.392523641062869 -3 0  4.281372952912111 -3 0  4.169869653528168 -3 0  4.05795762600587 -3 0  3.94557996735911 -3 0  3.832678826224885 -3 0  3.719195309632506 -3 0  3.605069340682676 -3 0  3.490239538749567 -3 0  3.374643064272765 -3 0  3.25821550942437 -3 0  3.140890695461794 -3 0  3.022600544948583 -3 0  2.903274902847057 -3 0  2.782841436154621 -3 0  2.661225305128949 -3 0  2.538348962678273 -3 0  2.414132220974763 -3 0  2.288491583733238 -3 0  2.161340409901745 -3 0  2.032588345797035 -3 0  1.902141306527067 -3 0  1.76990088069941 -3 0  1.63576426989143 -3 0  1.499623750997021 -3 0  1.361366559951406 -3 0  1.220874206813038 -3 0  1.078021832496241 -3 0  0.9326746522331657 -3 0  0.7847064770981866 -3 0  0.6339594025705644 -3 0  0.4802832713234277 -3 0  0.3235148258676688 -3 0  0.1634815529665037 -3 0  10 -0.3333333333333333 0  10 -0.6666666666666666 0  10 -1 0  10 -1.333333333333333 0  10 -1.666666666666667 0  10 -2 0  10 -2.333333333333333 0  10 -2.666666666666667 0  5.242711110725164 0 0  5.286293876642154 0 0  5.330766086609641 0 0  5.37614589213589 0 0  5.422451816439484 0 0  5.469702760205794 0 0  5.517918009017504 0 0  5.567117241892008 0 0  5.617320540096343 0 0  5.668548395644089 0 0  5.720821717893487 0 0  5.774161842649544 0 0  5.828590541642586 0 0  5.88413003019757 0 0  5.940802977381058 0 0  5.998632515893446 0 0  6.057642249375406 0 0  6.117856262977496 0 0  6.179299133651088 0 0  6.241995940085244 0 0  6.305972273082686 0 0  6.371254245606542 0 0  6.43786850326221 0 0  6.505842235920577 0 0  6.575203187664691 0 0  6.645979668539436 0 0  6.71820056760014 0 0  6.791895362764803 0 0  6.867094133292654 0 0  6.943827572794882 0 0  7.022127001289535 0 0  7.10202437703821 0 0  7.183552311040527 0 0  7.266744080707336 0 0  7.351633641831447 0 0  7.438255642584554 0 0  7.526645439439152 0 0  7.616839110330926 0 0  7.708873468012155 0 0  7.802786077905059 0 0  7.898615271449994 0 0  7.996400162886068 0 0  8.096180664647234 0 0  8.197997502517053 0 0  8.301892235188374 0 0  8.407907268711336 0 0  8.516085874431543 0 0  8.626472207031901 0 0  8.739111321743804 0 0  8.854049193814495 0 0  8.971332736524433 0 0  9.091009820696414 0 0  9.21312929427506 0 0  9.337741001971482 0 0  9.464895805719847 0 0  9.594645605970797 0 0  9.727043361679982 0 0  9.862143111819449 0 0  5.2 -0.01666666666666669 0  5.2 -0.03333333333333339 0  5.2 -0.05000000000000009 0  5.2 -0.06666666666666679 0  5.2 -0.0833333333333335 0  5.2 -0.1000000000000002 0  5.2 -0.1166666666666669 0  5.2 -0.1333333333333336 0  5.2 -0.1500000000000002 0  5.2 -0.1666666666666669 0  5.2 -0.1833333333333335 0  5.2 -0.2000000000000001 0  5.2 -0.2166666666666668 0  5.2 -0.2333333333333335 0  5.2 -0.2500000000000002 0  5.2 -0.2666666666666669 0  5.2 -0.2833333333333335 0  5.2 -0.3000000000000002 0  5.2 -0.3166666666666668 0  5.2 -0.3333333333333335 0  5.2 -0.3500000000000001 0  5.2 -0.3666666666666668 0  5.2 -0.3833333333333334 0  5.2125 -0.4 0  5.225 -0.4 0  5.2375 -0.4 0  5.25 -0.4 0  5.2625 -0.4 0  5.275 -0.4 0  5.2875 -0.4 0  5.3 -0.4 0  5.3125 -0.4 0  5.325 -0.4 0  5.337499999999999 -0.4 0  5.35 -0.4 0  5.3625 -0.4 0  5.375 -0.4 0  5.3875 -0.4 0  5.4 -0.4 0  5.4125 -0.4 0  5.425 -0.4 0  5.4375 -0.4 0  5.45 -0.4 0  5.4625 -0.4 0  5.475 -0.4 0  5.4875 -0.4 0  5.5 -0.4083333333333334 0  5.5 -0.4166666666666667 0  5.5 -0.425 0  5.5 -0.4333333333333334 0  5.5 -0.4416666666666668 0  5.5 -0.4500000000000001 0  5.5 -0.4583333333333334 0  5.5 -0.4666666666666668 0  5.5 -0.4750000000000001 0  5.5 -0.4833333333333335 0  5.5 -0.4916666666666668 0  5.5 -0.5000000000000002 0  5.5 -0.5083333333333335 0  5.5 -0.5166666666666668 0  5.5 -0.5250000000000002 0  5.5 -0.5333333333333335 0  5.5 -0.5416666666666669 0  5.5 -0.5500000000000002 0  5.5 -0.5583333333333335 0  5.5 -0.5666666666666668 0  5.5 -0.5750000000000002 0  5.5 -0.5833333333333335 0  5.5 -0.5916666666666668 0  5.479591836734694 -0.6000000000000001 0  5.459183673469388 -0.6000000000000001 0  5.438775510204081 -0.6000000000000001 0  5.418367346938775 -0.6000000000000001 0  5.397959183673469 -0.6000000000000001 0  5.377551020408164 -0.6000000000000001 0  5.357142857142857 -0.6000000000000001 0  5.336734693877551 -0.6000000000000001 0  5.316326530612245 -0.6000000000000001 0  5.295918367346939 -0.6000000000000001 0  5.275510204081633 -0.6000000000000001 0  5.255102040816326 -0.6000000000000001 0  5.23469387755102 -0.6000000000000001 0  5.214285714285714 -0.6000000000000001 0  5.193877551020408 -0.6000000000000001 0  5.173469387755102 -0.6000000000000001 0  5.153061224489796 -0.6000000000000001 0  5.13265306122449 -0.6000000000000001 0  5.112244897959184 -0.6000000000000001 0  5.091836734693878 -0.6000000000000001 0  5.071428571428571 -0.6000000000000001 0  5.051020408163265 -0.6000000000000001 0  5.030612244897959 -0.6000000000000001 0  5.010204081632653 -0.6000000000000001 0  4.989795918367347 -0.6000000000000001 0  4.969387755102041 -0.6000000000000001 0  4.948979591836735 -0.6000000000000001 0  4.928571428571429 -0.6000000000000001 0  4.908163265306122 -0.6000000000000001 0  4.887755102040816 -0.6000000000000001 0  4.86734693877551 -0.6000000000000001 0  4.846938775510204 -0.6000000000000001 0  4.826530612244898 -0.6000000000000001 0  4.806122448979592 -0.6000000000000001 0  4.785714285714286 -0.6000000000000001 0  4.76530612244898 -0.6000000000000001 0  4.744897959183674 -0.6000000000000001 0  4.724489795918368 -0.6000000000000001 0  4.704081632653061 -0.6000000000000001 0  4.683673469387755 -0.6000000000000001 0  4.663265306122449 -0.6000000000000001 0  4.642857142857143 -0.6000000000000001 0  4.622448979591836 -0.6000000000000001 0  4.602040816326531 -0.6000000000000001 0  4.581632653061225 -0.6000000000000001 0  4.561224489795919 -0.6000000000000001 0  4.540816326530612 -0.6000000000000001 0  4.520408163265306 -0.6000000000000001 0  4.5 -0.5916666666666668 0  4.5 -0.5833333333333334 0  4.5 -0.5750000000000001 0  4.5 -0.5666666666666668 0  4.5 -0.5583333333333333 0  4.5 -0.55 0  4.5 -0.5416666666666667 0  4.5 -0.5333333333333333 0  4.5 -0.525 0  4.5 -0.5166666666666666 0  4.5 -0.5083333333333333 0  4.5 -0.4999999999999999 0  4.5 -0.4916666666666666 0  4.5 -0.4833333333333332 0  4.5 -0.4749999999999999 0  4.5 -0.4666666666666666 0  4.5 -0.4583333333333333 0  4.5 -0.45 0  4.5 -0.4416666666666667 0  4.5 -0.4333333333333333 0  4.5 -0.425 0  4.5 -0.4166666666666667 0  4.5 -0.4083333333333334 0  4.5125 -0.4 0  4.525 -0.4 0  4.5375 -0.4 0  4.55 -0.4 0  4.5625 -0.4 0  4.575 -0.4 0  4.587499999999999 -0.4 0  4.6 -0.4 0  4.6125 -0.4 0  4.625 -0.4 0  4.637499999999999 -0.4 0  4.649999999999999 -0.4 0  4.6625 -0.4 0  4.675 -0.4 0  4.6875 -0.4 0  4.699999999999999 -0.4 0  4.712499999999999 -0.4 0  4.725 -0.4 0  4.7375 -0.4 0  4.75 -0.4 0  4.7625 -0.4 0  4.774999999999999 -0.4 0  4.7875 -0.4 0  4.8 -0.3833333333333333 0  4.8 -0.3666666666666666 0  4.8 -0.3499999999999999 0  4.8 -0.3333333333333333 0  4.8 -0.3166666666666665 0  4.8 -0.2999999999999998 0  4.8 -0.2833333333333331 0  4.8 -0.2666666666666664 0  4.8 -0.2499999999999998 0  4.8 -0.2333333333333331 0  4.8 -0.2166666666666665 0  4.8 -0.1999999999999999 0  4.8 -0.1833333333333332 0  4.8 -0.1666666666666665 0  4.8 -0.1499999999999998 0  4.8 -0.1333333333333331 0  4.8 -0.1166666666666665 0  4.8 -0.09999999999999987 0  4.8 -0.0833333333333332 0  4.8 -0.06666666666666654 0  4.8 -0.04999999999999988 0  4.8 -0.03333333333333327 0  4.8 -0.01666666666666661 0  0.1378568875240437 0 0  0.2729566377271358 0 0  0.4053543934976697 0 0  0.5351041938077431 0 0  0.6622589976130751 0 0  0.7868707053643811 0 0  0.9089901789958823 0 0  1.028667263218748 0 0  1.14595080597766 0 0  1.260888678095464 0 0  1.373527792852679 0 0  1.483914125496606 0 0  1.592092731258683 0 0  1.698107764821866 0 0  1.802002497531814 0 0  1.90381933543871 0 0  2.003599837235452 0 0  2.101384728705643 0 0  2.197213922283282 0 0  2.291126532207516 0 0  2.38316088991875 0 0  2.473354560839241 0 0  2.56174435771825 0 0  2.648366358500676 0 0  2.733255919649871 0 0  2.81644768934063 0 0  2.897975623365796 0 0  2.977872999136252 0 0  3.056172427651654 0 0  3.132905867173631 0 0  3.208104637720262 0 0  3.28179943290277 0 0  3.354020331980409 0 0  3.42479681287121 0 0  3.494157764630528 0 0  3.562131497303279 0 0  3.628745754972536 0 0  3.69402772750921 0 0  3.758004060518725 0 0  3.820700866964234 0 0  3.882143737648484 0 0  3.942357751260559 0 0  4.0013674
[...]
<PointData  Vectors="displacement"> 
<DataArray  type="Float64"  Name="displacement"  NumberOfComponents="3" format="ascii">0.0000000000000000e+00 0.0000000000000000e+00 0.0000000000000000e+00  -8.6980089529421301e-04 -5.7185553944742516e-05 0.0000000000000000e+00  0.0000000000000000e+00 0.0000000000000000e+00 0.0000000000000000e+00  8.7055722946367538e-04 -5.6978342436284416e-05 0.0000000000000000e+00  0.0000000000000000e+00 -3.9393852778835297e-03 0.0000000000000000e+00  0.0000000000000000e+00 -4.0030265953716017e-03 0.0000000000000000e+00  0.0000000000000000e+00 -3.9635539267038776e-03 0.0000000000000000e+00  0.0000000000000000e+00 -5.2604905284657621e-03 0.0000000000000000e+00  0.0000000000000000e+00 -5.0852222211073741e-03 0.0000000000000000e+00  0.0000000000000000e+00 -3.9520142548081843e-03 0.0000000000000000e+00  0.0000000000000000e+00 -3.9912928460553356e-03 0.0000000000000000e+00  0.0000000000000000e+00 -3.9281328764480825e-03 0.0000000000000000e+00  -2.1828913825298649e-04 -1.5796749929597784e-04 0.0000000000000000e+00  -4.0469066248711554e-04 -1.9793289831964366e-04 0.0000000000000000e+00  -5.5710867364082439e-04 -1.9125592886811351e-04 0.0000000000000000e+00  -6.6988523508848205e-04 -1.5933000058486636e-04 0.0000000000000000e+00  -7.4466880316032425e-04 -1.2012944046926134e-04 0.0000000000000000e+00  -7.8915589338655445e-04 -8.5877837586604828e-05 0.0000000000000000e+00  -8.1609322961678473e-04 -6.4619937778552918e-05 0.0000000000000000e+00  -8.3974380871213339e-04 -5.7169733138230254e-05 0.0000000000000000e+00  0.0000000000000000e+00 0.0000000000000000e+00 0.0000000000000000e+00  0.0000000000000000e+00 0.0000000000000000e+00 0.0000000000000000e+00  0.0000000000000000e+00 0.0000000000000000e+00 0.0000000000000000e+00  0.0000000000000000e+00 0.0000000000000000e+00 0.0000000000000000e+00  0.0000000000000000e+00 0.0000000000000000e+00 0.0000000000000000e+00  0.0000000000000000e+00 0.0000000000000000e+00 0.0000000000000000e+00  0.0000000000000000e+00 0.0000000000000000e+00 0.0000000000000000e+00  0.0000000000000000e+00 0.0000000000000000e+00 0.0000000000000000e+00  0.0000000000000000e+00 0.0000000000000000e+00 0.0000000000000000e+00  0.0000000000000000e+00 0.0000000000000000e+00 0.0000000000000000e+00  0.0000000000000000e+00 0.0000000000000000e+00 0.0000000000000000e+00  0.0000000000000000e+00 0.0000000000000000e+00 0.0000000000000000e+00  0.0000000000000000e+00 0.0000000000000000e+00 0.0000000000000000e+00  0.0000000000000000e+00 0.0000000000000000e+00 0.0000000000000000e+00  0.0000000000000000e+00 0.0000000000000000e+00 0.0000000000000000e+00  0.0000000000000000e+00 0.0000000000000000e+00 0.0000000000000000e+00  0.0000000000000000e+00 0.0000000000000000e+00 0.0000000000000000e+00  0.0000000000000000e+00 0.0000000000000000e+00 0.0000000000000000e+00  0.0000000000000000e+00 0.0000000000000000e+00 0.0000000000000000e+00  0.0000000000000000e+00 0.0000000000000000e+00 0.0000000000000000e+00  0.0000000000000000e+00 0.0000000000000000e+00 0.0000000000000000e+00  0.0000000000000000e+00 0.0000000000000000e+00 0.0000000000000000e+00  0.0000000000000000e+00 0.0000000000000000e+00 0.0000000000000000e+00  0.0000000000000000e+00 0.0000000000000000e+00 0.0000000000000000e+00  0.0000000000000000e+00 0.0000000000000000e+00 0.0000000000000000e+00  0.0000000000000000e+00 0.0000000000000000e+00 0.0000000000000000e+00  0.0000000000000000e+00 0.0000000000000000e+00 0.0000000000000000e+00  0.0000000000000000e+00 0.0000000000000000e+00 0.0000000000000000e+00  0.0000000000000000e+00 0.0000000000000000e+00 0.0000000000000000e+00  0.0000000000000000e+00 0.0000000000000000e+00 0.0000000000000000e+00  0.0000000000000000e+00 0.0000000000000000e+00 0.0000000000000000e+00  0.0000000000000000e+00 0.0000000000000000e+00 0.0000000000000000e+00  0.0000000000000000e+00 0.0000000000000000e+00 0.0000000000000000e+00  0.0000000000000000e+00 0.0000000000000000e+00 0.0000000000000000e+00  0.0000000000000000e+00 0.0000000000000000e+00 0.0000000000000000e+00  0.0000000000000000e+00 0.0000000000000000e+00 0.0000000000000000e+00  0.0000000000000000e+00 0.0000000000000000e+00 0.0000000000000000e+00  0.0000000000000000e+00 0.0000000000000000e+00 0.0000000000000000e+00  0.0000000000000000e+00 0.0000000000000000e+00 0.0000000000000000e+00  0.0000000000000000e+00 0.0000000000000000e+00 0.0000000000000000e+00  0.0000000000000000e+00 0.0000000000000000e+00 0.0000000000000000e+00  0.0000000000000000e+00 0.0000000000000000e+00 0.0000000000000000e+00  0.0000000000000000e+00 0.0000000000000000e+00 0.0000000000000000e+00  0.0000000000000000e+00 0.0000000000000000e+00 0.0000000000000000e+00  0.0000000000000000e+00 0.0000000000000000e+00 0.0000000000000000e+00  0.0000000000000000e+00 0.0000000000000000e+00 0.0000000000000000e+00  0.0000000000000000e+00 0.0000000000000000e+00 0.0000000000000000e+00  0.0000000000000000e+00 0.0000000000000000e+00 0.0000000000000000e+00  0.0000000000000000e+00 0.0000000000000000e+00 0.0000000000000000e+00  0.0000000000000000e+00 0.0000000000000000e+00 0.0000000000000000e+00  0.0000000000000000e+00 0.0000000000000000e+00 0.0000000000000000e+00  0.0000000000000000e+00 0.0000000000000000e+00 0.0000000000000000e+00  0.0000000000000000e+00 0.0000000000000000e+00 0.0000000000000000e+00  0.0000000000000000e+00 0.0000000000000000e+00 0.0000000000000000e+00  0.0000000000000000e+00 0.0000000000000000e+00 0.0000000000000000e+00  0.0000000000000000e+00 0.0000000000000000e+00 0.0000000000000000e+00  0.0000000000000000e+00 0.0000000000000000e+00 0.0000000000000000e+00  0.0000000000000000e+00 0.0000000000000000e+00 0.0000000000000000e+00  0.0000000000000000e+00 0.0000000000000000e+00 0.0000000000000000e+00  0.0000000000000000e+00 0.0000000000000000e+00 0.0000000000000000e+00  0.0000000000000000e+00 0.0000000000000000e+00 0.0000000000000000e+00  0.0000000000000000e+00 0.0000000000000000e+00 0.0000000000000000e+00  0.0000000000000000e+00 0.0000000000000000e+00 0.0000000000000000e+00  0.0000000000000000e+00 0.0000000000000000e+00 0.0000000000000000e+00  0.0000000000000000e+00 0.0000000000000000e+00 0.0000000000000000e+00  0.0000000000000000e+00 0.0000000000000000e+00 0.0000000000000000e+00  0.0000000000000000e+00 0.0000000000000000e+00 0.0000000000000000e+00  0.0000000000000000e+00 0.0000000000000000e+00 0.0000000000000000e+00  0.0000000000000000e+00 0.0000000000000000e+00 0.0000000000000000e+00  0.0000000000000000e+00 0.0000000000000000e+00 0.0000000000000000e+00  0.0000000000000000e+00 0.0000000000000000e+00 0.0000000000000000e+00  0.0000000000000000e+00 0.0000000000000000e+00 0.0000000000000000e+00  0.0000000000000000e+00 0.0000000000000000e+00 0.0000000000000000e+00  0.0000000000000000e+00 0.0000000000000000e+00 0.0000000000000000e+00  0.0000000000000000e+00 0.0000000000000000e+00 0.0000000000000000e+00  0.0000000000000000e+00 0.0000000000000000e+00 0.0000000000000000e+00  0.0000000000000000e+00 0.0000000000000000e+00 0.0000000000000000e+00  0.0000000000000000e+00 0.0000000000000000e+00 0.0000000000000000e+00  8.4047773525865134e-04 -5.6996347160778329e-05 0.0000000000000000e+00  8.1692633928660819e-04 -6.4331511338408998e-05 0.0000000000000000e+00  7.9002398631912961e-04 -8.5704120582569420e-05 0.0000000000000000e+00  7.4560480114855231e-04 -1.2003640538093290e-04 0.0000000000000000e+00  6.7080353731275460e-04 -1.5921965675666006e-04 0.0000000000000000e+00  5.5781673996477884e-04 -1.9157199144610311e-04 0.0000000000000000e+00  4.0515390498560870e-04 -1.9826044477382746e-04 0.0000000000000000e+00  2.1880017000827417e-04 -1.5803951504228479e-04 0.0000000000000000e+00  -4.5854694684698273e-05 -3.9367543284293078e-03 0.0000000000000000e+00  -9.3252470330186291e-05 -3.9284737833067710e-03 0.0000000000000000e+00  -1.4278398084290170e-04 -3.9136880693987665e-03 0.0000000000000000e+00  -1.9504218192325148e-04 -3.8910645533770430e-03 0.0000000000000000e+00  -2.5039712066815095e-04 -3.8587233756653236e-03 0.0000000000000000e+00  -3.0880728913995831e-04 -3.8143390077758493e-03 0.0000000000000000e+00  -3.6949919731878503e-04 -3.7552313614744623e-03 0.0000000000000000e+00  -4.3092513053410932e-04 -3.6788557990210576e-03 0.0000000000000000e+00  -4.9065271523981633e-04 -3.5833639448410652e-03 0.0000000000000000e+00  -5.4576451975527583e-04 -3.4680144373721070e-03 0.0000000000000000e+00  -5.9316221061971302e-04 -3.3335335479790858e-03 0.0000000000000000e+00  -6.3030481623782043e-04 -3.1819938316659303e-03 0.0000000000000000e+00  -6.5533054047200274e-04 -3.0165139453010199e-03 0.0000000000000000e+00  -6.6735063901981995e-04 -2.8407609086366975e-03 0.0000000000000000e+00  -6.6637212280032583e-04 -2.6585179991305483e-03 0.0000000000000000e+00  -6.5301094253528472e-04 -2.4733218584668043e-03 0.0000000000000000e+00  -6.2864006533643610e-04 -2.2883074659956698e-03 0.0000000000000000e+00  -5.9452762169205338e-04 -2.1060054848807451e-03 0.0000000000000000e+00  -5.5231907111201830e-04 -1.9284272598299272e-03 0.0000000000000000e+00  -5.0361068204158015e-04 -1.7570889258937282e-03 0.0000000000000000e+00  -4.4979728944716978e-04 -1.5930528869770606e-03 0.0000000000000000e+00  -3.9223577547118450e-04 -1.4370230963274804e-03 0.0000000000000000e+00  -3.3201172335006859e-04 -1.2894312658649468e-03 0.0000000000000000e+00  -2.7017538118201298e-04 -1.1504854483533472e-03 0.0000000000000000e+00  -2.0746893191485189e-04 -1.0202444972172103e-03 0.0000000000000000e+00  -1.4461634630015806e-04 -8.9863224956862348e-04 0.0000000000000000e+00  -8.2168885264202862e-05 -7.8549832109169352e-04 0.0000000000000000e+00  -2.0578434276817912e-05 -6.8063054723772735e-04 0.0000000000000000e+00  3.9833586485697189e-05 -5.8379829952181800e-04 0.0000000000000000e+00  9.8737223328645955e-05 -4.9473278058738532e-04 0.0000000000000000e+00  1.5593157024596915e-04 -4.1315045129922313e-04 0.0000000000000000e+00  2.1124062112893205e-04 -3.3877248017396156e-04 0.0000000000000000e+00  2.6453172978024240e-04 -2.7131634148455278e-04 0.0000000000000000e+00  3.1570200391065252e-04 -2.1050065483023455e-04 0.0000000000000000e+00  3.6468527408605681e-04 -1.5603884499140554e-04 0.0000000000000000e+00  4.1142356612812112e-04 -1.0767520608827909e-04 0.0000000000000000e+00  4.5587806260633125e-04 -6.5136086697209627e-05 0.0000000000000000e+00  4.9804208450267837e-04 -2.8152599819429976e-05 0.0000000000000000e+00  5.3788566148538675e-04 3.5290066919050202e-06 0.0000000000000000e+00  5.7542694177532491e-04 3.0163579621401889e-05 0.0000000000000000e+00  6.1064844895193540e-04 5.1997403887534613e-05 0.0000000000000000e+00  6.4357555305880716e-04 6.9281459059219501e-05 0.0000000000000000e+00  6.7421554569655612e-04 8.2265734529058046e-05 0.0000000000000000e+00  7.0258271361763329e-04 9.1194677161356104e-05 0.0000000000000000e+00  7.2869331624588602e-04 9.6317450343030194e-05 0.0000000000000000e+00  7.5256013741239298e-04 9.7885119523126384e-05 0.0000000000000000e+00  7.7418985774720974e-04 9.6157946931795638e-05 0.0000000000000000e+00  7.9360572621245775e-04 9.1413755890484022e-05 0.0000000000000000e+00  8.1079333197429243e-04 8.3926752850535435e-05 0.0000000000000000e+00  8.2575983660846167e-04 7.4012064956243437e-05 0.0000000000000000e+00  8.3850633777460401e-04 6.2008170876621968e-05 0.0000000000000000e+00  8.4902925563051291e-04 4.8287335088088692e-05 0.0000000000000000e+00  8.5734722189990747e-04 3.3275227606230571e-05 0.0000000000000000e+00  8.6350544086219092e-04 1.7443720262551176e-05 0.0000000000000000e+00  8.6760779978862373e-04 1.3230748984450412e-06 0.0000000000000000e+00  8.6985997262634715e-04 -1.4536897022899375e-05 0.0000000000000000e+00  8.7067027090750968e-04 -2.9616135060198393e-05 0.0000000000000000e+00  8.7059679211697158e-04 -4.3567000750694223e-05 0.0000000000000000e+00  0.0000000000000000e+00 -3.9468607062046485e-03 0.0000000000000000e+00  0.0000000000000000e+00 -3.9539379727425049e-03 0.0000000000000000e+00  0.0000000000000000e+00 -3.9605712784766640e-03 0.0000000000000000e+00  0.0000000000000000e+00 -3.9667285057055999e-03 0.0000000000000000e+00  0.0000000000000000e+00 -3.9723848219910341e-03 0.0000000000000000e+00  0.0000000000000000e+00 -3.9775258606609791e-03 0.0000000000000000e+00  0.0000000000000000e+00 -3.9821446813510563e-03 0.0000000000000000e+00  0.0000000000000000e+00 -3.9862418966201338e-03 0.0000000000000000e+00  0.0000000000000000e+00 -3.9898246718498460e-03 0.0000000000000000e+00  0.0000000000000000e+00 -3.9929074189896498e-03 0.0000000000000000e+00  0.0000000000000000e+00 -3.9955094476479096e-03 0.0000000000000000e+00  0.0000000000000000e+00 -3.9976575256128691e-03 0.0000000000000000e+00  0.0000000000000000e+00 -3.9993820775762936e-03 0.0000000000000000e+00  0.0000000000000000e+00 -4.0007207499438979e-03 0.0000000000000000e+00  0.0000000000000000e+00 -4.0017158641904591e-03 0.0000000000000000e+00  0.0000000000000000e+00 -4.0024110320167356e-03 0.0000000000000000e+00  0.0000000000000000e+00 -4.0028583146998900e-03 0.0000000000000000e+00  0.0000000000000000e+00 -4.0031069627050565e-03 0.0000000000000000e+00  0.0000000000000000e+00 -4.0032085146188140e-03 0.0000000000000000e+00  0.0000000000000000e+00 -4.0032117625923205e-03 0.0000000000000000e+00  0.0000000000000000e+00 -4.0031623415746898e-03 0.0000000000000000e+00  0.0000000000000000e+00 -4.0030970709813872e-03 0.0000000000000000e+00  0.0000000000000000e+00 -4.0030458520131391e-03 0.0000000000000000e+00  0.0000000000000000e+00 -4.0028065700760309e-03 0.0000000000000000e+00  0.0000000000000000e+00 -4.0021472344823573e-03 0.0000000000000000e+00  0.0000000000000000e+00 -4.0010511357778120e-03 0.0000000000000000e+00  0.0000000000000000e+00 -3.9995225625838017e-03 0.0000000000000000e+00  0.0000000000000000e+00 -3.9975677670635503e-03 0.0000000000000000e+00  0.0000000000000000e+00 -3.9951950451056787e-03 0.0000000000000000e+00  0.0000000000000000e+00 -3.9924158830332403e-03 0.0000000000000000e+00  0.0000000000000000e+00 -3.9892441155756578e-03 0.0000000000000000e+00  0.0000000000000000e+00 -3.9856974021329353e-03 0.0000000000000000e+00  0.0000000000000000e+00 -3.9817979940890381e-03 0.0000000000000000e+00  0.0000000000000000e+00 -3.9775736578889793e-03 0.0000000000000000e+00  0.0000000000000000e+00 -3.9730593312937669e-03 0.0000000000000000e+00  0.0000000000000000e+00 -3.9682988202810856e-03 0.0000000000000000e+00  0.0000000000000000e+00 -3.9633474697931912e-03 0.0000000000000000e+00  0.0000000000000000e+00 -3.9582767180964505e-03 0.0000000000000000e+00  0.0000000000000000e+00 -3.9531787628725818e-03 0.0000000000000000e+00  0.0000000000000000e+00 -3.9481771757607399e-03 0.0000000000000000e+00  0.0000000000000000e+00 -3.9434401124430916e-03 0.0000000000000000e+00  0.0000000000000000e+00 -3.9392044237369847e-03 0.0000000000000000e+00  0.0000000000000000e+00 -3.9358201677237884e-03 0.0000000000000000e+00  0.0000000000000000e+00 -3.9338609013707289e-03 0.0000000000000000e+00  0.0000000000000000e+00 -3.9343400085159307e-03 0.0000000000000000e+00  0.0000000000000000e+00 -3.9397256303668957e-03 0.0000000000000000e+00  0.0000000000000000e+00 -3.9830966314278390e-03 0.0000000000000000e+00  0.0000000000000000e+00 -3.9978590727818364e-03 0.0000000000000000e+00  0.0000000000000000e+00 -4.0122161448152430e-03 0.0000000000000000e+00  0.0000000000000000e+00 -4.0267644360199410e-03 0.0000000000000000e+00  0.0000000000000000e+00 -4.0417327684362740e-03 0.0000000000000000e+00  0.0000000000000000e+00 -4.0572367344292627e-03 0.0000000000000000e+00  0.0000000000000000e+00 -4.0733725549081780e-03 0.0000000000000000e+00  0.0000000000000000e+00 -4.0902029001750459e-03 0.0000000000000000e+00  0.0000000000000000e+00 -4.1077942019956230e-03 0.0000000000000000e+00  0.0000000000000000e+00 -4.1261971368908492e-03 0.0000000000000000e+00  0.0000000000000000e+00 -4.1454798200636408e-03 0.0000000000000000e+00  0.0000000000000000e+00 -4.1656646627956243e-03 0.0000000000000000e+00  0.0000000000000000e+00 -4.1868175612198959e-03 0.0000000000000000e+00  0.0000000000000000e+00 -4.2089524080182478e-03 0.0000000000000000e+00  0.0000000000000000e+00 -4.2320847162237631e-03 0.0000000000000000e+00  0.0000000000000000e+00 -4.2561679648522085e-03 0.0000000000000000e+00  0.0000000000000000e+00 -4.2810839394059590e-03 0.0000000000000000e+00  0.0000000000000000e+00 -4.3065925729253622e-03 0.0000000000000000e+00  0.0000000000000000e+00 -4.3322017695041713e-03 0.0000000000000000e+00  0.0000000000000000e+00 -4.3572071353016849e-03 0.0000000000000000e+00  0.0000000000000000e+00 -4.3814898665372644e-03 0.0000000000000000e+00  0.0000000000000000e+00 -4.4051222266961280e-03 0.0000000000000000e+00  0.0000000000000000e+00 -4.5363047742766460e-03 0.0000000000000000e+00  -1.2203825123250577e-03 -1.2231503279410449e-02 0.0000000000000000e+00  -1.2137222541052071e-03 -1.2458632670548852e-02 0.0000000000000000e+00  -1.1945131925844856e-03 -1.2743259780292837e-02 0.0000000000000000e+00  -1.1562035668611767e-03 -1.3015647981217375e-02 0.0000000000000000e+00  -1.1119031393193163e-03 -1.3263995218958539e-02 0.0000000000000000e+00  -1.0631301869113003e-03 -1.3490206549473633e-02 0.0000000000000000e+00  -1.0115281992852335e-03 -1.3695929699113504e-02 0.0000000000000000e+00  -9.5808493673971466e-04 -1.3883087270215359e-02 0.0000000000000000e+00  -9.0337659107133099e-04 -1.4053460752258438e-02 0.0000000000000000e+00  -8.4773433382346664e-04 -1.4208527498971061e-02 0.0000000000000000e+00  -7.9138971404495444e-04 -1.4349506566355872e-02 0.0000000000000000e+00  -7.3449726490452472e-04 -1.4477407166427710e-02 0.0000000000000000e+00  -6.7717224395290776e-04 -1.4593066221117666e-02 0.0000000000000000e+00  -6.1949346756749973e-04 -1.4697183559028907e-02 0.0000000000000000e+00  -5.6152868570186448e-04 -1.4790343952206421e-02 0.0000000000000000e+00  -5.0333153483246898e-04 -1.4873041224259935e-02 0.0000000000000000e+00  -4.4493159283072139e-04 -1.4945672825918264e-02 0.0000000000000000e+00  -3.8636888633724801e-04 -1.5008584195195445e-02 0.0000000000000000e+00  -3.2767438630612567e-04 -1.5062062513104404e-02 0.0000000000000000e+00  -2.6886979747959449e-04 -1.5106335574706229e-02 0.0000000000000000e+00  -2.0998131653255671e-04 -1.5141586784574201e-02 0.0000000000000000e+00  -1.5102558163479030e-04 -1.5167958431244589e-02 0.0000000000000000e+00  -9.2026404592597343e-05 -1.5185559232037110e-02 0.0000000000000000e+00  -3.3002712390076542e-05 -1.5194455780773834e-02 0.0000000000000000e+00  2.6031687754190660e-05 -1.5194681421452501e-02 0.0000000000000000e+00  8.5054164762093633e-05 -1.5186238472472018e-02 0.0000000000000000e+00  1.4404601818336304e-04 -1.5169091243320458e-02 0.0000000000000000e+00  2.0299284458086801e-04 -1.5143172344464370e-02 0.0000000000000000e+00  2.6186875487544347e-04 -1.5108378894799294e-02 0.0000000000000000e+00  3.2065831799819091e-04 -1.5064570255543313e-02 0.0000000000000000e+00  3.7933525789286853e-04 -1.5011559626051801e-02 0.0000000000000000e+00  4.3788800142063487e-04 -1.4949121335474732e-02 0.0000000000000000e+00  4.9627084789447657e-04 -1.4876961764396693e-02 0.0000000000000000e+00  5.5446828215969873e-04 -1.4794743740218479e-02 0.0000000000000000e+00  6.1243722969241360e-04 -1.4702058573909688e-02 0.0000000000000000e+00  6.7013449885872523e-04 -1.4598415314472922e-02 0.0000000000000000e+00  7.2750468056324369e-04 -1.4483222060803620e-02 0.0000000000000000e+00  7.8448408061893666e-04 -1.4355764343607089e-02 0.0000000000000000e+00  8.4093905476266453e-04 -1.4215155545074900e-02 0.0000000000000000e+00  8.9675948704671612e-04 -1.4060399067827078e-02 0.0000000000000000e+00  9.5175694210806517e-04 -1.3890224531624914e-02 0.0000000000000000e+00  1.0055883168822429e-03 -1.3703034013118497e-02 0.0000000000000000e+00  1.0577415866153141e-03 -1.3496956153523079e-02 0.0000000000000000e+00  1.1073178101876657e-03 -1.3269830746744444e-02 0.0000000000000000e+00  1.1530877725877051e-03 -1.3019383689341081e-02 0.0000000000000000e+00  1.1929127538017929e-03 -1.2742842168060677e-02 0.0000000000000000e+00  1.2214357049469082e-03 -1.2440569071214934e-02 0.0000000000000000e+00  1.2510255865133865e-03 -1.211132