<?xml version="1.0"?>
<VTKFile type="UnstructuredGrid"  version="0.1"  >
<UnstructuredGrid>
<Piece  NumberOfPoints="1250" NumberOfCells="2352">
<Points>
<DataArray  type="Float64"  NumberOfComponents="3"  format="ascii">0 0 0  0.0336 0 0  0.0336 0.07729999999999999 0  0 0.07729999999999999 0  0.001400000000000002 0 0  0.002800000000000005 0 0  0.004200000000000008 0 0  0.005600000000000009 0 0  0.007000000000000011 0 0  0.008400000000000013 0 0  0.009800000000000019 0 0  0.01120000000000002 0 0  0.01260000000000003 0 0  0.01400000000000003 0 0  0.01540000000000004 0 0  0.01680000000000005 0 0  0.01820000000000004 0 0  0.01960000000000004 0 0  0.02100000000000004 0 0  0.02240000000000003 0 0  0.02380000000000003 0 0  0.02520000000000002 0 0  0.02660000000000002 0 0  0.02800000000000001 0 0  0.02940000000000001 0 0  0.03080000000000001 0 0  0.0322 0 0  0.0336 0.001577551020408161 0  0.0336 0.003155102040816321 0  0.0336 0.004732653061224482 0  0.0336 0.006310204081632642 0  0.0336 0.007887755102040803 0  0.0336 0.009465306122448964 0  0.0336 0.01104285714285712 0  0.0336 0.01262040816326528 0  0.0336 0.01419795918367344 0  0.0336 0.0157755102040816 0  0.0336 0.01735306122448976 0  0.0336 0.01893061224489792 0  0.0336 0.02050816326530608 0  0.0336 0.02208571428571425 0  0.0336 0.02366326530612241 0  0.0336 0.02524081632653058 0  0.0336 0.02681836734693874 0  0.0336 0.02839591836734691 0  0.0336 0.02997346938775507 0  0.0336 0.03155102040816323 0  0.0336 0.0331285714285714 0  0.0336 0.03470612244897956 0  0.0336 0.03628367346938772 0  0.0336 0.03786122448979588 0  0.0336 0.03943877551020405 0  0.0336 0.04101632653061221 0  0.0336 0.04259387755102037 0  0.0336 0.04417142857142854 0  0.0336 0.04574897959183671 0  0.0336 0.04732653061224486 0  0.0336 0.04890408163265302 0  0.0336 0.05048163265306119 0  0.0336 0.05205918367346936 0  0.0336 0.05363673469387752 0  0.0336 0.05521428571428568 0  0.0336 0.05679183673469385 0  0.0336 0.05836938775510202 0  0.0336 0.05994693877551018 0  0.0336 0.06152448979591834 0  0.0336 0.0631020408163265 0  0.0336 0.06467959183673468 0  0.0336 0.06625714285714283 0  0.0336 0.06783469387755101 0  0.0336 0.06941224489795916 0  0.0336 0.07098979591836733 0  0.0336 0.07256734693877549 0  0.0336 0.07414489795918365 0  0.0336 0.07572244897959182 0  0.03219999999999999 0.07729999999999999 0  0.03079999999999999 0.07729999999999999 0  0.02939999999999999 0.07729999999999999 0  0.02799999999999999 0.07729999999999999 0  0.02659999999999999 0.07729999999999999 0  0.02519999999999999 0.07729999999999999 0  0.02379999999999998 0.07729999999999999 0  0.02239999999999998 0.07729999999999999 0  0.02099999999999997 0.07729999999999999 0  0.01959999999999996 0.07729999999999999 0  0.01819999999999996 0.07729999999999999 0  0.01679999999999995 0.07729999999999999 0  0.01539999999999996 0.07729999999999999 0  0.01399999999999996 0.07729999999999999 0  0.01259999999999996 0.07729999999999999 0  0.01119999999999997 0.07729999999999999 0  0.009799999999999972 0.07729999999999999 0  0.008399999999999977 0.07729999999999999 0  0.006999999999999978 0.07729999999999999 0  0.005599999999999983 0.07729999999999999 0  0.004199999999999988 0.07729999999999999 0  0.00279999999999999 0.07729999999999999 0  0.001399999999999998 0.07729999999999999 0  0 0.07572244897959184 0  0 0.07414489795918368 0  0 0.07256734693877551 0  0 0.07098979591836735 0  0 0.06941224489795919 0  0 0.06783469387755103 0  0 0.06625714285714288 0  0 0.06467959183673472 0  0 0.06310204081632656 0  0 0.0615244897959184 0  0 0.05994693877551023 0  0 0.05836938775510207 0  0 0.05679183673469392 0  0 0.05521428571428574 0  0 0.05363673469387759 0  0 0.05205918367346941 0  0 0.05048163265306126 0  0 0.04890408163265308 0  0 0.04732653061224493 0  0 0.04574897959183676 0  0 0.0441714285714286 0  0 0.04259387755102043 0  0 0.04101632653061228 0  0 0.03943877551020411 0  0 0.03786122448979595 0  0 0.03628367346938779 0  0 0.03470612244897962 0  0 0.03312857142857146 0  0 0.03155102040816329 0  0 0.02997346938775513 0  0 0.02839591836734697 0  0 0.0268183673469388 0  0 0.02524081632653064 0  0 0.02366326530612247 0  0 0.02208571428571431 0  0 0.02050816326530614 0  0 0.01893061224489798 0  0 0.01735306122448981 0  0 0.01577551020408165 0  0 0.01419795918367349 0  0 0.01262040816326532 0  0 0.01104285714285716 0  0 0.009465306122448988 0  0 0.00788775510204083 0  0 0.006310204081632659 0  0 0.004732653061224501 0  0 0.003155102040816343 0  0 0.001577551020408172 0  0.001400000000000004 0.001577551020408172 0  0.001400000000000004 0.003155102040816329 0  0.001400000000000002 0.004732653061224501 0  0.001400000000000002 0.006310204081632645 0  0.001400000000000005 0.007887755102040823 0  0.001400000000000002 0.009465306122448981 0  0.001400000000000002 0.01104285714285717 0  0.001400000000000004 0.01262040816326531 0  0.0014 0.01419795918367349 0  0.001400000000000002 0.01577551020408166 0  0.001400000000000005 0.0173530612244898 0  0.001400000000000002 0.01893061224489797 0  0.001400000000000002 0.02050816326530613 0  0.001400000000000002 0.02208571428571431 0  0.001400000000000002 0.02366326530612247 0  0.001400000000000002 0.02524081632653063 0  0.001400000000000002 0.0268183673469388 0  0.001400000000000002 0.02839591836734696 0  0.001400000000000002 0.02997346938775513 0  0.001400000000000002 0.03155102040816328 0  0.001400000000000002 0.03312857142857147 0  0.001399999999999997 0.03470612244897962 0  0.001400000000000005 0.03628367346938778 0  0.001400000000000002 0.03786122448979594 0  0.001400000000000002 0.03943877551020411 0  0.001400000000000002 0.04101632653061228 0  0.001400000000000002 0.04259387755102043 0  0.001400000000000002 0.0441714285714286 0  0.0014 0.04574897959183676 0  0.001400000000000002 0.04732653061224492 0  0.001400000000000004 0.04890408163265308 0  0.001400000000000002 0.05048163265306126 0  0.001400000000000002 0.05205918367346941 0  0.0014 0.05363673469387758 0  0.001400000000000004 0.05521428571428574 0  0.001399999999999998 0.05679183673469391 0  0.001400000000000002 0.05836938775510207 0  0.0014 0.05994693877551023 0  0.001400000000000002 0.0615244897959184 0  0.001400000000000002 0.06310204081632656 0  0.001400000000000002 0.06467959183673472 0  0.0014 0.06625714285714286 0  0.001400000000000002 0.06783469387755102 0  0.001399999999999998 0.06941224489795919 0  0.001400000000000002 0.07098979591836735 0  0.0014 0.07256734693877552 0  0.001400000000000002 0.07414489795918368 0  0.001400000000000002 0.07572244897959184 0  0.002800000000000006 0.001577551020408165 0  0.002800000000000004 0.003155102040816343 0  0.002800000000000002 0.004732653061224487 0  0.002800000000000002 0.006310204081632652 0  0.002800000000000002 0.007887755102040813 0  0.0028 0.009465306122448981 0  0.002799999999999997 0.01104285714285715 0  0.0028 0.01262040816326532 0  0.0028 0.01419795918367348 0  0.0028 0.01577551020408165 0  0.002799999999999997 0.0173530612244898 0  0.0028 0.01893061224489797 0  0.002800000000000004 0.02050816326530613 0  0.0028 0.0220857142857143 0  0.0028 0.02366326530612247 0  0.002800000000000004 0.02524081632653064 0  0.0028 0.0268183673469388 0  0.0028 0.02839591836734696 0  0.002799999999999995 0.02997346938775512 0  0.002799999999999997 0.03155102040816328 0  0.002799999999999995 0.03312857142857146 0  0.0028 0.03470612244897962 0  0.002799999999999995 0.03628367346938778 0  0.002799999999999997 0.03786122448979594 0  0.002799999999999997 0.03943877551020411 0  0.002799999999999997 0.04101632653061228 0  0.002799999999999997 0.04259387755102043 0  0.002799999999999995 0.0441714285714286 0  0.002799999999999997 0.04574897959183676 0  0.002799999999999997 0.04732653061224493 0  0.002799999999999995 0.04890408163265308 0  0.002799999999999993 0.05048163265306124 0  0.002799999999999995 0.05205918367346941 0  0.002799999999999995 0.05363673469387757 0  0.002799999999999992 0.05521428571428574 0  0.002799999999999997 0.05679183673469391 0  0.002799999999999993 0.05836938775510207 0  0.002799999999999993 0.05994693877551022 0  0.002799999999999992 0.0615244897959184 0  0.002799999999999988 0.06310204081632655 0  0.002799999999999992 0.0646795918367347 0  0.002799999999999992 0.06625714285714286 0  0.00279999999999999 0.06783469387755103 0  0.00279999999999999 0.06941224489795919 0  0.002799999999999988 0.07098979591836735 0  0.00279999999999999 0.07256734693877552 0  0.002799999999999988 0.07414489795918368 0  0.00279999999999999 0.07572244897959184 0  0.004200000000000006 0.001577551020408172 0  0.004200000000000006 0.003155102040816329 0  0.004200000000000008 0.00473265306122448 0  0.004200000000000009 0.006310204081632652 0  0.004200000000000008 0.00788775510204082 0  0.004200000000000008 0.009465306122448978 0  0.004200000000000006 0.01104285714285716 0  0.004200000000000006 0.01262040816326532 0  0.004200000000000004 0.01419795918367349 0  0.004200000000000002 0.01577551020408165 0  0.004200000000000004 0.0173530612244898 0  0.004200000000000006 0.01893061224489797 0  0.004200000000000006 0.02050816326530613 0  0.004200000000000002 0.0220857142857143 0  0.004200000000000004 0.02366326530612247 0  0.004199999999999999 0.02524081632653062 0  0.004200000000000004 0.0268183673469388 0  0.004200000000000004 0.02839591836734696 0  0.004200000000000002 0.02997346938775512 0  0.004199999999999999 0.03155102040816328 0  0.004200000000000001 0.03312857142857145 0  0.004200000000000001 0.03470612244897962 0  0.004199999999999995 0.03628367346938778 0  0.004199999999999999 0.03786122448979594 0  0.004199999999999999 0.0394387755102041 0  0.004199999999999997 0.04101632653061227 0  0.004199999999999999 0.04259387755102043 0  0.004199999999999999 0.04417142857142859 0  0.004199999999999999 0.04574897959183676 0  0.004199999999999999 0.04732653061224492 0  0.004199999999999997 0.04890408163265308 0  0.004199999999999997 0.05048163265306124 0  0.004199999999999999 0.05205918367346941 0  0.004199999999999992 0.05363673469387757 0  0.0
[...]
<PointData  Vectors="displacement"> 
<DataArray  type="Float64"  Name="displacement"  NumberOfComponents="3" format="ascii">0.0000000000000000e+00 0.0000000000000000e+00 0.0000000000000000e+00  0.0000000000000000e+00 0.0000000000000000e+00 0.0000000000000000e+00  9.0480521560360253e-03 -7.5109321809513005e-02 0.0000000000000000e+00  -8.8099802154151148e-03 -7.5062597123546487e-02 0.0000000000000000e+00  0.0000000000000000e+00 0.0000000000000000e+00 0.0000000000000000e+00  0.0000000000000000e+00 0.0000000000000000e+00 0.0000000000000000e+00  0.0000000000000000e+00 0.0000000000000000e+00 0.0000000000000000e+00  0.0000000000000000e+00 0.0000000000000000e+00 0.0000000000000000e+00  0.0000000000000000e+00 0.0000000000000000e+00 0.0000000000000000e+00  0.0000000000000000e+00 0.0000000000000000e+00 0.0000000000000000e+00  0.0000000000000000e+00 0.0000000000000000e+00 0.0000000000000000e+00  0.0000000000000000e+00 0.0000000000000000e+00 0.0000000000000000e+00  0.0000000000000000e+00 0.0000000000000000e+00 0.0000000000000000e+00  0.0000000000000000e+00 0.0000000000000000e+00 0.0000000000000000e+00  0.0000000000000000e+00 0.0000000000000000e+00 0.0000000000000000e+00  0.0000000000000000e+00 0.0000000000000000e+00 0.0000000000000000e+00  0.0000000000000000e+00 0.0000000000000000e+00 0.0000000000000000e+00  0.0000000000000000e+00 0.0000000000000000e+00 0.0000000000000000e+00  0.0000000000000000e+00 0.0000000000000000e+00 0.0000000000000000e+00  0.0000000000000000e+00 0.0000000000000000e+00 0.0000000000000000e+00  0.0000000000000000e+00 0.0000000000000000e+00 0.0000000000000000e+00  0.0000000000000000e+00 0.0000000000000000e+00 0.0000000000000000e+00  0.0000000000000000e+00 0.0000000000000000e+00 0.0000000000000000e+00  0.0000000000000000e+00 0.0000000000000000e+00 0.0000000000000000e+00  0.0000000000000000e+00 0.0000000000000000e+00 0.0000000000000000e+00  0.0000000000000000e+00 0.0000000000000000e+00 0.0000000000000000e+00  0.0000000000000000e+00 0.0000000000000000e+00 0.0000000000000000e+00  2.9567564917186559e-03 -2.7640405341285675e-03 0.0000000000000000e+00  4.5673419859979976e-03 -4.3467472800094720e-03 0.0000000000000000e+00  5.6922641736461745e-03 -5.7517982651798414e-03 0.0000000000000000e+00  6.5375001829463941e-03 -7.0950150801698834e-03 0.0000000000000000e+00  7.1845182431055305e-03 -8.4164123690495217e-03 0.0000000000000000e+00  7.6818310911441947e-03 -9.7372695350805265e-03 0.0000000000000000e+00  8.0632256092515713e-03 -1.1069307807068333e-02 0.0000000000000000e+00  8.3538407278312514e-03 -1.2418800503270740e-02 0.0000000000000000e+00  8.5730755199743981e-03 -1.3788774000347444e-02 0.0000000000000000e+00  8.7362296997773470e-03 -1.5180240761446700e-02 0.0000000000000000e+00  8.8555164982775034e-03 -1.6592941566393724e-02 0.0000000000000000e+00  8.9407378852657086e-03 -1.8025822544277280e-02 0.0000000000000000e+00  8.9997659424958191e-03 -1.9477355991730692e-02 0.0000000000000000e+00  9.0389055182384589e-03 -2.0945761736375145e-02 0.0000000000000000e+00  9.0631792670284716e-03 -2.2429161095783832e-02 0.0000000000000000e+00  9.0765585063052288e-03 -2.3925683009152009e-02 0.0000000000000000e+00  9.0821538132808254e-03 -2.5433535228123014e-02 0.0000000000000000e+00  9.0823740545711157e-03 -2.6951049622313660e-02 0.0000000000000000e+00  9.0790596238461523e-03 -2.8476708290544588e-02 0.0000000000000000e+00  9.0735940155009000e-03 -3.0009155586038703e-02 0.0000000000000000e+00  9.0669969123008606e-03 -3.1547200021107551e-02 0.0000000000000000e+00  9.0600013927096372e-03 -3.3089809141687035e-02 0.0000000000000000e+00  9.0531174911978093e-03 -3.4636099766256805e-02 0.0000000000000000e+00  9.0466840748259034e-03 -3.6185325420272071e-02 0.0000000000000000e+00  9.0409107803828929e-03 -3.7736862339283909e-02 0.0000000000000000e+00  9.0359115629181416e-03 -3.9290195043746978e-02 0.0000000000000000e+00  9.0317312274392891e-03 -4.0844902192761774e-02 0.0000000000000000e+00  9.0283661470491137e-03 -4.2400643191411215e-02 0.0000000000000000e+00  9.0257802125084455e-03 -4.3957145846918087e-02 0.0000000000000000e+00  9.0239169110911104e-03 -4.5514195233533034e-02 0.0000000000000000e+00  9.0227082977877831e-03 -4.7071623826777868e-02 0.0000000000000000e+00  9.0220815002448832e-03 -4.8629302897306582e-02 0.0000000000000000e+00  9.0219632906474549e-03 -5.0187135107079339e-02 0.0000000000000000e+00  9.0222831629295976e-03 -5.1745048220586828e-02 0.0000000000000000e+00  9.0229752716989558e-03 -5.3302989827247613e-02 0.0000000000000000e+00  9.0239795192757922e-03 -5.4860922964355678e-02 0.0000000000000000e+00  9.0252420182908213e-03 -5.6418822530349744e-02 0.0000000000000000e+00  9.0267151083262779e-03 -5.7976672383612954e-02 0.0000000000000000e+00  9.0283570651363988e-03 -5.9534463030947837e-02 0.0000000000000000e+00  9.0301316092541006e-03 -6.1092189821263243e-02 0.0000000000000000e+00  9.0320072968404393e-03 -6.2649851573251064e-02 0.0000000000000000e+00  9.0339568597119536e-03 -6.4207449580742315e-02 0.0000000000000000e+00  9.0359565551404453e-03 -6.5764986956220475e-02 0.0000000000000000e+00  9.0379855935349002e-03 -6.7322468292160015e-02 0.0000000000000000e+00  9.0400257438144581e-03 -6.8879899641991899e-02 0.0000000000000000e+00  9.0420612984740585e-03 -7.0437288847271226e-02 0.0000000000000000e+00  9.0440797969866971e-03 -7.1994646248983191e-02 0.0000000000000000e+00  9.0460746089795728e-03 -7.3551985581377932e-02 0.0000000000000000e+00  8.3038627170085606e-03 -7.5107569997216198e-02 0.0000000000000000e+00  7.5596745897850938e-03 -7.5105830259983339e-02 0.0000000000000000e+00  6.8154979329540909e-03 -7.5104108737512693e-02 0.0000000000000000e+00  6.0713422893103747e-03 -7.5102401405420169e-02 0.0000000000000000e+00  5.3272137998971346e-03 -7.5100699562744677e-02 0.0000000000000000e+00  4.5831153506177367e-03 -7.5098992709067780e-02 0.0000000000000000e+00  3.8390471004606762e-03 -7.5097270104802716e-02 0.0000000000000000e+00  3.0950070111862133e-03 -7.5095521709169499e-02 0.0000000000000000e+00  2.3509913270219115e-03 -7.5093738770432766e-02 0.0000000000000000e+00  1.6069949996984668e-03 -7.5091914199630669e-02 0.0000000000000000e+00  8.6301206255295145e-04 -7.5090042802393772e-02 0.0000000000000000e+00  1.1903596210811018e-04 -7.5088121415635464e-02 0.0000000000000000e+00  -6.2494014081749215e-04 -7.5086148978643866e-02 0.0000000000000000e+00  -1.3689230858706103e-03 -7.5084126555165179e-02 0.0000000000000000e+00  -2.1129194278879221e-03 -7.5082057311854508e-02 0.0000000000000000e+00  -2.8569351356816436e-03 -7.5079946447732582e-02 0.0000000000000000e+00  -3.6009752602958515e-03 -7.5077801058072102e-02 0.0000000000000000e+00  -4.3450435606996992e-03 -7.5075629903170654e-02 0.0000000000000000e+00  -5.0891420785637185e-03 -7.5073443035053491e-02 0.0000000000000000e+00  -5.8332706585354612e-03 -7.5071251206513492e-02 0.0000000000000000e+00  -6.5774264186940351e-03 -7.5069064927067636e-02 0.0000000000000000e+00  -7.3216032166977451e-03 -7.5066892878376396e-02 0.0000000000000000e+00  -8.0657914473183830e-03 -7.5064739026788868e-02 0.0000000000000000e+00  -8.8123903582222659e-03 -7.3505260373516096e-02 0.0000000000000000e+00  -8.8147832347700746e-03 -7.1947921140184473e-02 0.0000000000000000e+00  -8.8171525187772451e-03 -7.0390563808283638e-02 0.0000000000000000e+00  -8.8195047095205575e-03 -6.8833174649890708e-02 0.0000000000000000e+00  -8.8218522592093240e-03 -6.7275743331084770e-02 0.0000000000000000e+00  -8.8242108960592831e-03 -6.5718262017007589e-02 0.0000000000000000e+00  -8.8265988677516255e-03 -6.4160724660116839e-02 0.0000000000000000e+00  -8.8290369737404825e-03 -6.2603126673189277e-02 0.0000000000000000e+00  -8.8315489613610739e-03 -6.1045464948801149e-02 0.0000000000000000e+00  -8.8341620993800819e-03 -5.9487738198459879e-02 0.0000000000000000e+00  -8.8369078288044536e-03 -5.7929947609539276e-02 0.0000000000000000e+00  -8.8398224229598935e-03 -5.6372097840384348e-02 0.0000000000000000e+00  -8.8429475963677211e-03 -5.4814198393157799e-02 0.0000000000000000e+00  -8.8463309955552384e-03 -5.3256265420801231e-02 0.0000000000000000e+00  -8.8500264889640069e-03 -5.1698324039401201e-02 0.0000000000000000e+00  -8.8540941491285895e-03 -5.0140411230516511e-02 0.0000000000000000e+00  -8.8585997885235537e-03 -4.8582579429442045e-02 0.0000000000000000e+00  -8.8636138704729691e-03 -4.7024900904359380e-02 0.0000000000000000e+00  -8.8692095674792002e-03 -4.5467473036809918e-02 0.0000000000000000e+00  -8.8754596802568600e-03 -4.3910424614377608e-02 0.0000000000000000e+00  -8.8824320606035977e-03 -4.2353923239788684e-02 0.0000000000000000e+00  -8.8901830989921108e-03 -4.0798183944080864e-02 0.0000000000000000e+00  -8.8987487425848961e-03 -3.9243479061586713e-02 0.0000000000000000e+00  -8.9081324006740677e-03 -3.7690149376912861e-02 0.0000000000000000e+00  -8.9182889721519838e-03 -3.6138616483656863e-02 0.0000000000000000e+00  -8.9291040937913985e-03 -3.4589396195086108e-02 0.0000000000000000e+00  -8.9403675596027524e-03 -3.3043112711191022e-02 0.0000000000000000e+00  -8.9517397013728212e-03 -3.1500513066163395e-02 0.0000000000000000e+00  -8.9627093494908019e-03 -2.9962481146157158e-02 0.0000000000000000e+00  -8.9725418108191138e-03 -2.8430050268774425e-02 0.0000000000000000e+00  -8.9802151026415165e-03 -2.6904412941275917e-02 0.0000000000000000e+00  -8.9843424571536615e-03 -2.5386925949857909e-02 0.0000000000000000e+00  -8.9830788336895569e-03 -2.3879108358538615e-02 0.0000000000000000e+00  -8.9740087937826146e-03 -2.2382629284261681e-02 0.0000000000000000e+00  -8.9540125085233683e-03 -2.0899281414510400e-02 0.0000000000000000e+00  -8.9191056981701225e-03 -1.9430935050841737e-02 0.0000000000000000e+00  -8.8642476268604112e-03 -1.7979465812803384e-02 0.0000000000000000e+00  -8.7831083101217802e-03 -1.6546646657980665e-02 0.0000000000000000e+00  -8.6677807839674690e-03 -1.5133990835530204e-02 0.0000000000000000e+00  -8.5084146524695651e-03 -1.3742525300817085e-02 0.0000000000000000e+00  -8.2927292895087282e-03 -1.2372460829531423e-02 0.0000000000000000e+00  -8.0053309398572768e-03 -1.1022698550840808e-02 0.0000000000000000e+00  -7.6266900342539133e-03 -9.6900559804514834e-03 0.0000000000000000e+00  -7.1314959341084250e-03 -8.3679693159202026e-03 0.0000000000000000e+00  -6.4858033315071603e-03 -7.0441817707622761e-03 0.0000000000000000e+00  -5.6413202044562089e-03 -5.6966458412992952e-03 0.0000000000000000e+00  -4.5179709091657614e-03 -4.2842055453726118e-03 0.0000000000000000e+00  -2.9222211641416907e-03 -2.6738265844365805e-03 0.0000000000000000e+00  -2.0626994413699713e-03 -1.5838517045021819e-03 0.0000000000000000e+00  -3.7482527457828796e-03 -3.3226672023264070e-03 0.0000000000000000e+00  -4.9412451840745658e-03 -4.9260420244144672e-03 0.0000000000000000e+00  -5.8162802427529081e-03 -6.4295157333097899e-03 0.0000000000000000e+00  -6.4738781362589110e-03 -7.8794063238717370e-03 0.0000000000000000e+00  -6.9715140057841135e-03 -9.3037985113182380e-03 0.0000000000000000e+00  -7.3473245050730308e-03 -1.0719417590676789e-02 0.0000000000000000e+00  -7.6289324387211841e-03 -1.2136373349965779e-02 0.0000000000000000e+00  -7.8372780870810243e-03 -1.3560685467548366e-02 0.0000000000000000e+00  -7.9886524767688004e-03 -1.4995744454926459e-02 0.0000000000000000e+00  -8.0959143612121705e-03 -1.6443216012333596e-02 0.0000000000000000e+00  -8.1692827455084552e-03 -1.7903628132901365e-02 0.0000000000000000e+00  -8.2168906085747801e-03 -1.9376766432691237e-02 0.0000000000000000e+00  -8.2451949473105572e-03 -2.0861947269883642e-02 0.0000000000000000e+00  -8.2592944134838430e-03 -2.2358209148776311e-02 0.0000000000000000e+00  -8.2631834109395692e-03 -2.3864447262155603e-02 0.0000000000000000e+00  -8.2599596423565749e-03 -2.5379507275747989e-02 0.0000000000000000e+00  -8.2519956333421129e-03 -2.6902249337454932e-02 0.0000000000000000e+00  -8.2410811819290230e-03 -2.8431590138494424e-02 0.0000000000000000e+00  -8.2285416622906431e-03 -2.9966528796880519e-02 0.0000000000000000e+00  -8.2153359407289676e-03 -3.1506160915635698e-02 0.0000000000000000e+00  -8.2021369493736375e-03 -3.3049684139875260e-02 0.0000000000000000e+00  -8.1893974941832301e-03 -3.4596397761094209e-02 0.0000000000000000e+00  -8.1774035326509231e-03 -3.6145698315546509e-02 0.0000000000000000e+00  -8.1663168820942603e-03 -3.7697072650144096e-02 0.0000000000000000e+00  -8.1562090811724327e-03 -3.9250089554429476e-02 0.0000000000000000e+00  -8.1470879114666529e-03 -4.0804390760793237e-02 0.0000000000000000e+00  -8.1389178872156073e-03 -4.2359681882367627e-02 0.0000000000000000e+00  -8.1316358382245123e-03 -4.3915723677240753e-02 0.0000000000000000e+00  -8.1251625437168892e-03 -4.5472323889216737e-02 0.0000000000000000e+00  -8.1194112239396828e-03 -4.7029329811278164e-02 0.0000000000000000e+00  -8.1142935618832152e-03 -4.8586621641399999e-02 0.0000000000000000e+00  -8.1097238093391991e-03 -5.0144106645742537e-02 0.0000000000000000e+00  -8.1056214290622323e-03 -5.1701714106749098e-02 0.0000000000000000e+00  -8.1019126370545109e-03 -5.3259391009378231e-02 0.0000000000000000e+00  -8.0985311347646534e-03 -5.4817098404418389e-02 0.0000000000000000e+00  -8.0954182589703869e-03 -5.6374808381004698e-02 0.0000000000000000e+00  -8.0925227259837536e-03 -5.7932501579061914e-02 0.0000000000000000e+00  -8.0898001053644145e-03 -5.9490165174869838e-02 0.0000000000000000e+00  -8.0872121255575573e-03 -6.1047791278072160e-02 0.0000000000000000e+00  -8.0847258892080345e-03 -6.2605375685278866e-02 0.0000000000000000e+00  -8.0823130595024974e-03 -6.4162916943083292e-02 0.0000000000000000e+00  -8.0799490723860966e-03 -6.5720415680796743e-02 0.0000000000000000e+00  -8.0776124377036750e-03 -6.7277874178635136e-02 0.0000000000000000e+00  -8.0752842278060417e-03 -6.8835296136183569e-02 0.0000000000000000e+00  -8.0729479483622590e-03 -7.0392686587354744e-02 0.0000000000000000e+00  -8.0705902284095125e-03 -7.1950051851460264e-02 0.0000000000000000e+00  -8.0682033077486091e-03 -7.3507399433140289e-02 0.0000000000000000e+00  -1.5832396178446094e-03 -1.2828835635083557e-03 0.0000000000000000e+00  -3.0638376922382323e-03 -2.8036500718215231e-03 0.0000000000000000e+00  -4.2321283445570321e-03 -4.3790365954961439e-03 0.0000000000000000e+00  -5.1157138486048357e-03 -5.9289223535417086e-03 0.0000000000000000e+00  -5.7818272660408827e-03 -7.4450111962212958e-03 0.0000000000000000e+00  -6.2837592103420726e-03 -8.9366851400156152e-03 0.0000000000000000e+00  -6.6601936125673953e-03 -1.0414327817373368e-02 0.0000000000000000e+00  -6.9398198055836517e-03 -1.1886068261585545e-02 0.0000000000000000e+00  -7.1445102564959275e-03 -1.3357640746252565e-02 0.0000000000000000e+00  -7.2912695251728978e-03 -1.4832836181911051e-02 0.0000000000000000e+00  -7.3934738011623459e-03 -1.6313986303723917e-02 0.0000000000000000e+00  -7.4617037632932967e-03 -1.7802365917503664e-02 0.0000000000000000e+00  -7.5043355208018470e-03 -1.9298504022288370e-02 0.0000000000000000e+00  -7.5279808239366837e-03 -2.0802418120723563e-02 0.0000000000000000e+00  -7.5378282144459166e-03 -2.2313788342793312e-02 0.0000000000000000e+00  -7.5379152118340538e-03 -2.3832085445519697e-02 0.0000000000000000e+00  -7.5313496891313645e-03 -2.5356663688685149e-02 0.0000000000000000e+00  -7.5204919034310355e-03 -2.6886827027532010e-02 0.0000000000000000e+00  -7.5071048570238682e-03 -2.8421875098569655e-02 0.0000000000000000e+00  -7.4924784833693232e-03 -2.9961133991434939e-02 0.0000000000000000e+00  -7.4775318601242036e-03 -3.1503975672879381e-02 0.0000000000000000e+00  -7.4628968473435722e-03 -3.3049829061221156e-02 0.0000000000000000e+00  -7.4489860093406761e-03 -3.4598185072632022e-02 0.0000000000000000e+00  -7.4360472813388666e-03 -3.6148597427408391e-02 0.0000000000000000e+00  -7.4242075221092330e-03 -3.7700680582193315e-02 0.0000000000000000e+00  -7.4135068184224030e-03 -3.9254105819497773e-02 0.0000000000000000e+00  -7.4039251608649607e-03 -4.0808596261347529e-02 0.0000000000000000e+00  -7.3954028868553909e-03 -4.2363921365937647e-02 0.0000000000000000e+00  -7.3878560832643034e-03 -4.3919891304073484e-02 0.0000000000000000e+00  -7.3811879573249910e-03 -4.5476351487160734e-02 0.0000000000000000e+00  -7.3752970203652532e-03 -4.7033177423385038e-02 0.0000000000000000e+00  -7.3700827839844217e-03 -4.8590270007542687e-02 0.0000000000000000e+00  -7.3654495419758206e-03 -5.0147551297803870e-02 0.0000000000000000e+00  -7.3613087025166347e-03 -5.1704960795461483e-02 0.0000000000000000e+00  -7.3575800426010467e-03 -5.3262452218083275e-02 0.0000000000000000e+00  -7.3541921788803167e-03 -5.4819990739745243e-02 0.0000000000000000e+00  -7.3510824844399717e-03 -5.6377550661976743e-02 0.0000000000000000e+00  -7.3481966280624263e-03 -5.7935113473923952e-02 0.0000000000000000e+00  -7.3454878698168777e-03 -5.9492666258628174e-02 0.0000000000000000e+00  -7.3429162132692839e-03 -6.1050200403043757e-02 0.0000000000000000e+00  -7.3404474895418315e-03 -6.2607710571499747e-02 0.0000000000000000e+00  -7.3380524319700208e-03 -6.4165193904794277e-02 0.0000000000000000e+00  -7.3357057936974859e-03 -6.5722649409064110e-02 0.0000000000000000e+00  -7.3333855683645763e-03 -6.7280077499224711e-02 0.0000000000000000e+00  -7.3310724052102995e-03 -6.8837479662210196e-02 0.0000000000000000e+00  -7.3287493805742855e-03 -7.0394858218446335e-02 0.0000000000000000e+00  -7.3264024058264914e-03 -7.1952216257531565e-02 0.0000000000000000e+00  -7.3240215817976222e-03 -7.3509558256551755e-02 0.0000000000000000e+00  -1.2816801842269550e-03 -1.1702815584714802e-03 0.0000000000000000e+00  -2.5279564649474786e-03 -2.5417838166149295e-03 0.0000000000000000e+00  -3.5901060811624544e-03 -4.0303101178947084e-03 0.0000000000000000e+00  -4.4349486074710502e-03 -5.5584444959515221e-03 0.0000000000000000e+00  -5.0873604017852066e-03 -7.0900890686908021e-03 0.0000000000000000e+00  -5.5837110603720362e-03 -8.6144740027291680e-03 0.0000000000000000e+00  -5.9568089807397126e-03 -1.0131032205921721e-02 0.0000000000000000e+00  -6.2334273115337300e-03 -1.1642320323348263e-02 0.0000000000000000e+00  -6.4349194931003963e-03 -1.3151323819242019e-02 0.0000000000000000e+00  -6.5782571998275014e-03 -1.4660564633158147e-02 0.0000000000000000e+00  -6.6769325291380632e-03 -1.6171894344576606e-02 0.0000000000000000e+00  -6.7416646290351283e-03 -1.7686533252886667e-02 0.0000000000000000e+00  -6.7809464468064212e-03 -1.9205184518378354e-02 0.0000000000000000e+00  -6.8014733699231830e-03 -2.0728158013105954e-02 0.0000000000000000e+00  -6.8084854846130185e-03 -2.2255480570406709e-02 0.0000000000000000e+00  -6.8060452398167369e-03 -2.3786986168740011e-02 0.0000000000000000e+00  -6.7972651930041069e-03 -2.5322386183344123e-02 0.0000000000000000e+00  -6.7844959091272403e-03 -2.6861322192770754e-02 0.0000000000000000e+00  -6.7694812125864241e-03 -2.8403404418857896e-02 0.0000000000000000e+00  -6.7534862129176908e-03 -2.9948238760288372e-02 0.0000000000000000e+00  -6.7374023998524289e-03 -3.1495445005125397e-02 0.0000000000000000e+00  -6.7218333571126441e-03 -3.3044668372112743e-02 0.0000000000000000e+00  -6.7071641125244176e-03 -3.4595586115492107e-02 0.0000000000000000e+00  -6.6936167309823063e-03 -3.6147910563842305e-02 0.0000000000000000e+00  -6.6812944154011197e-03 -3.7701389657285284e-02 0.0000000000000000e+00  -6.6702160827673352e-03 -3.9255805796767913e-02 0.0000000000000000e+00  -6.6603431152043192e-03 -4.0810973617627304e-02 0.0000000000000000e+00  -6.6515997441841087e-03 -4.2366737139913714e-02 0.0000000000000000e+00  -6.6438883075905638e-03 -4.3922966622854616e-02 0.0000000000000000e+00  -6.6371004235069612e-03 -4.5479555354035403e-02 0.0000000000000000e+00  -6.6311249508476371e-03 -4.7036416529868404e-02 0.0000000000000000e+00  -6.6258534545719045e-03 -4.8593480328145117e-02 0.0000000000000000e+00  -6.6211837611594914e-03 -5.0150691232100551e-02 0.0000000000000000e+00  -6.6170220769194701e-03 -5.1708005635363111e-02 0.0000000000000000e+00  -6.6132840459468588e-03 -5.3265389735870000e-02 0.0000000000000000e+00  -6.6098950444035574e-03 -5.4822817712256583