<?xml version="1.0"?>
<VTKFile type="UnstructuredGrid"  version="0.1"  >
<UnstructuredGrid>
<Piece  NumberOfPoints="6382" NumberOfCells="12354">
<Points>
<DataArray  type="Float64"  NumberOfComponents="3"  format="ascii">0 -3 0  0 0 0  10 -3 0  10 0 0  5.2 0 0  5.2 -0.4 0  5.5 -0.4 0  5.5 -0.6000000000000001 0  4.5 -0.6000000000000001 0  4.5 -0.4 0  4.8 -0.4 0  4.8 0 0  0 -2.666666666666667 0  0 -2.333333333333333 0  0 -2 0  0 -1.666666666666667 0  0 -1.333333333333333 0  0 -1 0  0 -0.666666666666667 0  0 -0.3333333333333335 0  9.836518447033493 -3 0  9.676485174132324 -3 0  9.519716728676565 -3 0  9.366040597429432 -3 0  9.215293522901804 -3 0  9.067325347766827 -3 0  8.921978167503752 -3 0  8.779125793186953 -3 0  8.638633440048579 -3 0  8.500376249002967 -3 0  8.364235730108557 -3 0  8.230099119300583 -3 0  8.097858693472926 -3 0  7.96741165420296 -3 0  7.838659590098249 -3 0  7.711508416266758 -3 0  7.585867779025237 -3 0  7.461651037321721 -3 0  7.338774694871047 -3 0  7.217158563845377 -3 0  7.096725097152937 -3 0  6.977399455051415 -3 0  6.859109304538208 -3 0  6.741784490575633 -3 0  6.625356935727237 -3 0  6.509760461250432 -3 0  6.394930659317325 -3 0  6.2808046903675 -3 0  6.167321173775116 -3 0  6.054420032640893 -3 0  5.942042373994132 -3 0  5.830130346471836 -3 0  5.718627047087892 -3 0  5.607476358937133 -3 0  5.496622874861212 -3 0  5.386011773348871 -3 0  5.275588701244851 -3 0  5.1652996754838 -3 0  5.055090972556302 -3 0  4.944909027443701 -3 0  4.834700324516204 -3 0  4.724411298755151 -3 0  4.613988226651132 -3 0  4.50337712513879 -3 0  4.392523641062869 -3 0  4.281372952912111 -3 0  4.169869653528168 -3 0  4.05795762600587 -3 0  3.94557996735911 -3 0  3.832678826224885 -3 0  3.719195309632506 -3 0  3.605069340682676 -3 0  3.490239538749567 -3 0  3.374643064272765 -3 0  3.25821550942437 -3 0  3.140890695461794 -3 0  3.022600544948583 -3 0  2.903274902847057 -3 0  2.782841436154621 -3 0  2.661225305128949 -3 0  2.538348962678273 -3 0  2.414132220974763 -3 0  2.288491583733238 -3 0  2.161340409901745 -3 0  2.032588345797035 -3 0  1.902141306527067 -3 0  1.76990088069941 -3 0  1.63576426989143 -3 0  1.499623750997021 -3 0  1.361366559951406 -3 0  1.220874206813038 -3 0  1.078021832496241 -3 0  0.9326746522331657 -3 0  0.7847064770981866 -3 0  0.6339594025705644 -3 0  0.4802832713234277 -3 0  0.3235148258676688 -3 0  0.1634815529665037 -3 0  10 -0.3333333333333333 0  10 -0.6666666666666666 0  10 -1 0  10 -1.333333333333333 0  10 -1.666666666666667 0  10 -2 0  10 -2.333333333333333 0  10 -2.666666666666667 0  5.242711110725164 0 0  5.286293876642154 0 0  5.330766086609641 0 0  5.37614589213589 0 0  5.422451816439484 0 0  5.469702760205794 0 0  5.517918009017504 0 0  5.567117241892008 0 0  5.617320540096343 0 0  5.668548395644089 0 0  5.720821717893487 0 0  5.774161842649544 0 0  5.828590541642586 0 0  5.88413003019757 0 0  5.940802977381058 0 0  5.998632515893446 0 0  6.057642249375406 0 0  6.117856262977496 0 0  6.179299133651088 0 0  6.241995940085244 0 0  6.305972273082686 0 0  6.371254245606542 0 0  6.43786850326221 0 0  6.505842235920577 0 0  6.575203187664691 0 0  6.645979668539436 0 0  6.71820056760014 0 0  6.791895362764803 0 0  6.867094133292654 0 0  6.943827572794882 0 0  7.022127001289535 0 0  7.10202437703821 0 0  7.183552311040527 0 0  7.266744080707336 0 0  7.351633641831447 0 0  7.438255642584554 0 0  7.526645439439152 0 0  7.616839110330926 0 0  7.708873468012155 0 0  7.802786077905059 0 0  7.898615271449994 0 0  7.996400162886068 0 0  8.096180664647234 0 0  8.197997502517053 0 0  8.301892235188374 0 0  8.407907268711336 0 0  8.516085874431543 0 0  8.626472207031901 0 0  8.739111321743804 0 0  8.854049193814495 0 0  8.971332736524433 0 0  9.091009820696414 0 0  9.21312929427506 0 0  9.337741001971482 0 0  9.464895805719847 0 0  9.594645605970797 0 0  9.727043361679982 0 0  9.862143111819449 0 0  5.2 -0.01666666666666669 0  5.2 -0.03333333333333339 0  5.2 -0.05000000000000009 0  5.2 -0.06666666666666679 0  5.2 -0.0833333333333335 0  5.2 -0.1000000000000002 0  5.2 -0.1166666666666669 0  5.2 -0.1333333333333336 0  5.2 -0.1500000000000002 0  5.2 -0.1666666666666669 0  5.2 -0.1833333333333335 0  5.2 -0.2000000000000001 0  5.2 -0.2166666666666668 0  5.2 -0.2333333333333335 0  5.2 -0.2500000000000002 0  5.2 -0.2666666666666669 0  5.2 -0.2833333333333335 0  5.2 -0.3000000000000002 0  5.2 -0.3166666666666668 0  5.2 -0.3333333333333335 0  5.2 -0.3500000000000001 0  5.2 -0.3666666666666668 0  5.2 -0.3833333333333334 0  5.2125 -0.4 0  5.225 -0.4 0  5.2375 -0.4 0  5.25 -0.4 0  5.2625 -0.4 0  5.275 -0.4 0  5.2875 -0.4 0  5.3 -0.4 0  5.3125 -0.4 0  5.325 -0.4 0  5.337499999999999 -0.4 0  5.35 -0.4 0  5.3625 -0.4 0  5.375 -0.4 0  5.3875 -0.4 0  5.4 -0.4 0  5.4125 -0.4 0  5.425 -0.4 0  5.4375 -0.4 0  5.45 -0.4 0  5.4625 -0.4 0  5.475 -0.4 0  5.4875 -0.4 0  5.5 -0.4083333333333334 0  5.5 -0.4166666666666667 0  5.5 -0.425 0  5.5 -0.4333333333333334 0  5.5 -0.4416666666666668 0  5.5 -0.4500000000000001 0  5.5 -0.4583333333333334 0  5.5 -0.4666666666666668 0  5.5 -0.4750000000000001 0  5.5 -0.4833333333333335 0  5.5 -0.4916666666666668 0  5.5 -0.5000000000000002 0  5.5 -0.5083333333333335 0  5.5 -0.5166666666666668 0  5.5 -0.5250000000000002 0  5.5 -0.5333333333333335 0  5.5 -0.5416666666666669 0  5.5 -0.5500000000000002 0  5.5 -0.5583333333333335 0  5.5 -0.5666666666666668 0  5.5 -0.5750000000000002 0  5.5 -0.5833333333333335 0  5.5 -0.5916666666666668 0  5.479591836734694 -0.6000000000000001 0  5.459183673469388 -0.6000000000000001 0  5.438775510204081 -0.6000000000000001 0  5.418367346938775 -0.6000000000000001 0  5.397959183673469 -0.6000000000000001 0  5.377551020408164 -0.6000000000000001 0  5.357142857142857 -0.6000000000000001 0  5.336734693877551 -0.6000000000000001 0  5.316326530612245 -0.6000000000000001 0  5.295918367346939 -0.6000000000000001 0  5.275510204081633 -0.6000000000000001 0  5.255102040816326 -0.6000000000000001 0  5.23469387755102 -0.6000000000000001 0  5.214285714285714 -0.6000000000000001 0  5.193877551020408 -0.6000000000000001 0  5.173469387755102 -0.6000000000000001 0  5.153061224489796 -0.6000000000000001 0  5.13265306122449 -0.6000000000000001 0  5.112244897959184 -0.6000000000000001 0  5.091836734693878 -0.6000000000000001 0  5.071428571428571 -0.6000000000000001 0  5.051020408163265 -0.6000000000000001 0  5.030612244897959 -0.6000000000000001 0  5.010204081632653 -0.6000000000000001 0  4.989795918367347 -0.6000000000000001 0  4.969387755102041 -0.6000000000000001 0  4.948979591836735 -0.6000000000000001 0  4.928571428571429 -0.6000000000000001 0  4.908163265306122 -0.6000000000000001 0  4.887755102040816 -0.6000000000000001 0  4.86734693877551 -0.6000000000000001 0  4.846938775510204 -0.6000000000000001 0  4.826530612244898 -0.6000000000000001 0  4.806122448979592 -0.6000000000000001 0  4.785714285714286 -0.6000000000000001 0  4.76530612244898 -0.6000000000000001 0  4.744897959183674 -0.6000000000000001 0  4.724489795918368 -0.6000000000000001 0  4.704081632653061 -0.6000000000000001 0  4.683673469387755 -0.6000000000000001 0  4.663265306122449 -0.6000000000000001 0  4.642857142857143 -0.6000000000000001 0  4.622448979591836 -0.6000000000000001 0  4.602040816326531 -0.6000000000000001 0  4.581632653061225 -0.6000000000000001 0  4.561224489795919 -0.6000000000000001 0  4.540816326530612 -0.6000000000000001 0  4.520408163265306 -0.6000000000000001 0  4.5 -0.5916666666666668 0  4.5 -0.5833333333333334 0  4.5 -0.5750000000000001 0  4.5 -0.5666666666666668 0  4.5 -0.5583333333333333 0  4.5 -0.55 0  4.5 -0.5416666666666667 0  4.5 -0.5333333333333333 0  4.5 -0.525 0  4.5 -0.5166666666666666 0  4.5 -0.5083333333333333 0  4.5 -0.4999999999999999 0  4.5 -0.4916666666666666 0  4.5 -0.4833333333333332 0  4.5 -0.4749999999999999 0  4.5 -0.4666666666666666 0  4.5 -0.4583333333333333 0  4.5 -0.45 0  4.5 -0.4416666666666667 0  4.5 -0.4333333333333333 0  4.5 -0.425 0  4.5 -0.4166666666666667 0  4.5 -0.4083333333333334 0  4.5125 -0.4 0  4.525 -0.4 0  4.5375 -0.4 0  4.55 -0.4 0  4.5625 -0.4 0  4.575 -0.4 0  4.587499999999999 -0.4 0  4.6 -0.4 0  4.6125 -0.4 0  4.625 -0.4 0  4.637499999999999 -0.4 0  4.649999999999999 -0.4 0  4.6625 -0.4 0  4.675 -0.4 0  4.6875 -0.4 0  4.699999999999999 -0.4 0  4.712499999999999 -0.4 0  4.725 -0.4 0  4.7375 -0.4 0  4.75 -0.4 0  4.7625 -0.4 0  4.774999999999999 -0.4 0  4.7875 -0.4 0  4.8 -0.3833333333333333 0  4.8 -0.3666666666666666 0  4.8 -0.3499999999999999 0  4.8 -0.3333333333333333 0  4.8 -0.3166666666666665 0  4.8 -0.2999999999999998 0  4.8 -0.2833333333333331 0  4.8 -0.2666666666666664 0  4.8 -0.2499999999999998 0  4.8 -0.2333333333333331 0  4.8 -0.2166666666666665 0  4.8 -0.1999999999999999 0  4.8 -0.1833333333333332 0  4.8 -0.1666666666666665 0  4.8 -0.1499999999999998 0  4.8 -0.1333333333333331 0  4.8 -0.1166666666666665 0  4.8 -0.09999999999999987 0  4.8 -0.0833333333333332 0  4.8 -0.06666666666666654 0  4.8 -0.04999999999999988 0  4.8 -0.03333333333333327 0  4.8 -0.01666666666666661 0  0.1378568875240437 0 0  0.2729566377271358 0 0  0.4053543934976697 0 0  0.5351041938077431 0 0  0.6622589976130751 0 0  0.7868707053643811 0 0  0.9089901789958823 0 0  1.028667263218748 0 0  1.14595080597766 0 0  1.260888678095464 0 0  1.373527792852679 0 0  1.483914125496606 0 0  1.592092731258683 0 0  1.698107764821866 0 0  1.802002497531814 0 0  1.90381933543871 0 0  2.003599837235452 0 0  2.101384728705643 0 0  2.197213922283282 0 0  2.291126532207516 0 0  2.38316088991875 0 0  2.473354560839241 0 0  2.56174435771825 0 0  2.648366358500676 0 0  2.733255919649871 0 0  2.81644768934063 0 0  2.897975623365796 0 0  2.977872999136252 0 0  3.056172427651654 0 0  3.132905867173631 0 0  3.208104637720262 0 0  3.28179943290277 0 0  3.354020331980409 0 0  3.42479681287121 0 0  3.494157764630528 0 0  3.562131497303279 0 0  3.628745754972536 0 0  3.69402772750921 0 0  3.758004060518725 0 0  3.820700866964234 0 0  3.882143737648484 0 0  3.942357751260559 0 0  4.0013674
[...]
<PointData  Vectors="displacement"> 
<DataArray  type="Float64"  Name="displacement"  NumberOfComponents="3" format="ascii">0.0000000000000000e+00 0.0000000000000000e+00 0.0000000000000000e+00  -3.7377315265687727e-05 3.3622029043515210e-05 0.0000000000000000e+00  0.0000000000000000e+00 0.0000000000000000e+00 0.0000000000000000e+00  3.7440346856040384e-05 3.3599692417110954e-05 0.0000000000000000e+00  0.0000000000000000e+00 -9.6005956027535810e-04 0.0000000000000000e+00  0.0000000000000000e+00 -9.9380930490347336e-04 0.0000000000000000e+00  0.0000000000000000e+00 -9.6721384062046297e-04 0.0000000000000000e+00  0.0000000000000000e+00 -1.1947722122765856e-03 0.0000000000000000e+00  0.0000000000000000e+00 -1.1951569229434666e-03 0.0000000000000000e+00  0.0000000000000000e+00 -9.6706437454651913e-04 0.0000000000000000e+00  0.0000000000000000e+00 -9.9366936357436959e-04 0.0000000000000000e+00  0.0000000000000000e+00 -9.5991872168314850e-04 0.0000000000000000e+00  -2.5859032044723867e-05 -1.3877927320534149e-05 0.0000000000000000e+00  -4.7790173061338312e-05 -1.1809817126437824e-05 0.0000000000000000e+00  -6.2669102353562643e-05 -3.2985004796308922e-06 0.0000000000000000e+00  -6.9415739720482701e-05 7.9833936672091584e-06 0.0000000000000000e+00  -6.8685628763803566e-05 1.8904729267618753e-05 0.0000000000000000e+00  -6.2357027687831506e-05 2.7383868105008172e-05 0.0000000000000000e+00  -5.3258977699256499e-05 3.2206555562159783e-05 0.0000000000000000e+00  -4.4366575397059218e-05 3.3702093641975173e-05 0.0000000000000000e+00  0.0000000000000000e+00 0.0000000000000000e+00 0.0000000000000000e+00  0.0000000000000000e+00 0.0000000000000000e+00 0.0000000000000000e+00  0.0000000000000000e+00 0.0000000000000000e+00 0.0000000000000000e+00  0.0000000000000000e+00 0.0000000000000000e+00 0.0000000000000000e+00  0.0000000000000000e+00 0.0000000000000000e+00 0.0000000000000000e+00  0.0000000000000000e+00 0.0000000000000000e+00 0.0000000000000000e+00  0.0000000000000000e+00 0.0000000000000000e+00 0.0000000000000000e+00  0.0000000000000000e+00 0.0000000000000000e+00 0.0000000000000000e+00  0.0000000000000000e+00 0.0000000000000000e+00 0.0000000000000000e+00  0.0000000000000000e+00 0.0000000000000000e+00 0.0000000000000000e+00  0.0000000000000000e+00 0.0000000000000000e+00 0.0000000000000000e+00  0.0000000000000000e+00 0.0000000000000000e+00 0.0000000000000000e+00  0.0000000000000000e+00 0.0000000000000000e+00 0.0000000000000000e+00  0.0000000000000000e+00 0.0000000000000000e+00 0.0000000000000000e+00  0.0000000000000000e+00 0.0000000000000000e+00 0.0000000000000000e+00  0.0000000000000000e+00 0.0000000000000000e+00 0.0000000000000000e+00  0.0000000000000000e+00 0.0000000000000000e+00 0.0000000000000000e+00  0.0000000000000000e+00 0.0000000000000000e+00 0.0000000000000000e+00  0.0000000000000000e+00 0.0000000000000000e+00 0.0000000000000000e+00  0.0000000000000000e+00 0.0000000000000000e+00 0.0000000000000000e+00  0.0000000000000000e+00 0.0000000000000000e+00 0.0000000000000000e+00  0.0000000000000000e+00 0.0000000000000000e+00 0.0000000000000000e+00  0.0000000000000000e+00 0.0000000000000000e+00 0.0000000000000000e+00  0.0000000000000000e+00 0.0000000000000000e+00 0.0000000000000000e+00  0.0000000000000000e+00 0.0000000000000000e+00 0.0000000000000000e+00  0.0000000000000000e+00 0.0000000000000000e+00 0.0000000000000000e+00  0.0000000000000000e+00 0.0000000000000000e+00 0.0000000000000000e+00  0.0000000000000000e+00 0.0000000000000000e+00 0.0000000000000000e+00  0.0000000000000000e+00 0.0000000000000000e+00 0.0000000000000000e+00  0.0000000000000000e+00 0.0000000000000000e+00 0.0000000000000000e+00  0.0000000000000000e+00 0.0000000000000000e+00 0.0000000000000000e+00  0.0000000000000000e+00 0.0000000000000000e+00 0.0000000000000000e+00  0.0000000000000000e+00 0.0000000000000000e+00 0.0000000000000000e+00  0.0000000000000000e+00 0.0000000000000000e+00 0.0000000000000000e+00  0.0000000000000000e+00 0.0000000000000000e+00 0.0000000000000000e+00  0.0000000000000000e+00 0.0000000000000000e+00 0.0000000000000000e+00  0.0000000000000000e+00 0.0000000000000000e+00 0.0000000000000000e+00  0.0000000000000000e+00 0.0000000000000000e+00 0.0000000000000000e+00  0.0000000000000000e+00 0.0000000000000000e+00 0.0000000000000000e+00  0.0000000000000000e+00 0.0000000000000000e+00 0.0000000000000000e+00  0.0000000000000000e+00 0.0000000000000000e+00 0.0000000000000000e+00  0.0000000000000000e+00 0.0000000000000000e+00 0.0000000000000000e+00  0.0000000000000000e+00 0.0000000000000000e+00 0.0000000000000000e+00  0.0000000000000000e+00 0.0000000000000000e+00 0.0000000000000000e+00  0.0000000000000000e+00 0.0000000000000000e+00 0.0000000000000000e+00  0.0000000000000000e+00 0.0000000000000000e+00 0.0000000000000000e+00  0.0000000000000000e+00 0.0000000000000000e+00 0.0000000000000000e+00  0.0000000000000000e+00 0.0000000000000000e+00 0.0000000000000000e+00  0.0000000000000000e+00 0.0000000000000000e+00 0.0000000000000000e+00  0.0000000000000000e+00 0.0000000000000000e+00 0.0000000000000000e+00  0.0000000000000000e+00 0.0000000000000000e+00 0.0000000000000000e+00  0.0000000000000000e+00 0.0000000000000000e+00 0.0000000000000000e+00  0.0000000000000000e+00 0.0000000000000000e+00 0.0000000000000000e+00  0.0000000000000000e+00 0.0000000000000000e+00 0.0000000000000000e+00  0.0000000000000000e+00 0.0000000000000000e+00 0.0000000000000000e+00  0.0000000000000000e+00 0.0000000000000000e+00 0.0000000000000000e+00  0.0000000000000000e+00 0.0000000000000000e+00 0.0000000000000000e+00  0.0000000000000000e+00 0.0000000000000000e+00 0.0000000000000000e+00  0.0000000000000000e+00 0.0000000000000000e+00 0.0000000000000000e+00  0.0000000000000000e+00 0.0000000000000000e+00 0.0000000000000000e+00  0.0000000000000000e+00 0.0000000000000000e+00 0.0000000000000000e+00  0.0000000000000000e+00 0.0000000000000000e+00 0.0000000000000000e+00  0.0000000000000000e+00 0.0000000000000000e+00 0.0000000000000000e+00  0.0000000000000000e+00 0.0000000000000000e+00 0.0000000000000000e+00  0.0000000000000000e+00 0.0000000000000000e+00 0.0000000000000000e+00  0.0000000000000000e+00 0.0000000000000000e+00 0.0000000000000000e+00  0.0000000000000000e+00 0.0000000000000000e+00 0.0000000000000000e+00  0.0000000000000000e+00 0.0000000000000000e+00 0.0000000000000000e+00  0.0000000000000000e+00 0.0000000000000000e+00 0.0000000000000000e+00  0.0000000000000000e+00 0.0000000000000000e+00 0.0000000000000000e+00  0.0000000000000000e+00 0.0000000000000000e+00 0.0000000000000000e+00  0.0000000000000000e+00 0.0000000000000000e+00 0.0000000000000000e+00  0.0000000000000000e+00 0.0000000000000000e+00 0.0000000000000000e+00  0.0000000000000000e+00 0.0000000000000000e+00 0.0000000000000000e+00  0.0000000000000000e+00 0.0000000000000000e+00 0.0000000000000000e+00  0.0000000000000000e+00 0.0000000000000000e+00 0.0000000000000000e+00  0.0000000000000000e+00 0.0000000000000000e+00 0.0000000000000000e+00  0.0000000000000000e+00 0.0000000000000000e+00 0.0000000000000000e+00  4.4417746683297663e-05 3.3664485870690918e-05 0.0000000000000000e+00  5.3312473761046622e-05 3.2214828634660156e-05 0.0000000000000000e+00  6.2404483609049908e-05 2.7363047547302686e-05 0.0000000000000000e+00  6.8735914932672469e-05 1.8886882393513423e-05 0.0000000000000000e+00  6.9463321649214095e-05 7.9847452684728488e-06 0.0000000000000000e+00  6.2691817407420627e-05 -3.3489736235933561e-06 0.0000000000000000e+00  4.7792371237218652e-05 -1.1844559030823567e-05 0.0000000000000000e+00  2.5903606282337135e-05 -1.3884629373922527e-05 0.0000000000000000e+00  -1.6746715902139682e-05 -9.5911612085502551e-04 0.0000000000000000e+00  -3.3833475368421946e-05 -9.5619909783936044e-04 0.0000000000000000e+00  -5.1258522070338277e-05 -9.5115981564226654e-04 0.0000000000000000e+00  -6.9005490288495913e-05 -9.4382122629929914e-04 0.0000000000000000e+00  -8.7023135447574662e-05 -9.3397791208514581e-04 0.0000000000000000e+00  -1.0522485667061038e-04 -9.2140129397365062e-04 0.0000000000000000e+00  -1.2343357831542438e-04 -9.0585563480135201e-04 0.0000000000000000e+00  -1.4140976520968240e-04 -8.8712682074057578e-04 0.0000000000000000e+00  -1.5881531731755079e-04 -8.6507616785687651e-04 0.0000000000000000e+00  -1.7525378584254883e-04 -8.3967414612330725e-04 0.0000000000000000e+00  -1.9028958074774691e-04 -8.1104965036965699e-04 0.0000000000000000e+00  -2.0353483183629806e-04 -7.7948821108592007e-04 0.0000000000000000e+00  -2.1466512573587484e-04 -7.4541635453177898e-04 0.0000000000000000e+00  -2.2347198810138401e-04 -7.0935250914745251e-04 0.0000000000000000e+00  -2.2986801003500539e-04 -6.7185470800354885e-04 0.0000000000000000e+00  -2.3385828586611348e-04 -6.3347374537040088e-04 0.0000000000000000e+00  -2.3557292775024181e-04 -5.9472688257265771e-04 0.0000000000000000e+00  -2.3514816839352218e-04 -5.5605845087219614e-04 0.0000000000000000e+00  -2.3279448600846192e-04 -5.1784877877538620e-04 0.0000000000000000e+00  -2.2873861189902437e-04 -4.8041019726821106e-04 0.0000000000000000e+00  -2.2319177506863395e-04 -4.4398651780852029e-04 0.0000000000000000e+00  -2.1637793506220103e-04 -4.0876508556725555e-04 0.0000000000000000e+00  -2.0848613324437874e-04 -3.7488633091771299e-04 0.0000000000000000e+00  -1.9971852858288370e-04 -3.4245135255742479e-04 0.0000000000000000e+00  -1.9022399748942591e-04 -3.1152975152751292e-04 0.0000000000000000e+00  -1.8016332375775168e-04 -2.8216356226824459e-04 0.0000000000000000e+00  -1.6967215241061237e-04 -2.5437571486248923e-04 0.0000000000000000e+00  -1.5886686714626039e-04 -2.2817135055005431e-04 0.0000000000000000e+00  -1.4784925709937900e-04 -2.0354840252768659e-04 0.0000000000000000e+00  -1.3671971804967556e-04 -1.8048909778287171e-04 0.0000000000000000e+00  -1.2555986578632479e-04 -1.5897087685520200e-04 0.0000000000000000e+00  -1.1444388445590900e-04 -1.3896382900620234e-04 0.0000000000000000e+00  -1.0343792939197265e-04 -1.2043321077985705e-04 0.0000000000000000e+00  -9.2601386480708944e-05 -1.0333995249174884e-04 0.0000000000000000e+00  -8.1989867740378552e-05 -8.7639046202869661e-05 0.0000000000000000e+00  -7.1646708073538006e-05 -7.3287783755586830e-05 0.0000000000000000e+00  -6.1617758831771036e-05 -6.0235113368055322e-05 0.0000000000000000e+00  -5.1940685007872231e-05 -4.8428416452555524e-05 0.0000000000000000e+00  -4.2649744011400182e-05 -3.7814186016902905e-05 0.0000000000000000e+00  -3.3775403346040854e-05 -2.8335550491776274e-05 0.0000000000000000e+00  -2.5345802880549075e-05 -1.9934582093576149e-05 0.0000000000000000e+00  -1.7384980037232166e-05 -1.2548944887752345e-05 0.0000000000000000e+00  -9.9146516677452639e-06 -6.1146220243967427e-06 0.0000000000000000e+00  -2.9541719735376456e-06 -5.6582363040742391e-07 0.0000000000000000e+00  3.4797356864000947e-06 4.1667192317072660e-06 0.0000000000000000e+00  9.3722333438146629e-06 8.1549439923374088e-06 0.0000000000000000e+00  1.4709682855381907e-05 1.1474742374026058e-05 0.0000000000000000e+00  1.9484668971049358e-05 1.4207921016862213e-05 0.0000000000000000e+00  2.3685490143143267e-05 1.6436578485982159e-05 0.0000000000000000e+00  2.7308077800804478e-05 1.8253130600317320e-05 0.0000000000000000e+00  3.0351672170437994e-05 1.9755155082024658e-05 0.0000000000000000e+00  3.2818571985506976e-05 2.1047071758720934e-05 0.0000000000000000e+00  3.4721161513416501e-05 2.2242877586009415e-05 0.0000000000000000e+00  3.6082980892938649e-05 2.3462968850975616e-05 0.0000000000000000e+00  3.6945776666379179e-05 2.4834322542197066e-05 0.0000000000000000e+00  3.7378406540324930e-05 2.6478132444325706e-05 0.0000000000000000e+00  3.7498053606081446e-05 2.8495291445145680e-05 0.0000000000000000e+00  3.7448487422292718e-05 3.0930857795676568e-05 0.0000000000000000e+00  0.0000000000000000e+00 -9.6279873020075799e-04 0.0000000000000000e+00  0.0000000000000000e+00 -9.6541521921376884e-04 0.0000000000000000e+00  0.0000000000000000e+00 -9.6791000905885381e-04 0.0000000000000000e+00  0.0000000000000000e+00 -9.7028434467393997e-04 0.0000000000000000e+00  0.0000000000000000e+00 -9.7253984859323682e-04 0.0000000000000000e+00  0.0000000000000000e+00 -9.7467819724271704e-04 0.0000000000000000e+00  0.0000000000000000e+00 -9.7670113872726986e-04 0.0000000000000000e+00  0.0000000000000000e+00 -9.7861027783697108e-04 0.0000000000000000e+00  0.0000000000000000e+00 -9.8040703622087871e-04 0.0000000000000000e+00  0.0000000000000000e+00 -9.8209254386060233e-04 0.0000000000000000e+00  0.0000000000000000e+00 -9.8366766894013259e-04 0.0000000000000000e+00  0.0000000000000000e+00 -9.8513270379349256e-04 0.0000000000000000e+00  0.0000000000000000e+00 -9.8648783066343157e-04 0.0000000000000000e+00  0.0000000000000000e+00 -9.8773254309169733e-04 0.0000000000000000e+00  0.0000000000000000e+00 -9.8886599275703696e-04 0.0000000000000000e+00  0.0000000000000000e+00 -9.8988720041465520e-04 0.0000000000000000e+00  0.0000000000000000e+00 -9.9079439699652867e-04 0.0000000000000000e+00  0.0000000000000000e+00 -9.9158605569484937e-04 0.0000000000000000e+00  0.0000000000000000e+00 -9.9226022536368780e-04 0.0000000000000000e+00  0.0000000000000000e+00 -9.9281506961166168e-04 0.0000000000000000e+00  0.0000000000000000e+00 -9.9324871914519886e-04 0.0000000000000000e+00  0.0000000000000000e+00 -9.9355973599687215e-04 0.0000000000000000e+00  0.0000000000000000e+00 -9.9374684063020780e-04 0.0000000000000000e+00  0.0000000000000000e+00 -9.9374024283386967e-04 0.0000000000000000e+00  0.0000000000000000e+00 -9.9353323299214706e-04 0.0000000000000000e+00  0.0000000000000000e+00 -9.9318878857392566e-04 0.0000000000000000e+00  0.0000000000000000e+00 -9.9270778575746518e-04 0.0000000000000000e+00  0.0000000000000000e+00 -9.9209148434363254e-04 0.0000000000000000e+00  0.0000000000000000e+00 -9.9134158049985800e-04 0.0000000000000000e+00  0.0000000000000000e+00 -9.9046017112755275e-04 0.0000000000000000e+00  0.0000000000000000e+00 -9.8944992563849412e-04 0.0000000000000000e+00  0.0000000000000000e+00 -9.8831418582874205e-04 0.0000000000000000e+00  0.0000000000000000e+00 -9.8705695498338734e-04 0.0000000000000000e+00  0.0000000000000000e+00 -9.8568314174566664e-04 0.0000000000000000e+00  0.0000000000000000e+00 -9.8419875473518465e-04 0.0000000000000000e+00  0.0000000000000000e+00 -9.8261110994429801e-04 0.0000000000000000e+00  0.0000000000000000e+00 -9.8092934035415454e-04 0.0000000000000000e+00  0.0000000000000000e+00 -9.7916481396448049e-04 0.0000000000000000e+00  0.0000000000000000e+00 -9.7733205796621671e-04 0.0000000000000000e+00  0.0000000000000000e+00 -9.7544975612502997e-04 0.0000000000000000e+00  0.0000000000000000e+00 -9.7354282469133105e-04 0.0000000000000000e+00  0.0000000000000000e+00 -9.7164626458882985e-04 0.0000000000000000e+00  0.0000000000000000e+00 -9.6981021756845900e-04 0.0000000000000000e+00  0.0000000000000000e+00 -9.6811359034819496e-04 0.0000000000000000e+00  0.0000000000000000e+00 -9.6669689143187565e-04 0.0000000000000000e+00  0.0000000000000000e+00 -9.6589720353591649e-04 0.0000000000000000e+00  0.0000000000000000e+00 -9.7200126322110020e-04 0.0000000000000000e+00  0.0000000000000000e+00 -9.7571568736994768e-04 0.0000000000000000e+00  0.0000000000000000e+00 -9.7939256364638775e-04 0.0000000000000000e+00  0.0000000000000000e+00 -9.8316113610055831e-04 0.0000000000000000e+00  0.0000000000000000e+00 -9.8707608242846502e-04 0.0000000000000000e+00  0.0000000000000000e+00 -9.9117034182469310e-04 0.0000000000000000e+00  0.0000000000000000e+00 -9.9547084923215729e-04 0.0000000000000000e+00  0.0000000000000000e+00 -1.0000007323734065e-03 0.0000000000000000e+00  0.0000000000000000e+00 -1.0047847572266660e-03 0.0000000000000000e+00  0.0000000000000000e+00 -1.0098479753919960e-03 0.0000000000000000e+00  0.0000000000000000e+00 -1.0152220656850662e-03 0.0000000000000000e+00  0.0000000000000000e+00 -1.0209355283519153e-03 0.0000000000000000e+00  0.0000000000000000e+00 -1.0270317765419578e-03 0.0000000000000000e+00  0.0000000000000000e+00 -1.0335547075272099e-03 0.0000000000000000e+00  0.0000000000000000e+00 -1.0405634491475468e-03 0.0000000000000000e+00  0.0000000000000000e+00 -1.0481271715861778e-03 0.0000000000000000e+00  0.0000000000000000e+00 -1.0563366811710778e-03 0.0000000000000000e+00  0.0000000000000000e+00 -1.0653166594818892e-03 0.0000000000000000e+00  0.0000000000000000e+00 -1.0752283682806210e-03 0.0000000000000000e+00  0.0000000000000000e+00 -1.0863073924771687e-03 0.0000000000000000e+00  0.0000000000000000e+00 -1.0989287334776715e-03 0.0000000000000000e+00  0.0000000000000000e+00 -1.1136856170442307e-03 0.0000000000000000e+00  0.0000000000000000e+00 -1.1327169403240369e-03 0.0000000000000000e+00  -9.9337885440273904e-05 -1.3513598496373085e-03 0.0000000000000000e+00  -1.1056425763092271e-04 -1.4481019376716940e-03 0.0000000000000000e+00  -1.1529095525405427e-04 -1.5230238053714400e-03 0.0000000000000000e+00  -1.1681318976727704e-04 -1.5864889510802331e-03 0.0000000000000000e+00  -1.1618978150819413e-04 -1.6418699197685589e-03 0.0000000000000000e+00  -1.1416774481024207e-04 -1.6910161440313479e-03 0.0000000000000000e+00  -1.1110918988585522e-04 -1.7350645263936274e-03 0.0000000000000000e+00  -1.0724414097989125e-04 -1.7747794350006694e-03 0.0000000000000000e+00  -1.0274619617565655e-04 -1.8107111924116316e-03 0.0000000000000000e+00  -9.7734646463450842e-05 -1.8432721490954794e-03 0.0000000000000000e+00  -9.2303411083752122e-05 -1.8727803822518212e-03 0.0000000000000000e+00  -8.6523214310187040e-05 -1.8994858211072562e-03 0.0000000000000000e+00  -8.0450355676674965e-05 -1.9235895236979759e-03 0.0000000000000000e+00  -7.4129115630786529e-05 -1.9452534038871805e-03 0.0000000000000000e+00  -6.7598518552647991e-05 -1.9646120278774214e-03 0.0000000000000000e+00  -6.0892843138937864e-05 -1.9817760501029680e-03 0.0000000000000000e+00  -5.4035082327635018e-05 -1.9968346392022092e-03 0.0000000000000000e+00  -4.7051340119918565e-05 -2.0098646007507153e-03 0.0000000000000000e+00  -3.9964111010805175e-05 -2.0209289076876169e-03 0.0000000000000000e+00  -3.2791027814169003e-05 -2.0300773141139470e-03 0.0000000000000000e+00  -2.5551075599928322e-05 -2.0373499757206396e-03 0.0000000000000000e+00  -1.8257987189940553e-05 -2.0427779162960347e-03 0.0000000000000000e+00  -1.0929302047093263e-05 -2.0463845899987378e-03 0.0000000000000000e+00  -3.5801111970143183e-06 -2.0481843140897206e-03 0.0000000000000000e+00  3.7780625950598067e-06 -2.0481846025345207e-03 0.0000000000000000e+00  1.1128635287225264e-05 -2.0463855518342349e-03 0.0000000000000000e+00  1.8456658514404492e-05 -2.0427794710878569e-03 0.0000000000000000e+00  2.5750482766446921e-05 -2.0373518858099165e-03 0.0000000000000000e+00  3.2991839607589233e-05 -2.0300799375349882e-03 0.0000000000000000e+00  4.0166393056872648e-05 -2.0209326914163903e-03 0.0000000000000000e+00  4.7254242825687467e-05 -2.0098689361187226e-03 0.0000000000000000e+00  5.4241501024845782e-05 -1.9968395396239994e-03 0.0000000000000000e+00  6.1098687362850167e-05 -1.9817806750833866e-03 0.0000000000000000e+00  6.7809003879176359e-05 -1.9646176881382258e-03 0.0000000000000000e+00  7.4342048614967331e-05 -1.9452590143043725e-03 0.0000000000000000e+00  8.0666015039622613e-05 -1.9235958141317828e-03 0.0000000000000000e+00  8.6744448621865102e-05 -1.8994948303408200e-03 0.0000000000000000e+00  9.2532604793665115e-05 -1.8727921062285874e-03 0.0000000000000000e+00  9.7963550611434794e-05 -1.8432814809056660e-03 0.0000000000000000e+00  1.0298047253201405e-04 -1.8107204659844893e-03 0.0000000000000000e+00  1.0749035046531542e-04 -1.7747914492954049e-03 0.0000000000000000e+00  1.1136371963444052e-04 -1.7350791251427120e-03 0.0000000000000000e+00  1.1443931229380293e-04 -1.6910308890254872e-03 0.0000000000000000e+00  1.1645966091534477e-04 -1.6418717880590434e-03 0.0000000000000000e+00  1.1707806150606633e-04 -1.5864865164087547e-03 0.0000000000000000e+00  1.1563065110103972e-04 -1.5230358549198305e-03 0.0000000000000000e+00  1.1094827028128944e-04 -1.4480722236202112e-03 0.0000000000000000e+00  9.9404834703379372e-05 -1