<?xml version="1.0"?>
<VTKFile type="UnstructuredGrid"  version="0.1"  >
<UnstructuredGrid>
<Piece  NumberOfPoints="6382" NumberOfCells="12354">
<Points>
<DataArray  type="Float64"  NumberOfComponents="3"  format="ascii">0 -3 0  0 0 0  10 -3 0  10 0 0  5.2 0 0  5.2 -0.4 0  5.5 -0.4 0  5.5 -0.6000000000000001 0  4.5 -0.6000000000000001 0  4.5 -0.4 0  4.8 -0.4 0  4.8 0 0  0 -2.666666666666667 0  0 -2.333333333333333 0  0 -2 0  0 -1.666666666666667 0  0 -1.333333333333333 0  0 -1 0  0 -0.666666666666667 0  0 -0.3333333333333335 0  9.836518447033493 -3 0  9.676485174132324 -3 0  9.519716728676565 -3 0  9.366040597429432 -3 0  9.215293522901804 -3 0  9.067325347766827 -3 0  8.921978167503752 -3 0  8.779125793186953 -3 0  8.638633440048579 -3 0  8.500376249002967 -3 0  8.364235730108557 -3 0  8.230099119300583 -3 0  8.097858693472926 -3 0  7.96741165420296 -3 0  7.838659590098249 -3 0  7.711508416266758 -3 0  7.585867779025237 -3 0  7.461651037321721 -3 0  7.338774694871047 -3 0  7.217158563845377 -3 0  7.096725097152937 -3 0  6.977399455051415 -3 0  6.859109304538208 -3 0  6.741784490575633 -3 0  6.625356935727237 -3 0  6.509760461250432 -3 0  6.394930659317325 -3 0  6.2808046903675 -3 0  6.167321173775116 -3 0  6.054420032640893 -3 0  5.942042373994132 -3 0  5.830130346471836 -3 0  5.718627047087892 -3 0  5.607476358937133 -3 0  5.496622874861212 -3 0  5.386011773348871 -3 0  5.275588701244851 -3 0  5.1652996754838 -3 0  5.055090972556302 -3 0  4.944909027443701 -3 0  4.834700324516204 -3 0  4.724411298755151 -3 0  4.613988226651132 -3 0  4.50337712513879 -3 0  4.392523641062869 -3 0  4.281372952912111 -3 0  4.169869653528168 -3 0  4.05795762600587 -3 0  3.94557996735911 -3 0  3.832678826224885 -3 0  3.719195309632506 -3 0  3.605069340682676 -3 0  3.490239538749567 -3 0  3.374643064272765 -3 0  3.25821550942437 -3 0  3.140890695461794 -3 0  3.022600544948583 -3 0  2.903274902847057 -3 0  2.782841436154621 -3 0  2.661225305128949 -3 0  2.538348962678273 -3 0  2.414132220974763 -3 0  2.288491583733238 -3 0  2.161340409901745 -3 0  2.032588345797035 -3 0  1.902141306527067 -3 0  1.76990088069941 -3 0  1.63576426989143 -3 0  1.499623750997021 -3 0  1.361366559951406 -3 0  1.220874206813038 -3 0  1.078021832496241 -3 0  0.9326746522331657 -3 0  0.7847064770981866 -3 0  0.6339594025705644 -3 0  0.4802832713234277 -3 0  0.3235148258676688 -3 0  0.1634815529665037 -3 0  10 -0.3333333333333333 0  10 -0.6666666666666666 0  10 -1 0  10 -1.333333333333333 0  10 -1.666666666666667 0  10 -2 0  10 -2.333333333333333 0  10 -2.666666666666667 0  5.242711110725164 0 0  5.286293876642154 0 0  5.330766086609641 0 0  5.37614589213589 0 0  5.422451816439484 0 0  5.469702760205794 0 0  5.517918009017504 0 0  5.567117241892008 0 0  5.617320540096343 0 0  5.668548395644089 0 0  5.720821717893487 0 0  5.774161842649544 0 0  5.828590541642586 0 0  5.88413003019757 0 0  5.940802977381058 0 0  5.998632515893446 0 0  6.057642249375406 0 0  6.117856262977496 0 0  6.179299133651088 0 0  6.241995940085244 0 0  6.305972273082686 0 0  6.371254245606542 0 0  6.43786850326221 0 0  6.505842235920577 0 0  6.575203187664691 0 0  6.645979668539436 0 0  6.71820056760014 0 0  6.791895362764803 0 0  6.867094133292654 0 0  6.943827572794882 0 0  7.022127001289535 0 0  7.10202437703821 0 0  7.183552311040527 0 0  7.266744080707336 0 0  7.351633641831447 0 0  7.438255642584554 0 0  7.526645439439152 0 0  7.616839110330926 0 0  7.708873468012155 0 0  7.802786077905059 0 0  7.898615271449994 0 0  7.996400162886068 0 0  8.096180664647234 0 0  8.197997502517053 0 0  8.301892235188374 0 0  8.407907268711336 0 0  8.516085874431543 0 0  8.626472207031901 0 0  8.739111321743804 0 0  8.854049193814495 0 0  8.971332736524433 0 0  9.091009820696414 0 0  9.21312929427506 0 0  9.337741001971482 0 0  9.464895805719847 0 0  9.594645605970797 0 0  9.727043361679982 0 0  9.862143111819449 0 0  5.2 -0.01666666666666669 0  5.2 -0.03333333333333339 0  5.2 -0.05000000000000009 0  5.2 -0.06666666666666679 0  5.2 -0.0833333333333335 0  5.2 -0.1000000000000002 0  5.2 -0.1166666666666669 0  5.2 -0.1333333333333336 0  5.2 -0.1500000000000002 0  5.2 -0.1666666666666669 0  5.2 -0.1833333333333335 0  5.2 -0.2000000000000001 0  5.2 -0.2166666666666668 0  5.2 -0.2333333333333335 0  5.2 -0.2500000000000002 0  5.2 -0.2666666666666669 0  5.2 -0.2833333333333335 0  5.2 -0.3000000000000002 0  5.2 -0.3166666666666668 0  5.2 -0.3333333333333335 0  5.2 -0.3500000000000001 0  5.2 -0.3666666666666668 0  5.2 -0.3833333333333334 0  5.2125 -0.4 0  5.225 -0.4 0  5.2375 -0.4 0  5.25 -0.4 0  5.2625 -0.4 0  5.275 -0.4 0  5.2875 -0.4 0  5.3 -0.4 0  5.3125 -0.4 0  5.325 -0.4 0  5.337499999999999 -0.4 0  5.35 -0.4 0  5.3625 -0.4 0  5.375 -0.4 0  5.3875 -0.4 0  5.4 -0.4 0  5.4125 -0.4 0  5.425 -0.4 0  5.4375 -0.4 0  5.45 -0.4 0  5.4625 -0.4 0  5.475 -0.4 0  5.4875 -0.4 0  5.5 -0.4083333333333334 0  5.5 -0.4166666666666667 0  5.5 -0.425 0  5.5 -0.4333333333333334 0  5.5 -0.4416666666666668 0  5.5 -0.4500000000000001 0  5.5 -0.4583333333333334 0  5.5 -0.4666666666666668 0  5.5 -0.4750000000000001 0  5.5 -0.4833333333333335 0  5.5 -0.4916666666666668 0  5.5 -0.5000000000000002 0  5.5 -0.5083333333333335 0  5.5 -0.5166666666666668 0  5.5 -0.5250000000000002 0  5.5 -0.5333333333333335 0  5.5 -0.5416666666666669 0  5.5 -0.5500000000000002 0  5.5 -0.5583333333333335 0  5.5 -0.5666666666666668 0  5.5 -0.5750000000000002 0  5.5 -0.5833333333333335 0  5.5 -0.5916666666666668 0  5.479591836734694 -0.6000000000000001 0  5.459183673469388 -0.6000000000000001 0  5.438775510204081 -0.6000000000000001 0  5.418367346938775 -0.6000000000000001 0  5.397959183673469 -0.6000000000000001 0  5.377551020408164 -0.6000000000000001 0  5.357142857142857 -0.6000000000000001 0  5.336734693877551 -0.6000000000000001 0  5.316326530612245 -0.6000000000000001 0  5.295918367346939 -0.6000000000000001 0  5.275510204081633 -0.6000000000000001 0  5.255102040816326 -0.6000000000000001 0  5.23469387755102 -0.6000000000000001 0  5.214285714285714 -0.6000000000000001 0  5.193877551020408 -0.6000000000000001 0  5.173469387755102 -0.6000000000000001 0  5.153061224489796 -0.6000000000000001 0  5.13265306122449 -0.6000000000000001 0  5.112244897959184 -0.6000000000000001 0  5.091836734693878 -0.6000000000000001 0  5.071428571428571 -0.6000000000000001 0  5.051020408163265 -0.6000000000000001 0  5.030612244897959 -0.6000000000000001 0  5.010204081632653 -0.6000000000000001 0  4.989795918367347 -0.6000000000000001 0  4.969387755102041 -0.6000000000000001 0  4.948979591836735 -0.6000000000000001 0  4.928571428571429 -0.6000000000000001 0  4.908163265306122 -0.6000000000000001 0  4.887755102040816 -0.6000000000000001 0  4.86734693877551 -0.6000000000000001 0  4.846938775510204 -0.6000000000000001 0  4.826530612244898 -0.6000000000000001 0  4.806122448979592 -0.6000000000000001 0  4.785714285714286 -0.6000000000000001 0  4.76530612244898 -0.6000000000000001 0  4.744897959183674 -0.6000000000000001 0  4.724489795918368 -0.6000000000000001 0  4.704081632653061 -0.6000000000000001 0  4.683673469387755 -0.6000000000000001 0  4.663265306122449 -0.6000000000000001 0  4.642857142857143 -0.6000000000000001 0  4.622448979591836 -0.6000000000000001 0  4.602040816326531 -0.6000000000000001 0  4.581632653061225 -0.6000000000000001 0  4.561224489795919 -0.6000000000000001 0  4.540816326530612 -0.6000000000000001 0  4.520408163265306 -0.6000000000000001 0  4.5 -0.5916666666666668 0  4.5 -0.5833333333333334 0  4.5 -0.5750000000000001 0  4.5 -0.5666666666666668 0  4.5 -0.5583333333333333 0  4.5 -0.55 0  4.5 -0.5416666666666667 0  4.5 -0.5333333333333333 0  4.5 -0.525 0  4.5 -0.5166666666666666 0  4.5 -0.5083333333333333 0  4.5 -0.4999999999999999 0  4.5 -0.4916666666666666 0  4.5 -0.4833333333333332 0  4.5 -0.4749999999999999 0  4.5 -0.4666666666666666 0  4.5 -0.4583333333333333 0  4.5 -0.45 0  4.5 -0.4416666666666667 0  4.5 -0.4333333333333333 0  4.5 -0.425 0  4.5 -0.4166666666666667 0  4.5 -0.4083333333333334 0  4.5125 -0.4 0  4.525 -0.4 0  4.5375 -0.4 0  4.55 -0.4 0  4.5625 -0.4 0  4.575 -0.4 0  4.587499999999999 -0.4 0  4.6 -0.4 0  4.6125 -0.4 0  4.625 -0.4 0  4.637499999999999 -0.4 0  4.649999999999999 -0.4 0  4.6625 -0.4 0  4.675 -0.4 0  4.6875 -0.4 0  4.699999999999999 -0.4 0  4.712499999999999 -0.4 0  4.725 -0.4 0  4.7375 -0.4 0  4.75 -0.4 0  4.7625 -0.4 0  4.774999999999999 -0.4 0  4.7875 -0.4 0  4.8 -0.3833333333333333 0  4.8 -0.3666666666666666 0  4.8 -0.3499999999999999 0  4.8 -0.3333333333333333 0  4.8 -0.3166666666666665 0  4.8 -0.2999999999999998 0  4.8 -0.2833333333333331 0  4.8 -0.2666666666666664 0  4.8 -0.2499999999999998 0  4.8 -0.2333333333333331 0  4.8 -0.2166666666666665 0  4.8 -0.1999999999999999 0  4.8 -0.1833333333333332 0  4.8 -0.1666666666666665 0  4.8 -0.1499999999999998 0  4.8 -0.1333333333333331 0  4.8 -0.1166666666666665 0  4.8 -0.09999999999999987 0  4.8 -0.0833333333333332 0  4.8 -0.06666666666666654 0  4.8 -0.04999999999999988 0  4.8 -0.03333333333333327 0  4.8 -0.01666666666666661 0  0.1378568875240437 0 0  0.2729566377271358 0 0  0.4053543934976697 0 0  0.5351041938077431 0 0  0.6622589976130751 0 0  0.7868707053643811 0 0  0.9089901789958823 0 0  1.028667263218748 0 0  1.14595080597766 0 0  1.260888678095464 0 0  1.373527792852679 0 0  1.483914125496606 0 0  1.592092731258683 0 0  1.698107764821866 0 0  1.802002497531814 0 0  1.90381933543871 0 0  2.003599837235452 0 0  2.101384728705643 0 0  2.197213922283282 0 0  2.291126532207516 0 0  2.38316088991875 0 0  2.473354560839241 0 0  2.56174435771825 0 0  2.648366358500676 0 0  2.733255919649871 0 0  2.81644768934063 0 0  2.897975623365796 0 0  2.977872999136252 0 0  3.056172427651654 0 0  3.132905867173631 0 0  3.208104637720262 0 0  3.28179943290277 0 0  3.354020331980409 0 0  3.42479681287121 0 0  3.494157764630528 0 0  3.562131497303279 0 0  3.628745754972536 0 0  3.69402772750921 0 0  3.758004060518725 0 0  3.820700866964234 0 0  3.882143737648484 0 0  3.942357751260559 0 0  4.0013674
[...]
<PointData  Vectors="displacement"> 
<DataArray  type="Float64"  Name="displacement"  NumberOfComponents="3" format="ascii">0.0000000000000000e+00 0.0000000000000000e+00 0.0000000000000000e+00  -1.9833442557773138e-05 1.7362105122432105e-05 0.0000000000000000e+00  0.0000000000000000e+00 0.0000000000000000e+00 0.0000000000000000e+00  1.9840123448385530e-05 1.7356916631727577e-05 0.0000000000000000e+00  0.0000000000000000e+00 -5.0131297826376021e-04 0.0000000000000000e+00  0.0000000000000000e+00 -5.1887349554368268e-04 0.0000000000000000e+00  0.0000000000000000e+00 -5.0517147715591418e-04 0.0000000000000000e+00  0.0000000000000000e+00 -6.2077788073223528e-04 0.0000000000000000e+00  0.0000000000000000e+00 -6.2083865372333964e-04 0.0000000000000000e+00  0.0000000000000000e+00 -5.0516631334134900e-04 0.0000000000000000e+00  0.0000000000000000e+00 -5.1886904949213395e-04 0.0000000000000000e+00  0.0000000000000000e+00 -5.0130874081878805e-04 0.0000000000000000e+00  -1.3521838539384322e-05 -7.2832645257067653e-06 0.0000000000000000e+00  -2.4987395322330430e-05 -6.2387424514903152e-06 0.0000000000000000e+00  -3.2779636381707705e-05 -1.8304283362778708e-06 0.0000000000000000e+00  -3.6336654880601474e-05 4.0277384483912540e-06 0.0000000000000000e+00  -3.5998919013275328e-05 9.7043074706433679e-06 0.0000000000000000e+00  -3.2743237738892911e-05 1.4114382865691798e-05 0.0000000000000000e+00  -2.8041698038360558e-05 1.6624273490080733e-05 0.0000000000000000e+00  -2.3443299572437649e-05 1.7403441786478476e-05 0.0000000000000000e+00  0.0000000000000000e+00 0.0000000000000000e+00 0.0000000000000000e+00  0.0000000000000000e+00 0.0000000000000000e+00 0.0000000000000000e+00  0.0000000000000000e+00 0.0000000000000000e+00 0.0000000000000000e+00  0.0000000000000000e+00 0.0000000000000000e+00 0.0000000000000000e+00  0.0000000000000000e+00 0.0000000000000000e+00 0.0000000000000000e+00  0.0000000000000000e+00 0.0000000000000000e+00 0.0000000000000000e+00  0.0000000000000000e+00 0.0000000000000000e+00 0.0000000000000000e+00  0.0000000000000000e+00 0.0000000000000000e+00 0.0000000000000000e+00  0.0000000000000000e+00 0.0000000000000000e+00 0.0000000000000000e+00  0.0000000000000000e+00 0.0000000000000000e+00 0.0000000000000000e+00  0.0000000000000000e+00 0.0000000000000000e+00 0.0000000000000000e+00  0.0000000000000000e+00 0.0000000000000000e+00 0.0000000000000000e+00  0.0000000000000000e+00 0.0000000000000000e+00 0.0000000000000000e+00  0.0000000000000000e+00 0.0000000000000000e+00 0.0000000000000000e+00  0.0000000000000000e+00 0.0000000000000000e+00 0.0000000000000000e+00  0.0000000000000000e+00 0.0000000000000000e+00 0.0000000000000000e+00  0.0000000000000000e+00 0.0000000000000000e+00 0.0000000000000000e+00  0.0000000000000000e+00 0.0000000000000000e+00 0.0000000000000000e+00  0.0000000000000000e+00 0.0000000000000000e+00 0.0000000000000000e+00  0.0000000000000000e+00 0.0000000000000000e+00 0.0000000000000000e+00  0.0000000000000000e+00 0.0000000000000000e+00 0.0000000000000000e+00  0.0000000000000000e+00 0.0000000000000000e+00 0.0000000000000000e+00  0.0000000000000000e+00 0.0000000000000000e+00 0.0000000000000000e+00  0.0000000000000000e+00 0.0000000000000000e+00 0.0000000000000000e+00  0.0000000000000000e+00 0.0000000000000000e+00 0.0000000000000000e+00  0.0000000000000000e+00 0.0000000000000000e+00 0.0000000000000000e+00  0.0000000000000000e+00 0.0000000000000000e+00 0.0000000000000000e+00  0.0000000000000000e+00 0.0000000000000000e+00 0.0000000000000000e+00  0.0000000000000000e+00 0.0000000000000000e+00 0.0000000000000000e+00  0.0000000000000000e+00 0.0000000000000000e+00 0.0000000000000000e+00  0.0000000000000000e+00 0.0000000000000000e+00 0.0000000000000000e+00  0.0000000000000000e+00 0.0000000000000000e+00 0.0000000000000000e+00  0.0000000000000000e+00 0.0000000000000000e+00 0.0000000000000000e+00  0.0000000000000000e+00 0.0000000000000000e+00 0.0000000000000000e+00  0.0000000000000000e+00 0.0000000000000000e+00 0.0000000000000000e+00  0.0000000000000000e+00 0.0000000000000000e+00 0.0000000000000000e+00  0.0000000000000000e+00 0.0000000000000000e+00 0.0000000000000000e+00  0.0000000000000000e+00 0.0000000000000000e+00 0.0000000000000000e+00  0.0000000000000000e+00 0.0000000000000000e+00 0.0000000000000000e+00  0.0000000000000000e+00 0.0000000000000000e+00 0.0000000000000000e+00  0.0000000000000000e+00 0.0000000000000000e+00 0.0000000000000000e+00  0.0000000000000000e+00 0.0000000000000000e+00 0.0000000000000000e+00  0.0000000000000000e+00 0.0000000000000000e+00 0.0000000000000000e+00  0.0000000000000000e+00 0.0000000000000000e+00 0.0000000000000000e+00  0.0000000000000000e+00 0.0000000000000000e+00 0.0000000000000000e+00  0.0000000000000000e+00 0.0000000000000000e+00 0.0000000000000000e+00  0.0000000000000000e+00 0.0000000000000000e+00 0.0000000000000000e+00  0.0000000000000000e+00 0.0000000000000000e+00 0.0000000000000000e+00  0.0000000000000000e+00 0.0000000000000000e+00 0.0000000000000000e+00  0.0000000000000000e+00 0.0000000000000000e+00 0.0000000000000000e+00  0.0000000000000000e+00 0.0000000000000000e+00 0.0000000000000000e+00  0.0000000000000000e+00 0.0000000000000000e+00 0.0000000000000000e+00  0.0000000000000000e+00 0.0000000000000000e+00 0.0000000000000000e+00  0.0000000000000000e+00 0.0000000000000000e+00 0.0000000000000000e+00  0.0000000000000000e+00 0.0000000000000000e+00 0.0000000000000000e+00  0.0000000000000000e+00 0.0000000000000000e+00 0.0000000000000000e+00  0.0000000000000000e+00 0.0000000000000000e+00 0.0000000000000000e+00  0.0000000000000000e+00 0.0000000000000000e+00 0.0000000000000000e+00  0.0000000000000000e+00 0.0000000000000000e+00 0.0000000000000000e+00  0.0000000000000000e+00 0.0000000000000000e+00 0.0000000000000000e+00  0.0000000000000000e+00 0.0000000000000000e+00 0.0000000000000000e+00  0.0000000000000000e+00 0.0000000000000000e+00 0.0000000000000000e+00  0.0000000000000000e+00 0.0000000000000000e+00 0.0000000000000000e+00  0.0000000000000000e+00 0.0000000000000000e+00 0.0000000000000000e+00  0.0000000000000000e+00 0.0000000000000000e+00 0.0000000000000000e+00  0.0000000000000000e+00 0.0000000000000000e+00 0.0000000000000000e+00  0.0000000000000000e+00 0.0000000000000000e+00 0.0000000000000000e+00  0.0000000000000000e+00 0.0000000000000000e+00 0.0000000000000000e+00  0.0000000000000000e+00 0.0000000000000000e+00 0.0000000000000000e+00  0.0000000000000000e+00 0.0000000000000000e+00 0.0000000000000000e+00  0.0000000000000000e+00 0.0000000000000000e+00 0.0000000000000000e+00  0.0000000000000000e+00 0.0000000000000000e+00 0.0000000000000000e+00  0.0000000000000000e+00 0.0000000000000000e+00 0.0000000000000000e+00  0.0000000000000000e+00 0.0000000000000000e+00 0.0000000000000000e+00  0.0000000000000000e+00 0.0000000000000000e+00 0.0000000000000000e+00  0.0000000000000000e+00 0.0000000000000000e+00 0.0000000000000000e+00  0.0000000000000000e+00 0.0000000000000000e+00 0.0000000000000000e+00  0.0000000000000000e+00 0.0000000000000000e+00 0.0000000000000000e+00  2.3445577040179182e-05 1.7390347250449150e-05 0.0000000000000000e+00  2.8047004006136857e-05 1.6635082894699354e-05 0.0000000000000000e+00  3.2747357274466932e-05 1.4110279421804896e-05 0.0000000000000000e+00  3.6006804801635213e-05 9.7019266180229012e-06 0.0000000000000000e+00  3.6345847703489623e-05 4.0354050240930287e-06 0.0000000000000000e+00  3.2779061182793375e-05 -1.8500536877667600e-06 0.0000000000000000e+00  2.4979772090112255e-05 -6.2510453197353353e-06 0.0000000000000000e+00  1.3540319016202538e-05 -7.2826274610696980e-06 0.0000000000000000e+00  -8.7406269886993873e-06 -5.0082015795972854e-04 0.0000000000000000e+00  -1.7659826635538494e-05 -4.9929608456333765e-04 0.0000000000000000e+00  -2.6757676315551097e-05 -4.9666213024653831e-04 0.0000000000000000e+00  -3.6026551026015720e-05 -4.9282403524606583e-04 0.0000000000000000e+00  -4.5440071948819846e-05 -4.8767188680408759e-04 0.0000000000000000e+00  -5.4952562687939779e-05 -4.8108314542645830e-04 0.0000000000000000e+00  -6.4469659681254754e-05 -4.7293145919071399e-04 0.0000000000000000e+00  -7.3863228957456205e-05 -4.6310272444838161e-04 0.0000000000000000e+00  -8.2952633262992244e-05 -4.5152425082266626e-04 0.0000000000000000e+00  -9.1526859535203284e-05 -4.3818282525853887e-04 0.0000000000000000e+00  -9.9355525059648144e-05 -4.2315044649256613e-04 0.0000000000000000e+00  -1.0623513483839064e-04 -4.0658234981522394e-04 0.0000000000000000e+00  -1.1199741483341097e-04 -3.8870764492917302e-04 0.0000000000000000e+00  -1.1653632815437860e-04 -3.6980245831288414e-04 0.0000000000000000e+00  -1.1980999505655167e-04 -3.5016209164197331e-04 0.0000000000000000e+00  -1.2182496199057387e-04 -3.3007620182903618e-04 0.0000000000000000e+00  -1.2265301791628799e-04 -3.0981534703248279e-04 0.0000000000000000e+00  -1.2236790756702792e-04 -2.8961083466985465e-04 0.0000000000000000e+00  -1.2108176992123982e-04 -2.6965970122120594e-04 0.0000000000000000e+00  -1.1891428420075013e-04 -2.5012305240734717e-04 0.0000000000000000e+00  -1.1597637110714113e-04 -2.3112610310341554e-04 0.0000000000000000e+00  -1.1238508560011721e-04 -2.1276460730683202e-04 0.0000000000000000e+00  -1.0823891936928285e-04 -1.9511001462233404e-04 0.0000000000000000e+00  -1.0364285825761676e-04 -1.7821341779058380e-04 0.0000000000000000e+00  -9.8674070607856053e-05 -1.6210975006025440e-04 0.0000000000000000e+00  -9.3415746065442524e-05 -1.4681975190606494e-04 0.0000000000000000e+00  -8.7937929821693621e-05 -1.3235441638239596e-04 0.0000000000000000e+00  -8.2300713997771004e-05 -1.1871565410571780e-04 0.0000000000000000e+00  -7.6556493170081978e-05 -1.0590174726966374e-04 0.0000000000000000e+00  -7.0757071751196998e-05 -9.3902959588640519e-05 0.0000000000000000e+00  -6.4944433579208310e-05 -8.2707125036456564e-05 0.0000000000000000e+00  -5.9156778331900003e-05 -7.2298375228582531e-05 0.0000000000000000e+00  -5.3428159849267575e-05 -6.2658388139017260e-05 0.0000000000000000e+00  -4.7789151029110068e-05 -5.3766648397645817e-05 0.0000000000000000e+00  -4.2268370268922025e-05 -4.5599600898125815e-05 0.0000000000000000e+00  -3.6888141736198018e-05 -3.8134930883533313e-05 0.0000000000000000e+00  -3.1672081845687736e-05 -3.1346013715768228e-05 0.0000000000000000e+00  -2.6639580253083474e-05 -2.5205432976956467e-05 0.0000000000000000e+00  -2.1808312764707930e-05 -1.9685334085626045e-05 0.0000000000000000e+00  -1.7193968472224464e-05 -1.4756131251929602e-05 0.0000000000000000e+00  -1.2811081280296494e-05 -1.0387701664348356e-05 0.0000000000000000e+00  -8.6720421909399144e-06 -6.5476435334726139e-06 0.0000000000000000e+00  -4.7880684762417902e-06 -3.2026866506049792e-06 0.0000000000000000e+00  -1.1691592443581248e-06 -3.1864826875108204e-07 0.0000000000000000e+00  2.1760401423994054e-06 2.1404587166854858e-06 0.0000000000000000e+00  5.2398509836947485e-06 4.2120053264344429e-06 0.0000000000000000e+00  8.0152062714074156e-06 5.9354168672043825e-06 0.0000000000000000e+00  1.0498261550540822e-05 7.3531937998023242e-06 0.0000000000000000e+00  1.2682932879302923e-05 8.5079898387932788e-06 0.0000000000000000e+00  1.4567091313215339e-05 9.4478276057476824e-06 0.0000000000000000e+00  1.6150316364418474e-05 1.0223421832308532e-05 0.0000000000000000e+00  1.7433767551701946e-05 1.0889053391244925e-05 0.0000000000000000e+00  1.8423834779536650e-05 1.1504000576504519e-05 0.0000000000000000e+00  1.9132699138627951e-05 1.2130889794452516e-05 0.0000000000000000e+00  1.9582001879225572e-05 1.2835797539979907e-05 0.0000000000000000e+00  1.9807481311938224e-05 1.3681830342380408e-05 0.0000000000000000e+00  1.9870018794211048e-05 1.4721581439077166e-05 0.0000000000000000e+00  1.9844363269378183e-05 1.5978651549975229e-05 0.0000000000000000e+00  0.0000000000000000e+00 -5.0274256981684478e-04 0.0000000000000000e+00  0.0000000000000000e+00 -5.0410797804401909e-04 0.0000000000000000e+00  0.0000000000000000e+00 -5.0540963317639853e-04 0.0000000000000000e+00  0.0000000000000000e+00 -5.0664812738246922e-04 0.0000000000000000e+00  0.0000000000000000e+00 -5.0782426250312658e-04 0.0000000000000000e+00  0.0000000000000000e+00 -5.0893888678272170e-04 0.0000000000000000e+00  0.0000000000000000e+00 -5.0999289847717029e-04 0.0000000000000000e+00  0.0000000000000000e+00 -5.1098713389579492e-04 0.0000000000000000e+00  0.0000000000000000e+00 -5.1192234527684839e-04 0.0000000000000000e+00  0.0000000000000000e+00 -5.1279914508469793e-04 0.0000000000000000e+00  0.0000000000000000e+00 -5.1361801895451762e-04 0.0000000000000000e+00  0.0000000000000000e+00 -5.1437916526180525e-04 0.0000000000000000e+00  0.0000000000000000e+00 -5.1508273359444651e-04 0.0000000000000000e+00  0.0000000000000000e+00 -5.1572852810467188e-04 0.0000000000000000e+00  0.0000000000000000e+00 -5.1631618545503431e-04 0.0000000000000000e+00  0.0000000000000000e+00 -5.1684527812685059e-04 0.0000000000000000e+00  0.0000000000000000e+00 -5.1731498467116280e-04 0.0000000000000000e+00  0.0000000000000000e+00 -5.1772460655096723e-04 0.0000000000000000e+00  0.0000000000000000e+00 -5.1807322990895187e-04 0.0000000000000000e+00  0.0000000000000000e+00 -5.1835999660945309e-04 0.0000000000000000e+00  0.0000000000000000e+00 -5.1858402603596667e-04 0.0000000000000000e+00  0.0000000000000000e+00 -5.1874464494589879e-04 0.0000000000000000e+00  0.0000000000000000e+00 -5.1884124878252120e-04 0.0000000000000000e+00  0.0000000000000000e+00 -5.1883742995483179e-04 0.0000000000000000e+00  0.0000000000000000e+00 -5.1872932658452364e-04 0.0000000000000000e+00  0.0000000000000000e+00 -5.1854945801715977e-04 0.0000000000000000e+00  0.0000000000000000e+00 -5.1829828950795943e-04 0.0000000000000000e+00  0.0000000000000000e+00 -5.1797649019344688e-04 0.0000000000000000e+00  0.0000000000000000e+00 -5.1758496071968650e-04 0.0000000000000000e+00  0.0000000000000000e+00 -5.1712481711631145e-04 0.0000000000000000e+00  0.0000000000000000e+00 -5.1659747847259546e-04 0.0000000000000000e+00  0.0000000000000000e+00 -5.1600472206532347e-04 0.0000000000000000e+00  0.0000000000000000e+00 -5.1534867938303269e-04 0.0000000000000000e+00  0.0000000000000000e+00 -5.1463196513984661e-04 0.0000000000000000e+00  0.0000000000000000e+00 -5.1385778231596597e-04 0.0000000000000000e+00  0.0000000000000000e+00 -5.1303003402167224e-04 0.0000000000000000e+00  0.0000000000000000e+00 -5.1215359498513321e-04 0.0000000000000000e+00  0.0000000000000000e+00 -5.1123453985366238e-04 0.0000000000000000e+00  0.0000000000000000e+00 -5.1028063559131775e-04 0.0000000000000000e+00  0.0000000000000000e+00 -5.0930188650357788e-04 0.0000000000000000e+00  0.0000000000000000e+00 -5.0831164801129827e-04 0.0000000000000000e+00  0.0000000000000000e+00 -5.0732869328361024e-04 0.0000000000000000e+00  0.0000000000000000e+00 -5.0637996028994278e-04 0.0000000000000000e+00  0.0000000000000000e+00 -5.0550793505785166e-04 0.0000000000000000e+00  0.0000000000000000e+00 -5.0478833572502020e-04 0.0000000000000000e+00  0.0000000000000000e+00 -5.0440320518689899e-04 0.0000000000000000e+00  0.0000000000000000e+00 -5.0772253477059841e-04 0.0000000000000000e+00  0.0000000000000000e+00 -5.0970081183061497e-04 0.0000000000000000e+00  0.0000000000000000e+00 -5.1165913778237018e-04 0.0000000000000000e+00  0.0000000000000000e+00 -5.1366693351521389e-04 0.0000000000000000e+00  0.0000000000000000e+00 -5.1575374867928023e-04 0.0000000000000000e+00  0.0000000000000000e+00 -5.1793748215634848e-04 0.0000000000000000e+00  0.0000000000000000e+00 -5.2023297566581802e-04 0.0000000000000000e+00  0.0000000000000000e+00 -5.2265303040111813e-04 0.0000000000000000e+00  0.0000000000000000e+00 -5.2521152922630366e-04 0.0000000000000000e+00  0.0000000000000000e+00 -5.2792258623661232e-04 0.0000000000000000e+00  0.0000000000000000e+00 -5.3080429058921194e-04 0.0000000000000000e+00  0.0000000000000000e+00 -5.3387290569949361e-04 0.0000000000000000e+00  0.0000000000000000e+00 -5.3715365539034623e-04 0.0000000000000000e+00  0.0000000000000000e+00 -5.4067220900305192e-04 0.0000000000000000e+00  0.0000000000000000e+00 -5.4446369864878880e-04 0.0000000000000000e+00  0.0000000000000000e+00 -5.4856979268943856e-04 0.0000000000000000e+00  0.0000000000000000e+00 -5.5304625627487617e-04 0.0000000000000000e+00  0.0000000000000000e+00 -5.5797189582290608e-04 0.0000000000000000e+00  0.0000000000000000e+00 -5.6345223862242595e-04 0.0000000000000000e+00  0.0000000000000000e+00 -5.6964831918756903e-04 0.0000000000000000e+00  0.0000000000000000e+00 -5.7683447483809411e-04 0.0000000000000000e+00  0.0000000000000000e+00 -5.8549397772947244e-04 0.0000000000000000e+00  0.0000000000000000e+00 -5.9710585784104138e-04 0.0000000000000000e+00  -4.1970296753325580e-05 -7.0156269806496063e-04 0.0000000000000000e+00  -4.9830299016944806e-05 -7.5154737875975423e-04 0.0000000000000000e+00  -5.3659261878447884e-05 -7.9053432164133191e-04 0.0000000000000000e+00  -5.5364044724750684e-05 -8.2358314161485582e-04 0.0000000000000000e+00  -5.5705639167421203e-05 -8.5241846967276072e-04 0.0000000000000000e+00  -5.5181767284618931e-05 -8.7800230778849165e-04 0.0000000000000000e+00  -5.4029027064120165e-05 -9.0092896981389353e-04 0.0000000000000000e+00  -5.2393324530736965e-05 -9.2159799365954258e-04 0.0000000000000000e+00  -5.0382650627345253e-05 -9.4029624198732089e-04 0.0000000000000000e+00  -4.8070206314469543e-05 -9.5723915735156703e-04 0.0000000000000000e+00  -4.5512714398808747e-05 -9.7259271554294856e-04 0.0000000000000000e+00  -4.2752577873031572e-05 -9.8648727526224169e-04 0.0000000000000000e+00  -3.9823214003347772e-05 -9.9902772543659164e-04 0.0000000000000000e+00  -3.6750778225344639e-05 -1.0102984212793829e-03 0.0000000000000000e+00  -3.3558094861890146e-05 -1.0203695337521366e-03 0.0000000000000000e+00  -3.0265111530185192e-05 -1.0292987094359643e-03 0.0000000000000000e+00  -2.6885224469776043e-05 -1.0371324274339321e-03 0.0000000000000000e+00  -2.3433463067765547e-05 -1.0439107102527992e-03 0.0000000000000000e+00  -1.9922753818117333e-05 -1.0496663662567093e-03 0.0000000000000000e+00  -1.6363216019776972e-05 -1.0544252963650925e-03 0.0000000000000000e+00  -1.2765683861736149e-05 -1.0582084133405555e-03 0.0000000000000000e+00  -9.1380170480042263e-06 -1.0610318906911092e-03 0.0000000000000000e+00  -5.4901769746609365e-06 -1.0629079440626008e-03 0.0000000000000000e+00  -1.8307438804755845e-06 -1.0638440125431481e-03 0.0000000000000000e+00  1.8337123486669809e-06 -1.0638440259594624e-03 0.0000000000000000e+00  5.4937894269785808e-06 -1.0629080255992586e-03 0.0000000000000000e+00  9.1409935577655090e-06 -1.0610320061489654e-03 0.0000000000000000e+00  1.2768682934685588e-05 -1.0582084309490563e-03 0.0000000000000000e+00  1.6366472304156592e-05 -1.0544253886728243e-03 0.0000000000000000e+00  1.9926148678432083e-05 -1.0496667849804763e-03 0.0000000000000000e+00  2.3436368643049576e-05 -1.0439111289940117e-03 0.0000000000000000e+00  2.6889084267678918e-05 -1.0371328247256396e-03 0.0000000000000000e+00  3.0267461579274484e-05 -1.0292986536084463e-03 0.0000000000000000e+00  3.3561646722868847e-05 -1.0203696832915177e-03 0.0000000000000000e+00  3.6754045695641187e-05 -1.0102981832696824e-03 0.0000000000000000e+00  3.9826114203549877e-05 -9.9902747249809641e-04 0.0000000000000000e+00  4.2756455308649082e-05 -9.8648808758025836e-04 0.0000000000000000e+00  4.5518522570479456e-05 -9.7259454572970515e-04 0.0000000000000000e+00  4.8072813414184949e-05 -9.5723928147023051e-04 0.0000000000000000e+00  5.0384672478643379e-05 -9.4029576645375328e-04 0.0000000000000000e+00  5.2398025860842387e-05 -9.2159845908494631e-04 0.0000000000000000e+00  5.4033524088401213e-05 -9.0092991762398577e-04 0.0000000000000000e+00  5.5189487600592135e-05 -8.7800277976405596e-04 0.0000000000000000e+00  5.5704272382136778e-05 -8.5241097813975046e-04 0.0000000000000000e+00  5.5349555630657872e-05 -8.2357139106643059e-04 0.0000000000000000e+00  5.3678778390146586e-05 -7.9052747631812965e-04 0.0000000000000000e+00  4.9875372735640610e-05 -7.5149803706353970e-04 0.0000000000000000e+00  4.1844210384392709e-05 -7