<?xml version="1.0"?>
<VTKFile type="UnstructuredGrid"  version="0.1"  >
<UnstructuredGrid>
<Piece  NumberOfPoints="1250" NumberOfCells="2352">
<Points>
<DataArray  type="Float64"  NumberOfComponents="3"  format="ascii">0 0 0  0.0336 0 0  0.0336 0.07729999999999999 0  0 0.07729999999999999 0  0.001400000000000002 0 0  0.002800000000000005 0 0  0.004200000000000008 0 0  0.005600000000000009 0 0  0.007000000000000011 0 0  0.008400000000000013 0 0  0.009800000000000019 0 0  0.01120000000000002 0 0  0.01260000000000003 0 0  0.01400000000000003 0 0  0.01540000000000004 0 0  0.01680000000000005 0 0  0.01820000000000004 0 0  0.01960000000000004 0 0  0.02100000000000004 0 0  0.02240000000000003 0 0  0.02380000000000003 0 0  0.02520000000000002 0 0  0.02660000000000002 0 0  0.02800000000000001 0 0  0.02940000000000001 0 0  0.03080000000000001 0 0  0.0322 0 0  0.0336 0.001577551020408161 0  0.0336 0.003155102040816321 0  0.0336 0.004732653061224482 0  0.0336 0.006310204081632642 0  0.0336 0.007887755102040803 0  0.0336 0.009465306122448964 0  0.0336 0.01104285714285712 0  0.0336 0.01262040816326528 0  0.0336 0.01419795918367344 0  0.0336 0.0157755102040816 0  0.0336 0.01735306122448976 0  0.0336 0.01893061224489792 0  0.0336 0.02050816326530608 0  0.0336 0.02208571428571425 0  0.0336 0.02366326530612241 0  0.0336 0.02524081632653058 0  0.0336 0.02681836734693874 0  0.0336 0.02839591836734691 0  0.0336 0.02997346938775507 0  0.0336 0.03155102040816323 0  0.0336 0.0331285714285714 0  0.0336 0.03470612244897956 0  0.0336 0.03628367346938772 0  0.0336 0.03786122448979588 0  0.0336 0.03943877551020405 0  0.0336 0.04101632653061221 0  0.0336 0.04259387755102037 0  0.0336 0.04417142857142854 0  0.0336 0.04574897959183671 0  0.0336 0.04732653061224486 0  0.0336 0.04890408163265302 0  0.0336 0.05048163265306119 0  0.0336 0.05205918367346936 0  0.0336 0.05363673469387752 0  0.0336 0.05521428571428568 0  0.0336 0.05679183673469385 0  0.0336 0.05836938775510202 0  0.0336 0.05994693877551018 0  0.0336 0.06152448979591834 0  0.0336 0.0631020408163265 0  0.0336 0.06467959183673468 0  0.0336 0.06625714285714283 0  0.0336 0.06783469387755101 0  0.0336 0.06941224489795916 0  0.0336 0.07098979591836733 0  0.0336 0.07256734693877549 0  0.0336 0.07414489795918365 0  0.0336 0.07572244897959182 0  0.03219999999999999 0.07729999999999999 0  0.03079999999999999 0.07729999999999999 0  0.02939999999999999 0.07729999999999999 0  0.02799999999999999 0.07729999999999999 0  0.02659999999999999 0.07729999999999999 0  0.02519999999999999 0.07729999999999999 0  0.02379999999999998 0.07729999999999999 0  0.02239999999999998 0.07729999999999999 0  0.02099999999999997 0.07729999999999999 0  0.01959999999999996 0.07729999999999999 0  0.01819999999999996 0.07729999999999999 0  0.01679999999999995 0.07729999999999999 0  0.01539999999999996 0.07729999999999999 0  0.01399999999999996 0.07729999999999999 0  0.01259999999999996 0.07729999999999999 0  0.01119999999999997 0.07729999999999999 0  0.009799999999999972 0.07729999999999999 0  0.008399999999999977 0.07729999999999999 0  0.006999999999999978 0.07729999999999999 0  0.005599999999999983 0.07729999999999999 0  0.004199999999999988 0.07729999999999999 0  0.00279999999999999 0.07729999999999999 0  0.001399999999999998 0.07729999999999999 0  0 0.07572244897959184 0  0 0.07414489795918368 0  0 0.07256734693877551 0  0 0.07098979591836735 0  0 0.06941224489795919 0  0 0.06783469387755103 0  0 0.06625714285714288 0  0 0.06467959183673472 0  0 0.06310204081632656 0  0 0.0615244897959184 0  0 0.05994693877551023 0  0 0.05836938775510207 0  0 0.05679183673469392 0  0 0.05521428571428574 0  0 0.05363673469387759 0  0 0.05205918367346941 0  0 0.05048163265306126 0  0 0.04890408163265308 0  0 0.04732653061224493 0  0 0.04574897959183676 0  0 0.0441714285714286 0  0 0.04259387755102043 0  0 0.04101632653061228 0  0 0.03943877551020411 0  0 0.03786122448979595 0  0 0.03628367346938779 0  0 0.03470612244897962 0  0 0.03312857142857146 0  0 0.03155102040816329 0  0 0.02997346938775513 0  0 0.02839591836734697 0  0 0.0268183673469388 0  0 0.02524081632653064 0  0 0.02366326530612247 0  0 0.02208571428571431 0  0 0.02050816326530614 0  0 0.01893061224489798 0  0 0.01735306122448981 0  0 0.01577551020408165 0  0 0.01419795918367349 0  0 0.01262040816326532 0  0 0.01104285714285716 0  0 0.009465306122448988 0  0 0.00788775510204083 0  0 0.006310204081632659 0  0 0.004732653061224501 0  0 0.003155102040816343 0  0 0.001577551020408172 0  0.001400000000000004 0.001577551020408172 0  0.001400000000000004 0.003155102040816329 0  0.001400000000000002 0.004732653061224501 0  0.001400000000000002 0.006310204081632645 0  0.001400000000000005 0.007887755102040823 0  0.001400000000000002 0.009465306122448981 0  0.001400000000000002 0.01104285714285717 0  0.001400000000000004 0.01262040816326531 0  0.0014 0.01419795918367349 0  0.001400000000000002 0.01577551020408166 0  0.001400000000000005 0.0173530612244898 0  0.001400000000000002 0.01893061224489797 0  0.001400000000000002 0.02050816326530613 0  0.001400000000000002 0.02208571428571431 0  0.001400000000000002 0.02366326530612247 0  0.001400000000000002 0.02524081632653063 0  0.001400000000000002 0.0268183673469388 0  0.001400000000000002 0.02839591836734696 0  0.001400000000000002 0.02997346938775513 0  0.001400000000000002 0.03155102040816328 0  0.001400000000000002 0.03312857142857147 0  0.001399999999999997 0.03470612244897962 0  0.001400000000000005 0.03628367346938778 0  0.001400000000000002 0.03786122448979594 0  0.001400000000000002 0.03943877551020411 0  0.001400000000000002 0.04101632653061228 0  0.001400000000000002 0.04259387755102043 0  0.001400000000000002 0.0441714285714286 0  0.0014 0.04574897959183676 0  0.001400000000000002 0.04732653061224492 0  0.001400000000000004 0.04890408163265308 0  0.001400000000000002 0.05048163265306126 0  0.001400000000000002 0.05205918367346941 0  0.0014 0.05363673469387758 0  0.001400000000000004 0.05521428571428574 0  0.001399999999999998 0.05679183673469391 0  0.001400000000000002 0.05836938775510207 0  0.0014 0.05994693877551023 0  0.001400000000000002 0.0615244897959184 0  0.001400000000000002 0.06310204081632656 0  0.001400000000000002 0.06467959183673472 0  0.0014 0.06625714285714286 0  0.001400000000000002 0.06783469387755102 0  0.001399999999999998 0.06941224489795919 0  0.001400000000000002 0.07098979591836735 0  0.0014 0.07256734693877552 0  0.001400000000000002 0.07414489795918368 0  0.001400000000000002 0.07572244897959184 0  0.002800000000000006 0.001577551020408165 0  0.002800000000000004 0.003155102040816343 0  0.002800000000000002 0.004732653061224487 0  0.002800000000000002 0.006310204081632652 0  0.002800000000000002 0.007887755102040813 0  0.0028 0.009465306122448981 0  0.002799999999999997 0.01104285714285715 0  0.0028 0.01262040816326532 0  0.0028 0.01419795918367348 0  0.0028 0.01577551020408165 0  0.002799999999999997 0.0173530612244898 0  0.0028 0.01893061224489797 0  0.002800000000000004 0.02050816326530613 0  0.0028 0.0220857142857143 0  0.0028 0.02366326530612247 0  0.002800000000000004 0.02524081632653064 0  0.0028 0.0268183673469388 0  0.0028 0.02839591836734696 0  0.002799999999999995 0.02997346938775512 0  0.002799999999999997 0.03155102040816328 0  0.002799999999999995 0.03312857142857146 0  0.0028 0.03470612244897962 0  0.002799999999999995 0.03628367346938778 0  0.002799999999999997 0.03786122448979594 0  0.002799999999999997 0.03943877551020411 0  0.002799999999999997 0.04101632653061228 0  0.002799999999999997 0.04259387755102043 0  0.002799999999999995 0.0441714285714286 0  0.002799999999999997 0.04574897959183676 0  0.002799999999999997 0.04732653061224493 0  0.002799999999999995 0.04890408163265308 0  0.002799999999999993 0.05048163265306124 0  0.002799999999999995 0.05205918367346941 0  0.002799999999999995 0.05363673469387757 0  0.002799999999999992 0.05521428571428574 0  0.002799999999999997 0.05679183673469391 0  0.002799999999999993 0.05836938775510207 0  0.002799999999999993 0.05994693877551022 0  0.002799999999999992 0.0615244897959184 0  0.002799999999999988 0.06310204081632655 0  0.002799999999999992 0.0646795918367347 0  0.002799999999999992 0.06625714285714286 0  0.00279999999999999 0.06783469387755103 0  0.00279999999999999 0.06941224489795919 0  0.002799999999999988 0.07098979591836735 0  0.00279999999999999 0.07256734693877552 0  0.002799999999999988 0.07414489795918368 0  0.00279999999999999 0.07572244897959184 0  0.004200000000000006 0.001577551020408172 0  0.004200000000000006 0.003155102040816329 0  0.004200000000000008 0.00473265306122448 0  0.004200000000000009 0.006310204081632652 0  0.004200000000000008 0.00788775510204082 0  0.004200000000000008 0.009465306122448978 0  0.004200000000000006 0.01104285714285716 0  0.004200000000000006 0.01262040816326532 0  0.004200000000000004 0.01419795918367349 0  0.004200000000000002 0.01577551020408165 0  0.004200000000000004 0.0173530612244898 0  0.004200000000000006 0.01893061224489797 0  0.004200000000000006 0.02050816326530613 0  0.004200000000000002 0.0220857142857143 0  0.004200000000000004 0.02366326530612247 0  0.004199999999999999 0.02524081632653062 0  0.004200000000000004 0.0268183673469388 0  0.004200000000000004 0.02839591836734696 0  0.004200000000000002 0.02997346938775512 0  0.004199999999999999 0.03155102040816328 0  0.004200000000000001 0.03312857142857145 0  0.004200000000000001 0.03470612244897962 0  0.004199999999999995 0.03628367346938778 0  0.004199999999999999 0.03786122448979594 0  0.004199999999999999 0.0394387755102041 0  0.004199999999999997 0.04101632653061227 0  0.004199999999999999 0.04259387755102043 0  0.004199999999999999 0.04417142857142859 0  0.004199999999999999 0.04574897959183676 0  0.004199999999999999 0.04732653061224492 0  0.004199999999999997 0.04890408163265308 0  0.004199999999999997 0.05048163265306124 0  0.004199999999999999 0.05205918367346941 0  0.004199999999999992 0.05363673469387757 0  0.0
[...]
<PointData  Vectors="displacement"> 
<DataArray  type="Float64"  Name="displacement"  NumberOfComponents="3" format="ascii">0.0000000000000000e+00 0.0000000000000000e+00 0.0000000000000000e+00  0.0000000000000000e+00 0.0000000000000000e+00 0.0000000000000000e+00  2.5826573512230315e-03 -2.1604049310325533e-02 0.0000000000000000e+00  -2.5559790109508556e-03 -2.1598878729220960e-02 0.0000000000000000e+00  0.0000000000000000e+00 0.0000000000000000e+00 0.0000000000000000e+00  0.0000000000000000e+00 0.0000000000000000e+00 0.0000000000000000e+00  0.0000000000000000e+00 0.0000000000000000e+00 0.0000000000000000e+00  0.0000000000000000e+00 0.0000000000000000e+00 0.0000000000000000e+00  0.0000000000000000e+00 0.0000000000000000e+00 0.0000000000000000e+00  0.0000000000000000e+00 0.0000000000000000e+00 0.0000000000000000e+00  0.0000000000000000e+00 0.0000000000000000e+00 0.0000000000000000e+00  0.0000000000000000e+00 0.0000000000000000e+00 0.0000000000000000e+00  0.0000000000000000e+00 0.0000000000000000e+00 0.0000000000000000e+00  0.0000000000000000e+00 0.0000000000000000e+00 0.0000000000000000e+00  0.0000000000000000e+00 0.0000000000000000e+00 0.0000000000000000e+00  0.0000000000000000e+00 0.0000000000000000e+00 0.0000000000000000e+00  0.0000000000000000e+00 0.0000000000000000e+00 0.0000000000000000e+00  0.0000000000000000e+00 0.0000000000000000e+00 0.0000000000000000e+00  0.0000000000000000e+00 0.0000000000000000e+00 0.0000000000000000e+00  0.0000000000000000e+00 0.0000000000000000e+00 0.0000000000000000e+00  0.0000000000000000e+00 0.0000000000000000e+00 0.0000000000000000e+00  0.0000000000000000e+00 0.0000000000000000e+00 0.0000000000000000e+00  0.0000000000000000e+00 0.0000000000000000e+00 0.0000000000000000e+00  0.0000000000000000e+00 0.0000000000000000e+00 0.0000000000000000e+00  0.0000000000000000e+00 0.0000000000000000e+00 0.0000000000000000e+00  0.0000000000000000e+00 0.0000000000000000e+00 0.0000000000000000e+00  0.0000000000000000e+00 0.0000000000000000e+00 0.0000000000000000e+00  8.3888504726711117e-04 -7.6741500771084425e-04 0.0000000000000000e+00  1.3016972143342334e-03 -1.2323828620508699e-03 0.0000000000000000e+00  1.6275515852555928e-03 -1.6411390561649267e-03 0.0000000000000000e+00  1.8719603123243649e-03 -2.0299886037259819e-03 0.0000000000000000e+00  2.0589188854501909e-03 -2.4115646023184691e-03 0.0000000000000000e+00  2.2025336704151080e-03 -2.7924517490894901e-03 0.0000000000000000e+00  2.3126046970332855e-03 -3.1762494883674397e-03 0.0000000000000000e+00  2.3964151791613089e-03 -3.5648812629003029e-03 0.0000000000000000e+00  2.4595794612251639e-03 -3.9592848416528052e-03 0.0000000000000000e+00  2.5065220675382560e-03 -4.3597923793235798e-03 0.0000000000000000e+00  2.5407732472575444e-03 -4.7663556571565097e-03 0.0000000000000000e+00  2.5651655683520350e-03 -5.1786891852726178e-03 0.0000000000000000e+00  2.5819737441729503e-03 -5.5963656711362419e-03 0.0000000000000000e+00  2.5930197553780351e-03 -6.0188815381912028e-03 0.0000000000000000e+00  2.5997553333678746e-03 -6.4457023445495696e-03 0.0000000000000000e+00  2.6033286788788275e-03 -6.8762940453750924e-03 0.0000000000000000e+00  2.6046394959529217e-03 -7.3101439686327884e-03 0.0000000000000000e+00  2.6043848846056075e-03 -7.7467741979793930e-03 0.0000000000000000e+00  2.6030977780550153e-03 -8.1857493381976548e-03 0.0000000000000000e+00  2.6011791259927027e-03 -8.6266801628133542e-03 0.0000000000000000e+00  2.5989247459769060e-03 -9.0692243034649640e-03 0.0000000000000000e+00  2.5965475968927096e-03 -9.5130848823466677e-03 0.0000000000000000e+00  2.5941961192972140e-03 -9.9580077850195507e-03 0.0000000000000000e+00  2.5919692086982709e-03 -1.0403778106424441e-02 0.0000000000000000e+00  2.5899283242396647e-03 -1.0850216169639760e-02 0.0000000000000000e+00  2.5881071793435297e-03 -1.1297173409382017e-02 0.0000000000000000e+00  2.5865194092383179e-03 -1.1744528326408564e-02 0.0000000000000000e+00  2.5851645617996199e-03 -1.2192182651506780e-02 0.0000000000000000e+00  2.5840327126052383e-03 -1.2640057805696412e-02 0.0000000000000000e+00  2.5831079628026322e-03 -1.3088091703996286e-02 0.0000000000000000e+00  2.5823710396230214e-03 -1.3536235921265334e-02 0.0000000000000000e+00  2.5818011843849195e-03 -1.3984453218158653e-02 0.0000000000000000e+00  2.5813774817101953e-03 -1.4432715411370877e-02 0.0000000000000000e+00  2.5810797563885898e-03 -1.4881001563571108e-02 0.0000000000000000e+00  2.5808891407225034e-03 -1.5329296463532711e-02 0.0000000000000000e+00  2.5807883950296432e-03 -1.5777589364924051e-02 0.0000000000000000e+00  2.5807620469963373e-03 -1.6225872952261858e-02 0.0000000000000000e+00  2.5807964014631420e-03 -1.6674142504032520e-02 0.0000000000000000e+00  2.5808794607049866e-03 -1.7122395225509578e-02 0.0000000000000000e+00  2.5810007861127113e-03 -1.7570629727036633e-02 0.0000000000000000e+00  2.5811513252658983e-03 -1.8018845627326589e-02 0.0000000000000000e+00  2.5813232237796480e-03 -1.8467043265597949e-02 0.0000000000000000e+00  2.5815096394563911e-03 -1.8915223511186241e-02 0.0000000000000000e+00  2.5817045784065668e-03 -1.9363387664786198e-02 0.0000000000000000e+00  2.5819027818891546e-03 -1.9811537451856966e-02 0.0000000000000000e+00  2.5820997162349581e-03 -2.0259675115896460e-02 0.0000000000000000e+00  2.5822917805251103e-03 -2.0707803622706546e-02 0.0000000000000000e+00  2.5824770491226449e-03 -2.1155926918357541e-02 0.0000000000000000e+00  2.3685173713211922e-03 -2.1603890214987077e-02 0.0000000000000000e+00  2.1543777763364052e-03 -2.1603734594366118e-02 0.0000000000000000e+00  1.9402414906012637e-03 -2.1603584202918798e-02 0.0000000000000000e+00  1.7261112557568725e-03 -2.1603437872082167e-02 0.0000000000000000e+00  1.5119888326097185e-03 -2.1603293092009718e-02 0.0000000000000000e+00  1.2978750455168752e-03 -2.1603146839161560e-02 0.0000000000000000e+00  1.0837699355753959e-03 -2.1602996024367497e-02 0.0000000000000000e+00  8.6967291364860159e-04 -2.1602837761675833e-02 0.0000000000000000e+00  6.5558289860992989e-04 -2.1602669537147415e-02 0.0000000000000000e+00  4.4149843955502570e-04 -2.1602489315439337e-02 0.0000000000000000e+00  2.2741782312174391e-04 -2.1602295605706409e-02 0.0000000000000000e+00  1.3339168397613246e-05 -2.1602087500326529e-02 0.0000000000000000e+00  -2.0073948705796158e-04 -2.1601864694980336e-02 0.0000000000000000e+00  -4.1482010581756780e-04 -2.1601627494876971e-02 0.0000000000000000e+00  -6.2890456917930786e-04 -2.1601376808680201e-02 0.0000000000000000e+00  -8.4299459111513938e-04 -2.1601114128585213e-02 0.0000000000000000e+00  -1.0570916233171501e-03 -2.1600841491757623e-02 0.0000000000000000e+00  -1.2711967478206765e-03 -2.1600561414601857e-02 0.0000000000000000e+00  -1.4853105547408189e-03 -2.1600276786301990e-02 0.0000000000000000e+00  -1.6994330040247126e-03 -2.1599990699823726e-02 0.0000000000000000e+00  -1.9135632724746230e-03 -2.1599706181327800e-02 0.0000000000000000e+00  -2.1276995989571276e-03 -2.1599425735131447e-02 0.0000000000000000e+00  -2.3418392239437148e-03 -2.1599150513134258e-02 0.0000000000000000e+00  -2.5562842805379720e-03 -2.1150756187158233e-02 0.0000000000000000e+00  -2.5565845835434785e-03 -2.0702632920239602e-02 0.0000000000000000e+00  -2.5568781177291449e-03 -2.0254504433704253e-02 0.0000000000000000e+00  -2.5571667710747774e-03 -1.9806366783403931e-02 0.0000000000000000e+00  -2.5574541421114487e-03 -1.9358217005623454e-02 0.0000000000000000e+00  -2.5577447704148494e-03 -1.8910052858826975e-02 0.0000000000000000e+00  -2.5580439194095397e-03 -1.8461872619280371e-02 0.0000000000000000e+00  -2.5583575856889186e-03 -1.8013674987827053e-02 0.0000000000000000e+00  -2.5586926125895706e-03 -1.7565459096604570e-02 0.0000000000000000e+00  -2.5590568544077139e-03 -1.7117224607925460e-02 0.0000000000000000e+00  -2.5594593624000610e-03 -1.6668971904772859e-02 0.0000000000000000e+00  -2.5599105729406601e-03 -1.6220702378761519e-02 0.0000000000000000e+00  -2.5604224803391644e-03 -1.5772418826933868e-02 0.0000000000000000e+00  -2.5610087749607506e-03 -1.5324125973579151e-02 0.0000000000000000e+00  -2.5616849226691822e-03 -1.4875831137531846e-02 0.0000000000000000e+00  -2.5624681546900663e-03 -1.4427545069189611e-02 0.0000000000000000e+00  -2.5633773278300872e-03 -1.3979282984734108e-02 0.0000000000000000e+00  -2.5644326034637015e-03 -1.3531065827565643e-02 0.0000000000000000e+00  -2.5656548795818289e-03 -1.3082921788471570e-02 0.0000000000000000e+00  -2.5670648932039413e-03 -1.2634888116092580e-02 0.0000000000000000e+00  -2.5686818902879325e-03 -1.2187013247224902e-02 0.0000000000000000e+00  -2.5705217366471999e-03 -1.1739359281607241e-02 0.0000000000000000e+00  -2.5725943160659478e-03 -1.1292004817090587e-02 0.0000000000000000e+00  -2.5749000306338489e-03 -1.0845048147235624e-02 0.0000000000000000e+00  -2.5774251832560600e-03 -1.0398610802930532e-02 0.0000000000000000e+00  -2.5801359834204947e-03 -9.9528413907904612e-03 0.0000000000000000e+00  -2.5829708748414696e-03 -9.5079196418237574e-03 0.0000000000000000e+00  -2.5858308378450129e-03 -9.0640605317671465e-03 0.0000000000000000e+00  -2.5885672705406766e-03 -8.6215182669495596e-03 0.0000000000000000e+00  -2.5909670007596389e-03 -8.1805898435712756e-03 0.0000000000000000e+00  -2.5927339242101484e-03 -7.7416177804957376e-03 0.0000000000000000e+00  -2.5934666999015000e-03 -7.3049914919549224e-03 0.0000000000000000e+00  -2.5926318539954908e-03 -6.8711466014587854e-03 0.0000000000000000e+00  -2.5895315325777995e-03 -6.4405612931680315e-03 0.0000000000000000e+00  -2.5832649735529059e-03 -6.0137485372147989e-03 0.0000000000000000e+00  -2.5726824853811790e-03 -5.5912426830888136e-03 0.0000000000000000e+00  -2.5563302314517539e-03 -5.1735784359787755e-03 0.0000000000000000e+00  -2.5323832546652806e-03 -4.7612595073243096e-03 0.0000000000000000e+00  -2.4985626301581888e-03 -4.3547130469161347e-03 0.0000000000000000e+00  -2.4520298288529291e-03 -3.9542238779668865e-03 0.0000000000000000e+00  -2.3892461781456621e-03 -3.5598386339369473e-03 0.0000000000000000e+00  -2.3057753630858751e-03 -3.1712220418071259e-03 0.0000000000000000e+00  -2.1959871217265368e-03 -2.7874307756607032e-03 0.0000000000000000e+00  -2.0525796801233454e-03 -2.4065327847462297e-03 0.0000000000000000e+00  -1.8657482314119393e-03 -2.0249257527700589e-03 0.0000000000000000e+00  -1.6214988574326187e-03 -1.6361004751209995e-03 0.0000000000000000e+00  -1.2964557863580505e-03 -1.2275541090294229e-03 0.0000000000000000e+00  -8.3530208827009935e-04 -7.5674321485749057e-04 0.0000000000000000e+00  -5.8771555331421654e-04 -4.5108193812289272e-04 0.0000000000000000e+00  -1.0741255528240261e-03 -9.5139792550071425e-04 0.0000000000000000e+00  -1.4194029029601369e-03 -1.4138776702460926e-03 0.0000000000000000e+00  -1.6726836155897763e-03 -1.8474380254664359e-03 0.0000000000000000e+00  -1.8630774904175352e-03 -2.2653126267604133e-03 0.0000000000000000e+00  -2.0072706993782808e-03 -2.6756578870978662e-03 0.0000000000000000e+00  -2.1163008193449931e-03 -3.0833441455101959e-03 0.0000000000000000e+00  -2.1981459325990322e-03 -3.4913177716190125e-03 0.0000000000000000e+00  -2.2588475115893044e-03 -3.9013361389009320e-03 0.0000000000000000e+00  -2.3031030408824614e-03 -4.3143928382520036e-03 0.0000000000000000e+00  -2.3346194354419646e-03 -4.7309805243109472e-03 0.0000000000000000e+00  -2.3563425969135797e-03 -5.1512613304154778e-03 0.0000000000000000e+00  -2.3706174534830764e-03 -5.5751814967649940e-03 0.0000000000000000e+00  -2.3793062620957425e-03 -6.0025505079295037e-03 0.0000000000000000e+00  -2.3838801257670475e-03 -6.4330965389187925e-03 0.0000000000000000e+00  -2.3854921358268891e-03 -6.8665054382922395e-03 0.0000000000000000e+00  -2.3850370820777595e-03 -7.3024479223871633e-03 0.0000000000000000e+00  -2.3832007882972610e-03 -7.7405981619965251e-03 0.0000000000000000e+00  -2.3805010858428443e-03 -8.1806460248730756e-03 0.0000000000000000e+00  -2.3773218489257807e-03 -8.6223046405943474e-03 0.0000000000000000e+00  -2.3739411738280640e-03 -9.0653145438287057e-03 0.0000000000000000e+00  -2.3705545770866033e-03 -9.5094453550293445e-03 0.0000000000000000e+00  -2.3672939518624854e-03 -9.9544957338488522e-03 0.0000000000000000e+00  -2.3642429233716729e-03 -1.0400292167288744e-02 0.0000000000000000e+00  -2.3614491654756981e-03 -1.0846687018246384e-02 0.0000000000000000e+00  -2.3589341723611731e-03 -1.1293556152155451e-02 0.0000000000000000e+00  -2.3567009175626359e-03 -1.1740796374022668e-02 0.0000000000000000e+00  -2.3547397757933811e-03 -1.2188322841061800e-02 0.0000000000000000e+00  -2.3530330307106641e-03 -1.2636066563958773e-02 0.0000000000000000e+00  -2.3515582438890107e-03 -1.3083972069820409e-02 0.0000000000000000e+00  -2.3502907170440410e-03 -1.3531995269760011e-02 0.0000000000000000e+00  -2.3492052410104790e-03 -1.3980101551916438e-02 0.0000000000000000e+00  -2.3482772910838239e-03 -1.4428264104852807e-02 0.0000000000000000e+00  -2.3474837989149663e-03 -1.4876462465373209e-02 0.0000000000000000e+00  -2.3468036059310568e-03 -1.5324681277702449e-02 0.0000000000000000e+00  -2.3462176819084015e-03 -1.5772909246777565e-02 0.0000000000000000e+00  -2.3457091744733391e-03 -1.6221138266362591e-02 0.0000000000000000e+00  -2.3452633405813446e-03 -1.6669362702237036e-02 0.0000000000000000e+00  -2.3448673990771802e-03 -1.7117578811371555e-02 0.0000000000000000e+00  -2.3445103339869624e-03 -1.7565784279441336e-02 0.0000000000000000e+00  -2.3441826710706012e-03 -1.8013977860962888e-02 0.0000000000000000e+00  -2.3438762454172308e-03 -1.8462159108525476e-02 0.0000000000000000e+00  -2.3435839759652754e-03 -1.8910328179726366e-02 0.0000000000000000e+00  -2.3432996651555813e-03 -1.9358485711974412e-02 0.0000000000000000e+00  -2.3430178520974852e-03 -1.9806632755065671e-02 0.0000000000000000e+00  -2.3427337752599340e-03 -2.0254770746089709e-02 0.0000000000000000e+00  -2.3424435703938628e-03 -2.0702901494935845e-02 0.0000000000000000e+00  -2.3421449852813105e-03 -2.1151027155197337e-02 0.0000000000000000e+00  -4.5237786000403073e-04 -3.6763979304772163e-04 0.0000000000000000e+00  -8.7808314378329656e-04 -8.0397861579619529e-04 0.0000000000000000e+00  -1.2153744650234076e-03 -1.2571436451291839e-03 0.0000000000000000e+00  -1.4709222915138555e-03 -1.7034457905776212e-03 0.0000000000000000e+00  -1.6637632138965610e-03 -2.1400973747685019e-03 0.0000000000000000e+00  -1.8092245093376477e-03 -2.5696754753488215e-03 0.0000000000000000e+00  -1.9184678534862711e-03 -2.9951459188751425e-03 0.0000000000000000e+00  -1.9997717450259021e-03 -3.4188526926491386e-03 0.0000000000000000e+00  -2.0594450872429017e-03 -3.8424564247611080e-03 0.0000000000000000e+00  -2.1023911774244145e-03 -4.2670586264482845e-03 0.0000000000000000e+00  -2.1324665790647306e-03 -4.6933396133264239e-03 0.0000000000000000e+00  -2.1527220089247565e-03 -5.1216740380687874e-03 0.0000000000000000e+00  -2.1655730171316143e-03 -5.5522205296442651e-03 0.0000000000000000e+00  -2.1729269588676384e-03 -5.9849893032438255e-03 0.0000000000000000e+00  -2.1762812827066272e-03 -6.4198924519704107e-03 0.0000000000000000e+00  -2.1768018866892770e-03 -6.8567809483720647e-03 0.0000000000000000e+00  -2.1753868169594368e-03 -7.2954715182861566e-03 0.0000000000000000e+00  -2.1727186353778074e-03 -7.7357658170006845e-03 0.0000000000000000e+00  -2.1693076781085373e-03 -8.1774637730170508e-03 0.0000000000000000e+00  -2.1655277913681316e-03 -8.6203725378368734e-03 0.0000000000000000e+00  -2.1616457543444296e-03 -9.0643121558043032e-03 0.0000000000000000e+00  -2.1578453657262161e-03 -9.5091188182687223e-03 0.0000000000000000e+00  -2.1542470141339191e-03 -9.9546463714983244e-03 0.0000000000000000e+00  -2.1509234382701540e-03 -1.0400766594307331e-02 0.0000000000000000e+00  -2.1479122907926266e-03 -1.0847368639825744e-02 0.0000000000000000e+00  -2.1452260410826521e-03 -1.1294357939478170e-02 0.0000000000000000e+00  -2.1428596816570355e-03 -1.1741654791023020e-02 0.0000000000000000e+00  -2.1407966390051491e-03 -1.2189192792553590e-02 0.0000000000000000e+00  -2.1390132314403130e-03 -1.2636917237593139e-02 0.0000000000000000e+00  -2.1374819639617096e-03 -1.3084783550318294e-02 0.0000000000000000e+00  -2.1361739030903697e-03 -1.3532755812453241e-02 0.0000000000000000e+00  -2.1350603330883822e-03 -1.3980805412781560e-02 0.0000000000000000e+00  -2.1341138587141185e-03 -1.4428909835106434e-02 0.0000000000000000e+00  -2.1333090884199666e-03 -1.4877051589685428e-02 0.0000000000000000e+00  -2.1326230052948021e-03 -1.5325217285711084e-02 0.0000000000000000e+00  -2.1320351106681409e-03 -1.5773396837524534e-02 0.0000000000000000e+00  -2.1315274066856190e-03 -1.6221582794300301e-02 0.0000000000000000e+00  -2.1310842689019282e-03 -1.6669769781421019e-02 0.0000000000000000e+00  -2.1306922476249058e-03 -1.7117954041257651e-02 0.0000000000000000e+00  -2.1303398270642597e-03 -1.7566133061251148e-02 0.0000000000000000e+00  -2.1300171640984121e-03 -1.8014305277764472e-02 0.0000000000000000e+00  -2.1297158237013635e-03 -1.8462469844871095e-02 0.0000000000000000e+00  -2.1294285261971822e-03 -1.8910626457792790e-02 0.0000000000000000e+00  -2.1291489237259247e-03 -1.9358775220873800e-02 0.0000000000000000e+00  -2.1288714322366229e-03 -1.9806916550087258e-02 0.0000000000000000e+00  -2.1285911656250219e-03 -2.0255051103834926e-02 0.0000000000000000e+00  -2.1283040525972466e-03 -2.0703179763801094e-02 0.0000000000000000e+00  -2.1280072255237120e-03 -2.1151303812037246e-02 0.0000000000000000e+00  -3.6700474660666905e-04 -3.3610863122766926e-04 0.0000000000000000e+00  -7.2500788424436876e-04 -7.2981221002062907e-04 0.0000000000000000e+00  -1.0311252771742516e-03 -1.1576007546648395e-03 0.0000000000000000e+00  -1.2751708632346753e-03 -1.5972051444431868e-03 0.0000000000000000e+00  -1.4639303683957553e-03 -2.0380303518671393e-03 0.0000000000000000e+00  -1.6077425868751768e-03 -2.4768346158573298e-03 0.0000000000000000e+00  -1.7160193509611398e-03 -2.9133892216495600e-03 0.0000000000000000e+00  -1.7964640485400194e-03 -3.3484055012082234e-03 0.0000000000000000e+00  -1.8552269660352778e-03 -3.7827362279750044e-03 0.0000000000000000e+00  -1.8971983341487318e-03 -4.2171080669094196e-03 0.0000000000000000e+00  -1.9262667621417597e-03 -4.6520574010291789e-03 0.0000000000000000e+00  -1.9455224667957434e-03 -5.0879395984000167e-03 0.0000000000000000e+00  -1.9574146757521576e-03 -5.5249610367141128e-03 0.0000000000000000e+00  -1.9638750232329246e-03 -5.9632144312977108e-03 0.0000000000000000e+00  -1.9664160454234093e-03 -6.4027104763143758e-03 0.0000000000000000e+00  -1.9662110623560546e-03 -6.8434038123121252e-03 0.0000000000000000e+00  -1.9641596883498307e-03 -7.2852132997730835e-03 0.0000000000000000e+00  -1.9609418813614351e-03 -7.7280372864177542e-03 0.0000000000000000e+00  -1.9570626089568336e-03 -8.1717647408342982e-03 0.0000000000000000e+00  -1.9528886921823141e-03 -8.6162830981332816e-03 0.0000000000000000e+00  -1.9486790622633998e-03 -9.0614835591461846e-03 0.0000000000000000e+00  -1.9446094490726924e-03 -9.5072644612112320e-03 0.0000000000000000e+00  -1.9407923669291082e-03 -9.9535332200996109e-03 0.0000000000000000e+00  -1.9372931451627359e-03 -1.0400207238255453e-02 0.0000000000000000e+00  -1.9341426530448149e-03 -1.0847214086586041e-02 0.0000000000000000e+00  -1.9313472834147499e-03 -1.1294491194931814e-02 0.0000000000000000e+00  -1.9288966829304531e-03 -1.1741985228303879e-02 0.0000000000000000e+00  -1.9267696477190024e-03 -1.2189651279918612e-02 0.0000000000000000e+00  -1.9249385406987949e-03 -1.2637451975958693e-02 0.0000000000000000e+00  -1.9233725307612284e-03 -1.3085356559027617e-02 0.0000000000000000e+00  -1.9220399041979656e-03 -1.3533339995873138e-02 0.0000000000000000e+00  -1.9209096550463075e-03 -1.3981382138816199e-02 0.0000000000000000e+00  -1.9199525231103120e-03 -1.4429466958342086e-02 0.0000000000000000e+00  -1.9191416159158189e-03 -1.4877581855595146e-02 0.0000000000000000e+00  -1.9184527233226229e-03 -1.5325717057334903e-02 0.0000000000000000e+00  -1.9178644104569532e-03 -1.5773865091670173