<?xml version="1.0"?>
<VTKFile type="UnstructuredGrid"  version="0.1"  >
<UnstructuredGrid>
<Piece  NumberOfPoints="1250" NumberOfCells="2352">
<Points>
<DataArray  type="Float64"  NumberOfComponents="3"  format="ascii">0 0 0  0.0336 0 0  0.0336 0.07729999999999999 0  0 0.07729999999999999 0  0.001400000000000002 0 0  0.002800000000000005 0 0  0.004200000000000008 0 0  0.005600000000000009 0 0  0.007000000000000011 0 0  0.008400000000000013 0 0  0.009800000000000019 0 0  0.01120000000000002 0 0  0.01260000000000003 0 0  0.01400000000000003 0 0  0.01540000000000004 0 0  0.01680000000000005 0 0  0.01820000000000004 0 0  0.01960000000000004 0 0  0.02100000000000004 0 0  0.02240000000000003 0 0  0.02380000000000003 0 0  0.02520000000000002 0 0  0.02660000000000002 0 0  0.02800000000000001 0 0  0.02940000000000001 0 0  0.03080000000000001 0 0  0.0322 0 0  0.0336 0.001577551020408161 0  0.0336 0.003155102040816321 0  0.0336 0.004732653061224482 0  0.0336 0.006310204081632642 0  0.0336 0.007887755102040803 0  0.0336 0.009465306122448964 0  0.0336 0.01104285714285712 0  0.0336 0.01262040816326528 0  0.0336 0.01419795918367344 0  0.0336 0.0157755102040816 0  0.0336 0.01735306122448976 0  0.0336 0.01893061224489792 0  0.0336 0.02050816326530608 0  0.0336 0.02208571428571425 0  0.0336 0.02366326530612241 0  0.0336 0.02524081632653058 0  0.0336 0.02681836734693874 0  0.0336 0.02839591836734691 0  0.0336 0.02997346938775507 0  0.0336 0.03155102040816323 0  0.0336 0.0331285714285714 0  0.0336 0.03470612244897956 0  0.0336 0.03628367346938772 0  0.0336 0.03786122448979588 0  0.0336 0.03943877551020405 0  0.0336 0.04101632653061221 0  0.0336 0.04259387755102037 0  0.0336 0.04417142857142854 0  0.0336 0.04574897959183671 0  0.0336 0.04732653061224486 0  0.0336 0.04890408163265302 0  0.0336 0.05048163265306119 0  0.0336 0.05205918367346936 0  0.0336 0.05363673469387752 0  0.0336 0.05521428571428568 0  0.0336 0.05679183673469385 0  0.0336 0.05836938775510202 0  0.0336 0.05994693877551018 0  0.0336 0.06152448979591834 0  0.0336 0.0631020408163265 0  0.0336 0.06467959183673468 0  0.0336 0.06625714285714283 0  0.0336 0.06783469387755101 0  0.0336 0.06941224489795916 0  0.0336 0.07098979591836733 0  0.0336 0.07256734693877549 0  0.0336 0.07414489795918365 0  0.0336 0.07572244897959182 0  0.03219999999999999 0.07729999999999999 0  0.03079999999999999 0.07729999999999999 0  0.02939999999999999 0.07729999999999999 0  0.02799999999999999 0.07729999999999999 0  0.02659999999999999 0.07729999999999999 0  0.02519999999999999 0.07729999999999999 0  0.02379999999999998 0.07729999999999999 0  0.02239999999999998 0.07729999999999999 0  0.02099999999999997 0.07729999999999999 0  0.01959999999999996 0.07729999999999999 0  0.01819999999999996 0.07729999999999999 0  0.01679999999999995 0.07729999999999999 0  0.01539999999999996 0.07729999999999999 0  0.01399999999999996 0.07729999999999999 0  0.01259999999999996 0.07729999999999999 0  0.01119999999999997 0.07729999999999999 0  0.009799999999999972 0.07729999999999999 0  0.008399999999999977 0.07729999999999999 0  0.006999999999999978 0.07729999999999999 0  0.005599999999999983 0.07729999999999999 0  0.004199999999999988 0.07729999999999999 0  0.00279999999999999 0.07729999999999999 0  0.001399999999999998 0.07729999999999999 0  0 0.07572244897959184 0  0 0.07414489795918368 0  0 0.07256734693877551 0  0 0.07098979591836735 0  0 0.06941224489795919 0  0 0.06783469387755103 0  0 0.06625714285714288 0  0 0.06467959183673472 0  0 0.06310204081632656 0  0 0.0615244897959184 0  0 0.05994693877551023 0  0 0.05836938775510207 0  0 0.05679183673469392 0  0 0.05521428571428574 0  0 0.05363673469387759 0  0 0.05205918367346941 0  0 0.05048163265306126 0  0 0.04890408163265308 0  0 0.04732653061224493 0  0 0.04574897959183676 0  0 0.0441714285714286 0  0 0.04259387755102043 0  0 0.04101632653061228 0  0 0.03943877551020411 0  0 0.03786122448979595 0  0 0.03628367346938779 0  0 0.03470612244897962 0  0 0.03312857142857146 0  0 0.03155102040816329 0  0 0.02997346938775513 0  0 0.02839591836734697 0  0 0.0268183673469388 0  0 0.02524081632653064 0  0 0.02366326530612247 0  0 0.02208571428571431 0  0 0.02050816326530614 0  0 0.01893061224489798 0  0 0.01735306122448981 0  0 0.01577551020408165 0  0 0.01419795918367349 0  0 0.01262040816326532 0  0 0.01104285714285716 0  0 0.009465306122448988 0  0 0.00788775510204083 0  0 0.006310204081632659 0  0 0.004732653061224501 0  0 0.003155102040816343 0  0 0.001577551020408172 0  0.001400000000000004 0.001577551020408172 0  0.001400000000000004 0.003155102040816329 0  0.001400000000000002 0.004732653061224501 0  0.001400000000000002 0.006310204081632645 0  0.001400000000000005 0.007887755102040823 0  0.001400000000000002 0.009465306122448981 0  0.001400000000000002 0.01104285714285717 0  0.001400000000000004 0.01262040816326531 0  0.0014 0.01419795918367349 0  0.001400000000000002 0.01577551020408166 0  0.001400000000000005 0.0173530612244898 0  0.001400000000000002 0.01893061224489797 0  0.001400000000000002 0.02050816326530613 0  0.001400000000000002 0.02208571428571431 0  0.001400000000000002 0.02366326530612247 0  0.001400000000000002 0.02524081632653063 0  0.001400000000000002 0.0268183673469388 0  0.001400000000000002 0.02839591836734696 0  0.001400000000000002 0.02997346938775513 0  0.001400000000000002 0.03155102040816328 0  0.001400000000000002 0.03312857142857147 0  0.001399999999999997 0.03470612244897962 0  0.001400000000000005 0.03628367346938778 0  0.001400000000000002 0.03786122448979594 0  0.001400000000000002 0.03943877551020411 0  0.001400000000000002 0.04101632653061228 0  0.001400000000000002 0.04259387755102043 0  0.001400000000000002 0.0441714285714286 0  0.0014 0.04574897959183676 0  0.001400000000000002 0.04732653061224492 0  0.001400000000000004 0.04890408163265308 0  0.001400000000000002 0.05048163265306126 0  0.001400000000000002 0.05205918367346941 0  0.0014 0.05363673469387758 0  0.001400000000000004 0.05521428571428574 0  0.001399999999999998 0.05679183673469391 0  0.001400000000000002 0.05836938775510207 0  0.0014 0.05994693877551023 0  0.001400000000000002 0.0615244897959184 0  0.001400000000000002 0.06310204081632656 0  0.001400000000000002 0.06467959183673472 0  0.0014 0.06625714285714286 0  0.001400000000000002 0.06783469387755102 0  0.001399999999999998 0.06941224489795919 0  0.001400000000000002 0.07098979591836735 0  0.0014 0.07256734693877552 0  0.001400000000000002 0.07414489795918368 0  0.001400000000000002 0.07572244897959184 0  0.002800000000000006 0.001577551020408165 0  0.002800000000000004 0.003155102040816343 0  0.002800000000000002 0.004732653061224487 0  0.002800000000000002 0.006310204081632652 0  0.002800000000000002 0.007887755102040813 0  0.0028 0.009465306122448981 0  0.002799999999999997 0.01104285714285715 0  0.0028 0.01262040816326532 0  0.0028 0.01419795918367348 0  0.0028 0.01577551020408165 0  0.002799999999999997 0.0173530612244898 0  0.0028 0.01893061224489797 0  0.002800000000000004 0.02050816326530613 0  0.0028 0.0220857142857143 0  0.0028 0.02366326530612247 0  0.002800000000000004 0.02524081632653064 0  0.0028 0.0268183673469388 0  0.0028 0.02839591836734696 0  0.002799999999999995 0.02997346938775512 0  0.002799999999999997 0.03155102040816328 0  0.002799999999999995 0.03312857142857146 0  0.0028 0.03470612244897962 0  0.002799999999999995 0.03628367346938778 0  0.002799999999999997 0.03786122448979594 0  0.002799999999999997 0.03943877551020411 0  0.002799999999999997 0.04101632653061228 0  0.002799999999999997 0.04259387755102043 0  0.002799999999999995 0.0441714285714286 0  0.002799999999999997 0.04574897959183676 0  0.002799999999999997 0.04732653061224493 0  0.002799999999999995 0.04890408163265308 0  0.002799999999999993 0.05048163265306124 0  0.002799999999999995 0.05205918367346941 0  0.002799999999999995 0.05363673469387757 0  0.002799999999999992 0.05521428571428574 0  0.002799999999999997 0.05679183673469391 0  0.002799999999999993 0.05836938775510207 0  0.002799999999999993 0.05994693877551022 0  0.002799999999999992 0.0615244897959184 0  0.002799999999999988 0.06310204081632655 0  0.002799999999999992 0.0646795918367347 0  0.002799999999999992 0.06625714285714286 0  0.00279999999999999 0.06783469387755103 0  0.00279999999999999 0.06941224489795919 0  0.002799999999999988 0.07098979591836735 0  0.00279999999999999 0.07256734693877552 0  0.002799999999999988 0.07414489795918368 0  0.00279999999999999 0.07572244897959184 0  0.004200000000000006 0.001577551020408172 0  0.004200000000000006 0.003155102040816329 0  0.004200000000000008 0.00473265306122448 0  0.004200000000000009 0.006310204081632652 0  0.004200000000000008 0.00788775510204082 0  0.004200000000000008 0.009465306122448978 0  0.004200000000000006 0.01104285714285716 0  0.004200000000000006 0.01262040816326532 0  0.004200000000000004 0.01419795918367349 0  0.004200000000000002 0.01577551020408165 0  0.004200000000000004 0.0173530612244898 0  0.004200000000000006 0.01893061224489797 0  0.004200000000000006 0.02050816326530613 0  0.004200000000000002 0.0220857142857143 0  0.004200000000000004 0.02366326530612247 0  0.004199999999999999 0.02524081632653062 0  0.004200000000000004 0.0268183673469388 0  0.004200000000000004 0.02839591836734696 0  0.004200000000000002 0.02997346938775512 0  0.004199999999999999 0.03155102040816328 0  0.004200000000000001 0.03312857142857145 0  0.004200000000000001 0.03470612244897962 0  0.004199999999999995 0.03628367346938778 0  0.004199999999999999 0.03786122448979594 0  0.004199999999999999 0.0394387755102041 0  0.004199999999999997 0.04101632653061227 0  0.004199999999999999 0.04259387755102043 0  0.004199999999999999 0.04417142857142859 0  0.004199999999999999 0.04574897959183676 0  0.004199999999999999 0.04732653061224492 0  0.004199999999999997 0.04890408163265308 0  0.004199999999999997 0.05048163265306124 0  0.004199999999999999 0.05205918367346941 0  0.004199999999999992 0.05363673469387757 0  0.0
[...]
<PointData  Vectors="displacement"> 
<DataArray  type="Float64"  Name="displacement"  NumberOfComponents="3" format="ascii">0.0000000000000000e+00 0.0000000000000000e+00 0.0000000000000000e+00  0.0000000000000000e+00 0.0000000000000000e+00 0.0000000000000000e+00  5.1397438375845655e-03 -4.2994197142331651e-02 0.0000000000000000e+00  -5.0866512990189036e-03 -4.2983907173993821e-02 0.0000000000000000e+00  0.0000000000000000e+00 0.0000000000000000e+00 0.0000000000000000e+00  0.0000000000000000e+00 0.0000000000000000e+00 0.0000000000000000e+00  0.0000000000000000e+00 0.0000000000000000e+00 0.0000000000000000e+00  0.0000000000000000e+00 0.0000000000000000e+00 0.0000000000000000e+00  0.0000000000000000e+00 0.0000000000000000e+00 0.0000000000000000e+00  0.0000000000000000e+00 0.0000000000000000e+00 0.0000000000000000e+00  0.0000000000000000e+00 0.0000000000000000e+00 0.0000000000000000e+00  0.0000000000000000e+00 0.0000000000000000e+00 0.0000000000000000e+00  0.0000000000000000e+00 0.0000000000000000e+00 0.0000000000000000e+00  0.0000000000000000e+00 0.0000000000000000e+00 0.0000000000000000e+00  0.0000000000000000e+00 0.0000000000000000e+00 0.0000000000000000e+00  0.0000000000000000e+00 0.0000000000000000e+00 0.0000000000000000e+00  0.0000000000000000e+00 0.0000000000000000e+00 0.0000000000000000e+00  0.0000000000000000e+00 0.0000000000000000e+00 0.0000000000000000e+00  0.0000000000000000e+00 0.0000000000000000e+00 0.0000000000000000e+00  0.0000000000000000e+00 0.0000000000000000e+00 0.0000000000000000e+00  0.0000000000000000e+00 0.0000000000000000e+00 0.0000000000000000e+00  0.0000000000000000e+00 0.0000000000000000e+00 0.0000000000000000e+00  0.0000000000000000e+00 0.0000000000000000e+00 0.0000000000000000e+00  0.0000000000000000e+00 0.0000000000000000e+00 0.0000000000000000e+00  0.0000000000000000e+00 0.0000000000000000e+00 0.0000000000000000e+00  0.0000000000000000e+00 0.0000000000000000e+00 0.0000000000000000e+00  0.0000000000000000e+00 0.0000000000000000e+00 0.0000000000000000e+00  1.6694643019870695e-03 -1.5272318470285595e-03 0.0000000000000000e+00  2.5905063374375118e-03 -2.4525639135864617e-03 0.0000000000000000e+00  3.2389887983800413e-03 -3.2660292107837734e-03 0.0000000000000000e+00  3.7253863641307939e-03 -4.0398783103855066e-03 0.0000000000000000e+00  4.0974524354010240e-03 -4.7992523273864248e-03 0.0000000000000000e+00  4.3832600767668706e-03 -5.5572554610594706e-03 0.0000000000000000e+00  4.6023123178585180e-03 -6.3210509619987835e-03 0.0000000000000000e+00  4.7691034753608499e-03 -7.0944666717127269e-03 0.0000000000000000e+00  4.8948066505572650e-03 -7.8793688432895140e-03 0.0000000000000000e+00  4.9882270849031527e-03 -8.6764184974660232e-03 0.0000000000000000e+00  5.0563903237504778e-03 -9.4855196741434715e-03 0.0000000000000000e+00  5.1049334578098446e-03 -1.0306104220196342e-02 0.0000000000000000e+00  5.1383833918693285e-03 -1.1137321781172469e-02 0.0000000000000000e+00  5.1603660478319567e-03 -1.1978170189866034e-02 0.0000000000000000e+00  5.1737705149206871e-03 -1.2827585854004989e-02 0.0000000000000000e+00  5.1808818262841063e-03 -1.3684505971489458e-02 0.0000000000000000e+00  5.1834904820454598e-03 -1.4547910274210239e-02 0.0000000000000000e+00  5.1829837802553043e-03 -1.5416847661325769e-02 0.0000000000000000e+00  5.1804223107833787e-03 -1.6290451653245313e-02 0.0000000000000000e+00  5.1766040032138689e-03 -1.7167947650747854e-02 0.0000000000000000e+00  5.1721175637765397e-03 -1.8048654306896127e-02 0.0000000000000000e+00  5.1673868017377365e-03 -1.8931980805462691e-02 0.0000000000000000e+00  5.1627071285031845e-03 -1.9817421433554284e-02 0.0000000000000000e+00  5.1582753559251387e-03 -2.0704548508825422e-02 0.0000000000000000e+00  5.1542137937847952e-03 -2.1593004456412348e-02 0.0000000000000000e+00  5.1505895351301569e-03 -2.2482493616691517e-02 0.0000000000000000e+00  5.1474297154158761e-03 -2.3372774194140383e-02 0.0000000000000000e+00  5.1447334348696050e-03 -2.4263650623296263e-02 0.0000000000000000e+00  5.1424809429085668e-03 -2.5154966524208310e-02 0.0000000000000000e+00  5.1406405992420441e-03 -2.6046598341616982e-02 0.0000000000000000e+00  5.1391740491519714e-03 -2.6938449704696950e-02 0.0000000000000000e+00  5.1380399808068893e-03 -2.7830446503464862e-02 0.0000000000000000e+00  5.1371967705334826e-03 -2.8722532650352583e-02 0.0000000000000000e+00  5.1366042676657866e-03 -2.9614666477998555e-02 0.0000000000000000e+00  5.1362249236174880e-03 -3.0506817714555809e-02 0.0000000000000000e+00  5.1360244297139236e-03 -3.1398964973760372e-02 0.0000000000000000e+00  5.1359719945189780e-03 -3.2291093697076237e-02 0.0000000000000000e+00  5.1360403633094031e-03 -3.3183194488223759e-02 0.0000000000000000e+00  5.1362056594244148e-03 -3.4075261785420696e-02 0.0000000000000000e+00  5.1364471089982563e-03 -3.4967292823113165e-02 0.0000000000000000e+00  5.1367466968180089e-03 -3.5859286842502093e-02 0.0000000000000000e+00  5.1370887918800777e-03 -3.6751244518665870e-02 0.0000000000000000e+00  5.1374597775338442e-03 -3.7643167581668323e-02 0.0000000000000000e+00  5.1378477253456239e-03 -3.8535058620020719e-02 0.0000000000000000e+00  5.1382421699001334e-03 -3.9426921067557581e-02 0.0000000000000000e+00  5.1386340887467786e-03 -4.0318759389061931e-02 0.0000000000000000e+00  5.1390163157004959e-03 -4.1210579486773091e-02 0.0000000000000000e+00  5.1393850185530573e-03 -4.2102389213761672e-02 0.0000000000000000e+00  4.7135840756017018e-03 -4.2993880526856092e-02 0.0000000000000000e+00  4.2874250796418730e-03 -4.2993570826412371e-02 0.0000000000000000e+00  3.8612726694164964e-03 -4.2993271532541920e-02 0.0000000000000000e+00  3.4351323010628075e-03 -4.2992980319688748e-02 0.0000000000000000e+00  3.0090074787600530e-03 -4.2992692193009899e-02 0.0000000000000000e+00  2.5828998430604366e-03 -4.2992401135361506e-02 0.0000000000000000e+00  2.1568094757511576e-03 -4.2992100998989126e-02 0.0000000000000000e+00  1.7307352043918944e-03 -4.2991786040563126e-02 0.0000000000000000e+00  1.3046748774337470e-03 -4.2991451257095616e-02 0.0000000000000000e+00  8.7862560743339401e-04 -4.2991092598052769e-02 0.0000000000000000e+00  4.5258398463052701e-04 -4.2990707096505029e-02 0.0000000000000000e+00  2.6546265823099484e-05 -4.2990292946194567e-02 0.0000000000000000e+00  -3.9949145443997494e-04 -4.2989849541495609e-02 0.0000000000000000e+00  -8.2553308187245872e-04 -4.2989377489804748e-02 0.0000000000000000e+00  -1.2515823604438430e-03 -4.2988878599452676e-02 0.0000000000000000e+00  -1.6776427011280215e-03 -4.2988355840055711e-02 0.0000000000000000e+00  -2.1037169929359837e-03 -4.2987813265774957e-02 0.0000000000000000e+00  -2.5298073892251792e-03 -4.2987255884504576e-02 0.0000000000000000e+00  -2.9559150643830860e-03 -4.2986689446006761e-02 0.0000000000000000e+00  -3.3820399387005365e-03 -4.2986120105589574e-02 0.0000000000000000e+00  -3.8081803739325368e-03 -4.2985553885612489e-02 0.0000000000000000e+00  -4.2343328652492043e-03 -4.2984995769914755e-02 0.0000000000000000e+00  -4.6604919209155835e-03 -4.2984448050890613e-02 0.0000000000000000e+00  -5.0872588157220219e-03 -4.2092098946720488e-02 0.0000000000000000e+00  -5.0878564484360053e-03 -4.1200289276912078e-02 0.0000000000000000e+00  -5.0884406105283185e-03 -4.0308469219549684e-02 0.0000000000000000e+00  -5.0890150592657162e-03 -3.9416630925387657e-02 0.0000000000000000e+00  -5.0895869560813167e-03 -3.8524768496339366e-02 0.0000000000000000e+00  -5.0901653351802210e-03 -3.7632877471526577e-02 0.0000000000000000e+00  -5.0907606712984168e-03 -3.6740954420547693e-02 0.0000000000000000e+00  -5.0913848982505018e-03 -3.5848996757952473e-02 0.0000000000000000e+00  -5.0920516349538389e-03 -3.4957002756608728e-02 0.0000000000000000e+00  -5.0927765122355381e-03 -3.4064971744484952e-02 0.0000000000000000e+00  -5.0935775429926371e-03 -3.3172904483755504e-02 0.0000000000000000e+00  -5.0944754966427939e-03 -3.2280803743871565e-02 0.0000000000000000e+00  -5.0954942430497781e-03 -3.1388675091224449e-02 0.0000000000000000e+00  -5.0966610273957555e-03 -3.0496527927617527e-02 0.0000000000000000e+00  -5.0980066282809051e-03 -2.9604376818256076e-02 0.0000000000000000e+00  -5.0995653375502407e-03 -2.8712243157495775e-02 0.0000000000000000e+00  -5.1013746821160803e-03 -2.7820157227044725e-02 0.0000000000000000e+00  -5.1034747851097630e-03 -2.6928160706343119e-02 0.0000000000000000e+00  -5.1059072356023204e-03 -2.6036309697848984e-02 0.0000000000000000e+00  -5.1087133023156863e-03 -2.5144678330045259e-02 0.0000000000000000e+00  -5.1119312866116035e-03 -2.4253362996952167e-02 0.0000000000000000e+00  -5.1155927630296043e-03 -2.3362487283198209e-02 0.0000000000000000e+00  -5.1197174012788411e-03 -2.2472207606288826e-02 0.0000000000000000e+00  -5.1243060015575869e-03 -2.1582719580141827e-02 0.0000000000000000e+00  -5.1293313052909427e-03 -2.0694265063257437e-02 0.0000000000000000e+00  -5.1347260660142766e-03 -1.9807139797513324e-02 0.0000000000000000e+00  -5.1403677806243870e-03 -1.8921701465411288e-02 0.0000000000000000e+00  -5.1460593901661369e-03 -1.8038377889952089e-02 0.0000000000000000e+00  -5.1515051621644830e-03 -1.7157674966899298e-02 0.0000000000000000e+00  -5.1562808628973144e-03 -1.6280183748096973e-02 0.0000000000000000e+00  -5.1597972155067893e-03 -1.5406585879996160e-02 0.0000000000000000e+00  -5.1612555116846721e-03 -1.4537656335474347e-02 0.0000000000000000e+00  -5.1595940856737441e-03 -1.3674262048447386e-02 0.0000000000000000e+00  -5.1534241390900617e-03 -1.2817354652740063e-02 0.0000000000000000e+00  -5.1409530661791734e-03 -1.1967955009704432e-02 0.0000000000000000e+00  -5.1198928669463654e-03 -1.1127126527730940e-02 0.0000000000000000e+00  -5.0873502625918094e-03 -1.0295933323086233e-02 0.0000000000000000e+00  -5.0396934077989557e-03 -9.4753778314075540e-03 0.0000000000000000e+00  -4.9723870164531860e-03 -8.6663101230705138e-03 0.0000000000000000e+00  -4.8797821346477028e-03 -7.8692970244685616e-03 0.0000000000000000e+00  -4.7548364535372270e-03 -7.0844313408050348e-03 0.0000000000000000e+00  -4.5887212671311415e-03 -6.3110458455763983e-03 0.0000000000000000e+00  -4.3702317967031779e-03 -5.5472632268097769e-03 0.0000000000000000e+00  -4.0848367891562548e-03 -4.7892385122176228e-03 0.0000000000000000e+00  -3.7130237080573369e-03 -4.0298027357106121e-03 0.0000000000000000e+00  -3.2269432707321710e-03 -3.2560019356367644e-03 0.0000000000000000e+00  -2.5800753768115128e-03 -2.4429542169792907e-03 0.0000000000000000e+00  -1.6623338588345217e-03 -1.5059939226371526e-03 0.0000000000000000e+00  -1.1696121407540150e-03 -8.9769771844256936e-04 0.0000000000000000e+00  -2.1376161991844074e-03 -1.8933760695607862e-03 0.0000000000000000e+00  -2.8247523118315010e-03 -2.8137565516778047e-03 0.0000000000000000e+00  -3.3288060072627435e-03 -3.6765845853341111e-03 0.0000000000000000e+00  -3.7077086690486573e-03 -4.5081964156320114e-03 0.0000000000000000e+00  -3.9946674314358640e-03 -5.3248241119471136e-03 0.0000000000000000e+00  -4.2116481652309801e-03 -6.1361601311637204e-03 0.0000000000000000e+00  -4.3745280440830522e-03 -6.9480680405485714e-03 0.0000000000000000e+00  -4.4953301963309910e-03 -7.7640451873175267e-03 0.0000000000000000e+00  -4.5834030813599186e-03 -8.5860689157290487e-03 0.0000000000000000e+00  -4.6461238269684029e-03 -9.4151196572918802e-03 0.0000000000000000e+00  -4.6893550691049519e-03 -1.0251520073400886e-02 0.0000000000000000e+00  -4.7177634470303483e-03 -1.1095163176730103e-02 0.0000000000000000e+00  -4.7350550364475968e-03 -1.1945669822710945e-02 0.0000000000000000e+00  -4.7441574780112440e-03 -1.2802499052699534e-02 0.0000000000000000e+00  -4.7473655376352487e-03 -1.3665025674224883e-02 0.0000000000000000e+00  -4.7464599356196102e-03 -1.4532594380195973e-02 0.0000000000000000e+00  -4.7428055291851073e-03 -1.5404556738230430e-02 0.0000000000000000e+00  -4.7374328540035014e-03 -1.6280295554450090e-02 0.0000000000000000e+00  -4.7311058577625669e-03 -1.7159239928311226e-02 0.0000000000000000e+00  -4.7243779795977537e-03 -1.8040873498114257e-02 0.0000000000000000e+00  -4.7176383167755959e-03 -1.8924737785751169e-02 0.0000000000000000e+00  -4.7111493497453702e-03 -1.9810432103995940e-02 0.0000000000000000e+00  -4.7050775009665749e-03 -2.0697611144802060e-02 0.0000000000000000e+00  -4.6995176461438418e-03 -2.1585981095717733e-02 0.0000000000000000e+00  -4.6945125608366693e-03 -2.2475294916665473e-02 0.0000000000000000e+00  -4.6900681626731982e-03 -2.3365347239391331e-02 0.0000000000000000e+00  -4.6861652963798728e-03 -2.4255969218350392e-02 0.0000000000000000e+00  -4.6827687046805530e-03 -2.5147023557977027e-02 0.0000000000000000e+00  -4.6798337328869104e-03 -2.6038399861721469e-02 0.0000000000000000e+00  -4.6773112289676660e-03 -2.6930010388333935e-02 0.0000000000000000e+00  -4.6751510241879474e-03 -2.7821786256783863e-02 0.0000000000000000e+00  -4.6733043119576226e-03 -2.8713674109657229e-02 0.0000000000000000e+00  -4.6717251839779620e-03 -2.9605633223168153e-02 0.0000000000000000e+00  -4.6703715325940908e-03 -3.0497633037803548e-02 0.0000000000000000e+00  -4.6692054857766715e-03 -3.1389651075269864e-02 0.0000000000000000e+00  -4.6681935056335742e-03 -3.2281671203354942e-02 0.0000000000000000e+00  -4.6673062520464804e-03 -3.3173682209402103e-02 0.0000000000000000e+00  -4.6665182892510109e-03 -3.4065676644412360e-02 0.0000000000000000e+00  -4.6658076943684500e-03 -3.4957649902650233e-02 0.0000000000000000e+00  -4.6651556127229599e-03 -3.5849599505480265e-02 0.0000000000000000e+00  -4.6645457953335290e-03 -3.6741524562510765e-02 0.0000000000000000e+00  -4.6639641501865130e-03 -3.7633425387375886e-02 0.0000000000000000e+00  -4.6633983435255839e-03 -3.8525303248582402e-02 0.0000000000000000e+00  -4.6628375076376372e-03 -3.9417160235328402e-02 0.0000000000000000e+00  -4.6622721666044458e-03 -4.0308999207564346e-02 0.0000000000000000e+00  -4.6616946301877545e-03 -4.1200823767149224e-02 0.0000000000000000e+00  -4.6611004162508494e-03 -4.2092638199946859e-02 0.0000000000000000e+00  -9.0027673129513598e-04 -7.3163958814446213e-04 0.0000000000000000e+00  -1.7474723950538546e-03 -1.5999970472775453e-03 0.0000000000000000e+00  -2.4187155195019802e-03 -2.5018403234748601e-03 0.0000000000000000e+00  -2.9272809959829484e-03 -3.3900257812484662e-03 0.0000000000000000e+00  -3.3110535246851460e-03 -4.2590056666184191e-03 0.0000000000000000e+00  -3.6005359047213445e-03 -5.1139086192584478e-03 0.0000000000000000e+00  -3.8179409757497697e-03 -5.9606369276622969e-03 0.0000000000000000e+00  -3.9797437698038595e-03 -6.8038553586382442e-03 0.0000000000000000e+00  -4.0984996290673635e-03 -7.6468687265046362e-03 0.0000000000000000e+00  -4.1839666006166839e-03 -8.4918691476840499e-03 0.0000000000000000e+00  -4.2438196276434184e-03 -9.3402105176098402e-03 0.0000000000000000e+00  -4.2841299385529379e-03 -1.0192638432196120e-02 0.0000000000000000e+00  -4.3097047172616044e-03 -1.1049468578796812e-02 0.0000000000000000e+00  -4.3243397894292971e-03 -1.1910721286653346e-02 0.0000000000000000e+00  -4.3310152259801163e-03 -1.2776221612336941e-02 0.0000000000000000e+00  -4.3320512794504940e-03 -1.3645672976462998e-02 0.0000000000000000e+00  -4.3292351505821638e-03 -1.4518710645301913e-02 0.0000000000000000e+00  -4.3239252050582761e-03 -1.5394939893238748e-02 0.0000000000000000e+00  -4.3171370623738435e-03 -1.6273962558182201e-02 0.0000000000000000e+00  -4.3096147135141798e-03 -1.7155394852526595e-02 0.0000000000000000e+00  -4.3018890754768632e-03 -1.8038878646699383e-02 0.0000000000000000e+00  -4.2943259258504682e-03 -1.8924087945267183e-02 0.0000000000000000e+00  -4.2871648499093118e-03 -1.9810731887833024e-02 0.0000000000000000e+00  -4.2805506048734553e-03 -2.0698555301542038e-02 0.0000000000000000e+00  -4.2745581232597162e-03 -2.1587337590147995e-02 0.0000000000000000e+00  -4.2692122203714985e-03 -2.2476890552822613e-02 0.0000000000000000e+00  -4.2645029308214571e-03 -2.3367055574213837e-02 0.0000000000000000e+00  -4.2603972716825011e-03 -2.4257700507952909e-02 0.0000000000000000e+00  -4.2568481140534183e-03 -2.5148716482734583e-02 0.0000000000000000e+00  -4.2538007401603040e-03 -2.6040014788256908e-02 0.0000000000000000e+00  -4.2511975695153073e-03 -2.6931523943594764e-02 0.0000000000000000e+00  -4.2489814549568445e-03 -2.7823187009594672e-02 0.0000000000000000e+00  -4.2470978772416726e-03 -2.8714959176795719e-02 0.0000000000000000e+00  -4.2454963046760297e-03 -2.9606805638878606e-02 0.0000000000000000e+00  -4.2441309313278773e-03 -3.0498699746810888e-02 0.0000000000000000e+00  -4.2429609628133790e-03 -3.1390621429132702e-02 0.0000000000000000e+00  -4.2419505816203859e-03 -3.2282555857963684e-02 0.0000000000000000e+00  -4.2410686935557603e-03 -3.3174492337283125e-02 0.0000000000000000e+00  -4.2402885324004493e-03 -3.4066423389037231e-02 0.0000000000000000e+00  -4.2395871805915846e-03 -3.4958344012984692e-02 0.0000000000000000e+00  -4.2389450493426637e-03 -3.5850251097332947e-02 0.0000000000000000e+00  -4.2383453521167977e-03 -3.6742142958604569e-02 0.0000000000000000e+00  -4.2377736016381276e-03 -3.7634018990260594e-02 0.0000000000000000e+00  -4.2372171650368641e-03 -3.8525879399956477e-02 0.0000000000000000e+00  -4.2366649294986953e-03 -3.9417725015519919e-02 0.0000000000000000e+00  -4.2361071711923904e-03 -4.0309557147235560e-02 0.0000000000000000e+00  -4.2355357878400366e-03 -4.1201377549742478e-02 0.0000000000000000e+00  -4.2349450725748337e-03 -4.2093188774450070e-02 0.0000000000000000e+00  -7.3037578285088482e-04 -6.6888945422534981e-04 0.0000000000000000e+00  -1.4428374726051048e-03 -1.4523985565756809e-03 0.0000000000000000e+00  -2.0520413931883188e-03 -2.3037401157190965e-03 0.0000000000000000e+00  -2.5377162723778548e-03 -3.1785963765650978e-03 0.0000000000000000e+00  -2.9133663767083023e-03 -4.0558821853988909e-03 0.0000000000000000e+00  -3.1995669303158426e-03 -4.9291461167060881e-03 0.0000000000000000e+00  -3.4150484113185742e-03 -5.7979330054609059e-03 0.0000000000000000e+00  -3.5751413243220618e-03 -6.6636584727014008e-03 0.0000000000000000e+00  -3.6920853482482387e-03 -7.5280196220095397e-03 0.0000000000000000e+00  -3.7756125263749855e-03 -8.3924625886017731e-03 0.0000000000000000e+00  -3.8334615761432540e-03 -9.2580548277905895e-03 0.0000000000000000e+00  -3.8717823349100583e-03 -1.0125503557211753e-02 0.0000000000000000e+00  -3.8954490081797187e-03 -1.0995219488906137e-02 0.0000000000000000e+00  -3.9083057393047710e-03 -1.1867387135552692e-02 0.0000000000000000e+00  -3.9133626250501506e-03 -1.2742027779595749e-02 0.0000000000000000e+00  -3.9129546884507180e-03 -1.3619051151234825e-02 0.0000000000000000e+00  -3.9088722510719539e-03 -1.4498295774795738e-02 0.0000000000000000e+00  -3.9024684965702498e-03 -1.5379559352177693e-02 0.0000000000000000e+00  -3.8947483603986753e-03 -1.6262620919877947e-02 0.0000000000000000e+00  -3.8864418527582469e-03 -1.7147256462621472e-02 0.0000000000000000e+00  -3.8780642724245197e-03 -1.8033249459290690e-02 0.0000000000000000e+00  -3.8699653392429640e-03 -1.8920397591123114e-02 0.0000000000000000e+00  -3.8623689678482591e-03 -1.9808516606336608e-02 0.0000000000000000e+00  -3.8554051700755271e-03 -2.0697442127617066e-02 0.0000000000000000e+00  -3.8491353788309016e-03 -2.1587030013898726e-02 0.0000000000000000e+00  -3.8435723164977511e-03 -2.2477155744369027e-02 0.0000000000000000e+00  -3.8386953789002385e-03 -2.3367713177119352e-02 0.0000000000000000e+00  -3.8344623682318528e-03 -2.4258612943204132e-02 0.0000000000000000e+00  -3.8308182839638634e-03 -2.5149780665026468e-02 0.0000000000000000e+00  -3.8277017691375672e-03 -2.6041155132322021e-02 0.0000000000000000e+00  -3.8250497103333950e-03 -2.6932686526440354e-02 0.0000000000000000e+00  -3.8228004026156863e-03 -2.7824334751505263e-02 0.0000000000000000e+00  -3.8208956152974635e-03 -2.8716067907195397e-02 0.0000000000000000e+00  -3.8192818296925290e-03 -2.9607860920540591e-02 0.0000000000000000e+00  -3.8179108652248292e-03 -3.0499694341824670e-02 0.0000000000000000e+00  -3.8167400643732930e-03 -3.1391553301244372