<?xml version="1.0"?>
<VTKFile type="UnstructuredGrid"  version="0.1"  >
<UnstructuredGrid>
<Piece  NumberOfPoints="6792" NumberOfCells="13154">
<Points>
<DataArray  type="Float64"  NumberOfComponents="3"  format="ascii">4.8 0 0  5.2 0 0  5.2 -0.4 0  4.8 -0.4 0  4.5 -0.4 0  5.5 -0.4 0  5.5 -0.6000000000000001 0  4.5 -0.6000000000000001 0  0 -3 0  0 0 0  10 -3 0  10 0 0  5.2 -0.01666666666666669 0  5.2 -0.03333333333333339 0  5.2 -0.05000000000000009 0  5.2 -0.06666666666666679 0  5.2 -0.0833333333333335 0  5.2 -0.1000000000000002 0  5.2 -0.1166666666666669 0  5.2 -0.1333333333333336 0  5.2 -0.1500000000000002 0  5.2 -0.1666666666666669 0  5.2 -0.1833333333333335 0  5.2 -0.2000000000000001 0  5.2 -0.2166666666666668 0  5.2 -0.2333333333333335 0  5.2 -0.2500000000000002 0  5.2 -0.2666666666666669 0  5.2 -0.2833333333333335 0  5.2 -0.3000000000000002 0  5.2 -0.3166666666666668 0  5.2 -0.3333333333333335 0  5.2 -0.3500000000000001 0  5.2 -0.3666666666666668 0  5.2 -0.3833333333333334 0  4.8 -0.3833333333333333 0  4.8 -0.3666666666666666 0  4.8 -0.3499999999999999 0  4.8 -0.3333333333333333 0  4.8 -0.3166666666666665 0  4.8 -0.2999999999999998 0  4.8 -0.2833333333333331 0  4.8 -0.2666666666666664 0  4.8 -0.2499999999999998 0  4.8 -0.2333333333333331 0  4.8 -0.2166666666666665 0  4.8 -0.1999999999999999 0  4.8 -0.1833333333333332 0  4.8 -0.1666666666666665 0  4.8 -0.1499999999999998 0  4.8 -0.1333333333333331 0  4.8 -0.1166666666666665 0  4.8 -0.09999999999999987 0  4.8 -0.0833333333333332 0  4.8 -0.06666666666666654 0  4.8 -0.04999999999999988 0  4.8 -0.03333333333333327 0  4.8 -0.01666666666666661 0  5.5 -0.4083333333333334 0  5.5 -0.4166666666666667 0  5.5 -0.425 0  5.5 -0.4333333333333334 0  5.5 -0.4416666666666668 0  5.5 -0.4500000000000001 0  5.5 -0.4583333333333334 0  5.5 -0.4666666666666668 0  5.5 -0.4750000000000001 0  5.5 -0.4833333333333335 0  5.5 -0.4916666666666668 0  5.5 -0.5000000000000002 0  5.5 -0.5083333333333335 0  5.5 -0.5166666666666668 0  5.5 -0.5250000000000002 0  5.5 -0.5333333333333335 0  5.5 -0.5416666666666669 0  5.5 -0.5500000000000002 0  5.5 -0.5583333333333335 0  5.5 -0.5666666666666668 0  5.5 -0.5750000000000002 0  5.5 -0.5833333333333335 0  5.5 -0.5916666666666668 0  5.479591836734694 -0.6000000000000001 0  5.459183673469388 -0.6000000000000001 0  5.438775510204081 -0.6000000000000001 0  5.418367346938775 -0.6000000000000001 0  5.397959183673469 -0.6000000000000001 0  5.377551020408164 -0.6000000000000001 0  5.357142857142857 -0.6000000000000001 0  5.336734693877551 -0.6000000000000001 0  5.316326530612245 -0.6000000000000001 0  5.295918367346939 -0.6000000000000001 0  5.275510204081633 -0.6000000000000001 0  5.255102040816326 -0.6000000000000001 0  5.23469387755102 -0.6000000000000001 0  5.214285714285714 -0.6000000000000001 0  5.193877551020408 -0.6000000000000001 0  5.173469387755102 -0.6000000000000001 0  5.153061224489796 -0.6000000000000001 0  5.13265306122449 -0.6000000000000001 0  5.112244897959184 -0.6000000000000001 0  5.091836734693878 -0.6000000000000001 0  5.071428571428571 -0.6000000000000001 0  5.051020408163265 -0.6000000000000001 0  5.030612244897959 -0.6000000000000001 0  5.010204081632653 -0.6000000000000001 0  4.989795918367347 -0.6000000000000001 0  4.969387755102041 -0.6000000000000001 0  4.948979591836735 -0.6000000000000001 0  4.928571428571429 -0.6000000000000001 0  4.908163265306122 -0.6000000000000001 0  4.887755102040816 -0.6000000000000001 0  4.86734693877551 -0.6000000000000001 0  4.846938775510204 -0.6000000000000001 0  4.826530612244898 -0.6000000000000001 0  4.806122448979592 -0.6000000000000001 0  4.785714285714286 -0.6000000000000001 0  4.76530612244898 -0.6000000000000001 0  4.744897959183674 -0.6000000000000001 0  4.724489795918368 -0.6000000000000001 0  4.704081632653061 -0.6000000000000001 0  4.683673469387755 -0.6000000000000001 0  4.663265306122449 -0.6000000000000001 0  4.642857142857143 -0.6000000000000001 0  4.622448979591836 -0.6000000000000001 0  4.602040816326531 -0.6000000000000001 0  4.581632653061225 -0.6000000000000001 0  4.561224489795919 -0.6000000000000001 0  4.540816326530612 -0.6000000000000001 0  4.520408163265306 -0.6000000000000001 0  4.5 -0.5916666666666668 0  4.5 -0.5833333333333334 0  4.5 -0.5750000000000001 0  4.5 -0.5666666666666668 0  4.5 -0.5583333333333333 0  4.5 -0.55 0  4.5 -0.5416666666666667 0  4.5 -0.5333333333333333 0  4.5 -0.525 0  4.5 -0.5166666666666666 0  4.5 -0.5083333333333333 0  4.5 -0.4999999999999999 0  4.5 -0.4916666666666666 0  4.5 -0.4833333333333332 0  4.5 -0.4749999999999999 0  4.5 -0.4666666666666666 0  4.5 -0.4583333333333333 0  4.5 -0.45 0  4.5 -0.4416666666666667 0  4.5 -0.4333333333333333 0  4.5 -0.425 0  4.5 -0.4166666666666667 0  4.5 -0.4083333333333334 0  0 -2.842105263157895 0  0 -2.684210526315789 0  0 -2.526315789473684 0  0 -2.368421052631579 0  0 -2.210526315789473 0  0 -2.052631578947369 0  0 -1.894736842105263 0  0 -1.736842105263158 0  0 -1.578947368421053 0  0 -1.421052631578947 0  0 -1.263157894736842 0  0 -1.105263157894737 0  0 -0.9473684210526319 0  0 -0.7894736842105265 0  0 -0.6315789473684212 0  0 -0.4736842105263159 0  0 -0.3157894736842106 0  0 -0.1578947368421053 0  9.836518447033493 -3 0  9.676485174132324 -3 0  9.519716728676565 -3 0  9.366040597429432 -3 0  9.215293522901804 -3 0  9.067325347766827 -3 0  8.921978167503752 -3 0  8.779125793186953 -3 0  8.638633440048579 -3 0  8.500376249002967 -3 0  8.364235730108557 -3 0  8.230099119300583 -3 0  8.097858693472926 -3 0  7.96741165420296 -3 0  7.838659590098249 -3 0  7.711508416266758 -3 0  7.585867779025237 -3 0  7.461651037321721 -3 0  7.338774694871047 -3 0  7.217158563845377 -3 0  7.096725097152937 -3 0  6.977399455051415 -3 0  6.859109304538208 -3 0  6.741784490575633 -3 0  6.625356935727237 -3 0  6.509760461250432 -3 0  6.394930659317325 -3 0  6.2808046903675 -3 0  6.167321173775116 -3 0  6.054420032640893 -3 0  5.942042373994132 -3 0  5.830130346471836 -3 0  5.718627047087892 -3 0  5.607476358937133 -3 0  5.496622874861212 -3 0  5.386011773348871 -3 0  5.275588701244851 -3 0  5.1652996754838 -3 0  5.055090972556302 -3 0  4.944909027443701 -3 0  4.834700324516204 -3 0  4.724411298755151 -3 0  4.613988226651132 -3 0  4.50337712513879 -3 0  4.392523641062869 -3 0  4.281372952912111 -3 0  4.169869653528168 -3 0  4.05795762600587 -3 0  3.94557996735911 -3 0  3.832678826224885 -3 0  3.719195309632506 -3 0  3.605069340682676 -3 0  3.490239538749567 -3 0  3.374643064272765 -3 0  3.25821550942437 -3 0  3.140890695461794 -3 0  3.022600544948583 -3 0  2.903274902847057 -3 0  2.782841436154621 -3 0  2.661225305128949 -3 0  2.538348962678273 -3 0  2.414132220974763 -3 0  2.288491583733238 -3 0  2.161340409901745 -3 0  2.032588345797035 -3 0  1.902141306527067 -3 0  1.76990088069941 -3 0  1.63576426989143 -3 0  1.499623750997021 -3 0  1.361366559951406 -3 0  1.220874206813038 -3 0  1.078021832496241 -3 0  0.9326746522331657 -3 0  0.7847064770981866 -3 0  0.6339594025705644 -3 0  0.4802832713234277 -3 0  0.3235148258676688 -3 0  0.1634815529665037 -3 0  10 -0.1578947368421053 0  10 -0.3157894736842105 0  10 -0.4736842105263158 0  10 -0.631578947368421 0  10 -0.7894736842105263 0  10 -0.9473684210526315 0  10 -1.105263157894737 0  10 -1.263157894736842 0  10 -1.421052631578947 0  10 -1.578947368421053 0  10 -1.736842105263158 0  10 -1.894736842105263 0  10 -2.052631578947368 0  10 -2.210526315789473 0  10 -2.368421052631579 0  10 -2.526315789473684 0  10 -2.684210526315789 0  10 -2.842105263157895 0  5.242711110728958 0 0  5.286293876649897 0 0  5.330766086621492 0 0  5.376145892152014 0 0  5.42245181646005 0 0  5.469702760230978 0 0  5.517918009047484 0 0  5.567117241926971 0 0  5.617320540136478 0 0  5.668548395689594 0 0  5.720821717944563 0 0  5.774161842706401 0 0  5.828590541705438 0 0  5.884130030266638 0 0  5.94080297745657 0 0  5.998632515975636 0 0  6.057642249464515 0 0  6.117856263073772 0 0  6.179299133754786 0 0  6.241995940196628 0 0  6.305972273202026 0 0  6.371254245734116 0 0  6.437868503398305 0 0  6.505842236065488 0 0  6.57520318781872 0 0  6.645979668702895 0 0  6.718200567773351 0 0  6.791895362948095 0 0  6.867094133486367 0 0  6.943827572999363 0 0  7.022127001505145 0 0  7.102024377265316 0 0  7.18355231127951 0 0  7.266744080958588 0 0  7.351633642095368 0 0  7.438255642858786 0 0  7.526645439729658 0 0  7.616839110635373 0 0  7.70887346833099 0 0  7.802786078238742 0 0  7.898615271798998 0 0  7.99640016325088 0 0  8.096180665028355 0 0  8.197997502914994 0 0  8.301892235603667 0 0  8.40790726914452 0 0  8.516085874883178 0 0  8.626472207502559 0 0  8.739111322234072 0 0  8.854049194324977 0 0  8.971332737055752 0 0  9.091009821249205 0 0  9.213129294849979 0 0  9.337741002569205 0 0  9.464895806341062 0 0  9.594645606616213 0 0  9.727043362350333 0 0  9.862143112515479 0 0  5.2125 -0.4 0  5.225 -0.4 0  5.2375 -0.4 0  5.25 -0.4 0  5.2625 -0.4 0  5.275 -0.4 0  5.2875 -0.4 0  5.3 -0.4 0  5.3125 -0.4 0  5.325 -0.4 0  5.337499999999999 -0.4 0  5.35 -0.4 0  5.3625 -0.4 0  5.375 -0.4 0  5.3875 -0.4 0  5.4 -0.4 0  5.4125 -0.4 0  5.425 -0.4 0  5.4375 -0.4 0  5.45 -0.4 0  5.4625 -0.4 0  5.475 -0.4 0  5.4875 -0.4 0  4.5125 -0.4 0  4.525 -0.4 0  4.5375 -0.4 0  4.55 -0.4 0  4.5625 -0.4 0  4.575 -0.4 0  4.587499999999999 -0.4 0  4.6 -0.4 0  4.6125 -0.4 0  4.625 -0.4 0  4.637499999999999 -0.4 0  4.649999999999999 -0.4 0  4.6625 -0.4 0  4.675 -0.4 0  4.6875 -0.4 0  4.699999999999999 -0.4 0  4.712499999999999 -0.4 0  4.725 -0.4 0  4.7375 -0.4 0  4.75 -0.4 0  4.7625 -0.4 0  4.774999999999999 -0.4 0  4.7875 -0.4 0  0.1378568874845195 0 0  0.2729566376496684 0 0  0.4053543933837926 0 0  0.5351041936589437 0 0  0.6622589974307957 0 0  0.7868707051500208 0 0  0.9089901787507969 0 0  1.028667262944252 0 0  1.145950805675029 0 0  1.260888677765933 0 0  1.373527792497444 0 0  1.483914125116827 0 0  1.592092730855484 0 0  1.698107764396336 0 0  1.802002497085009 0 0  1.903819334971649 0 0  2.003599836749125 0 0  2.1013847282010
[...]
<PointData  Vectors="displacement"> 
<DataArray  type="Float64"  Name="displacement"  NumberOfComponents="3" format="ascii">0.0000000000000000e+00 -6.7674829275855700e-04 0.0000000000000000e+00  0.0000000000000000e+00 -6.7688487306735040e-04 0.0000000000000000e+00  0.0000000000000000e+00 -7.0219085561031740e-04 0.0000000000000000e+00  0.0000000000000000e+00 -7.0205780733928751e-04 0.0000000000000000e+00  0.0000000000000000e+00 -6.8691210312724668e-04 0.0000000000000000e+00  0.0000000000000000e+00 -6.8699044285922180e-04 0.0000000000000000e+00  0.0000000000000000e+00 -8.4458216495086978e-04 0.0000000000000000e+00  0.0000000000000000e+00 -8.4391462840076455e-04 0.0000000000000000e+00  0.0000000000000000e+00 0.0000000000000000e+00 0.0000000000000000e+00  0.0000000000000000e+00 3.3375336446154097e-05 0.0000000000000000e+00  0.0000000000000000e+00 0.0000000000000000e+00 0.0000000000000000e+00  0.0000000000000000e+00 3.3384410571559312e-05 0.0000000000000000e+00  0.0000000000000000e+00 -6.7885318103116845e-04 0.0000000000000000e+00  0.0000000000000000e+00 -6.8073933742460895e-04 0.0000000000000000e+00  0.0000000000000000e+00 -6.8254179449725710e-04 0.0000000000000000e+00  0.0000000000000000e+00 -6.8425973380771630e-04 0.0000000000000000e+00  0.0000000000000000e+00 -6.8589292358661920e-04 0.0000000000000000e+00  0.0000000000000000e+00 -6.8744155569414815e-04 0.0000000000000000e+00  0.0000000000000000e+00 -6.8890616784256199e-04 0.0000000000000000e+00  0.0000000000000000e+00 -6.9028756667416477e-04 0.0000000000000000e+00  0.0000000000000000e+00 -6.9158673866915492e-04 0.0000000000000000e+00  0.0000000000000000e+00 -6.9280480220598479e-04 0.0000000000000000e+00  0.0000000000000000e+00 -6.9394300378845092e-04 0.0000000000000000e+00  0.0000000000000000e+00 -6.9500271937010679e-04 0.0000000000000000e+00  0.0000000000000000e+00 -6.9598543010773283e-04 0.0000000000000000e+00  0.0000000000000000e+00 -6.9689271512403286e-04 0.0000000000000000e+00  0.0000000000000000e+00 -6.9772632959669637e-04 0.0000000000000000e+00  0.0000000000000000e+00 -6.9848813674006636e-04 0.0000000000000000e+00  0.0000000000000000e+00 -6.9918008683849309e-04 0.0000000000000000e+00  0.0000000000000000e+00 -6.9980417250838718e-04 0.0000000000000000e+00  0.0000000000000000e+00 -7.0036223022535446e-04 0.0000000000000000e+00  0.0000000000000000e+00 -7.0085582229766834e-04 0.0000000000000000e+00  0.0000000000000000e+00 -7.0128595110946349e-04 0.0000000000000000e+00  0.0000000000000000e+00 -7.0165274253124806e-04 0.0000000000000000e+00  0.0000000000000000e+00 -7.0195518335042554e-04 0.0000000000000000e+00  0.0000000000000000e+00 -7.0182139199510829e-04 0.0000000000000000e+00  0.0000000000000000e+00 -7.0151825320902464e-04 0.0000000000000000e+00  0.0000000000000000e+00 -7.0115080356781428e-04 0.0000000000000000e+00  0.0000000000000000e+00 -7.0072008317155216e-04 0.0000000000000000e+00  0.0000000000000000e+00 -7.0022594510797871e-04 0.0000000000000000e+00  0.0000000000000000e+00 -6.9966740111436151e-04 0.0000000000000000e+00  0.0000000000000000e+00 -6.9904289103138863e-04 0.0000000000000000e+00  0.0000000000000000e+00 -6.9835056405816089e-04 0.0000000000000000e+00  0.0000000000000000e+00 -6.9758845932489319e-04 0.0000000000000000e+00  0.0000000000000000e+00 -6.9675458585618101e-04 0.0000000000000000e+00  0.0000000000000000e+00 -6.9584710503530238e-04 0.0000000000000000e+00  0.0000000000000000e+00 -6.9486425324379237e-04 0.0000000000000000e+00  0.0000000000000000e+00 -6.9380444790153543e-04 0.0000000000000000e+00  0.0000000000000000e+00 -6.9266618187013200e-04 0.0000000000000000e+00  0.0000000000000000e+00 -6.9144811086050491e-04 0.0000000000000000e+00  0.0000000000000000e+00 -6.9014900458111059e-04 0.0000000000000000e+00  0.0000000000000000e+00 -6.8876768430636446e-04 0.0000000000000000e+00  0.0000000000000000e+00 -6.8730319994309908e-04 0.0000000000000000e+00  0.0000000000000000e+00 -6.8575474973304692e-04 0.0000000000000000e+00  0.0000000000000000e+00 -6.8412178408088083e-04 0.0000000000000000e+00  0.0000000000000000e+00 -6.8240409530396172e-04 0.0000000000000000e+00  0.0000000000000000e+00 -6.8060196070669418e-04 0.0000000000000000e+00  0.0000000000000000e+00 -6.7871617303890514e-04 0.0000000000000000e+00  0.0000000000000000e+00 -6.9042362328386540e-04 0.0000000000000000e+00  0.0000000000000000e+00 -6.9303606046555841e-04 0.0000000000000000e+00  0.0000000000000000e+00 -6.9564553583834228e-04 0.0000000000000000e+00  0.0000000000000000e+00 -6.9833453405750167e-04 0.0000000000000000e+00  0.0000000000000000e+00 -7.0114138171782506e-04 0.0000000000000000e+00  0.0000000000000000e+00 -7.0408721482165205e-04 0.0000000000000000e+00  0.0000000000000000e+00 -7.0718983057092594e-04 0.0000000000000000e+00  0.0000000000000000e+00 -7.1046673055195398e-04 0.0000000000000000e+00  0.0000000000000000e+00 -7.1393335330479171e-04 0.0000000000000000e+00  0.0000000000000000e+00 -7.1761086504142123e-04 0.0000000000000000e+00  0.0000000000000000e+00 -7.2151971426632751e-04 0.0000000000000000e+00  0.0000000000000000e+00 -7.2568532438036903e-04 0.0000000000000000e+00  0.0000000000000000e+00 -7.3013737035907344e-04 0.0000000000000000e+00  0.0000000000000000e+00 -7.3491414216772641e-04 0.0000000000000000e+00  0.0000000000000000e+00 -7.4005743093501122e-04 0.0000000000000000e+00  0.0000000000000000e+00 -7.4562632340189618e-04 0.0000000000000000e+00  0.0000000000000000e+00 -7.5169412811153897e-04 0.0000000000000000e+00  0.0000000000000000e+00 -7.5836569679600576e-04 0.0000000000000000e+00  0.0000000000000000e+00 -7.6577933233758038e-04 0.0000000000000000e+00  0.0000000000000000e+00 -7.7414607947442744e-04 0.0000000000000000e+00  0.0000000000000000e+00 -7.8382666105959026e-04 0.0000000000000000e+00  0.0000000000000000e+00 -7.9542882332675209e-04 0.0000000000000000e+00  0.0000000000000000e+00 -8.1075782170362176e-04 0.0000000000000000e+00  -6.0997046318174020e-05 -9.5520362990703957e-04 0.0000000000000000e+00  -7.1439675543300070e-05 -1.0238962769961604e-03 0.0000000000000000e+00  -7.6194891078617424e-05 -1.0770459340483640e-03 0.0000000000000000e+00  -7.8222205164741991e-05 -1.1221249982279024e-03 0.0000000000000000e+00  -7.8520449117670788e-05 -1.1614851626984392e-03 0.0000000000000000e+00  -7.7640093015143651e-05 -1.1964135374202944e-03 0.0000000000000000e+00  -7.5916096954812285e-05 -1.2277117617758369e-03 0.0000000000000000e+00  -7.3528869867878647e-05 -1.2559196146988394e-03 0.0000000000000000e+00  -7.0648287290642019e-05 -1.2814487095819827e-03 0.0000000000000000e+00  -6.7356445149323717e-05 -1.3045797523362861e-03 0.0000000000000000e+00  -6.3733495322450544e-05 -1.3255412974164217e-03 0.0000000000000000e+00  -5.9835964575535709e-05 -1.3445110848595099e-03 0.0000000000000000e+00  -5.5708679178919820e-05 -1.3616325690705387e-03 0.0000000000000000e+00  -5.1387242803491947e-05 -1.3770208939260767e-03 0.0000000000000000e+00  -4.6903373158737330e-05 -1.3907713175794892e-03 0.0000000000000000e+00  -4.2281420252081226e-05 -1.4029623966423850e-03 0.0000000000000000e+00  -3.7542689253953046e-05 -1.4136588196289996e-03 0.0000000000000000e+00  -3.2706712659118182e-05 -1.4229143406805597e-03 0.0000000000000000e+00  -2.7789879839804621e-05 -1.4307730999674505e-03 0.0000000000000000e+00  -2.2807153475670453e-05 -1.4372711380852645e-03 0.0000000000000000e+00  -1.7771516604015076e-05 -1.4424366850528472e-03 0.0000000000000000e+00  -1.2695685777812532e-05 -1.4462922525225487e-03 0.0000000000000000e+00  -7.5926788707195612e-06 -1.4488540712030834e-03 0.0000000000000000e+00  -2.4723965197611705e-06 -1.4501323221789548e-03 0.0000000000000000e+00  2.6532692398001992e-06 -1.4501324781714359e-03 0.0000000000000000e+00  7.7735568309679383e-06 -1.4488545672398001e-03 0.0000000000000000e+00  1.2877677444830803e-05 -1.4462934126279188e-03 0.0000000000000000e+00  1.7953818924431687e-05 -1.4424383490631994e-03 0.0000000000000000e+00  2.2989713053937249e-05 -1.4372727875341183e-03 0.0000000000000000e+00  2.7974484759635882e-05 -1.4307755919897437e-03 0.0000000000000000e+00  3.2893026963032560e-05 -1.4229174680930985e-03 0.0000000000000000e+00  3.7730995816821757e-05 -1.4136625287858406e-03 0.0000000000000000e+00  4.2470362611344039e-05 -1.4029656099364021e-03 0.0000000000000000e+00  4.7095778716600048e-05 -1.3907755126265646e-03 0.0000000000000000e+00  5.1583148011331494e-05 -1.3770258458118201e-03 0.0000000000000000e+00  5.5907388011671680e-05 -1.3616380194175126e-03 0.0000000000000000e+00  6.0037100364321795e-05 -1.3445158524486587e-03 0.0000000000000000e+00  6.3941103138950441e-05 -1.3255474045803101e-03 0.0000000000000000e+00  6.7570486234308410e-05 -1.3045874231506129e-03 0.0000000000000000e+00  7.0863399053639663e-05 -1.2814548870694552e-03 0.0000000000000000e+00  7.3758482622314096e-05 -1.2559318455235241e-03 0.0000000000000000e+00  7.6146955767748324e-05 -1.2277188456781183e-03 0.0000000000000000e+00  7.7888211496613338e-05 -1.1964225701976150e-03 0.0000000000000000e+00  7.8774431846423003e-05 -1.1614924718961494e-03 0.0000000000000000e+00  7.8494991348309091e-05 -1.1221341947212377e-03 0.0000000000000000e+00  7.6479439950860381e-05 -1.0770399274673871e-03 0.0000000000000000e+00  7.1689820698002542e-05 -1.0237937223246171e-03 0.0000000000000000e+00  6.1178955949911287e-05 -9.5514422927945708e-04 0.0000000000000000e+00  0.0000000000000000e+00 -8.1046696074483409e-04 0.0000000000000000e+00  0.0000000000000000e+00 -7.9518048792457340e-04 0.0000000000000000e+00  0.0000000000000000e+00 -7.8360050561630487e-04 0.0000000000000000e+00  0.0000000000000000e+00 -7.7394485863983874e-04 0.0000000000000000e+00  0.0000000000000000e+00 -7.6558783382235217e-04 0.0000000000000000e+00  0.0000000000000000e+00 -7.5818695606517949e-04 0.0000000000000000e+00  0.0000000000000000e+00 -7.5152645934570815e-04 0.0000000000000000e+00  0.0000000000000000e+00 -7.4546384517943309e-04 0.0000000000000000e+00  0.0000000000000000e+00 -7.3990007397499002e-04 0.0000000000000000e+00  0.0000000000000000e+00 -7.3476249288013029e-04 0.0000000000000000e+00  0.0000000000000000e+00 -7.2999180261334713e-04 0.0000000000000000e+00  0.0000000000000000e+00 -7.2554353929892598e-04 0.0000000000000000e+00  0.0000000000000000e+00 -7.2138158023873477e-04 0.0000000000000000e+00  0.0000000000000000e+00 -7.1747686843592461e-04 0.0000000000000000e+00  0.0000000000000000e+00 -7.1380271532040017e-04 0.0000000000000000e+00  0.0000000000000000e+00 -7.1033858056401540e-04 0.0000000000000000e+00  0.0000000000000000e+00 -7.0706549870228421e-04 0.0000000000000000e+00  0.0000000000000000e+00 -7.0396543556690760e-04 0.0000000000000000e+00  0.0000000000000000e+00 -7.0102269198688938e-04 0.0000000000000000e+00  0.0000000000000000e+00 -6.9821971871270017e-04 0.0000000000000000e+00  0.0000000000000000e+00 -6.9553343164934346e-04 0.0000000000000000e+00  0.0000000000000000e+00 -6.9293052639579395e-04 0.0000000000000000e+00  0.0000000000000000e+00 -6.9032338492240532e-04 0.0000000000000000e+00  0.0000000000000000e+00 1.9497806548229634e-07 0.0000000000000000e+00  0.0000000000000000e+00 1.1375714370993908e-06 0.0000000000000000e+00  0.0000000000000000e+00 2.7375504373343844e-06 0.0000000000000000e+00  0.0000000000000000e+00 4.8847158899184797e-06 0.0000000000000000e+00  0.0000000000000000e+00 7.4664827661980879e-06 0.0000000000000000e+00  0.0000000000000000e+00 1.0363646990857244e-05 0.0000000000000000e+00  0.0000000000000000e+00 1.3447950590214127e-05 0.0000000000000000e+00  0.0000000000000000e+00 1.6602905918040055e-05 0.0000000000000000e+00  0.0000000000000000e+00 1.9710694307038281e-05 0.0000000000000000e+00  0.0000000000000000e+00 2.2664456450908482e-05 0.0000000000000000e+00  0.0000000000000000e+00 2.5371813158923427e-05 0.0000000000000000e+00  0.0000000000000000e+00 2.7754390824967711e-05 0.0000000000000000e+00  0.0000000000000000e+00 2.9749670681406614e-05 0.0000000000000000e+00  0.0000000000000000e+00 3.1321600026001189e-05 0.0000000000000000e+00  0.0000000000000000e+00 3.2456635476457225e-05 0.0000000000000000e+00  0.0000000000000000e+00 3.3169157629459697e-05 0.0000000000000000e+00  0.0000000000000000e+00 3.3503549925253210e-05 0.0000000000000000e+00  0.0000000000000000e+00 3.3536888769045798e-05 0.0000000000000000e+00  0.0000000000000000e+00 0.0000000000000000e+00 0.0000000000000000e+00  0.0000000000000000e+00 0.0000000000000000e+00 0.0000000000000000e+00  0.0000000000000000e+00 0.0000000000000000e+00 0.0000000000000000e+00  0.0000000000000000e+00 0.0000000000000000e+00 0.0000000000000000e+00  0.0000000000000000e+00 0.0000000000000000e+00 0.0000000000000000e+00  0.0000000000000000e+00 0.0000000000000000e+00 0.0000000000000000e+00  0.0000000000000000e+00 0.0000000000000000e+00 0.0000000000000000e+00  0.0000000000000000e+00 0.0000000000000000e+00 0.0000000000000000e+00  0.0000000000000000e+00 0.0000000000000000e+00 0.0000000000000000e+00  0.0000000000000000e+00 0.0000000000000000e+00 0.0000000000000000e+00  0.0000000000000000e+00 0.0000000000000000e+00 0.0000000000000000e+00  0.0000000000000000e+00 0.0000000000000000e+00 0.0000000000000000e+00  0.0000000000000000e+00 0.0000000000000000e+00 0.0000000000000000e+00  0.0000000000000000e+00 0.0000000000000000e+00 0.0000000000000000e+00  0.0000000000000000e+00 0.0000000000000000e+00 0.0000000000000000e+00  0.0000000000000000e+00 0.0000000000000000e+00 0.0000000000000000e+00  0.0000000000000000e+00 0.0000000000000000e+00 0.0000000000000000e+00  0.0000000000000000e+00 0.0000000000000000e+00 0.0000000000000000e+00  0.0000000000000000e+00 0.0000000000000000e+00 0.0000000000000000e+00  0.0000000000000000e+00 0.0000000000000000e+00 0.0000000000000000e+00  0.0000000000000000e+00 0.0000000000000000e+00 0.0000000000000000e+00  0.0000000000000000e+00 0.0000000000000000e+00 0.0000000000000000e+00  0.0000000000000000e+00 0.0000000000000000e+00 0.0000000000000000e+00  0.0000000000000000e+00 0.0000000000000000e+00 0.0000000000000000e+00  0.0000000000000000e+00 0.0000000000000000e+00 0.0000000000000000e+00  0.0000000000000000e+00 0.0000000000000000e+00 0.0000000000000000e+00  0.0000000000000000e+00 0.0000000000000000e+00 0.0000000000000000e+00  0.0000000000000000e+00 0.0000000000000000e+00 0.0000000000000000e+00  0.0000000000000000e+00 0.0000000000000000e+00 0.0000000000000000e+00  0.0000000000000000e+00 0.0000000000000000e+00 0.0000000000000000e+00  0.0000000000000000e+00 0.0000000000000000e+00 0.0000000000000000e+00  0.0000000000000000e+00 0.0000000000000000e+00 0.0000000000000000e+00  0.0000000000000000e+00 0.0000000000000000e+00 0.0000000000000000e+00  0.0000000000000000e+00 0.0000000000000000e+00 0.0000000000000000e+00  0.0000000000000000e+00 0.0000000000000000e+00 0.0000000000000000e+00  0.0000000000000000e+00 0.0000000000000000e+00 0.0000000000000000e+00  0.0000000000000000e+00 0.0000000000000000e+00 0.0000000000000000e+00  0.0000000000000000e+00 0.0000000000000000e+00 0.0000000000000000e+00  0.0000000000000000e+00 0.0000000000000000e+00 0.0000000000000000e+00  0.0000000000000000e+00 0.0000000000000000e+00 0.0000000000000000e+00  0.0000000000000000e+00 0.0000000000000000e+00 0.0000000000000000e+00  0.0000000000000000e+00 0.0000000000000000e+00 0.0000000000000000e+00  0.0000000000000000e+00 0.0000000000000000e+00 0.0000000000000000e+00  0.0000000000000000e+00 0.0000000000000000e+00 0.0000000000000000e+00  0.0000000000000000e+00 0.0000000000000000e+00 0.0000000000000000e+00  0.0000000000000000e+00 0.0000000000000000e+00 0.0000000000000000e+00  0.0000000000000000e+00 0.0000000000000000e+00 0.0000000000000000e+00  0.0000000000000000e+00 0.0000000000000000e+00 0.0000000000000000e+00  0.0000000000000000e+00 0.0000000000000000e+00 0.0000000000000000e+00  0.0000000000000000e+00 0.0000000000000000e+00 0.0000000000000000e+00  0.0000000000000000e+00 0.0000000000000000e+00 0.0000000000000000e+00  0.0000000000000000e+00 0.0000000000000000e+00 0.0000000000000000e+00  0.0000000000000000e+00 0.0000000000000000e+00 0.0000000000000000e+00  0.0000000000000000e+00 0.0000000000000000e+00 0.0000000000000000e+00  0.0000000000000000e+00 0.0000000000000000e+00 0.0000000000000000e+00  0.0000000000000000e+00 0.0000000000000000e+00 0.0000000000000000e+00  0.0000000000000000e+00 0.0000000000000000e+00 0.0000000000000000e+00  0.0000000000000000e+00 0.0000000000000000e+00 0.0000000000000000e+00  0.0000000000000000e+00 0.0000000000000000e+00 0.0000000000000000e+00  0.0000000000000000e+00 0.0000000000000000e+00 0.0000000000000000e+00  0.0000000000000000e+00 0.0000000000000000e+00 0.0000000000000000e+00  0.0000000000000000e+00 0.0000000000000000e+00 0.0000000000000000e+00  0.0000000000000000e+00 0.0000000000000000e+00 0.0000000000000000e+00  0.0000000000000000e+00 0.0000000000000000e+00 0.0000000000000000e+00  0.0000000000000000e+00 0.0000000000000000e+00 0.0000000000000000e+00  0.0000000000000000e+00 0.0000000000000000e+00 0.0000000000000000e+00  0.0000000000000000e+00 0.0000000000000000e+00 0.0000000000000000e+00  0.0000000000000000e+00 0.0000000000000000e+00 0.0000000000000000e+00  0.0000000000000000e+00 0.0000000000000000e+00 0.0000000000000000e+00  0.0000000000000000e+00 0.0000000000000000e+00 0.0000000000000000e+00  0.0000000000000000e+00 0.0000000000000000e+00 0.0000000000000000e+00  0.0000000000000000e+00 0.0000000000000000e+00 0.0000000000000000e+00  0.0000000000000000e+00 0.0000000000000000e+00 0.0000000000000000e+00  0.0000000000000000e+00 0.0000000000000000e+00 0.0000000000000000e+00  0.0000000000000000e+00 0.0000000000000000e+00 0.0000000000000000e+00  0.0000000000000000e+00 0.0000000000000000e+00 0.0000000000000000e+00  0.0000000000000000e+00 0.0000000000000000e+00 0.0000000000000000e+00  0.0000000000000000e+00 0.0000000000000000e+00 0.0000000000000000e+00  0.0000000000000000e+00 3.3545002905429747e-05 0.0000000000000000e+00  0.0000000000000000e+00 3.3511338483667058e-05 0.0000000000000000e+00  0.0000000000000000e+00 3.3176482473204843e-05 0.0000000000000000e+00  0.0000000000000000e+00 3.2462397962597516e-05 0.0000000000000000e+00  0.0000000000000000e+00 3.1326744127478363e-05 0.0000000000000000e+00  0.0000000000000000e+00 2.9754026601383328e-05 0.0000000000000000e+00  0.0000000000000000e+00 2.7757436602741132e-05 0.0000000000000000e+00  0.0000000000000000e+00 2.5374710649174474e-05 0.0000000000000000e+00  0.0000000000000000e+00 2.2667241411367606e-05 0.0000000000000000e+00  0.0000000000000000e+00 1.9711384404746825e-05 0.0000000000000000e+00  0.0000000000000000e+00 1.6602999919338157e-05 0.0000000000000000e+00  0.0000000000000000e+00 1.3449594142332678e-05 0.0000000000000000e+00  0.0000000000000000e+00 1.0363084514515043e-05 0.0000000000000000e+00  0.0000000000000000e+00 7.4672948914443720e-06 0.0000000000000000e+00  0.0000000000000000e+00 4.8844757660505602e-06 0.0000000000000000e+00  0.0000000000000000e+00 2.7365164143275997e-06 0.0000000000000000e+00  0.0000000000000000e+00 1.1369228939616005e-06 0.0000000000000000e+00  0.0000000000000000e+00 1.9462475320240227e-07 0.0000000000000000e+00  -1.2014087494670226e-05 -6.7627283807437965e-04 0.0000000000000000e+00  -2.4300178373915245e-05 -6.7437328647439393e-04 0.0000000000000000e+00  -3.6883750891026013e-05 -6.7106691638721904e-04 0.0000000000000000e+00  -4.9777084555346518e-05 -6.6619817865300592e-04 0.0000000000000000e+00  -6.2962866897743014e-05 -6.5957631884864512e-04 0.0000000000000000e+00  -7.6374475435715588e-05 -6.5098452882030044e-04 0.0000000000000000e+00  -8.9868006887616956e-05 -6.4020533215196807e-04 0.0000000000000000e+00  -1.0324910043963874e-04 -6.2705355440641978e-04 0.0000000000000000e+00  -1.1623563507957663e-04 -6.1141722720700327e-04 0.0000000000000000e+00  -1.2849750179141732e-04 -5.9329362782964336e-04 0.0000000000000000e+00  -1.3973717369184207e-04 -5.7279810096016353e-04 0.0000000000000000e+00  -1.4965577631490535e-04 -5.5016526417125478e-04 0.0000000000000000e+00  -1.5803117808233980e-04 -5.2572529643103434e-04 0.0000000000000000e+00  -1.6473394447267427e-04 -4.9987124896546200e-04 0.0000000000000000e+00  -1.6970177536235998e-04 -4.7300420116807960e-04 0.0000000000000000e+00  -1.7