<?xml version="1.0"?>
<VTKFile type="UnstructuredGrid"  version="0.1"  >
<UnstructuredGrid>
<Piece  NumberOfPoints="1250" NumberOfCells="2352">
<Points>
<DataArray  type="Float64"  NumberOfComponents="3"  format="ascii">0 0 0  0.0336 0 0  0.0336 0.07729999999999999 0  0 0.07729999999999999 0  0.001400000000000002 0 0  0.002800000000000005 0 0  0.004200000000000008 0 0  0.005600000000000009 0 0  0.007000000000000011 0 0  0.008400000000000013 0 0  0.009800000000000019 0 0  0.01120000000000002 0 0  0.01260000000000003 0 0  0.01400000000000003 0 0  0.01540000000000004 0 0  0.01680000000000005 0 0  0.01820000000000004 0 0  0.01960000000000004 0 0  0.02100000000000004 0 0  0.02240000000000003 0 0  0.02380000000000003 0 0  0.02520000000000002 0 0  0.02660000000000002 0 0  0.02800000000000001 0 0  0.02940000000000001 0 0  0.03080000000000001 0 0  0.0322 0 0  0.0336 0.001577551020408161 0  0.0336 0.003155102040816321 0  0.0336 0.004732653061224482 0  0.0336 0.006310204081632642 0  0.0336 0.007887755102040803 0  0.0336 0.009465306122448964 0  0.0336 0.01104285714285712 0  0.0336 0.01262040816326528 0  0.0336 0.01419795918367344 0  0.0336 0.0157755102040816 0  0.0336 0.01735306122448976 0  0.0336 0.01893061224489792 0  0.0336 0.02050816326530608 0  0.0336 0.02208571428571425 0  0.0336 0.02366326530612241 0  0.0336 0.02524081632653058 0  0.0336 0.02681836734693874 0  0.0336 0.02839591836734691 0  0.0336 0.02997346938775507 0  0.0336 0.03155102040816323 0  0.0336 0.0331285714285714 0  0.0336 0.03470612244897956 0  0.0336 0.03628367346938772 0  0.0336 0.03786122448979588 0  0.0336 0.03943877551020405 0  0.0336 0.04101632653061221 0  0.0336 0.04259387755102037 0  0.0336 0.04417142857142854 0  0.0336 0.04574897959183671 0  0.0336 0.04732653061224486 0  0.0336 0.04890408163265302 0  0.0336 0.05048163265306119 0  0.0336 0.05205918367346936 0  0.0336 0.05363673469387752 0  0.0336 0.05521428571428568 0  0.0336 0.05679183673469385 0  0.0336 0.05836938775510202 0  0.0336 0.05994693877551018 0  0.0336 0.06152448979591834 0  0.0336 0.0631020408163265 0  0.0336 0.06467959183673468 0  0.0336 0.06625714285714283 0  0.0336 0.06783469387755101 0  0.0336 0.06941224489795916 0  0.0336 0.07098979591836733 0  0.0336 0.07256734693877549 0  0.0336 0.07414489795918365 0  0.0336 0.07572244897959182 0  0.03219999999999999 0.07729999999999999 0  0.03079999999999999 0.07729999999999999 0  0.02939999999999999 0.07729999999999999 0  0.02799999999999999 0.07729999999999999 0  0.02659999999999999 0.07729999999999999 0  0.02519999999999999 0.07729999999999999 0  0.02379999999999998 0.07729999999999999 0  0.02239999999999998 0.07729999999999999 0  0.02099999999999997 0.07729999999999999 0  0.01959999999999996 0.07729999999999999 0  0.01819999999999996 0.07729999999999999 0  0.01679999999999995 0.07729999999999999 0  0.01539999999999996 0.07729999999999999 0  0.01399999999999996 0.07729999999999999 0  0.01259999999999996 0.07729999999999999 0  0.01119999999999997 0.07729999999999999 0  0.009799999999999972 0.07729999999999999 0  0.008399999999999977 0.07729999999999999 0  0.006999999999999978 0.07729999999999999 0  0.005599999999999983 0.07729999999999999 0  0.004199999999999988 0.07729999999999999 0  0.00279999999999999 0.07729999999999999 0  0.001399999999999998 0.07729999999999999 0  0 0.07572244897959184 0  0 0.07414489795918368 0  0 0.07256734693877551 0  0 0.07098979591836735 0  0 0.06941224489795919 0  0 0.06783469387755103 0  0 0.06625714285714288 0  0 0.06467959183673472 0  0 0.06310204081632656 0  0 0.0615244897959184 0  0 0.05994693877551023 0  0 0.05836938775510207 0  0 0.05679183673469392 0  0 0.05521428571428574 0  0 0.05363673469387759 0  0 0.05205918367346941 0  0 0.05048163265306126 0  0 0.04890408163265308 0  0 0.04732653061224493 0  0 0.04574897959183676 0  0 0.0441714285714286 0  0 0.04259387755102043 0  0 0.04101632653061228 0  0 0.03943877551020411 0  0 0.03786122448979595 0  0 0.03628367346938779 0  0 0.03470612244897962 0  0 0.03312857142857146 0  0 0.03155102040816329 0  0 0.02997346938775513 0  0 0.02839591836734697 0  0 0.0268183673469388 0  0 0.02524081632653064 0  0 0.02366326530612247 0  0 0.02208571428571431 0  0 0.02050816326530614 0  0 0.01893061224489798 0  0 0.01735306122448981 0  0 0.01577551020408165 0  0 0.01419795918367349 0  0 0.01262040816326532 0  0 0.01104285714285716 0  0 0.009465306122448988 0  0 0.00788775510204083 0  0 0.006310204081632659 0  0 0.004732653061224501 0  0 0.003155102040816343 0  0 0.001577551020408172 0  0.001400000000000004 0.001577551020408172 0  0.001400000000000004 0.003155102040816329 0  0.001400000000000002 0.004732653061224501 0  0.001400000000000002 0.006310204081632645 0  0.001400000000000005 0.007887755102040823 0  0.001400000000000002 0.009465306122448981 0  0.001400000000000002 0.01104285714285717 0  0.001400000000000004 0.01262040816326531 0  0.0014 0.01419795918367349 0  0.001400000000000002 0.01577551020408166 0  0.001400000000000005 0.0173530612244898 0  0.001400000000000002 0.01893061224489797 0  0.001400000000000002 0.02050816326530613 0  0.001400000000000002 0.02208571428571431 0  0.001400000000000002 0.02366326530612247 0  0.001400000000000002 0.02524081632653063 0  0.001400000000000002 0.0268183673469388 0  0.001400000000000002 0.02839591836734696 0  0.001400000000000002 0.02997346938775513 0  0.001400000000000002 0.03155102040816328 0  0.001400000000000002 0.03312857142857147 0  0.001399999999999997 0.03470612244897962 0  0.001400000000000005 0.03628367346938778 0  0.001400000000000002 0.03786122448979594 0  0.001400000000000002 0.03943877551020411 0  0.001400000000000002 0.04101632653061228 0  0.001400000000000002 0.04259387755102043 0  0.001400000000000002 0.0441714285714286 0  0.0014 0.04574897959183676 0  0.001400000000000002 0.04732653061224492 0  0.001400000000000004 0.04890408163265308 0  0.001400000000000002 0.05048163265306126 0  0.001400000000000002 0.05205918367346941 0  0.0014 0.05363673469387758 0  0.001400000000000004 0.05521428571428574 0  0.001399999999999998 0.05679183673469391 0  0.001400000000000002 0.05836938775510207 0  0.0014 0.05994693877551023 0  0.001400000000000002 0.0615244897959184 0  0.001400000000000002 0.06310204081632656 0  0.001400000000000002 0.06467959183673472 0  0.0014 0.06625714285714286 0  0.001400000000000002 0.06783469387755102 0  0.001399999999999998 0.06941224489795919 0  0.001400000000000002 0.07098979591836735 0  0.0014 0.07256734693877552 0  0.001400000000000002 0.07414489795918368 0  0.001400000000000002 0.07572244897959184 0  0.002800000000000006 0.001577551020408165 0  0.002800000000000004 0.003155102040816343 0  0.002800000000000002 0.004732653061224487 0  0.002800000000000002 0.006310204081632652 0  0.002800000000000002 0.007887755102040813 0  0.0028 0.009465306122448981 0  0.002799999999999997 0.01104285714285715 0  0.0028 0.01262040816326532 0  0.0028 0.01419795918367348 0  0.0028 0.01577551020408165 0  0.002799999999999997 0.0173530612244898 0  0.0028 0.01893061224489797 0  0.002800000000000004 0.02050816326530613 0  0.0028 0.0220857142857143 0  0.0028 0.02366326530612247 0  0.002800000000000004 0.02524081632653064 0  0.0028 0.0268183673469388 0  0.0028 0.02839591836734696 0  0.002799999999999995 0.02997346938775512 0  0.002799999999999997 0.03155102040816328 0  0.002799999999999995 0.03312857142857146 0  0.0028 0.03470612244897962 0  0.002799999999999995 0.03628367346938778 0  0.002799999999999997 0.03786122448979594 0  0.002799999999999997 0.03943877551020411 0  0.002799999999999997 0.04101632653061228 0  0.002799999999999997 0.04259387755102043 0  0.002799999999999995 0.0441714285714286 0  0.002799999999999997 0.04574897959183676 0  0.002799999999999997 0.04732653061224493 0  0.002799999999999995 0.04890408163265308 0  0.002799999999999993 0.05048163265306124 0  0.002799999999999995 0.05205918367346941 0  0.002799999999999995 0.05363673469387757 0  0.002799999999999992 0.05521428571428574 0  0.002799999999999997 0.05679183673469391 0  0.002799999999999993 0.05836938775510207 0  0.002799999999999993 0.05994693877551022 0  0.002799999999999992 0.0615244897959184 0  0.002799999999999988 0.06310204081632655 0  0.002799999999999992 0.0646795918367347 0  0.002799999999999992 0.06625714285714286 0  0.00279999999999999 0.06783469387755103 0  0.00279999999999999 0.06941224489795919 0  0.002799999999999988 0.07098979591836735 0  0.00279999999999999 0.07256734693877552 0  0.002799999999999988 0.07414489795918368 0  0.00279999999999999 0.07572244897959184 0  0.004200000000000006 0.001577551020408172 0  0.004200000000000006 0.003155102040816329 0  0.004200000000000008 0.00473265306122448 0  0.004200000000000009 0.006310204081632652 0  0.004200000000000008 0.00788775510204082 0  0.004200000000000008 0.009465306122448978 0  0.004200000000000006 0.01104285714285716 0  0.004200000000000006 0.01262040816326532 0  0.004200000000000004 0.01419795918367349 0  0.004200000000000002 0.01577551020408165 0  0.004200000000000004 0.0173530612244898 0  0.004200000000000006 0.01893061224489797 0  0.004200000000000006 0.02050816326530613 0  0.004200000000000002 0.0220857142857143 0  0.004200000000000004 0.02366326530612247 0  0.004199999999999999 0.02524081632653062 0  0.004200000000000004 0.0268183673469388 0  0.004200000000000004 0.02839591836734696 0  0.004200000000000002 0.02997346938775512 0  0.004199999999999999 0.03155102040816328 0  0.004200000000000001 0.03312857142857145 0  0.004200000000000001 0.03470612244897962 0  0.004199999999999995 0.03628367346938778 0  0.004199999999999999 0.03786122448979594 0  0.004199999999999999 0.0394387755102041 0  0.004199999999999997 0.04101632653061227 0  0.004199999999999999 0.04259387755102043 0  0.004199999999999999 0.04417142857142859 0  0.004199999999999999 0.04574897959183676 0  0.004199999999999999 0.04732653061224492 0  0.004199999999999997 0.04890408163265308 0  0.004199999999999997 0.05048163265306124 0  0.004199999999999999 0.05205918367346941 0  0.004199999999999992 0.05363673469387757 0  0.0
[...]
<PointData  Vectors="displacement"> 
<DataArray  type="Float64"  Name="displacement"  NumberOfComponents="3" format="ascii">0.0000000000000000e+00 0.0000000000000000e+00 0.0000000000000000e+00  0.0000000000000000e+00 0.0000000000000000e+00 0.0000000000000000e+00  1.0085664463901472e-02 -8.3690583666652316e-02 0.0000000000000000e+00  -9.8074686672214775e-03 -8.3635779907129559e-02 0.0000000000000000e+00  0.0000000000000000e+00 0.0000000000000000e+00 0.0000000000000000e+00  0.0000000000000000e+00 0.0000000000000000e+00 0.0000000000000000e+00  0.0000000000000000e+00 0.0000000000000000e+00 0.0000000000000000e+00  0.0000000000000000e+00 0.0000000000000000e+00 0.0000000000000000e+00  0.0000000000000000e+00 0.0000000000000000e+00 0.0000000000000000e+00  0.0000000000000000e+00 0.0000000000000000e+00 0.0000000000000000e+00  0.0000000000000000e+00 0.0000000000000000e+00 0.0000000000000000e+00  0.0000000000000000e+00 0.0000000000000000e+00 0.0000000000000000e+00  0.0000000000000000e+00 0.0000000000000000e+00 0.0000000000000000e+00  0.0000000000000000e+00 0.0000000000000000e+00 0.0000000000000000e+00  0.0000000000000000e+00 0.0000000000000000e+00 0.0000000000000000e+00  0.0000000000000000e+00 0.0000000000000000e+00 0.0000000000000000e+00  0.0000000000000000e+00 0.0000000000000000e+00 0.0000000000000000e+00  0.0000000000000000e+00 0.0000000000000000e+00 0.0000000000000000e+00  0.0000000000000000e+00 0.0000000000000000e+00 0.0000000000000000e+00  0.0000000000000000e+00 0.0000000000000000e+00 0.0000000000000000e+00  0.0000000000000000e+00 0.0000000000000000e+00 0.0000000000000000e+00  0.0000000000000000e+00 0.0000000000000000e+00 0.0000000000000000e+00  0.0000000000000000e+00 0.0000000000000000e+00 0.0000000000000000e+00  0.0000000000000000e+00 0.0000000000000000e+00 0.0000000000000000e+00  0.0000000000000000e+00 0.0000000000000000e+00 0.0000000000000000e+00  0.0000000000000000e+00 0.0000000000000000e+00 0.0000000000000000e+00  0.0000000000000000e+00 0.0000000000000000e+00 0.0000000000000000e+00  3.3616964553835598e-03 -3.1664933927497271e-03 0.0000000000000000e+00  5.1206449294028573e-03 -4.9018858664427768e-03 0.0000000000000000e+00  6.3672594570178091e-03 -6.4524728482031959e-03 0.0000000000000000e+00  7.3047683049813402e-03 -7.9393908572807006e-03 0.0000000000000000e+00  8.0220172938997893e-03 -9.4056571182767907e-03 0.0000000000000000e+00  8.5730892726014057e-03 -1.0873449307527963e-02 0.0000000000000000e+00  8.9955344972799146e-03 -1.2354954154163251e-02 0.0000000000000000e+00  9.3172583164743885e-03 -1.3856698544029971e-02 0.0000000000000000e+00  9.5597979476037837e-03 -1.5381789160523891e-02 0.0000000000000000e+00  9.7401440485398606e-03 -1.6931188754874441e-02 0.0000000000000000e+00  9.8718614967554519e-03 -1.8504498850789607e-02 0.0000000000000000e+00  9.9658368532622860e-03 -2.0100469215480220e-02 0.0000000000000000e+00  1.0030811881706476e-02 -2.1717343403005407e-02 0.0000000000000000e+00  1.0073786014217465e-02 -2.3353098496766329e-02 0.0000000000000000e+00  1.0100333049848207e-02 -2.5005612387621393e-02 0.0000000000000000e+00  1.0114857881398013e-02 -2.6672779226900444e-02 0.0000000000000000e+00  1.0120808576973311e-02 -2.8352586805593140e-02 0.0000000000000000e+00  1.0120853392302242e-02 -3.0043165623549771e-02 0.0000000000000000e+00  1.0117029087642978e-02 -3.1742816922220189e-02 0.0000000000000000e+00  1.0110865117262040e-02 -3.3450025267021025e-02 0.0000000000000000e+00  1.0103487218469568e-02 -3.5163460033144821e-02 0.0000000000000000e+00  1.0095703299544253e-02 -3.6881969196079827e-02 0.0000000000000000e+00  1.0088074116110941e-02 -3.8604568065602342e-02 0.0000000000000000e+00  1.0080970926948554e-02 -4.0330424981828462e-02 0.0000000000000000e+00  1.0074622076747640e-02 -4.2058845486439997e-02 0.0000000000000000e+00  1.0069150237463197e-02 -4.3789256073010978e-02 0.0000000000000000e+00  1.0064601839639429e-02 -4.5521188293255299e-02 0.0000000000000000e+00  1.0060970036465881e-02 -4.7254263738785232e-02 0.0000000000000000e+00  1.0058212366127542e-02 -4.8988180219637134e-02 0.0000000000000000e+00  1.0056264113373405e-02 -5.0722699311404065e-02 0.0000000000000000e+00  1.0055048220456518e-02 -5.2457635333348358e-02 0.0000000000000000e+00  1.0054482461613298e-02 -5.4192845742459667e-02 0.0000000000000000e+00  1.0054484474431637e-02 -5.5928222876265705e-02 0.0000000000000000e+00  1.0054975135626101e-02 -5.7663686944530064e-02 0.0000000000000000e+00  1.0055880677289122e-02 -5.9399180152046267e-02 0.0000000000000000e+00  1.0057133861686563e-02 -6.1134661827705272e-02 0.0000000000000000e+00  1.0058674467003205e-02 -6.2870104435844121e-02 0.0000000000000000e+00  1.0060449281952271e-02 -6.4605490352256420e-02 0.0000000000000000e+00  1.0062411762734659e-02 -6.6340809297451328e-02 0.0000000000000000e+00  1.0064521470575497e-02 -6.8076056332636165e-02 0.0000000000000000e+00  1.0066743381485560e-02 -6.9811230338800670e-02 0.0000000000000000e+00  1.0069047142268023e-02 -7.1546332916008287e-02 0.0000000000000000e+00  1.0071406339850793e-02 -7.3281367658781377e-02 0.0000000000000000e+00  1.0073797859540908e-02 -7.5016339784885339e-02 0.0000000000000000e+00  1.0076201443289301e-02 -7.6751256119438546e-02 0.0000000000000000e+00  1.0078599650847207e-02 -7.8486125463690534e-02 0.0000000000000000e+00  1.0080978668285223e-02 -8.0220959389757304e-02 0.0000000000000000e+00  1.0083331190684931e-02 -8.1955773233175530e-02 0.0000000000000000e+00  9.2566671051171855e-03 -8.3688516511010683e-02 0.0000000000000000e+00  8.4276711728133204e-03 -8.3686462812676693e-02 0.0000000000000000e+00  7.5986879831908029e-03 -8.3684429472898156e-02 0.0000000000000000e+00  6.7697281923770293e-03 -8.3682412056775068e-02 0.0000000000000000e+00  5.9407986746350810e-03 -8.3680400896266868e-02 0.0000000000000000e+00  5.1119026752727507e-03 -8.3678384298234543e-02 0.0000000000000000e+00  4.2830403936668241e-03 -8.3676350287761950e-02 0.0000000000000000e+00  3.4542095707043590e-03 -8.3674287658575874e-02 0.0000000000000000e+00  2.6254060224063951e-03 -8.3672186635876875e-02 0.0000000000000000e+00  1.7966241140807992e-03 -8.3670039297432178e-02 0.0000000000000000e+00  9.6785717883726891e-04 -8.3667839835780050e-02 0.0000000000000000e+00  1.3909788954964055e-04 -8.3665584713468744e-02 0.0000000000000000e+00  -6.8966140257869753e-04 -8.3663272744084707e-02 0.0000000000000000e+00  -1.5184283468568640e-03 -8.3660905117473122e-02 0.0000000000000000e+00  -2.3472102719080852e-03 -8.3658485375108907e-02 0.0000000000000000e+00  -3.1760138469888429e-03 -8.3656019329674355e-02 0.0000000000000000e+00  -4.0048447098442923e-03 -8.3653514910459775e-02 0.0000000000000000e+00  -4.8337070479670795e-03 -8.3650981901812665e-02 0.0000000000000000e+00  -5.6626031242342795e-03 -8.3648431522517441e-02 0.0000000000000000e+00  -6.4915327432453979e-03 -8.3645875762144412e-02 0.0000000000000000e+00  -7.3204926640138331e-03 -8.3643326323832035e-02 0.0000000000000000e+00  -8.1494760106041210e-03 -8.3640792853846332e-02 0.0000000000000000e+00  -8.9784720570002027e-03 -8.3638279722108272e-02 0.0000000000000000e+00  -9.8102817418270170e-03 -8.1900968891594164e-02 0.0000000000000000e+00  -9.8130755645445284e-03 -8.0166155157577759e-02 0.0000000000000000e+00  -9.8158429979337720e-03 -7.8431321308780666e-02 0.0000000000000000e+00  -9.8185912003348839e-03 -7.6696452016381061e-02 0.0000000000000000e+00  -9.8213339761625759e-03 -7.4961535716004293e-02 0.0000000000000000e+00  -9.8240887887158547e-03 -7.3226563613825665e-02 0.0000000000000000e+00  -9.8268759146034907e-03 -7.1491528891280770e-02 0.0000000000000000e+00  -9.8297184796131074e-03 -6.9756426336467919e-02 0.0000000000000000e+00  -9.8326429020834712e-03 -6.8021252360536924e-02 0.0000000000000000e+00  -9.8356795360200495e-03 -6.6286005369440154e-02 0.0000000000000000e+00  -9.8388634024394166e-03 -6.4550686489062620e-02 0.0000000000000000e+00  -9.8422349334761523e-03 -6.2815300666466928e-02 0.0000000000000000e+00  -9.8458406623057777e-03 -6.1079858191423725e-02 0.0000000000000000e+00  -9.8497337849367071e-03 -5.9344376701194509e-02 0.0000000000000000e+00  -9.8539745022405562e-03 -5.7608883748267010e-02 0.0000000000000000e+00  -9.8586300239602506e-03 -5.5873420025675198e-02 0.0000000000000000e+00  -9.8637740811232475e-03 -5.4138043357453321e-02 0.0000000000000000e+00  -9.8694857487906483e-03 -5.2402833572022016e-02 0.0000000000000000e+00  -9.8758473264877102e-03 -5.0667898382728123e-02 0.0000000000000000e+00  -9.8829409578601243e-03 -4.8933380400648034e-02 0.0000000000000000e+00  -9.8908435928999981e-03 -4.7199465397797014e-02 0.0000000000000000e+00  -9.8996198043404537e-03 -4.5466391921011658e-02 0.0000000000000000e+00  -9.9093118635688003e-03 -4.3734462324129725e-02 0.0000000000000000e+00  -9.9199263599862222e-03 -4.2004055233898510e-02 0.0000000000000000e+00  -9.9314165109239787e-03 -4.0275639387485067e-02 0.0000000000000000e+00  -9.9436591572983988e-03 -3.8549788669645604e-02 0.0000000000000000e+00  -9.9564252739864408e-03 -3.6827198027503207e-02 0.0000000000000000e+00  -9.9693426446176448e-03 -3.5108699741314635e-02 0.0000000000000000e+00  -9.9818491591154180e-03 -3.3395279270295876e-02 0.0000000000000000e+00  -9.9931349884920320e-03 -3.1688089562083903e-02 0.0000000000000000e+00  -1.0002071670960696e-02 -2.9988462299866341e-02 0.0000000000000000e+00  -1.0007125894151914e-02 -2.8297914047403273e-02 0.0000000000000000e+00  -1.0006255452193214e-02 -2.6618144619145578e-02 0.0000000000000000e+00  -9.9967844369581414e-03 -2.4951024220333327e-02 0.0000000000000000e+00  -9.9752540820960099e-03 -2.3298564918547177e-02 0.0000000000000000e+00  -9.9372446190005275e-03 -2.1662870726742677e-02 0.0000000000000000e+00  -9.8771616704077490e-03 -2.0046058809375905e-02 0.0000000000000000e+00  -9.7879774621654567e-03 -1.8450141693533192e-02 0.0000000000000000e+00  -9.6609113163111295e-03 -1.6876856127258248e-02 0.0000000000000000e+00  -9.4850233218192765e-03 -1.5327416858012699e-02 0.0000000000000000e+00  -9.2466754811851831e-03 -1.3802159935943194e-02 0.0000000000000000e+00  -8.9287770490690792e-03 -1.2300013201427842e-02 0.0000000000000000e+00  -8.5096555962148289e-03 -1.0817674702993949e-02 0.0000000000000000e+00  -7.9612410423207138e-03 -9.3482536455630136e-03 0.0000000000000000e+00  -7.2459273507209081e-03 -7.8788977928637566e-03 0.0000000000000000e+00  -6.3104272292432134e-03 -6.3869557321410775e-03 0.0000000000000000e+00  -5.0669545010811516e-03 -4.8342027059740640e-03 0.0000000000000000e+00  -3.2875200607539587e-03 -3.1139932434295719e-03 0.0000000000000000e+00  -2.3323543442332795e-03 -1.8024740685434611e-03 0.0000000000000000e+00  -4.2161714305730237e-03 -3.7467028700107737e-03 0.0000000000000000e+00  -5.5358185771028972e-03 -5.5263275893507879e-03 0.0000000000000000e+00  -6.5032305932413688e-03 -7.1947236397179827e-03 0.0000000000000000e+00  -7.2306233219310585e-03 -8.8052861350884203e-03 0.0000000000000000e+00  -7.7810908347523263e-03 -1.0388852490271612e-02 0.0000000000000000e+00  -8.1966431903362797e-03 -1.1963605297855310e-02 0.0000000000000000e+00  -8.5078135134480579e-03 -1.3540510109095325e-02 0.0000000000000000e+00  -8.7377923390404098e-03 -1.5126077873061854e-02 0.0000000000000000e+00  -8.9046410271967323e-03 -1.6723953474736861e-02 0.0000000000000000e+00  -9.0226244129763301e-03 -1.8335900009689491e-02 0.0000000000000000e+00  -9.1030820745543889e-03 -1.9962439077774112e-02 0.0000000000000000e+00  -9.1550390571809373e-03 -2.1603282882656966e-02 0.0000000000000000e+00  -9.1856593684353539e-03 -2.3257633316633067e-02 0.0000000000000000e+00  -9.2005980360374568e-03 -2.4924391830900654e-02 0.0000000000000000e+00  -9.2042831894205163e-03 -2.6602307040768283e-02 0.0000000000000000e+00  -9.2001467122507855e-03 -2.8290077588743384e-02 0.0000000000000000e+00  -9.1908149853909341e-03 -2.9986422261686276e-02 0.0000000000000000e+00  -9.1782673466692284e-03 -3.1690125942113810e-02 0.0000000000000000e+00  -9.1639676981145769e-03 -3.3400067738247108e-02 0.0000000000000000e+00  -9.1489734176549813e-03 -3.5115236089180581e-02 0.0000000000000000e+00  -9.1340249554645765e-03 -3.6834734514049797e-02 0.0000000000000000e+00  -9.1196189819136766e-03 -3.8557780820274785e-02 0.0000000000000000e+00  -9.1060675783752876e-03 -4.0283701922204158e-02 0.0000000000000000e+00  -9.0935456580348937e-03 -4.2011925897979162e-02 0.0000000000000000e+00  -9.0821285387174093e-03 -4.3741972497462776e-02 0.0000000000000000e+00  -9.0718213488874960e-03 -4.5473442985820206e-02 0.0000000000000000e+00  -9.0625817258512646e-03 -4.7206009949550119e-02 0.0000000000000000e+00  -9.0543370604768084e-03 -4.8939407491589856e-02 0.0000000000000000e+00  -9.0469973557495351e-03 -5.0673422088958454e-02 0.0000000000000000e+00  -9.0404645977567744e-03 -5.2407884271361296e-02 0.0000000000000000e+00  -9.0346393875093065e-03 -5.4142661194727999e-02 0.0000000000000000e+00  -9.0294254501227782e-03 -5.5877650123475918e-02 0.0000000000000000e+00  -9.0247325235772516e-03 -5.7612772794085741e-02 0.0000000000000000e+00  -9.0204780314475912e-03 -5.9347970605996232e-02 0.0000000000000000e+00  -9.0165878612966030e-03 -6.1083200570319754e-02 0.0000000000000000e+00  -9.0129965013705723e-03 -6.2818431939612257e-02 0.0000000000000000e+00  -9.0096467313486115e-03 -6.4553643440648886e-02 0.0000000000000000e+00  -9.0064890168118951e-03 -6.6288821035135892e-02 0.0000000000000000e+00  -9.0034807207006271e-03 -6.8023956139172836e-02 0.0000000000000000e+00  -9.0005852176652280e-03 -6.9759044240026033e-02 0.0000000000000000e+00  -8.9977709790730089e-03 -7.1494083857423035e-02 0.0000000000000000e+00  -8.9950106893237382e-03 -7.3229075804982766e-02 0.0000000000000000e+00  -8.9922804634314079e-03 -7.4964022713483763e-02 0.0000000000000000e+00  -8.9895592755815726e-03 -7.6698928776654643e-02 0.0000000000000000e+00  -8.9868288158242958e-03 -7.8433799659380063e-02 0.0000000000000000e+00  -8.9840742622176867e-03 -8.0168642445151997e-02 0.0000000000000000e+00  -8.9812870578385058e-03 -8.1903465525978547e-02 0.0000000000000000e+00  -1.7818183835047823e-03 -1.4392070667545453e-03 0.0000000000000000e+00  -3.4438698037626159e-03 -3.1462332021172869e-03 0.0000000000000000e+00  -4.7440358723615950e-03 -4.9060252929121993e-03 0.0000000000000000e+00  -5.7233218774110700e-03 -6.6322879840376965e-03 0.0000000000000000e+00  -6.4605716452655988e-03 -8.3194269402834808e-03 0.0000000000000000e+00  -7.0157402655842598e-03 -9.9792819201241847e-03 0.0000000000000000e+00  -7.4318244272915052e-03 -1.1623788567429136e-02 0.0000000000000000e+00  -7.7406318672266243e-03 -1.3262053321334816e-02 0.0000000000000000e+00  -7.9664099649900261e-03 -1.4900427820314281e-02 0.0000000000000000e+00  -8.1280158301545984e-03 -1.6543080935259320e-02 0.0000000000000000e+00  -8.2402871245691768e-03 -1.8192558529352462e-02 0.0000000000000000e+00  -8.3149620322391874e-03 -1.9850236772498600e-02 0.0000000000000000e+00  -8.3613325164842989e-03 -2.1516669190787357e-02 0.0000000000000000e+00  -8.3867316589516135e-03 -2.3191846775639513e-02 0.0000000000000000e+00  -8.3969119001155498e-03 -2.4875390776145482e-02 0.0000000000000000e+00  -8.3963471961315539e-03 -2.6566694179475488e-02 0.0000000000000000e+00  -8.3884789935286738e-03 -2.8265024218001946e-02 0.0000000000000000e+00  -8.3759186012076492e-03 -2.9969595310066391e-02 0.0000000000000000e+00  -8.3606143995891696e-03 -3.1679619630344755e-02 0.0000000000000000e+00  -8.3439899466401287e-03 -3.3394340850271272e-02 0.0000000000000000e+00  -8.3270576310962210e-03 -3.5113055335772289e-02 0.0000000000000000e+00  -8.3105116445904344e-03 -3.6835124125972389e-02 0.0000000000000000e+00  -8.2948034525681547e-03 -3.8559978265156863e-02 0.0000000000000000e+00  -8.2802025058138079e-03 -4.0287119468509644e-02 0.0000000000000000e+00  -8.2668445798616211e-03 -4.2016117633628898e-02 0.0000000000000000e+00  -8.2547698231730960e-03 -4.3746606338519699e-02 0.0000000000000000e+00  -8.2439523202372661e-03 -4.5478277173308060e-02 0.0000000000000000e+00  -8.2343227258651688e-03 -4.7210873522319910e-02 0.0000000000000000e+00  -8.2257852996161888e-03 -4.8944184233495378e-02 0.0000000000000000e+00  -8.2182304639962286e-03 -5.0678037473639484e-02 0.0000000000000000e+00  -8.2115438266940309e-03 -5.2412294962742939e-02 0.0000000000000000e+00  -8.2056124453303795e-03 -5.4146846701920950e-02 0.0000000000000000e+00  -8.2003289722344785e-03 -5.5881606251918445e-02 0.0000000000000000e+00  -8.1955941954558083e-03 -5.7616506578108038e-02 0.0000000000000000e+00  -8.1913183890817316e-03 -5.9351496449734788e-02 0.0000000000000000e+00  -8.1874217992703984e-03 -6.1086537362835890e-02 0.0000000000000000e+00  -8.1838345204737692e-03 -6.2821600945340464e-02 0.0000000000000000e+00  -8.1804959573992045e-03 -6.4556666797366741e-02 0.0000000000000000e+00  -8.1773540207973720e-03 -6.6291720718121575e-02 0.0000000000000000e+00  -8.1743641679134487e-03 -6.8026753271761428e-02 0.0000000000000000e+00  -8.1714883706477427e-03 -6.9761758647005526e-02 0.0000000000000000e+00  -8.1686940762459980e-03 -7.1496733768149301e-02 0.0000000000000000e+00  -8.1659532183458918e-03 -7.3231677617372065e-02 0.0000000000000000e+00  -8.1632413450742122e-03 -7.4966590729023869e-02 0.0000000000000000e+00  -8.1605369657913041e-03 -7.6701474817138710e-02 0.0000000000000000e+00  -8.1578212969926917e-03 -7.8436332512297549e-02 0.0000000000000000e+00  -8.1550787194482298e-03 -8.0171167292997600e-02 0.0000000000000000e+00  -8.1522982919644688e-03 -8.1905984178765170e-02 0.0000000000000000e+00  -1.4390355872859932e-03 -1.3080282174973482e-03 0.0000000000000000e+00  -2.8375477257334011e-03 -2.8437491663838091e-03 0.0000000000000000e+00  -4.0235042227760170e-03 -4.5082482226347573e-03 0.0000000000000000e+00  -4.9627804454636520e-03 -6.2135044679451313e-03 0.0000000000000000e+00  -5.6862479961782694e-03 -7.9204729251375217e-03 0.0000000000000000e+00  -6.2357913126959968e-03 -9.6183588623657158e-03 0.0000000000000000e+00  -6.6483687725954104e-03 -1.1307186006610244e-02 0.0000000000000000e+00  -6.9538797171228225e-03 -1.2990094644029825e-02 0.0000000000000000e+00  -7.1760883941480247e-03 -1.4670524739901620e-02 0.0000000000000000e+00  -7.3338554223445814e-03 -1.6351320362165501e-02 0.0000000000000000e+00  -7.4421644620562988e-03 -1.8034545141383269e-02 0.0000000000000000e+00  -7.5129146882328187e-03 -1.9721546491421469e-02 0.0000000000000000e+00  -7.5555304647447171e-03 -2.1413091955889290e-02 0.0000000000000000e+00  -7.5774383153139431e-03 -2.3109511141492865e-02 0.0000000000000000e+00  -7.5844475553440704e-03 -2.4810820104976618e-02 0.0000000000000000e+00  -7.5810590891727640e-03 -2.6516822291130546e-02 0.0000000000000000e+00  -7.5707187286287309e-03 -2.8227186775774391e-02 0.0000000000000000e+00  -7.5560262099684597e-03 -2.9941506870559763e-02 0.0000000000000000e+00  -7.5389078905708680e-03 -3.1659342655233187e-02 0.0000000000000000e+00  -7.5207591385605841e-03 -3.3380250798766005e-02 0.0000000000000000e+00  -7.5025611876042859e-03 -3.5103804577783046e-02 0.0000000000000000e+00  -7.4849764061846414e-03 -3.6829606497887253e-02 0.0000000000000000e+00  -7.4684253430675647e-03 -3.8557295452496018e-02 0.0000000000000000e+00  -7.4531484549974197e-03 -4.0286549943950499e-02 0.0000000000000000e+00  -7.4392550429440750e-03 -4.2017088548855511e-02 0.0000000000000000e+00  -7.4267615909322134e-03 -4.3748668529853908e-02 0.0000000000000000e+00  -7.4156214031154272e-03 -4.5481083271621370e-02 0.0000000000000000e+00  -7.4057471645881780e-03 -4.7214159041262575e-02 0.0000000000000000e+00  -7.3970278073242513e-03 -4.8947751434386538e-02 0.0000000000000000e+00  -7.3893408438271040e-03 -5.0681741760769949e-02 0.0000000000000000e+00  -7.3825611370247459e-03 -5.2416033541530814e-02 0.0000000000000000e+00  -7.3765669048490388e-03 -5.4150549228014197e-02 0.0000000000000000e+00  -7.3712436106189655e-03 -5.5885227206876227e-02 0.0000000000000000e+00  -7.3664862642473022e-03 -5.7620019122686515e-02 0.0000000000000000e+00  -7.3622005526013581e-03 -5.9354887525920885e-02 0.0000000000000000e+00  -7.3583031281206713e-03 -6.1089803838207592