<?xml version="1.0"?>
<VTKFile type="UnstructuredGrid"  version="0.1"  >
<UnstructuredGrid>
<Piece  NumberOfPoints="6382" NumberOfCells="12354">
<Points>
<DataArray  type="Float64"  NumberOfComponents="3"  format="ascii">0 -3 0  0 0 0  10 -3 0  10 0 0  5.2 0 0  5.2 -0.4 0  5.5 -0.4 0  5.5 -0.6000000000000001 0  4.5 -0.6000000000000001 0  4.5 -0.4 0  4.8 -0.4 0  4.8 0 0  0 -2.666666666666667 0  0 -2.333333333333333 0  0 -2 0  0 -1.666666666666667 0  0 -1.333333333333333 0  0 -1 0  0 -0.666666666666667 0  0 -0.3333333333333335 0  9.836518447033493 -3 0  9.676485174132324 -3 0  9.519716728676565 -3 0  9.366040597429432 -3 0  9.215293522901804 -3 0  9.067325347766827 -3 0  8.921978167503752 -3 0  8.779125793186953 -3 0  8.638633440048579 -3 0  8.500376249002967 -3 0  8.364235730108557 -3 0  8.230099119300583 -3 0  8.097858693472926 -3 0  7.96741165420296 -3 0  7.838659590098249 -3 0  7.711508416266758 -3 0  7.585867779025237 -3 0  7.461651037321721 -3 0  7.338774694871047 -3 0  7.217158563845377 -3 0  7.096725097152937 -3 0  6.977399455051415 -3 0  6.859109304538208 -3 0  6.741784490575633 -3 0  6.625356935727237 -3 0  6.509760461250432 -3 0  6.394930659317325 -3 0  6.2808046903675 -3 0  6.167321173775116 -3 0  6.054420032640893 -3 0  5.942042373994132 -3 0  5.830130346471836 -3 0  5.718627047087892 -3 0  5.607476358937133 -3 0  5.496622874861212 -3 0  5.386011773348871 -3 0  5.275588701244851 -3 0  5.1652996754838 -3 0  5.055090972556302 -3 0  4.944909027443701 -3 0  4.834700324516204 -3 0  4.724411298755151 -3 0  4.613988226651132 -3 0  4.50337712513879 -3 0  4.392523641062869 -3 0  4.281372952912111 -3 0  4.169869653528168 -3 0  4.05795762600587 -3 0  3.94557996735911 -3 0  3.832678826224885 -3 0  3.719195309632506 -3 0  3.605069340682676 -3 0  3.490239538749567 -3 0  3.374643064272765 -3 0  3.25821550942437 -3 0  3.140890695461794 -3 0  3.022600544948583 -3 0  2.903274902847057 -3 0  2.782841436154621 -3 0  2.661225305128949 -3 0  2.538348962678273 -3 0  2.414132220974763 -3 0  2.288491583733238 -3 0  2.161340409901745 -3 0  2.032588345797035 -3 0  1.902141306527067 -3 0  1.76990088069941 -3 0  1.63576426989143 -3 0  1.499623750997021 -3 0  1.361366559951406 -3 0  1.220874206813038 -3 0  1.078021832496241 -3 0  0.9326746522331657 -3 0  0.7847064770981866 -3 0  0.6339594025705644 -3 0  0.4802832713234277 -3 0  0.3235148258676688 -3 0  0.1634815529665037 -3 0  10 -0.3333333333333333 0  10 -0.6666666666666666 0  10 -1 0  10 -1.333333333333333 0  10 -1.666666666666667 0  10 -2 0  10 -2.333333333333333 0  10 -2.666666666666667 0  5.242711110725164 0 0  5.286293876642154 0 0  5.330766086609641 0 0  5.37614589213589 0 0  5.422451816439484 0 0  5.469702760205794 0 0  5.517918009017504 0 0  5.567117241892008 0 0  5.617320540096343 0 0  5.668548395644089 0 0  5.720821717893487 0 0  5.774161842649544 0 0  5.828590541642586 0 0  5.88413003019757 0 0  5.940802977381058 0 0  5.998632515893446 0 0  6.057642249375406 0 0  6.117856262977496 0 0  6.179299133651088 0 0  6.241995940085244 0 0  6.305972273082686 0 0  6.371254245606542 0 0  6.43786850326221 0 0  6.505842235920577 0 0  6.575203187664691 0 0  6.645979668539436 0 0  6.71820056760014 0 0  6.791895362764803 0 0  6.867094133292654 0 0  6.943827572794882 0 0  7.022127001289535 0 0  7.10202437703821 0 0  7.183552311040527 0 0  7.266744080707336 0 0  7.351633641831447 0 0  7.438255642584554 0 0  7.526645439439152 0 0  7.616839110330926 0 0  7.708873468012155 0 0  7.802786077905059 0 0  7.898615271449994 0 0  7.996400162886068 0 0  8.096180664647234 0 0  8.197997502517053 0 0  8.301892235188374 0 0  8.407907268711336 0 0  8.516085874431543 0 0  8.626472207031901 0 0  8.739111321743804 0 0  8.854049193814495 0 0  8.971332736524433 0 0  9.091009820696414 0 0  9.21312929427506 0 0  9.337741001971482 0 0  9.464895805719847 0 0  9.594645605970797 0 0  9.727043361679982 0 0  9.862143111819449 0 0  5.2 -0.01666666666666669 0  5.2 -0.03333333333333339 0  5.2 -0.05000000000000009 0  5.2 -0.06666666666666679 0  5.2 -0.0833333333333335 0  5.2 -0.1000000000000002 0  5.2 -0.1166666666666669 0  5.2 -0.1333333333333336 0  5.2 -0.1500000000000002 0  5.2 -0.1666666666666669 0  5.2 -0.1833333333333335 0  5.2 -0.2000000000000001 0  5.2 -0.2166666666666668 0  5.2 -0.2333333333333335 0  5.2 -0.2500000000000002 0  5.2 -0.2666666666666669 0  5.2 -0.2833333333333335 0  5.2 -0.3000000000000002 0  5.2 -0.3166666666666668 0  5.2 -0.3333333333333335 0  5.2 -0.3500000000000001 0  5.2 -0.3666666666666668 0  5.2 -0.3833333333333334 0  5.2125 -0.4 0  5.225 -0.4 0  5.2375 -0.4 0  5.25 -0.4 0  5.2625 -0.4 0  5.275 -0.4 0  5.2875 -0.4 0  5.3 -0.4 0  5.3125 -0.4 0  5.325 -0.4 0  5.337499999999999 -0.4 0  5.35 -0.4 0  5.3625 -0.4 0  5.375 -0.4 0  5.3875 -0.4 0  5.4 -0.4 0  5.4125 -0.4 0  5.425 -0.4 0  5.4375 -0.4 0  5.45 -0.4 0  5.4625 -0.4 0  5.475 -0.4 0  5.4875 -0.4 0  5.5 -0.4083333333333334 0  5.5 -0.4166666666666667 0  5.5 -0.425 0  5.5 -0.4333333333333334 0  5.5 -0.4416666666666668 0  5.5 -0.4500000000000001 0  5.5 -0.4583333333333334 0  5.5 -0.4666666666666668 0  5.5 -0.4750000000000001 0  5.5 -0.4833333333333335 0  5.5 -0.4916666666666668 0  5.5 -0.5000000000000002 0  5.5 -0.5083333333333335 0  5.5 -0.5166666666666668 0  5.5 -0.5250000000000002 0  5.5 -0.5333333333333335 0  5.5 -0.5416666666666669 0  5.5 -0.5500000000000002 0  5.5 -0.5583333333333335 0  5.5 -0.5666666666666668 0  5.5 -0.5750000000000002 0  5.5 -0.5833333333333335 0  5.5 -0.5916666666666668 0  5.479591836734694 -0.6000000000000001 0  5.459183673469388 -0.6000000000000001 0  5.438775510204081 -0.6000000000000001 0  5.418367346938775 -0.6000000000000001 0  5.397959183673469 -0.6000000000000001 0  5.377551020408164 -0.6000000000000001 0  5.357142857142857 -0.6000000000000001 0  5.336734693877551 -0.6000000000000001 0  5.316326530612245 -0.6000000000000001 0  5.295918367346939 -0.6000000000000001 0  5.275510204081633 -0.6000000000000001 0  5.255102040816326 -0.6000000000000001 0  5.23469387755102 -0.6000000000000001 0  5.214285714285714 -0.6000000000000001 0  5.193877551020408 -0.6000000000000001 0  5.173469387755102 -0.6000000000000001 0  5.153061224489796 -0.6000000000000001 0  5.13265306122449 -0.6000000000000001 0  5.112244897959184 -0.6000000000000001 0  5.091836734693878 -0.6000000000000001 0  5.071428571428571 -0.6000000000000001 0  5.051020408163265 -0.6000000000000001 0  5.030612244897959 -0.6000000000000001 0  5.010204081632653 -0.6000000000000001 0  4.989795918367347 -0.6000000000000001 0  4.969387755102041 -0.6000000000000001 0  4.948979591836735 -0.6000000000000001 0  4.928571428571429 -0.6000000000000001 0  4.908163265306122 -0.6000000000000001 0  4.887755102040816 -0.6000000000000001 0  4.86734693877551 -0.6000000000000001 0  4.846938775510204 -0.6000000000000001 0  4.826530612244898 -0.6000000000000001 0  4.806122448979592 -0.6000000000000001 0  4.785714285714286 -0.6000000000000001 0  4.76530612244898 -0.6000000000000001 0  4.744897959183674 -0.6000000000000001 0  4.724489795918368 -0.6000000000000001 0  4.704081632653061 -0.6000000000000001 0  4.683673469387755 -0.6000000000000001 0  4.663265306122449 -0.6000000000000001 0  4.642857142857143 -0.6000000000000001 0  4.622448979591836 -0.6000000000000001 0  4.602040816326531 -0.6000000000000001 0  4.581632653061225 -0.6000000000000001 0  4.561224489795919 -0.6000000000000001 0  4.540816326530612 -0.6000000000000001 0  4.520408163265306 -0.6000000000000001 0  4.5 -0.5916666666666668 0  4.5 -0.5833333333333334 0  4.5 -0.5750000000000001 0  4.5 -0.5666666666666668 0  4.5 -0.5583333333333333 0  4.5 -0.55 0  4.5 -0.5416666666666667 0  4.5 -0.5333333333333333 0  4.5 -0.525 0  4.5 -0.5166666666666666 0  4.5 -0.5083333333333333 0  4.5 -0.4999999999999999 0  4.5 -0.4916666666666666 0  4.5 -0.4833333333333332 0  4.5 -0.4749999999999999 0  4.5 -0.4666666666666666 0  4.5 -0.4583333333333333 0  4.5 -0.45 0  4.5 -0.4416666666666667 0  4.5 -0.4333333333333333 0  4.5 -0.425 0  4.5 -0.4166666666666667 0  4.5 -0.4083333333333334 0  4.5125 -0.4 0  4.525 -0.4 0  4.5375 -0.4 0  4.55 -0.4 0  4.5625 -0.4 0  4.575 -0.4 0  4.587499999999999 -0.4 0  4.6 -0.4 0  4.6125 -0.4 0  4.625 -0.4 0  4.637499999999999 -0.4 0  4.649999999999999 -0.4 0  4.6625 -0.4 0  4.675 -0.4 0  4.6875 -0.4 0  4.699999999999999 -0.4 0  4.712499999999999 -0.4 0  4.725 -0.4 0  4.7375 -0.4 0  4.75 -0.4 0  4.7625 -0.4 0  4.774999999999999 -0.4 0  4.7875 -0.4 0  4.8 -0.3833333333333333 0  4.8 -0.3666666666666666 0  4.8 -0.3499999999999999 0  4.8 -0.3333333333333333 0  4.8 -0.3166666666666665 0  4.8 -0.2999999999999998 0  4.8 -0.2833333333333331 0  4.8 -0.2666666666666664 0  4.8 -0.2499999999999998 0  4.8 -0.2333333333333331 0  4.8 -0.2166666666666665 0  4.8 -0.1999999999999999 0  4.8 -0.1833333333333332 0  4.8 -0.1666666666666665 0  4.8 -0.1499999999999998 0  4.8 -0.1333333333333331 0  4.8 -0.1166666666666665 0  4.8 -0.09999999999999987 0  4.8 -0.0833333333333332 0  4.8 -0.06666666666666654 0  4.8 -0.04999999999999988 0  4.8 -0.03333333333333327 0  4.8 -0.01666666666666661 0  0.1378568875240437 0 0  0.2729566377271358 0 0  0.4053543934976697 0 0  0.5351041938077431 0 0  0.6622589976130751 0 0  0.7868707053643811 0 0  0.9089901789958823 0 0  1.028667263218748 0 0  1.14595080597766 0 0  1.260888678095464 0 0  1.373527792852679 0 0  1.483914125496606 0 0  1.592092731258683 0 0  1.698107764821866 0 0  1.802002497531814 0 0  1.90381933543871 0 0  2.003599837235452 0 0  2.101384728705643 0 0  2.197213922283282 0 0  2.291126532207516 0 0  2.38316088991875 0 0  2.473354560839241 0 0  2.56174435771825 0 0  2.648366358500676 0 0  2.733255919649871 0 0  2.81644768934063 0 0  2.897975623365796 0 0  2.977872999136252 0 0  3.056172427651654 0 0  3.132905867173631 0 0  3.208104637720262 0 0  3.28179943290277 0 0  3.354020331980409 0 0  3.42479681287121 0 0  3.494157764630528 0 0  3.562131497303279 0 0  3.628745754972536 0 0  3.69402772750921 0 0  3.758004060518725 0 0  3.820700866964234 0 0  3.882143737648484 0 0  3.942357751260559 0 0  4.0013674
[...]
<PointData  Vectors="displacement"> 
<DataArray  type="Float64"  Name="displacement"  NumberOfComponents="3" format="ascii">0.0000000000000000e+00 0.0000000000000000e+00 0.0000000000000000e+00  -3.2063118499615323e-01 -7.9641100866336925e-02 0.0000000000000000e+00  0.0000000000000000e+00 0.0000000000000000e+00 0.0000000000000000e+00  3.1913270324697990e-01 -7.9348033295609979e-02 0.0000000000000000e+00  0.0000000000000000e+00 -9.4715989142164350e-02 0.0000000000000000e+00  0.0000000000000000e+00 -9.1470891628726778e-02 0.0000000000000000e+00  0.0000000000000000e+00 -9.3299468156693460e-02 0.0000000000000000e+00  0.0000000000000000e+00 -2.5754308512441820e-01 0.0000000000000000e+00  0.0000000000000000e+00 -2.3284067834509714e-01 0.0000000000000000e+00  0.0000000000000000e+00 -9.2783887547376001e-02 0.0000000000000000e+00  0.0000000000000000e+00 -9.0853985090637260e-02 0.0000000000000000e+00  0.0000000000000000e+00 -9.4300084059912137e-02 0.0000000000000000e+00  -1.3033370876693556e-01 -7.9210526210159601e-02 0.0000000000000000e+00  -1.5616320473713732e-01 -7.9174316949998408e-02 0.0000000000000000e+00  -1.8042351303102461e-01 -7.9475042893316153e-02 0.0000000000000000e+00  -2.0421304373949761e-01 -7.9638212782493778e-02 0.0000000000000000e+00  -2.2775398246526790e-01 -7.9704521561531655e-02 0.0000000000000000e+00  -2.5112100476755483e-01 -7.9703982677154367e-02 0.0000000000000000e+00  -2.7435845591084229e-01 -7.9674130042302019e-02 0.0000000000000000e+00  -2.9751053199410632e-01 -7.9647773644661538e-02 0.0000000000000000e+00  0.0000000000000000e+00 0.0000000000000000e+00 0.0000000000000000e+00  0.0000000000000000e+00 0.0000000000000000e+00 0.0000000000000000e+00  0.0000000000000000e+00 0.0000000000000000e+00 0.0000000000000000e+00  0.0000000000000000e+00 0.0000000000000000e+00 0.0000000000000000e+00  0.0000000000000000e+00 0.0000000000000000e+00 0.0000000000000000e+00  0.0000000000000000e+00 0.0000000000000000e+00 0.0000000000000000e+00  0.0000000000000000e+00 0.0000000000000000e+00 0.0000000000000000e+00  0.0000000000000000e+00 0.0000000000000000e+00 0.0000000000000000e+00  0.0000000000000000e+00 0.0000000000000000e+00 0.0000000000000000e+00  0.0000000000000000e+00 0.0000000000000000e+00 0.0000000000000000e+00  0.0000000000000000e+00 0.0000000000000000e+00 0.0000000000000000e+00  0.0000000000000000e+00 0.0000000000000000e+00 0.0000000000000000e+00  0.0000000000000000e+00 0.0000000000000000e+00 0.0000000000000000e+00  0.0000000000000000e+00 0.0000000000000000e+00 0.0000000000000000e+00  0.0000000000000000e+00 0.0000000000000000e+00 0.0000000000000000e+00  0.0000000000000000e+00 0.0000000000000000e+00 0.0000000000000000e+00  0.0000000000000000e+00 0.0000000000000000e+00 0.0000000000000000e+00  0.0000000000000000e+00 0.0000000000000000e+00 0.0000000000000000e+00  0.0000000000000000e+00 0.0000000000000000e+00 0.0000000000000000e+00  0.0000000000000000e+00 0.0000000000000000e+00 0.0000000000000000e+00  0.0000000000000000e+00 0.0000000000000000e+00 0.0000000000000000e+00  0.0000000000000000e+00 0.0000000000000000e+00 0.0000000000000000e+00  0.0000000000000000e+00 0.0000000000000000e+00 0.0000000000000000e+00  0.0000000000000000e+00 0.0000000000000000e+00 0.0000000000000000e+00  0.0000000000000000e+00 0.0000000000000000e+00 0.0000000000000000e+00  0.0000000000000000e+00 0.0000000000000000e+00 0.0000000000000000e+00  0.0000000000000000e+00 0.0000000000000000e+00 0.0000000000000000e+00  0.0000000000000000e+00 0.0000000000000000e+00 0.0000000000000000e+00  0.0000000000000000e+00 0.0000000000000000e+00 0.0000000000000000e+00  0.0000000000000000e+00 0.0000000000000000e+00 0.0000000000000000e+00  0.0000000000000000e+00 0.0000000000000000e+00 0.0000000000000000e+00  0.0000000000000000e+00 0.0000000000000000e+00 0.0000000000000000e+00  0.0000000000000000e+00 0.0000000000000000e+00 0.0000000000000000e+00  0.0000000000000000e+00 0.0000000000000000e+00 0.0000000000000000e+00  0.0000000000000000e+00 0.0000000000000000e+00 0.0000000000000000e+00  0.0000000000000000e+00 0.0000000000000000e+00 0.0000000000000000e+00  0.0000000000000000e+00 0.0000000000000000e+00 0.0000000000000000e+00  0.0000000000000000e+00 0.0000000000000000e+00 0.0000000000000000e+00  0.0000000000000000e+00 0.0000000000000000e+00 0.0000000000000000e+00  0.0000000000000000e+00 0.0000000000000000e+00 0.0000000000000000e+00  0.0000000000000000e+00 0.0000000000000000e+00 0.0000000000000000e+00  0.0000000000000000e+00 0.0000000000000000e+00 0.0000000000000000e+00  0.0000000000000000e+00 0.0000000000000000e+00 0.0000000000000000e+00  0.0000000000000000e+00 0.0000000000000000e+00 0.0000000000000000e+00  0.0000000000000000e+00 0.0000000000000000e+00 0.0000000000000000e+00  0.0000000000000000e+00 0.0000000000000000e+00 0.0000000000000000e+00  0.0000000000000000e+00 0.0000000000000000e+00 0.0000000000000000e+00  0.0000000000000000e+00 0.0000000000000000e+00 0.0000000000000000e+00  0.0000000000000000e+00 0.0000000000000000e+00 0.0000000000000000e+00  0.0000000000000000e+00 0.0000000000000000e+00 0.0000000000000000e+00  0.0000000000000000e+00 0.0000000000000000e+00 0.0000000000000000e+00  0.0000000000000000e+00 0.0000000000000000e+00 0.0000000000000000e+00  0.0000000000000000e+00 0.0000000000000000e+00 0.0000000000000000e+00  0.0000000000000000e+00 0.0000000000000000e+00 0.0000000000000000e+00  0.0000000000000000e+00 0.0000000000000000e+00 0.0000000000000000e+00  0.0000000000000000e+00 0.0000000000000000e+00 0.0000000000000000e+00  0.0000000000000000e+00 0.0000000000000000e+00 0.0000000000000000e+00  0.0000000000000000e+00 0.0000000000000000e+00 0.0000000000000000e+00  0.0000000000000000e+00 0.0000000000000000e+00 0.0000000000000000e+00  0.0000000000000000e+00 0.0000000000000000e+00 0.0000000000000000e+00  0.0000000000000000e+00 0.0000000000000000e+00 0.0000000000000000e+00  0.0000000000000000e+00 0.0000000000000000e+00 0.0000000000000000e+00  0.0000000000000000e+00 0.0000000000000000e+00 0.0000000000000000e+00  0.0000000000000000e+00 0.0000000000000000e+00 0.0000000000000000e+00  0.0000000000000000e+00 0.0000000000000000e+00 0.0000000000000000e+00  0.0000000000000000e+00 0.0000000000000000e+00 0.0000000000000000e+00  0.0000000000000000e+00 0.0000000000000000e+00 0.0000000000000000e+00  0.0000000000000000e+00 0.0000000000000000e+00 0.0000000000000000e+00  0.0000000000000000e+00 0.0000000000000000e+00 0.0000000000000000e+00  0.0000000000000000e+00 0.0000000000000000e+00 0.0000000000000000e+00  0.0000000000000000e+00 0.0000000000000000e+00 0.0000000000000000e+00  0.0000000000000000e+00 0.0000000000000000e+00 0.0000000000000000e+00  0.0000000000000000e+00 0.0000000000000000e+00 0.0000000000000000e+00  0.0000000000000000e+00 0.0000000000000000e+00 0.0000000000000000e+00  0.0000000000000000e+00 0.0000000000000000e+00 0.0000000000000000e+00  0.0000000000000000e+00 0.0000000000000000e+00 0.0000000000000000e+00  0.0000000000000000e+00 0.0000000000000000e+00 0.0000000000000000e+00  0.0000000000000000e+00 0.0000000000000000e+00 0.0000000000000000e+00  2.9611368502333435e-01 -7.9354166425317951e-02 0.0000000000000000e+00  2.7306493871633947e-01 -7.9382547341369930e-02 0.0000000000000000e+00  2.4992982905965055e-01 -7.9414641898229013e-02 0.0000000000000000e+00  2.2666350512430905e-01 -7.9421774587168259e-02 0.0000000000000000e+00  2.0321643903490297e-01 -7.9365372970095868e-02 0.0000000000000000e+00  1.7950940439356941e-01 -7.9217242872029761e-02 0.0000000000000000e+00  1.5537155796030480e-01 -7.8894281994394772e-02 0.0000000000000000e+00  1.3012456686973362e-01 -7.8613072025166666e-02 0.0000000000000000e+00  5.3172165031380614e-04 -9.4708824177244869e-02 0.0000000000000000e+00  1.1126741017824055e-03 -9.4662508455623726e-02 0.0000000000000000e+00  1.7781869532298375e-03 -9.4576123773013415e-02 0.0000000000000000e+00  2.4637180940539015e-03 -9.4560394022044081e-02 0.0000000000000000e+00  3.1384736431049995e-03 -9.4681107738351505e-02 0.0000000000000000e+00  3.8673791844793986e-03 -9.4999664532808573e-02 0.0000000000000000e+00  4.7272694615168647e-03 -9.5574973691770385e-02 0.0000000000000000e+00  5.7588067863852599e-03 -9.6452861174404478e-02 0.0000000000000000e+00  6.9952204352299657e-03 -9.7673791539655039e-02 0.0000000000000000e+00  8.2588398410670880e-03 -9.9063584573920879e-02 0.0000000000000000e+00  9.6790960158857232e-03 -1.0070763252238800e-01 0.0000000000000000e+00  1.1384378785407195e-02 -1.0259870208346557e-01 0.0000000000000000e+00  1.3047027013695747e-02 -1.0436981967263138e-01 0.0000000000000000e+00  1.5585494034634556e-02 -1.0697012090808539e-01 0.0000000000000000e+00  2.1611008298514048e-02 -1.0097106229188257e-01 0.0000000000000000e+00  4.9993868861667970e-02 -7.1434042776911358e-02 0.0000000000000000e+00  9.9281818465898994e-02 -2.3563437145883874e-02 0.0000000000000000e+00  1.5585997579163433e-01 2.7285722197392455e-02 0.0000000000000000e+00  2.1103946514124292e-01 7.6853511960235418e-02 0.0000000000000000e+00  2.5968799280186639e-01 1.1972758763118591e-01 0.0000000000000000e+00  2.9471604998025253e-01 1.4990172100550622e-01 0.0000000000000000e+00  3.1227376956834357e-01 1.6296680851995593e-01 0.0000000000000000e+00  3.1683062525462136e-01 1.6290273821217138e-01 0.0000000000000000e+00  3.1733262396406231e-01 1.5876814368171829e-01 0.0000000000000000e+00  3.1759884057018140e-01 1.5429290498625664e-01 0.0000000000000000e+00  3.1785283413635312e-01 1.4968589747758715e-01 0.0000000000000000e+00  3.1809110588071976e-01 1.4494524974748418e-01 0.0000000000000000e+00  3.1830958323348690e-01 1.4007076473924032e-01 0.0000000000000000e+00  3.1850626009894162e-01 1.3506330227095109e-01 0.0000000000000000e+00  3.1867976359236594e-01 1.2992415020651565e-01 0.0000000000000000e+00  3.1882995577351675e-01 1.2465473485496484e-01 0.0000000000000000e+00  3.1895708456530458e-01 1.1925627138057562e-01 0.0000000000000000e+00  3.1906187951447729e-01 1.1372982305222443e-01 0.0000000000000000e+00  3.1914539931553620e-01 1.0807621406995595e-01 0.0000000000000000e+00  3.1920924724165983e-01 1.0229599351556667e-01 0.0000000000000000e+00  3.1925476856659846e-01 9.6389279978045694e-02 0.0000000000000000e+00  3.1928384556630707e-01 9.0355897446263961e-02 0.0000000000000000e+00  3.1929862517221569e-01 8.4195361902227733e-02 0.0000000000000000e+00  3.1930084213598647e-01 7.7906720336464966e-02 0.0000000000000000e+00  3.1929293219134020e-01 7.1488657274861381e-02 0.0000000000000000e+00  3.1927670881604941e-01 6.4939429780948646e-02 0.0000000000000000e+00  3.1925457502418420e-01 5.8256867188397628e-02 0.0000000000000000e+00  3.1922854076217405e-01 5.1438426572859595e-02 0.0000000000000000e+00  3.1920063499770474e-01 4.4481107010405814e-02 0.0000000000000000e+00  3.1917276488645641e-01 3.7381496272696844e-02 0.0000000000000000e+00  3.1914663175889568e-01 3.0135786286412707e-02 0.0000000000000000e+00  3.1912370538605789e-01 2.2739822458314324e-02 0.0000000000000000e+00  3.1910521394992197e-01 1.5189119901076679e-02 0.0000000000000000e+00  3.1909192899921207e-01 7.4789593124222229e-03 0.0000000000000000e+00  3.1908431266458842e-01 -3.9554724705937665e-04 0.0000000000000000e+00  3.1908231739552873e-01 -8.4393092297240339e-03 0.0000000000000000e+00  3.1908545489981643e-01 -1.6657153528035106e-02 0.0000000000000000e+00  3.1909273010952799e-01 -2.5053600869504870e-02 0.0000000000000000e+00  3.1910269113521106e-01 -3.3632701393580045e-02 0.0000000000000000e+00  3.1911352722396519e-01 -4.2397789531992261e-02 0.0000000000000000e+00  3.1912324081110860e-01 -5.1351206814077364e-02 0.0000000000000000e+00  3.1912997341060623e-01 -6.0494125046301285e-02 0.0000000000000000e+00  3.1913282363059414e-01 -6.9826508438834922e-02 0.0000000000000000e+00  0.0000000000000000e+00 -9.4549824659079282e-02 0.0000000000000000e+00  0.0000000000000000e+00 -9.4379442950299527e-02 0.0000000000000000e+00  0.0000000000000000e+00 -9.4204116702883020e-02 0.0000000000000000e+00  0.0000000000000000e+00 -9.4013876495045806e-02 0.0000000000000000e+00  0.0000000000000000e+00 -9.3799105517770431e-02 0.0000000000000000e+00  0.0000000000000000e+00 -9.3562967145483705e-02 0.0000000000000000e+00  0.0000000000000000e+00 -9.3316662847054005e-02 0.0000000000000000e+00  0.0000000000000000e+00 -9.3070635246933500e-02 0.0000000000000000e+00  0.0000000000000000e+00 -9.2835909553745571e-02 0.0000000000000000e+00  0.0000000000000000e+00 -9.2620008718474256e-02 0.0000000000000000e+00  0.0000000000000000e+00 -9.2427804703874433e-02 0.0000000000000000e+00  0.0000000000000000e+00 -9.2258694745164613e-02 0.0000000000000000e+00  0.0000000000000000e+00 -9.2109957363244635e-02 0.0000000000000000e+00  0.0000000000000000e+00 -9.1978990470173938e-02 0.0000000000000000e+00  0.0000000000000000e+00 -9.1864733203997434e-02 0.0000000000000000e+00  0.0000000000000000e+00 -9.1766405765414200e-02 0.0000000000000000e+00  0.0000000000000000e+00 -9.1683936195871008e-02 0.0000000000000000e+00  0.0000000000000000e+00 -9.1616918345102938e-02 0.0000000000000000e+00  0.0000000000000000e+00 -9.1565180380318245e-02 0.0000000000000000e+00  0.0000000000000000e+00 -9.1528051064742141e-02 0.0000000000000000e+00  0.0000000000000000e+00 -9.1503160558577282e-02 0.0000000000000000e+00  0.0000000000000000e+00 -9.1485291668248925e-02 0.0000000000000000e+00  0.0000000000000000e+00 -9.1474501365031963e-02 0.0000000000000000e+00  0.0000000000000000e+00 -9.1475425307853492e-02 0.0000000000000000e+00  0.0000000000000000e+00 -9.1489026161997139e-02 0.0000000000000000e+00  0.0000000000000000e+00 -9.1511695644906646e-02 0.0000000000000000e+00  0.0000000000000000e+00 -9.1543435716790716e-02 0.0000000000000000e+00  0.0000000000000000e+00 -9.1584249044950647e-02 0.0000000000000000e+00  0.0000000000000000e+00 -9.1634137292082044e-02 0.0000000000000000e+00  0.0000000000000000e+00 -9.1693110304235770e-02 0.0000000000000000e+00  0.0000000000000000e+00 -9.1761177534552846e-02 0.0000000000000000e+00  0.0000000000000000e+00 -9.1838361227574689e-02 0.0000000000000000e+00  0.0000000000000000e+00 -9.1924721139890739e-02 0.0000000000000000e+00  0.0000000000000000e+00 -9.2020388818379970e-02 0.0000000000000000e+00  0.0000000000000000e+00 -9.2125632028073196e-02 0.0000000000000000e+00  0.0000000000000000e+00 -9.2240920262802423e-02 0.0000000000000000e+00  0.0000000000000000e+00 -9.2366927107671720e-02 0.0000000000000000e+00  0.0000000000000000e+00 -9.2504160213903758e-02 0.0000000000000000e+00  0.0000000000000000e+00 -9.2628956310823130e-02 0.0000000000000000e+00  0.0000000000000000e+00 -9.2730829183080399e-02 0.0000000000000000e+00  0.0000000000000000e+00 -9.2826562117638858e-02 0.0000000000000000e+00  0.0000000000000000e+00 -9.2915863144380453e-02 0.0000000000000000e+00  0.0000000000000000e+00 -9.3001154397571145e-02 0.0000000000000000e+00  0.0000000000000000e+00 -9.3077171406989831e-02 0.0000000000000000e+00  0.0000000000000000e+00 -9.3147277773365969e-02 0.0000000000000000e+00  0.0000000000000000e+00 -9.3200575690058227e-02 0.0000000000000000e+00  0.0000000000000000e+00 -9.2890565813866066e-02 0.0000000000000000e+00  0.0000000000000000e+00 -9.2800326077435685e-02 0.0000000000000000e+00  0.0000000000000000e+00 -9.2748662981546770e-02 0.0000000000000000e+00  0.0000000000000000e+00 -9.2723341883261201e-02 0.0000000000000000e+00  0.0000000000000000e+00 -9.2698479769870737e-02 0.0000000000000000e+00  0.0000000000000000e+00 -9.2680076140550266e-02 0.0000000000000000e+00  0.0000000000000000e+00 -9.2666017993434824e-02 0.0000000000000000e+00  0.0000000000000000e+00 -9.2656131203145906e-02 0.0000000000000000e+00  0.0000000000000000e+00 -9.2650234712785606e-02 0.0000000000000000e+00  0.0000000000000000e+00 -9.2648336646088569e-02 0.0000000000000000e+00  0.0000000000000000e+00 -9.2650575291200049e-02 0.0000000000000000e+00  0.0000000000000000e+00 -9.2656794596517184e-02 0.0000000000000000e+00  0.0000000000000000e+00 -9.2667122372193239e-02 0.0000000000000000e+00  0.0000000000000000e+00 -9.2681598362040526e-02 0.0000000000000000e+00  0.0000000000000000e+00 -9.2700340607083764e-02 0.0000000000000000e+00  0.0000000000000000e+00 -9.2723453032930961e-02 0.0000000000000000e+00  0.0000000000000000e+00 -9.2751371810096961e-02 0.0000000000000000e+00  0.0000000000000000e+00 -9.2784669881215892e-02 0.0000000000000000e+00  0.0000000000000000e+00 -9.2825760054444734e-02 0.0000000000000000e+00  0.0000000000000000e+00 -9.2930995802546448e-02 0.0000000000000000e+00  0.0000000000000000e+00 -9.4666844600470229e-02 0.0000000000000000e+00  0.0000000000000000e+00 -1.0485974502001347e-01 0.0000000000000000e+00  0.0000000000000000e+00 -1.5595110792878758e-01 0.0000000000000000e+00  1.0321375814637025e-02 -9.5570064260965992e-01 0.0000000000000000e+00  1.9903103679691322e-02 -1.1901199094126436e+00 0.0000000000000000e+00  2.1139838600824065e-02 -1.3233368827476999e+00 0.0000000000000000e+00  1.9796303607252954e-02 -1.4119003201921254e+00 0.0000000000000000e+00  2.0280319806531225e-02 -1.4805695298996626e+00 0.0000000000000000e+00  1.9717929864443783e-02 -1.5329264789608639e+00 0.0000000000000000e+00  1.7415117494587618e-02 -1.5750891405502079e+00 0.0000000000000000e+00  1.4906759298398440e-02 -1.6098668217423799e+00 0.0000000000000000e+00  1.2525754177273966e-02 -1.6389133993269391e+00 0.0000000000000000e+00  1.0215778344531965e-02 -1.6636241524941926e+00 0.0000000000000000e+00  8.0890158191236194e-03 -1.6845945634077371e+00 0.0000000000000000e+00  6.1651243574722455e-03 -1.7025870663351519e+00 0.0000000000000000e+00  4.5628901236430585e-03 -1.7180962745026329e+00 0.0000000000000000e+00  3.1968660319269347e-03 -1.7314501901662089e+00 0.0000000000000000e+00  2.1337554454426300e-03 -1.7428527416043211e+00 0.0000000000000000e+00  1.2249805258885947e-03 -1.7525677132182524e+00 0.0000000000000000e+00  5.1673855072065407e-04 -1.7607808841743064e+00 0.0000000000000000e+00  -3.8123384632161489e-05 -1.7676487175619524e+00 0.0000000000000000e+00  -4.6888299705511897e-04 -1.7732421630804345e+00 0.0000000000000000e+00  -8.0409172741825719e-04 -1.7777035245133224e+00 0.0000000000000000e+00  -1.0657698905534101e-03 -1.7811742643861996e+00 0.0000000000000000e+00  -1.2531789849807404e-03 -1.7837269378341656e+00 0.0000000000000000e+00  -1.3763744797510309e-03 -1.7853996896177999e+00 0.0000000000000000e+00  -1.4705256271309100e-03 -1.7862341538024937e+00 0.0000000000000000e+00  -1.5735820145746841e-03 -1.7862325145008244e+00 0.0000000000000000e+00  -1.6650717572687123e-03 -1.7853796352579061e+00 0.0000000000000000e+00  -1.7739416587440348e-03 -1.7836787452586329e+00 0.0000000000000000e+00  -1.9352939596770293e-03 -1.7810586884200821e+00 0.0000000000000000e+00  -2.1830269232523320e-03 -1.7774816244666609e+00 0.0000000000000000e+00  -2.4892638796476397e-03 -1.7729013345143394e+00 0.0000000000000000e+00  -2.9267499353438546e-03 -1.7672810249405766e+00 0.0000000000000000e+00  -3.4820234554177511e-03 -1.7604021922746822e+00 0.0000000000000000e+00  -4.1480443863456187e-03 -1.7521981646709897e+00 0.0000000000000000e+00  -4.8959671349703268e-03 -1.7425094075887975e+00 0.0000000000000000e+00  -5.9664733365982752e-03 -1.7311439897442833e+00 0.0000000000000000e+00  -7.2764769201800064e-03 -1.7177513522976062e+00 0.0000000000000000e+00  -8.9243027230873923e-03 -1.7021305159053268e+00 0.0000000000000000e+00  -1.0699250099136057e-02 -1.6839112022863079e+00 0.0000000000000000e+00  -1.2645755902216484e-02 -1.6629103170338768e+00 0.0000000000000000e+00  -1.5065822907550978e-02 -1.6382801874322894e+00 0.0000000000000000e+00  -1.7627160671681852e-02 -1.6089725772405292e+00 0.0000000000000000e+00  -2.0346945191603610e-02 -1.5740748324472438e+00 0.0000000000000000e+00  -2.2671288188936760e-02 -1.5321367713873986e+00 0.0000000000000000e+00  -2.3786485620710954e-02 -1.4799243131567776e+00 0.0000000000000000e+00  -2.4806976214843231e-02 -1.4124789090178964e+00 0.0000000000000000e+00  -2.4127656352965102e-02 -1.3214473359261194e+00 0.0000000000000000e+00  -2.2694876785599269e-02 -1.1878604157240398e+00 0.0000000000000000e+00  -1.5918571868882691e-02 -9.5641500748168651e-01 0.0000000000000000e+0