<?xml version="1.0"?>
<VTKFile type="UnstructuredGrid"  version="0.1"  >
<UnstructuredGrid>
<Piece  NumberOfPoints="1250" NumberOfCells="2352">
<Points>
<DataArray  type="Float64"  NumberOfComponents="3"  format="ascii">0 0 0  0.0336 0 0  0.0336 0.07729999999999999 0  0 0.07729999999999999 0  0.001400000000000002 0 0  0.002800000000000005 0 0  0.004200000000000008 0 0  0.005600000000000009 0 0  0.007000000000000011 0 0  0.008400000000000013 0 0  0.009800000000000019 0 0  0.01120000000000002 0 0  0.01260000000000003 0 0  0.01400000000000003 0 0  0.01540000000000004 0 0  0.01680000000000005 0 0  0.01820000000000004 0 0  0.01960000000000004 0 0  0.02100000000000004 0 0  0.02240000000000003 0 0  0.02380000000000003 0 0  0.02520000000000002 0 0  0.02660000000000002 0 0  0.02800000000000001 0 0  0.02940000000000001 0 0  0.03080000000000001 0 0  0.0322 0 0  0.0336 0.001577551020408161 0  0.0336 0.003155102040816321 0  0.0336 0.004732653061224482 0  0.0336 0.006310204081632642 0  0.0336 0.007887755102040803 0  0.0336 0.009465306122448964 0  0.0336 0.01104285714285712 0  0.0336 0.01262040816326528 0  0.0336 0.01419795918367344 0  0.0336 0.0157755102040816 0  0.0336 0.01735306122448976 0  0.0336 0.01893061224489792 0  0.0336 0.02050816326530608 0  0.0336 0.02208571428571425 0  0.0336 0.02366326530612241 0  0.0336 0.02524081632653058 0  0.0336 0.02681836734693874 0  0.0336 0.02839591836734691 0  0.0336 0.02997346938775507 0  0.0336 0.03155102040816323 0  0.0336 0.0331285714285714 0  0.0336 0.03470612244897956 0  0.0336 0.03628367346938772 0  0.0336 0.03786122448979588 0  0.0336 0.03943877551020405 0  0.0336 0.04101632653061221 0  0.0336 0.04259387755102037 0  0.0336 0.04417142857142854 0  0.0336 0.04574897959183671 0  0.0336 0.04732653061224486 0  0.0336 0.04890408163265302 0  0.0336 0.05048163265306119 0  0.0336 0.05205918367346936 0  0.0336 0.05363673469387752 0  0.0336 0.05521428571428568 0  0.0336 0.05679183673469385 0  0.0336 0.05836938775510202 0  0.0336 0.05994693877551018 0  0.0336 0.06152448979591834 0  0.0336 0.0631020408163265 0  0.0336 0.06467959183673468 0  0.0336 0.06625714285714283 0  0.0336 0.06783469387755101 0  0.0336 0.06941224489795916 0  0.0336 0.07098979591836733 0  0.0336 0.07256734693877549 0  0.0336 0.07414489795918365 0  0.0336 0.07572244897959182 0  0.03219999999999999 0.07729999999999999 0  0.03079999999999999 0.07729999999999999 0  0.02939999999999999 0.07729999999999999 0  0.02799999999999999 0.07729999999999999 0  0.02659999999999999 0.07729999999999999 0  0.02519999999999999 0.07729999999999999 0  0.02379999999999998 0.07729999999999999 0  0.02239999999999998 0.07729999999999999 0  0.02099999999999997 0.07729999999999999 0  0.01959999999999996 0.07729999999999999 0  0.01819999999999996 0.07729999999999999 0  0.01679999999999995 0.07729999999999999 0  0.01539999999999996 0.07729999999999999 0  0.01399999999999996 0.07729999999999999 0  0.01259999999999996 0.07729999999999999 0  0.01119999999999997 0.07729999999999999 0  0.009799999999999972 0.07729999999999999 0  0.008399999999999977 0.07729999999999999 0  0.006999999999999978 0.07729999999999999 0  0.005599999999999983 0.07729999999999999 0  0.004199999999999988 0.07729999999999999 0  0.00279999999999999 0.07729999999999999 0  0.001399999999999998 0.07729999999999999 0  0 0.07572244897959184 0  0 0.07414489795918368 0  0 0.07256734693877551 0  0 0.07098979591836735 0  0 0.06941224489795919 0  0 0.06783469387755103 0  0 0.06625714285714288 0  0 0.06467959183673472 0  0 0.06310204081632656 0  0 0.0615244897959184 0  0 0.05994693877551023 0  0 0.05836938775510207 0  0 0.05679183673469392 0  0 0.05521428571428574 0  0 0.05363673469387759 0  0 0.05205918367346941 0  0 0.05048163265306126 0  0 0.04890408163265308 0  0 0.04732653061224493 0  0 0.04574897959183676 0  0 0.0441714285714286 0  0 0.04259387755102043 0  0 0.04101632653061228 0  0 0.03943877551020411 0  0 0.03786122448979595 0  0 0.03628367346938779 0  0 0.03470612244897962 0  0 0.03312857142857146 0  0 0.03155102040816329 0  0 0.02997346938775513 0  0 0.02839591836734697 0  0 0.0268183673469388 0  0 0.02524081632653064 0  0 0.02366326530612247 0  0 0.02208571428571431 0  0 0.02050816326530614 0  0 0.01893061224489798 0  0 0.01735306122448981 0  0 0.01577551020408165 0  0 0.01419795918367349 0  0 0.01262040816326532 0  0 0.01104285714285716 0  0 0.009465306122448988 0  0 0.00788775510204083 0  0 0.006310204081632659 0  0 0.004732653061224501 0  0 0.003155102040816343 0  0 0.001577551020408172 0  0.001400000000000004 0.001577551020408172 0  0.001400000000000004 0.003155102040816329 0  0.001400000000000002 0.004732653061224501 0  0.001400000000000002 0.006310204081632645 0  0.001400000000000005 0.007887755102040823 0  0.001400000000000002 0.009465306122448981 0  0.001400000000000002 0.01104285714285717 0  0.001400000000000004 0.01262040816326531 0  0.0014 0.01419795918367349 0  0.001400000000000002 0.01577551020408166 0  0.001400000000000005 0.0173530612244898 0  0.001400000000000002 0.01893061224489797 0  0.001400000000000002 0.02050816326530613 0  0.001400000000000002 0.02208571428571431 0  0.001400000000000002 0.02366326530612247 0  0.001400000000000002 0.02524081632653063 0  0.001400000000000002 0.0268183673469388 0  0.001400000000000002 0.02839591836734696 0  0.001400000000000002 0.02997346938775513 0  0.001400000000000002 0.03155102040816328 0  0.001400000000000002 0.03312857142857147 0  0.001399999999999997 0.03470612244897962 0  0.001400000000000005 0.03628367346938778 0  0.001400000000000002 0.03786122448979594 0  0.001400000000000002 0.03943877551020411 0  0.001400000000000002 0.04101632653061228 0  0.001400000000000002 0.04259387755102043 0  0.001400000000000002 0.0441714285714286 0  0.0014 0.04574897959183676 0  0.001400000000000002 0.04732653061224492 0  0.001400000000000004 0.04890408163265308 0  0.001400000000000002 0.05048163265306126 0  0.001400000000000002 0.05205918367346941 0  0.0014 0.05363673469387758 0  0.001400000000000004 0.05521428571428574 0  0.001399999999999998 0.05679183673469391 0  0.001400000000000002 0.05836938775510207 0  0.0014 0.05994693877551023 0  0.001400000000000002 0.0615244897959184 0  0.001400000000000002 0.06310204081632656 0  0.001400000000000002 0.06467959183673472 0  0.0014 0.06625714285714286 0  0.001400000000000002 0.06783469387755102 0  0.001399999999999998 0.06941224489795919 0  0.001400000000000002 0.07098979591836735 0  0.0014 0.07256734693877552 0  0.001400000000000002 0.07414489795918368 0  0.001400000000000002 0.07572244897959184 0  0.002800000000000006 0.001577551020408165 0  0.002800000000000004 0.003155102040816343 0  0.002800000000000002 0.004732653061224487 0  0.002800000000000002 0.006310204081632652 0  0.002800000000000002 0.007887755102040813 0  0.0028 0.009465306122448981 0  0.002799999999999997 0.01104285714285715 0  0.0028 0.01262040816326532 0  0.0028 0.01419795918367348 0  0.0028 0.01577551020408165 0  0.002799999999999997 0.0173530612244898 0  0.0028 0.01893061224489797 0  0.002800000000000004 0.02050816326530613 0  0.0028 0.0220857142857143 0  0.0028 0.02366326530612247 0  0.002800000000000004 0.02524081632653064 0  0.0028 0.0268183673469388 0  0.0028 0.02839591836734696 0  0.002799999999999995 0.02997346938775512 0  0.002799999999999997 0.03155102040816328 0  0.002799999999999995 0.03312857142857146 0  0.0028 0.03470612244897962 0  0.002799999999999995 0.03628367346938778 0  0.002799999999999997 0.03786122448979594 0  0.002799999999999997 0.03943877551020411 0  0.002799999999999997 0.04101632653061228 0  0.002799999999999997 0.04259387755102043 0  0.002799999999999995 0.0441714285714286 0  0.002799999999999997 0.04574897959183676 0  0.002799999999999997 0.04732653061224493 0  0.002799999999999995 0.04890408163265308 0  0.002799999999999993 0.05048163265306124 0  0.002799999999999995 0.05205918367346941 0  0.002799999999999995 0.05363673469387757 0  0.002799999999999992 0.05521428571428574 0  0.002799999999999997 0.05679183673469391 0  0.002799999999999993 0.05836938775510207 0  0.002799999999999993 0.05994693877551022 0  0.002799999999999992 0.0615244897959184 0  0.002799999999999988 0.06310204081632655 0  0.002799999999999992 0.0646795918367347 0  0.002799999999999992 0.06625714285714286 0  0.00279999999999999 0.06783469387755103 0  0.00279999999999999 0.06941224489795919 0  0.002799999999999988 0.07098979591836735 0  0.00279999999999999 0.07256734693877552 0  0.002799999999999988 0.07414489795918368 0  0.00279999999999999 0.07572244897959184 0  0.004200000000000006 0.001577551020408172 0  0.004200000000000006 0.003155102040816329 0  0.004200000000000008 0.00473265306122448 0  0.004200000000000009 0.006310204081632652 0  0.004200000000000008 0.00788775510204082 0  0.004200000000000008 0.009465306122448978 0  0.004200000000000006 0.01104285714285716 0  0.004200000000000006 0.01262040816326532 0  0.004200000000000004 0.01419795918367349 0  0.004200000000000002 0.01577551020408165 0  0.004200000000000004 0.0173530612244898 0  0.004200000000000006 0.01893061224489797 0  0.004200000000000006 0.02050816326530613 0  0.004200000000000002 0.0220857142857143 0  0.004200000000000004 0.02366326530612247 0  0.004199999999999999 0.02524081632653062 0  0.004200000000000004 0.0268183673469388 0  0.004200000000000004 0.02839591836734696 0  0.004200000000000002 0.02997346938775512 0  0.004199999999999999 0.03155102040816328 0  0.004200000000000001 0.03312857142857145 0  0.004200000000000001 0.03470612244897962 0  0.004199999999999995 0.03628367346938778 0  0.004199999999999999 0.03786122448979594 0  0.004199999999999999 0.0394387755102041 0  0.004199999999999997 0.04101632653061227 0  0.004199999999999999 0.04259387755102043 0  0.004199999999999999 0.04417142857142859 0  0.004199999999999999 0.04574897959183676 0  0.004199999999999999 0.04732653061224492 0  0.004199999999999997 0.04890408163265308 0  0.004199999999999997 0.05048163265306124 0  0.004199999999999999 0.05205918367346941 0  0.004199999999999992 0.05363673469387757 0  0.0
[...]
<PointData  Vectors="displacement"> 
<DataArray  type="Float64"  Name="displacement"  NumberOfComponents="3" format="ascii">0.0000000000000000e+00 0.0000000000000000e+00 0.0000000000000000e+00  0.0000000000000000e+00 0.0000000000000000e+00 0.0000000000000000e+00  7.1953044894606894e-03 -6.0109342926985679e-02 0.0000000000000000e+00  -7.1012976609824531e-03 -6.0091074369379549e-02 0.0000000000000000e+00  0.0000000000000000e+00 0.0000000000000000e+00 0.0000000000000000e+00  0.0000000000000000e+00 0.0000000000000000e+00 0.0000000000000000e+00  0.0000000000000000e+00 0.0000000000000000e+00 0.0000000000000000e+00  0.0000000000000000e+00 0.0000000000000000e+00 0.0000000000000000e+00  0.0000000000000000e+00 0.0000000000000000e+00 0.0000000000000000e+00  0.0000000000000000e+00 0.0000000000000000e+00 0.0000000000000000e+00  0.0000000000000000e+00 0.0000000000000000e+00 0.0000000000000000e+00  0.0000000000000000e+00 0.0000000000000000e+00 0.0000000000000000e+00  0.0000000000000000e+00 0.0000000000000000e+00 0.0000000000000000e+00  0.0000000000000000e+00 0.0000000000000000e+00 0.0000000000000000e+00  0.0000000000000000e+00 0.0000000000000000e+00 0.0000000000000000e+00  0.0000000000000000e+00 0.0000000000000000e+00 0.0000000000000000e+00  0.0000000000000000e+00 0.0000000000000000e+00 0.0000000000000000e+00  0.0000000000000000e+00 0.0000000000000000e+00 0.0000000000000000e+00  0.0000000000000000e+00 0.0000000000000000e+00 0.0000000000000000e+00  0.0000000000000000e+00 0.0000000000000000e+00 0.0000000000000000e+00  0.0000000000000000e+00 0.0000000000000000e+00 0.0000000000000000e+00  0.0000000000000000e+00 0.0000000000000000e+00 0.0000000000000000e+00  0.0000000000000000e+00 0.0000000000000000e+00 0.0000000000000000e+00  0.0000000000000000e+00 0.0000000000000000e+00 0.0000000000000000e+00  0.0000000000000000e+00 0.0000000000000000e+00 0.0000000000000000e+00  0.0000000000000000e+00 0.0000000000000000e+00 0.0000000000000000e+00  0.0000000000000000e+00 0.0000000000000000e+00 0.0000000000000000e+00  2.3346148983015512e-03 -2.1438084667204445e-03 0.0000000000000000e+00  3.6260783653035773e-03 -3.4343194815110428e-03 0.0000000000000000e+00  4.5318931332080283e-03 -4.5701859341543936e-03 0.0000000000000000e+00  5.2114794145260721e-03 -5.6514526037068392e-03 0.0000000000000000e+00  5.7314288089885613e-03 -6.7127482957936458e-03 0.0000000000000000e+00  6.1308940556746233e-03 -7.7722585061539345e-03 0.0000000000000000e+00  6.4371019127134393e-03 -8.8399410846164567e-03 0.0000000000000000e+00  6.6702951748900795e-03 -9.9211178928148083e-03 0.0000000000000000e+00  6.8460814920524539e-03 -1.1018381240719763e-02 0.0000000000000000e+00  6.9767624805891224e-03 -1.2132645148151457e-02 0.0000000000000000e+00  7.0721542108579593e-03 -1.3263769056360643e-02 0.0000000000000000e+00  7.1401332182180850e-03 -1.4410954463131299e-02 0.0000000000000000e+00  7.1870249911653453e-03 -1.5573009717285027e-02 0.0000000000000000e+00  7.2178961246289839e-03 -1.6748531831039571e-02 0.0000000000000000e+00  7.2367836101707187e-03 -1.7936032553989036e-02 0.0000000000000000e+00  7.2468803349219615e-03 -1.9134025165143106e-02 0.0000000000000000e+00  7.2506881127823138e-03 -2.0341082707149960e-02 0.0000000000000000e+00  7.2501453078171714e-03 -2.1555875134074528e-02 0.0000000000000000e+00  7.2467337309301714e-03 -2.2777190855269001e-02 0.0000000000000000e+00  7.2415681470367303e-03 -2.4003946839536456e-02 0.0000000000000000e+00  7.2354709548148729e-03 -2.5235190500664972e-02 0.0000000000000000e+00  7.2290341346077022e-03 -2.6470095868669587e-02 0.0000000000000000e+00  7.2226702572074902e-03 -2.7707955984509536e-02 0.0000000000000000e+00  7.2166541275575993e-03 -2.8948172999150947e-02 0.0000000000000000e+00  7.2111564608062454e-03 -3.0190247087445259e-02 0.0000000000000000e+00  7.2062708327271102e-03 -3.1433764988371284e-02 0.0000000000000000e+00  7.2020350030000437e-03 -3.2678388744577215e-02 0.0000000000000000e+00  7.1984475749686519e-03 -3.3923845026577595e-02 0.0000000000000000e+00  7.1954808288690990e-03 -3.5169915282235863e-02 0.0000000000000000e+00  7.1930904478539129e-03 -3.6416426842976073e-02 0.0000000000000000e+00  7.1912227483046359e-03 -3.7663245037990116e-02 0.0000000000000000e+00  7.1898199285870190e-03 -3.8910266310809030e-02 0.0000000000000000e+00  7.1888237638330103e-03 -4.0157412294063839e-02 0.0000000000000000e+00  7.1881780984257371e-03 -4.1404624773898502e-02 0.0000000000000000e+00  7.1878304222013573e-03 -4.2651861461889942e-02 0.0000000000000000e+00  7.1877327603178144e-03 -4.3899092486680266e-02 0.0000000000000000e+00  7.1878420594936928e-03 -4.5146297517645359e-02 0.0000000000000000e+00  7.1881202140686769e-03 -4.6393463437116075e-02 0.0000000000000000e+00  7.1885338432953316e-03 -4.7640582484701564e-02 0.0000000000000000e+00  7.1890539058071410e-03 -4.8887650806285966e-02 0.0000000000000000e+00  7.1896552179705640e-03 -5.0134667350798273e-02 0.0000000000000000e+00  7.1903159300167885e-03 -5.1381633069738024e-02 0.0000000000000000e+00  7.1910170087043056e-03 -5.2628550387846106e-02 0.0000000000000000e+00  7.1917417812040647e-03 -5.3875422928657775e-02 0.0000000000000000e+00  7.1924756201879811e-03 -5.5122255496418422e-02 0.0000000000000000e+00  7.1932059158014644e-03 -5.6369054335785228e-02 0.0000000000000000e+00  7.1939226535589250e-03 -5.7615827700209378e-02 0.0000000000000000e+00  7.1946204803215339e-03 -5.8862586569438623e-02 0.0000000000000000e+00  6.5995289015930011e-03 -6.0108738444183560e-02 0.0000000000000000e+00  6.0037543828522543e-03 -6.0108143628352789e-02 0.0000000000000000e+00  5.4079890687320116e-03 -6.0107563363436083e-02 0.0000000000000000e+00  4.8122405877523144e-03 -6.0106994400857247e-02 0.0000000000000000e+00  4.2165138401225929e-03 -6.0106429759425553e-02 0.0000000000000000e+00  3.6208111207092883e-03 -6.0105861027842204e-02 0.0000000000000000e+00  3.0251325449431078e-03 -6.0105279611468290e-02 0.0000000000000000e+00  2.4294764744096390e-03 -6.0104677480535509e-02 0.0000000000000000e+00  1.8338399014070760e-03 -6.0104047639993066e-02 0.0000000000000000e+00  1.2382187889733785e-03 -6.0103384426259537e-02 0.0000000000000000e+00  6.4260836953772553e-04 -6.0102683690755256e-02 0.0000000000000000e+00  4.7003409080559267e-05 -6.0101942907783798e-02 0.0000000000000000e+00  -5.4860155339827329e-04 -6.0101161230483813e-02 0.0000000000000000e+00  -1.1442119792675733e-03 -6.0100339508181173e-02 0.0000000000000000e+00  -1.7398331036239207e-03 -6.0099480269460673e-02 0.0000000000000000e+00  -2.3354696957411641e-03 -6.0098587666650369e-02 0.0000000000000000e+00  -2.9311257947809252e-03 -6.0097667368398812e-02 0.0000000000000000e+00  -3.5268044109818485e-03 -6.0096726376615207e-02 0.0000000000000000e+00  -4.1225071854880304e-03 -6.0095772730064244e-02 0.0000000000000000e+00  -4.7182340057785660e-03 -6.0094815033950803e-02 0.0000000000000000e+00  -5.3139825802114363e-03 -6.0093861706871601e-02 0.0000000000000000e+00  -5.9097480076558441e-03 -6.0092919714635894e-02 0.0000000000000000e+00  -6.5055226098047481e-03 -6.0091992259457598e-02 0.0000000000000000e+00  -7.1023292272169797e-03 -5.8844317594236348e-02 0.0000000000000000e+00  -7.1033469755134790e-03 -5.7597558804887546e-02 0.0000000000000000e+00  -7.1043458876063007e-03 -5.6350785496810607e-02 0.0000000000000000e+00  -7.1053312118581893e-03 -5.5103986695572801e-02 0.0000000000000000e+00  -7.1063129561185264e-03 -5.3857154153507517e-02 0.0000000000000000e+00  -7.1073037466979471e-03 -5.2610281631398748e-02 0.0000000000000000e+00  -7.1083182239921701e-03 -5.1363364329782182e-02 0.0000000000000000e+00  -7.1093730684068700e-03 -5.0116398629381352e-02 0.0000000000000000e+00  -7.1104873164296494e-03 -4.8869382109533781e-02 0.0000000000000000e+00  -7.1116828176918615e-03 -4.7622313822982723e-02 0.0000000000000000e+00  -7.1129847527425880e-03 -4.6375194825512375e-02 0.0000000000000000e+00  -7.1144221569417942e-03 -4.5128028976705210e-02 0.0000000000000000e+00  -7.1160284018235197e-03 -4.3880824043457736e-02 0.0000000000000000e+00  -7.1178415800964611e-03 -4.2633593151300810e-02 0.0000000000000000e+00  -7.1199047276049631e-03 -4.1386356640449373e-02 0.0000000000000000e+00  -7.1222657963133712e-03 -4.0139144394044639e-02 0.0000000000000000e+00  -7.1249772668932673e-03 -3.8891998715084031e-02 0.0000000000000000e+00  -7.1280952574333525e-03 -3.7644977835580337e-02 0.0000000000000000e+00  -7.1316779455172716e-03 -3.6398160145707480e-02 0.0000000000000000e+00  -7.1357830736348367e-03 -3.5151649230835733e-02 0.0000000000000000e+00  -7.1404642517773950e-03 -3.3905579798747837e-02 0.0000000000000000e+00  -7.1457657053261153e-03 -3.2660124565758716e-02 0.0000000000000000e+00  -7.1517150403152610e-03 -3.1415502146151492e-02 0.0000000000000000e+00  -7.1583135113979322e-03 -3.0171985950843826e-02 0.0000000000000000e+00  -7.1655231802345331e-03 -2.8929914044343100e-02 0.0000000000000000e+00  -7.1732502438002542e-03 -2.7689699828882721e-02 0.0000000000000000e+00  -7.1813236938757926e-03 -2.6451843315401905e-02 0.0000000000000000e+00  -7.1894683415715888e-03 -2.5216942596162278e-02 0.0000000000000000e+00  -7.1972711047615196e-03 -2.3985704945894672e-02 0.0000000000000000e+00  -7.2041393112761117e-03 -2.2758956739159064e-02 0.0000000000000000e+00  -7.2092496132440511e-03 -2.1537651071648102e-02 0.0000000000000000e+00  -7.2114859286129072e-03 -2.0322871601065759e-02 0.0000000000000000e+00  -7.2093646034544412e-03 -1.9115830663635622e-02 0.0000000000000000e+00  -7.2009446807024795e-03 -1.7917859151556022e-02 0.0000000000000000e+00  -7.1837206872999299e-03 -1.6730384913593629e-02 0.0000000000000000e+00  -7.1544945661876609e-03 -1.5554895488049522e-02 0.0000000000000000e+00  -7.1092220201028795e-03 -1.4392879643656667e-02 0.0000000000000000e+00  -7.0428261312022594e-03 -1.3245740190548883e-02 0.0000000000000000e+00  -6.9489668199335698e-03 -1.2114667230020913e-02 0.0000000000000000e+00  -6.8197469059064365e-03 -1.1000455210060473e-02 0.0000000000000000e+00  -6.6453210831707524e-03 -9.9032362441826977e-03 0.0000000000000000e+00  -6.4133464721159794e-03 -8.8220803085197440e-03 0.0000000000000000e+00  -6.1081583786627060e-03 -7.7543661529459844e-03 0.0000000000000000e+00  -5.7094419771613301e-03 -6.6947224141157610e-03 0.0000000000000000e+00  -5.1899197978018509e-03 -5.6331319155149022e-03 0.0000000000000000e+00  -4.5106639471324270e-03 -4.5514925641596008e-03 0.0000000000000000e+00  -3.6066637166157394e-03 -3.4150408196003800e-03 0.0000000000000000e+00  -2.3240509948973670e-03 -2.1055910009330431e-03 0.0000000000000000e+00  -1.6353424580561077e-03 -1.2551351847669217e-03 0.0000000000000000e+00  -2.9882068518749167e-03 -2.6469210071617538e-03 0.0000000000000000e+00  -3.9484772002929495e-03 -3.9334423427965677e-03 0.0000000000000000e+00  -4.6528391665571732e-03 -5.1395441554130950e-03 0.0000000000000000e+00  -5.1822583339126271e-03 -6.3020380488841713e-03 0.0000000000000000e+00  -5.5831499848152666e-03 -7.4436089548732013e-03 0.0000000000000000e+00  -5.8862201461596210e-03 -8.5778017593779489e-03 0.0000000000000000e+00  -6.1136647325778799e-03 -9.7128099362117169e-03 0.0000000000000000e+00  -6.2822922052448819e-03 -1.0853519758393200e-02 0.0000000000000000e+00  -6.4051718546141887e-03 -1.2002693041096354e-02 0.0000000000000000e+00  -6.4926168938460880e-03 -1.3161698298591968e-02 0.0000000000000000e+00  -6.5528230791761649e-03 -1.4330984804146442e-02 0.0000000000000000e+00  -6.5923139830614914e-03 -1.5510401467288935e-02 0.0000000000000000e+00  -6.6162701708284101e-03 -1.6699416979178219e-02 0.0000000000000000e+00  -6.6287838639795937e-03 -1.7897274046542212e-02 0.0000000000000000e+00  -6.6330624784744626e-03 -1.9103097822743539e-02 0.0000000000000000e+00  -6.6315947857479999e-03 -2.0315971539870911e-02 0.0000000000000000e+00  -6.6262882011677250e-03 -2.1534988193521148e-02 0.0000000000000000e+00  -6.6185827998245152e-03 -2.2759284578221965e-02 0.0000000000000000e+00  -6.6095460212080032e-03 -2.3988062310808592e-02 0.0000000000000000e+00  -6.5999510751692334e-03 -2.5220599336774785e-02 0.0000000000000000e+00  -6.5903414850499061e-03 -2.6456254588030366e-02 0.0000000000000000e+00  -6.5810838259230580e-03 -2.7694467837821965e-02 0.0000000000000000e+00  -6.5724104421014135e-03 -2.8934756316326644e-02 0.0000000000000000e+00  -6.5644537086797950e-03 -3.0176709270968362e-02 0.0000000000000000e+00  -6.5572732120063437e-03 -3.1419981355067891e-02 0.0000000000000000e+00  -6.5508770521995304e-03 -3.2664285490833250e-02 0.0000000000000000e+00  -6.5452383126709309e-03 -3.3909385666012079e-02 0.0000000000000000e+00  -6.5403075958736434e-03 -3.5155089978406925e-02 0.0000000000000000e+00  -6.5360223912656733e-03 -3.6401244131247068e-02 0.0000000000000000e+00  -6.5323139211306488e-03 -3.7647725498703127e-02 0.0000000000000000e+00  -6.5291120026270168e-03 -3.8894437819217718e-02 0.0000000000000000e+00  -6.5263483701049384e-03 -4.0141306530261475e-02 0.0000000000000000e+00  -6.5239588198574951e-03 -4.1388274727802286e-02 0.0000000000000000e+00  -6.5218844693068897e-03 -4.2635299714068153e-02 0.0000000000000000e+00  -6.5200723632290181e-03 -4.3882350085529896e-02 0.0000000000000000e+00  -6.5184756099587226e-03 -4.5129403307380501e-02 0.0000000000000000e+00  -6.5170531895512758e-03 -4.6376443719519440e-02 0.0000000000000000e+00  -6.5157695426406488e-03 -4.7623460920908023e-02 0.0000000000000000e+00  -6.5145940224436236e-03 -4.8870448483167919e-02 0.0000000000000000e+00  -6.5135002725494719e-03 -5.0117402949687355e-02 0.0000000000000000e+00  -6.5124655799376633e-03 -5.1364323082584248e-02 0.0000000000000000e+00  -6.5114702473840248e-03 -5.2611209325828863e-02 0.0000000000000000e+00  -6.5104970358974947e-03 -5.3858063457155360e-02 0.0000000000000000e+00  -6.5095307561367655e-03 -5.5104888400668232e-02 0.0000000000000000e+00  -6.5085581646437060e-03 -5.6351688157175124e-02 0.0000000000000000e+00  -6.5075685146320080e-03 -5.7598467763961568e-02 0.0000000000000000e+00  -6.5065555447234155e-03 -5.8845233213914057e-02 0.0000000000000000e+00  -1.2586635760140166e-03 -1.0228668652722107e-03 0.0000000000000000e+00  -2.4427970677124151e-03 -2.2368020383373125e-03 0.0000000000000000e+00  -3.3808826370313287e-03 -3.4974888569618734e-03 0.0000000000000000e+00  -4.0915500617134445e-03 -4.7390776740970234e-03 0.0000000000000000e+00  -4.6277690443847245e-03 -5.9538312575026925e-03 0.0000000000000000e+00  -5.0321804936725219e-03 -7.1489220746822728e-03 0.0000000000000000e+00  -5.3358367291369601e-03 -8.3326000671942822e-03 0.0000000000000000e+00  -5.5617695635912096e-03 -9.5113843628618910e-03 0.0000000000000000e+00  -5.7275314135993753e-03 -1.0689892900221831e-02 0.0000000000000000e+00  -5.8467640562139015e-03 -1.1871188267829211e-02 0.0000000000000000e+00  -5.9301969256747872e-03 -1.3057161459539666e-02 0.0000000000000000e+00  -5.9863172672179931e-03 -1.4248853305423196e-02 0.0000000000000000e+00  -6.0218450176957048e-03 -1.5446703851564084e-02 0.0000000000000000e+00  -6.0420861050492986e-03 -1.6650740445423608e-02 0.0000000000000000e+00  -6.0512059516170001e-03 -1.7860717635780080e-02 0.0000000000000000e+00  -6.0524475191265402e-03 -1.9076220095348838e-02 0.0000000000000000e+00  -6.0483085664911895e-03 -2.0296737365787160e-02 0.0000000000000000e+00  -6.0406873736383940e-03 -2.1521717186823469e-02 0.0000000000000000e+00  -6.0310031135882821e-03 -2.2750602599880883e-02 0.0000000000000000e+00  -6.0202952869516163e-03 -2.3982856828711829e-02 0.0000000000000000e+00  -6.0093055867745998e-03 -2.5217979036805570e-02 0.0000000000000000e+00  -5.9985449118780355e-03 -2.6455513366234834e-02 0.0000000000000000e+00  -5.9883478122695682e-03 -2.7695053120389349e-02 0.0000000000000000e+00  -5.9789163315125638e-03 -2.8936241525964763e-02 0.0000000000000000e+00  -5.9703549552477080e-03 -3.0178770171380497e-02 0.0000000000000000e+00  -5.9626981555180565e-03 -3.1422375950670378e-02 0.0000000000000000e+00  -5.9559318244128134e-03 -3.2666837129836500e-02 0.0000000000000000e+00  -5.9500097124155285e-03 -3.3911968985872232e-02 0.0000000000000000e+00  -5.9448658248111930e-03 -3.5157619338556739e-02 0.0000000000000000e+00  -5.9404235830865966e-03 -3.6403664194716176e-02 0.0000000000000000e+00  -5.9366024273348819e-03 -3.7650003648182828e-02 0.0000000000000000e+00  -5.9333224200156355e-03 -3.8896558121410151e-02 0.0000000000000000e+00  -5.9305073105186895e-03 -4.0143264992667155e-02 0.0000000000000000e+00  -5.9280864330291004e-03 -4.1390075622698794e-02 0.0000000000000000e+00  -5.9259957361633177e-03 -4.2636952774017092e-02 0.0000000000000000e+00  -5.9241781805643157e-03 -4.3883868402412742e-02 0.0000000000000000e+00  -5.9225836888760503e-03 -4.5130801792091571e-02 0.0000000000000000e+00  -5.9211687900558975e-03 -4.6377738001617909e-02 0.0000000000000000e+00  -5.9198960657344353e-03 -4.7624666586461854e-02 0.0000000000000000e+00  -5.9187334794064215e-03 -4.8871580564451962e-02 0.0000000000000000e+00  -5.9176536491006440e-03 -5.0118475592039240e-02 0.0000000000000000e+00  -5.9166331109084943e-03 -5.1365349321218751e-02 0.0000000000000000e+00  -5.9156516155433958e-03 -5.2612200908481267e-02 0.0000000000000000e+00  -5.9146915062769610e-03 -5.3859030647657374e-02 0.0000000000000000e+00  -5.9137372514551749e-03 -5.5105839698818458e-02 0.0000000000000000e+00  -5.9127752612880636e-03 -5.6352629895887588e-02 0.0000000000000000e+00  -5.9117942130965202e-03 -5.7599403693522747e-02 0.0000000000000000e+00  -5.9107861333487872e-03 -5.8846164659979848e-02 0.0000000000000000e+00  -1.0210425491340141e-03 -9.3510549002346623e-04 0.0000000000000000e+00  -2.0168791532094318e-03 -2.0304523416083335e-03 0.0000000000000000e+00  -2.8682769275723470e-03 -3.2205934472293615e-03 0.0000000000000000e+00  -3.5469573062498140e-03 -4.4435907090904538e-03 0.0000000000000000e+00  -4.0718221244029551e-03 -5.6699842559678332e-03 0.0000000000000000e+00  -4.4716422760040613e-03 -6.8907625874991699e-03 0.0000000000000000e+00  -4.7726050529561977e-03 -8.1052914690231785e-03 0.0000000000000000e+00  -4.9961433745420447e-03 -9.3155497155447825e-03 0.0000000000000000e+00  -5.1593687406868540e-03 -1.0523908817402859e-02 0.0000000000000000e+00  -5.2758866645004933e-03 -1.1732389180465411e-02 0.0000000000000000e+00  -5.3565157096021158e-03 -1.2942481834107039e-02 0.0000000000000000e+00  -5.4098529433771435e-03 -1.4155174314499211e-02 0.0000000000000000e+00  -5.4427119109776052e-03 -1.5371039798302861e-02 0.0000000000000000e+00  -5.4604660009535304e-03 -1.6590335396573005e-02 0.0000000000000000e+00  -5.4673225318326683e-03 -1.7813090176596810e-02 0.0000000000000000e+00  -5.4665450452417311e-03 -1.9039177391828494e-02 0.0000000000000000e+00  -5.4606356052075847e-03 -2.0268370867636509e-02 0.0000000000000000e+00  -5.4514852003571292e-03 -2.1500387458722400e-02 0.0000000000000000e+00  -5.4404980304296495e-03 -2.2734918007172904e-02 0.0000000000000000e+00  -5.4286940223506894e-03 -2.3971649154681449e-02 0.0000000000000000e+00  -5.4167930133569358e-03 -2.5210278072212235e-02 0.0000000000000000e+00  -5.4052834376891188e-03 -2.6450521826606038e-02 0.0000000000000000e+00  -5.3944779264471351e-03 -2.7692122773828209e-02 0.0000000000000000e+00  -5.3845579012922360e-03 -2.8934851078091014e-02 0.0000000000000000e+00  -5.3756089702257925e-03 -3.0178505211400773e-02 0.0000000000000000e+00  -5.3676486962042653e-03 -3.1422911087470431e-02 0.0000000000000000e+00  -5.3606480965713993e-03 -3.2667920322469166e-02 0.0000000000000000e+00  -5.3545480387375693e-03 -3.3913407986963268e-02 0.0000000000000000e+00  -5.3492715235057883e-03 -3.5159270112988757e-02 0.0000000000000000e+00  -5.3447326913159303e-03 -3.6405421142426120e-02 0.0000000000000000e+00  -5.3408432480532165e-03 -3.7651791443353892e-02 0.0000000000000000e+00  -5.3375168854025790e-03 -3.8898324976177699e-02 0.0000000000000000e+00  -5.3346721652158145e-03 -4.0144977158020470e-02 0.0000000000000000e+00  -5.3322342469227417e-03 -4.1391712949625986e-02 0.0000000000000000e+00  -5.3301357604030571e-03 -4.2638505171838030e-02 0.0000000000000000e+00  -5.3283170625770008e-03 -4.3885333046929938