<?xml version="1.0"?>
<VTKFile type="UnstructuredGrid"  version="0.1"  >
<UnstructuredGrid>
<Piece  NumberOfPoints="6792" NumberOfCells="13154">
<Points>
<DataArray  type="Float64"  NumberOfComponents="3"  format="ascii">4.8 0 0  5.2 0 0  5.2 -0.4 0  4.8 -0.4 0  4.5 -0.4 0  5.5 -0.4 0  5.5 -0.6000000000000001 0  4.5 -0.6000000000000001 0  0 -3 0  0 0 0  10 -3 0  10 0 0  5.2 -0.01666666666666669 0  5.2 -0.03333333333333339 0  5.2 -0.05000000000000009 0  5.2 -0.06666666666666679 0  5.2 -0.0833333333333335 0  5.2 -0.1000000000000002 0  5.2 -0.1166666666666669 0  5.2 -0.1333333333333336 0  5.2 -0.1500000000000002 0  5.2 -0.1666666666666669 0  5.2 -0.1833333333333335 0  5.2 -0.2000000000000001 0  5.2 -0.2166666666666668 0  5.2 -0.2333333333333335 0  5.2 -0.2500000000000002 0  5.2 -0.2666666666666669 0  5.2 -0.2833333333333335 0  5.2 -0.3000000000000002 0  5.2 -0.3166666666666668 0  5.2 -0.3333333333333335 0  5.2 -0.3500000000000001 0  5.2 -0.3666666666666668 0  5.2 -0.3833333333333334 0  4.8 -0.3833333333333333 0  4.8 -0.3666666666666666 0  4.8 -0.3499999999999999 0  4.8 -0.3333333333333333 0  4.8 -0.3166666666666665 0  4.8 -0.2999999999999998 0  4.8 -0.2833333333333331 0  4.8 -0.2666666666666664 0  4.8 -0.2499999999999998 0  4.8 -0.2333333333333331 0  4.8 -0.2166666666666665 0  4.8 -0.1999999999999999 0  4.8 -0.1833333333333332 0  4.8 -0.1666666666666665 0  4.8 -0.1499999999999998 0  4.8 -0.1333333333333331 0  4.8 -0.1166666666666665 0  4.8 -0.09999999999999987 0  4.8 -0.0833333333333332 0  4.8 -0.06666666666666654 0  4.8 -0.04999999999999988 0  4.8 -0.03333333333333327 0  4.8 -0.01666666666666661 0  5.5 -0.4083333333333334 0  5.5 -0.4166666666666667 0  5.5 -0.425 0  5.5 -0.4333333333333334 0  5.5 -0.4416666666666668 0  5.5 -0.4500000000000001 0  5.5 -0.4583333333333334 0  5.5 -0.4666666666666668 0  5.5 -0.4750000000000001 0  5.5 -0.4833333333333335 0  5.5 -0.4916666666666668 0  5.5 -0.5000000000000002 0  5.5 -0.5083333333333335 0  5.5 -0.5166666666666668 0  5.5 -0.5250000000000002 0  5.5 -0.5333333333333335 0  5.5 -0.5416666666666669 0  5.5 -0.5500000000000002 0  5.5 -0.5583333333333335 0  5.5 -0.5666666666666668 0  5.5 -0.5750000000000002 0  5.5 -0.5833333333333335 0  5.5 -0.5916666666666668 0  5.479591836734694 -0.6000000000000001 0  5.459183673469388 -0.6000000000000001 0  5.438775510204081 -0.6000000000000001 0  5.418367346938775 -0.6000000000000001 0  5.397959183673469 -0.6000000000000001 0  5.377551020408164 -0.6000000000000001 0  5.357142857142857 -0.6000000000000001 0  5.336734693877551 -0.6000000000000001 0  5.316326530612245 -0.6000000000000001 0  5.295918367346939 -0.6000000000000001 0  5.275510204081633 -0.6000000000000001 0  5.255102040816326 -0.6000000000000001 0  5.23469387755102 -0.6000000000000001 0  5.214285714285714 -0.6000000000000001 0  5.193877551020408 -0.6000000000000001 0  5.173469387755102 -0.6000000000000001 0  5.153061224489796 -0.6000000000000001 0  5.13265306122449 -0.6000000000000001 0  5.112244897959184 -0.6000000000000001 0  5.091836734693878 -0.6000000000000001 0  5.071428571428571 -0.6000000000000001 0  5.051020408163265 -0.6000000000000001 0  5.030612244897959 -0.6000000000000001 0  5.010204081632653 -0.6000000000000001 0  4.989795918367347 -0.6000000000000001 0  4.969387755102041 -0.6000000000000001 0  4.948979591836735 -0.6000000000000001 0  4.928571428571429 -0.6000000000000001 0  4.908163265306122 -0.6000000000000001 0  4.887755102040816 -0.6000000000000001 0  4.86734693877551 -0.6000000000000001 0  4.846938775510204 -0.6000000000000001 0  4.826530612244898 -0.6000000000000001 0  4.806122448979592 -0.6000000000000001 0  4.785714285714286 -0.6000000000000001 0  4.76530612244898 -0.6000000000000001 0  4.744897959183674 -0.6000000000000001 0  4.724489795918368 -0.6000000000000001 0  4.704081632653061 -0.6000000000000001 0  4.683673469387755 -0.6000000000000001 0  4.663265306122449 -0.6000000000000001 0  4.642857142857143 -0.6000000000000001 0  4.622448979591836 -0.6000000000000001 0  4.602040816326531 -0.6000000000000001 0  4.581632653061225 -0.6000000000000001 0  4.561224489795919 -0.6000000000000001 0  4.540816326530612 -0.6000000000000001 0  4.520408163265306 -0.6000000000000001 0  4.5 -0.5916666666666668 0  4.5 -0.5833333333333334 0  4.5 -0.5750000000000001 0  4.5 -0.5666666666666668 0  4.5 -0.5583333333333333 0  4.5 -0.55 0  4.5 -0.5416666666666667 0  4.5 -0.5333333333333333 0  4.5 -0.525 0  4.5 -0.5166666666666666 0  4.5 -0.5083333333333333 0  4.5 -0.4999999999999999 0  4.5 -0.4916666666666666 0  4.5 -0.4833333333333332 0  4.5 -0.4749999999999999 0  4.5 -0.4666666666666666 0  4.5 -0.4583333333333333 0  4.5 -0.45 0  4.5 -0.4416666666666667 0  4.5 -0.4333333333333333 0  4.5 -0.425 0  4.5 -0.4166666666666667 0  4.5 -0.4083333333333334 0  0 -2.842105263157895 0  0 -2.684210526315789 0  0 -2.526315789473684 0  0 -2.368421052631579 0  0 -2.210526315789473 0  0 -2.052631578947369 0  0 -1.894736842105263 0  0 -1.736842105263158 0  0 -1.578947368421053 0  0 -1.421052631578947 0  0 -1.263157894736842 0  0 -1.105263157894737 0  0 -0.9473684210526319 0  0 -0.7894736842105265 0  0 -0.6315789473684212 0  0 -0.4736842105263159 0  0 -0.3157894736842106 0  0 -0.1578947368421053 0  9.836518447033493 -3 0  9.676485174132324 -3 0  9.519716728676565 -3 0  9.366040597429432 -3 0  9.215293522901804 -3 0  9.067325347766827 -3 0  8.921978167503752 -3 0  8.779125793186953 -3 0  8.638633440048579 -3 0  8.500376249002967 -3 0  8.364235730108557 -3 0  8.230099119300583 -3 0  8.097858693472926 -3 0  7.96741165420296 -3 0  7.838659590098249 -3 0  7.711508416266758 -3 0  7.585867779025237 -3 0  7.461651037321721 -3 0  7.338774694871047 -3 0  7.217158563845377 -3 0  7.096725097152937 -3 0  6.977399455051415 -3 0  6.859109304538208 -3 0  6.741784490575633 -3 0  6.625356935727237 -3 0  6.509760461250432 -3 0  6.394930659317325 -3 0  6.2808046903675 -3 0  6.167321173775116 -3 0  6.054420032640893 -3 0  5.942042373994132 -3 0  5.830130346471836 -3 0  5.718627047087892 -3 0  5.607476358937133 -3 0  5.496622874861212 -3 0  5.386011773348871 -3 0  5.275588701244851 -3 0  5.1652996754838 -3 0  5.055090972556302 -3 0  4.944909027443701 -3 0  4.834700324516204 -3 0  4.724411298755151 -3 0  4.613988226651132 -3 0  4.50337712513879 -3 0  4.392523641062869 -3 0  4.281372952912111 -3 0  4.169869653528168 -3 0  4.05795762600587 -3 0  3.94557996735911 -3 0  3.832678826224885 -3 0  3.719195309632506 -3 0  3.605069340682676 -3 0  3.490239538749567 -3 0  3.374643064272765 -3 0  3.25821550942437 -3 0  3.140890695461794 -3 0  3.022600544948583 -3 0  2.903274902847057 -3 0  2.782841436154621 -3 0  2.661225305128949 -3 0  2.538348962678273 -3 0  2.414132220974763 -3 0  2.288491583733238 -3 0  2.161340409901745 -3 0  2.032588345797035 -3 0  1.902141306527067 -3 0  1.76990088069941 -3 0  1.63576426989143 -3 0  1.499623750997021 -3 0  1.361366559951406 -3 0  1.220874206813038 -3 0  1.078021832496241 -3 0  0.9326746522331657 -3 0  0.7847064770981866 -3 0  0.6339594025705644 -3 0  0.4802832713234277 -3 0  0.3235148258676688 -3 0  0.1634815529665037 -3 0  10 -0.1578947368421053 0  10 -0.3157894736842105 0  10 -0.4736842105263158 0  10 -0.631578947368421 0  10 -0.7894736842105263 0  10 -0.9473684210526315 0  10 -1.105263157894737 0  10 -1.263157894736842 0  10 -1.421052631578947 0  10 -1.578947368421053 0  10 -1.736842105263158 0  10 -1.894736842105263 0  10 -2.052631578947368 0  10 -2.210526315789473 0  10 -2.368421052631579 0  10 -2.526315789473684 0  10 -2.684210526315789 0  10 -2.842105263157895 0  5.242711110728958 0 0  5.286293876649897 0 0  5.330766086621492 0 0  5.376145892152014 0 0  5.42245181646005 0 0  5.469702760230978 0 0  5.517918009047484 0 0  5.567117241926971 0 0  5.617320540136478 0 0  5.668548395689594 0 0  5.720821717944563 0 0  5.774161842706401 0 0  5.828590541705438 0 0  5.884130030266638 0 0  5.94080297745657 0 0  5.998632515975636 0 0  6.057642249464515 0 0  6.117856263073772 0 0  6.179299133754786 0 0  6.241995940196628 0 0  6.305972273202026 0 0  6.371254245734116 0 0  6.437868503398305 0 0  6.505842236065488 0 0  6.57520318781872 0 0  6.645979668702895 0 0  6.718200567773351 0 0  6.791895362948095 0 0  6.867094133486367 0 0  6.943827572999363 0 0  7.022127001505145 0 0  7.102024377265316 0 0  7.18355231127951 0 0  7.266744080958588 0 0  7.351633642095368 0 0  7.438255642858786 0 0  7.526645439729658 0 0  7.616839110635373 0 0  7.70887346833099 0 0  7.802786078238742 0 0  7.898615271798998 0 0  7.99640016325088 0 0  8.096180665028355 0 0  8.197997502914994 0 0  8.301892235603667 0 0  8.40790726914452 0 0  8.516085874883178 0 0  8.626472207502559 0 0  8.739111322234072 0 0  8.854049194324977 0 0  8.971332737055752 0 0  9.091009821249205 0 0  9.213129294849979 0 0  9.337741002569205 0 0  9.464895806341062 0 0  9.594645606616213 0 0  9.727043362350333 0 0  9.862143112515479 0 0  5.2125 -0.4 0  5.225 -0.4 0  5.2375 -0.4 0  5.25 -0.4 0  5.2625 -0.4 0  5.275 -0.4 0  5.2875 -0.4 0  5.3 -0.4 0  5.3125 -0.4 0  5.325 -0.4 0  5.337499999999999 -0.4 0  5.35 -0.4 0  5.3625 -0.4 0  5.375 -0.4 0  5.3875 -0.4 0  5.4 -0.4 0  5.4125 -0.4 0  5.425 -0.4 0  5.4375 -0.4 0  5.45 -0.4 0  5.4625 -0.4 0  5.475 -0.4 0  5.4875 -0.4 0  4.5125 -0.4 0  4.525 -0.4 0  4.5375 -0.4 0  4.55 -0.4 0  4.5625 -0.4 0  4.575 -0.4 0  4.587499999999999 -0.4 0  4.6 -0.4 0  4.6125 -0.4 0  4.625 -0.4 0  4.637499999999999 -0.4 0  4.649999999999999 -0.4 0  4.6625 -0.4 0  4.675 -0.4 0  4.6875 -0.4 0  4.699999999999999 -0.4 0  4.712499999999999 -0.4 0  4.725 -0.4 0  4.7375 -0.4 0  4.75 -0.4 0  4.7625 -0.4 0  4.774999999999999 -0.4 0  4.7875 -0.4 0  0.1378568874845195 0 0  0.2729566376496684 0 0  0.4053543933837926 0 0  0.5351041936589437 0 0  0.6622589974307957 0 0  0.7868707051500208 0 0  0.9089901787507969 0 0  1.028667262944252 0 0  1.145950805675029 0 0  1.260888677765933 0 0  1.373527792497444 0 0  1.483914125116827 0 0  1.592092730855484 0 0  1.698107764396336 0 0  1.802002497085009 0 0  1.903819334971649 0 0  2.003599836749125 0 0  2.1013847282010
[...]
<PointData  Vectors="displacement"> 
<DataArray  type="Float64"  Name="displacement"  NumberOfComponents="3" format="ascii">0.0000000000000000e+00 -3.6763923560819188e-03 0.0000000000000000e+00  0.0000000000000000e+00 -3.6773397432927602e-03 0.0000000000000000e+00  0.0000000000000000e+00 -3.7956969401854636e-03 0.0000000000000000e+00  0.0000000000000000e+00 -3.7947225165570982e-03 0.0000000000000000e+00  0.0000000000000000e+00 -3.7158333466084294e-03 0.0000000000000000e+00  0.0000000000000000e+00 -3.7165827207234809e-03 0.0000000000000000e+00  0.0000000000000000e+00 -4.8165099216604234e-03 0.0000000000000000e+00  0.0000000000000000e+00 -4.8024567567741174e-03 0.0000000000000000e+00  0.0000000000000000e+00 0.0000000000000000e+00 0.0000000000000000e+00  0.0000000000000000e+00 2.1490327351636162e-04 0.0000000000000000e+00  0.0000000000000000e+00 0.0000000000000000e+00 0.0000000000000000e+00  0.0000000000000000e+00 2.1494305430745010e-04 0.0000000000000000e+00  0.0000000000000000e+00 -3.6871998041498209e-03 0.0000000000000000e+00  0.0000000000000000e+00 -3.6966217081030746e-03 0.0000000000000000e+00  0.0000000000000000e+00 -3.7055922117265202e-03 0.0000000000000000e+00  0.0000000000000000e+00 -3.7141031151657461e-03 0.0000000000000000e+00  0.0000000000000000e+00 -3.7221501616437353e-03 0.0000000000000000e+00  0.0000000000000000e+00 -3.7297322716286900e-03 0.0000000000000000e+00  0.0000000000000000e+00 -3.7368513125222206e-03 0.0000000000000000e+00  0.0000000000000000e+00 -3.7435114751826950e-03 0.0000000000000000e+00  0.0000000000000000e+00 -3.7497189964845325e-03 0.0000000000000000e+00  0.0000000000000000e+00 -3.7554816444414084e-03 0.0000000000000000e+00  0.0000000000000000e+00 -3.7608086223139157e-03 0.0000000000000000e+00  0.0000000000000000e+00 -3.7657107065554580e-03 0.0000000000000000e+00  0.0000000000000000e+00 -3.7701996744852308e-03 0.0000000000000000e+00  0.0000000000000000e+00 -3.7742880708656478e-03 0.0000000000000000e+00  0.0000000000000000e+00 -3.7779895815748124e-03 0.0000000000000000e+00  0.0000000000000000e+00 -3.7813181710479493e-03 0.0000000000000000e+00  0.0000000000000000e+00 -3.7842876358608842e-03 0.0000000000000000e+00  0.0000000000000000e+00 -3.7869111251972207e-03 0.0000000000000000e+00  0.0000000000000000e+00 -3.7891996117914752e-03 0.0000000000000000e+00  0.0000000000000000e+00 -3.7911610136719424e-03 0.0000000000000000e+00  0.0000000000000000e+00 -3.7927985295749958e-03 0.0000000000000000e+00  0.0000000000000000e+00 -3.7941089354453458e-03 0.0000000000000000e+00  0.0000000000000000e+00 -3.7950815141000725e-03 0.0000000000000000e+00  0.0000000000000000e+00 -3.7941051963680710e-03 0.0000000000000000e+00  0.0000000000000000e+00 -3.7931309624673316e-03 0.0000000000000000e+00  0.0000000000000000e+00 -3.7918190467260684e-03 0.0000000000000000e+00  0.0000000000000000e+00 -3.7901804622155881e-03 0.0000000000000000e+00  0.0000000000000000e+00 -3.7882181971338660e-03 0.0000000000000000e+00  0.0000000000000000e+00 -3.7859291635189522e-03 0.0000000000000000e+00  0.0000000000000000e+00 -3.7833054485086003e-03 0.0000000000000000e+00  0.0000000000000000e+00 -3.7803359060647104e-03 0.0000000000000000e+00  0.0000000000000000e+00 -3.7770078570089727e-03 0.0000000000000000e+00  0.0000000000000000e+00 -3.7733068779039099e-03 0.0000000000000000e+00  0.0000000000000000e+00 -3.7692195169848038e-03 0.0000000000000000e+00  0.0000000000000000e+00 -3.7647318190778259e-03 0.0000000000000000e+00  0.0000000000000000e+00 -3.7598310606920195e-03 0.0000000000000000e+00  0.0000000000000000e+00 -3.7545057374131188e-03 0.0000000000000000e+00  0.0000000000000000e+00 -3.7487449444495538e-03 0.0000000000000000e+00  0.0000000000000000e+00 -3.7425395773915773e-03 0.0000000000000000e+00  0.0000000000000000e+00 -3.7358817021412097e-03 0.0000000000000000e+00  0.0000000000000000e+00 -3.7287651664261240e-03 0.0000000000000000e+00  0.0000000000000000e+00 -3.7211857927895850e-03 0.0000000000000000e+00  0.0000000000000000e+00 -3.7131417249545583e-03 0.0000000000000000e+00  0.0000000000000000e+00 -3.7046338386742600e-03 0.0000000000000000e+00  0.0000000000000000e+00 -3.6956667452631184e-03 0.0000000000000000e+00  0.0000000000000000e+00 -3.6862484690803124e-03 0.0000000000000000e+00  0.0000000000000000e+00 -3.7343088455960385e-03 0.0000000000000000e+00  0.0000000000000000e+00 -3.7477226688313599e-03 0.0000000000000000e+00  0.0000000000000000e+00 -3.7610470947703669e-03 0.0000000000000000e+00  0.0000000000000000e+00 -3.7747174019873361e-03 0.0000000000000000e+00  0.0000000000000000e+00 -3.7889124843696301e-03 0.0000000000000000e+00  0.0000000000000000e+00 -3.8037409951554545e-03 0.0000000000000000e+00  0.0000000000000000e+00 -3.8192813315425741e-03 0.0000000000000000e+00  0.0000000000000000e+00 -3.8356106951411965e-03 0.0000000000000000e+00  0.0000000000000000e+00 -3.8527901155244490e-03 0.0000000000000000e+00  0.0000000000000000e+00 -3.8709056193245491e-03 0.0000000000000000e+00  0.0000000000000000e+00 -3.8900334102887259e-03 0.0000000000000000e+00  0.0000000000000000e+00 -3.9102678815792335e-03 0.0000000000000000e+00  0.0000000000000000e+00 -3.9317164511984840e-03 0.0000000000000000e+00  0.0000000000000000e+00 -3.9545173730890695e-03 0.0000000000000000e+00  0.0000000000000000e+00 -3.9788230389345963e-03 0.0000000000000000e+00  0.0000000000000000e+00 -4.0048662258234686e-03 0.0000000000000000e+00  0.0000000000000000e+00 -4.0329803593704269e-03 0.0000000000000000e+00  0.0000000000000000e+00 -4.0637513388367538e-03 0.0000000000000000e+00  0.0000000000000000e+00 -4.0993799663336375e-03 0.0000000000000000e+00  0.0000000000000000e+00 -4.1438081157435134e-03 0.0000000000000000e+00  0.0000000000000000e+00 -4.2028995423487713e-03 0.0000000000000000e+00  0.0000000000000000e+00 -4.2762026274115799e-03 0.0000000000000000e+00  0.0000000000000000e+00 -4.4254647241989999e-03 0.0000000000000000e+00  -6.0581896497535412e-04 -6.4810660461209280e-03 0.0000000000000000e+00  -6.8189690864546072e-04 -7.1389845248396684e-03 0.0000000000000000e+00  -7.1460510629964909e-04 -7.5588980192616180e-03 0.0000000000000000e+00  -7.1851333180422922e-04 -7.8960615002742814e-03 0.0000000000000000e+00  -7.0786793077009115e-04 -8.1788329896181136e-03 0.0000000000000000e+00  -6.8876552427860039e-04 -8.4236997757746734e-03 0.0000000000000000e+00  -6.6464758003072092e-04 -8.6397629538436365e-03 0.0000000000000000e+00  -6.3711926425126465e-04 -8.8327280303718055e-03 0.0000000000000000e+00  -6.0688637423205534e-04 -9.0062659663524992e-03 0.0000000000000000e+00  -5.7454458326375584e-04 -9.1628308767556319e-03 0.0000000000000000e+00  -5.4049578896661361e-04 -9.3042988171108416e-03 0.0000000000000000e+00  -5.0500596478875019e-04 -9.4321068976712039e-03 0.0000000000000000e+00  -4.6828539842126639e-04 -9.5473275969580260e-03 0.0000000000000000e+00  -4.3051744753527847e-04 -9.6507991461718349e-03 0.0000000000000000e+00  -3.9186129568385313e-04 -9.7432119126012011e-03 0.0000000000000000e+00  -3.5243970918770890e-04 -9.8251188276255140e-03 0.0000000000000000e+00  -3.1236409067911676e-04 -9.8969692105736213e-03 0.0000000000000000e+00  -2.7173975235271551e-04 -9.9591339781965674e-03 0.0000000000000000e+00  -2.3065665768023724e-04 -1.0011917240818454e-02 0.0000000000000000e+00  -1.8919649628574672e-04 -1.0055566483330456e-02 0.0000000000000000e+00  -1.4742975666915396e-04 -1.0090272860709031e-02 0.0000000000000000e+00  -1.0542699936967617e-04 -1.0116185270685312e-02 0.0000000000000000e+00  -6.3264017482914025e-05 -1.0133408348499110e-02 0.0000000000000000e+00  -2.1000839325161190e-05 -1.0142009339234823e-02 0.0000000000000000e+00  2.1291879089713455e-05 -1.0142027514573802e-02 0.0000000000000000e+00  6.3552983376304449e-05 -1.0133464428241075e-02 0.0000000000000000e+00  1.0572049688453281e-04 -1.0116283380576720e-02 0.0000000000000000e+00  1.4772409442105069e-04 -1.0090411666457029e-02 0.0000000000000000e+00  1.8949231866069219e-04 -1.0055739879793961e-02 0.0000000000000000e+00  2.3096303409499486e-04 -1.0012126434148758e-02 0.0000000000000000e+00  2.7205081682626925e-04 -9.9593756634556926e-03 0.0000000000000000e+00  3.1267694107675408e-04 -9.8972459328358822e-03 0.0000000000000000e+00  3.5274588096249204e-04 -9.8254302802413106e-03 0.0000000000000000e+00  3.9217705714411296e-04 -9.7435707420939644e-03 0.0000000000000000e+00  4.3084031366283885e-04 -9.6512043425426054e-03 0.0000000000000000e+00  4.6860911709425615e-04 -9.5477808756415910e-03 0.0000000000000000e+00  5.0532333871916980e-04 -9.4326071174538392e-03 0.0000000000000000e+00  5.4083408813673578e-04 -9.3048685845005547e-03 0.0000000000000000e+00  5.7490499787448963e-04 -9.1634552637175366e-03 0.0000000000000000e+00  6.0722973482270121e-04 -9.0069411368007401e-03 0.0000000000000000e+00  6.3750582099687803e-04 -8.8334859334812648e-03 0.0000000000000000e+00  6.6506793395587540e-04 -8.6405236312807401e-03 0.0000000000000000e+00  6.8919126252601224e-04 -8.4245242051062055e-03 0.0000000000000000e+00  7.0835829058664955e-04 -8.1796815522792669e-03 0.0000000000000000e+00  7.1911216466466531e-04 -7.8969282884790160e-03 0.0000000000000000e+00  7.1491840864475068e-04 -7.5599838821586544e-03 0.0000000000000000e+00  6.8233620962123819e-04 -7.1339265222661857e-03 0.0000000000000000e+00  6.0241833462723452e-04 -6.4874931646303393e-03 0.0000000000000000e+00  0.0000000000000000e+00 -4.4192378326931344e-03 0.0000000000000000e+00  0.0000000000000000e+00 -4.2733390850469071e-03 0.0000000000000000e+00  0.0000000000000000e+00 -4.1997709735999500e-03 0.0000000000000000e+00  0.0000000000000000e+00 -4.1421640201156776e-03 0.0000000000000000e+00  0.0000000000000000e+00 -4.0980035899489597e-03 0.0000000000000000e+00  0.0000000000000000e+00 -4.0625817076717727e-03 0.0000000000000000e+00  0.0000000000000000e+00 -4.0318973703197978e-03 0.0000000000000000e+00  0.0000000000000000e+00 -4.0038179081807101e-03 0.0000000000000000e+00  0.0000000000000000e+00 -3.9777998562757298e-03 0.0000000000000000e+00  0.0000000000000000e+00 -3.9535168694810391e-03 0.0000000000000000e+00  0.0000000000000000e+00 -3.9307387025030033e-03 0.0000000000000000e+00  0.0000000000000000e+00 -3.9093032319802243e-03 0.0000000000000000e+00  0.0000000000000000e+00 -3.8890810325827754e-03 0.0000000000000000e+00  0.0000000000000000e+00 -3.8699680361583746e-03 0.0000000000000000e+00  0.0000000000000000e+00 -3.8518645895010569e-03 0.0000000000000000e+00  0.0000000000000000e+00 -3.8346932663592469e-03 0.0000000000000000e+00  0.0000000000000000e+00 -3.8183796623897327e-03 0.0000000000000000e+00  0.0000000000000000e+00 -3.8028474022127456e-03 0.0000000000000000e+00  0.0000000000000000e+00 -3.7880331008690840e-03 0.0000000000000000e+00  0.0000000000000000e+00 -3.7738492156104472e-03 0.0000000000000000e+00  0.0000000000000000e+00 -3.7601951709942409e-03 0.0000000000000000e+00  0.0000000000000000e+00 -3.7468952478566697e-03 0.0000000000000000e+00  0.0000000000000000e+00 -3.7335082332805511e-03 0.0000000000000000e+00  0.0000000000000000e+00 -3.6435903666211270e-07 0.0000000000000000e+00  0.0000000000000000e+00 3.8667208568686611e-06 0.0000000000000000e+00  0.0000000000000000e+00 1.2185439186740670e-05 0.0000000000000000e+00  0.0000000000000000e+00 2.3965127624074274e-05 0.0000000000000000e+00  0.0000000000000000e+00 3.8563045622997930e-05 0.0000000000000000e+00  0.0000000000000000e+00 5.5295823656571060e-05 0.0000000000000000e+00  0.0000000000000000e+00 7.3424659377235261e-05 0.0000000000000000e+00  0.0000000000000000e+00 9.2277264489856500e-05 0.0000000000000000e+00  0.0000000000000000e+00 1.1117087721154323e-04 0.0000000000000000e+00  0.0000000000000000e+00 1.2948442878877082e-04 0.0000000000000000e+00  0.0000000000000000e+00 1.4667878521548068e-04 0.0000000000000000e+00  0.0000000000000000e+00 1.6229441867265072e-04 0.0000000000000000e+00  0.0000000000000000e+00 1.7596027758985235e-04 0.0000000000000000e+00  0.0000000000000000e+00 1.8745736692083259e-04 0.0000000000000000e+00  0.0000000000000000e+00 1.9669334971014575e-04 0.0000000000000000e+00  0.0000000000000000e+00 2.0373344293969184e-04 0.0000000000000000e+00  0.0000000000000000e+00 2.0881121106981879e-04 0.0000000000000000e+00  0.0000000000000000e+00 2.1234225613841174e-04 0.0000000000000000e+00  0.0000000000000000e+00 0.0000000000000000e+00 0.0000000000000000e+00  0.0000000000000000e+00 0.0000000000000000e+00 0.0000000000000000e+00  0.0000000000000000e+00 0.0000000000000000e+00 0.0000000000000000e+00  0.0000000000000000e+00 0.0000000000000000e+00 0.0000000000000000e+00  0.0000000000000000e+00 0.0000000000000000e+00 0.0000000000000000e+00  0.0000000000000000e+00 0.0000000000000000e+00 0.0000000000000000e+00  0.0000000000000000e+00 0.0000000000000000e+00 0.0000000000000000e+00  0.0000000000000000e+00 0.0000000000000000e+00 0.0000000000000000e+00  0.0000000000000000e+00 0.0000000000000000e+00 0.0000000000000000e+00  0.0000000000000000e+00 0.0000000000000000e+00 0.0000000000000000e+00  0.0000000000000000e+00 0.0000000000000000e+00 0.0000000000000000e+00  0.0000000000000000e+00 0.0000000000000000e+00 0.0000000000000000e+00  0.0000000000000000e+00 0.0000000000000000e+00 0.0000000000000000e+00  0.0000000000000000e+00 0.0000000000000000e+00 0.0000000000000000e+00  0.0000000000000000e+00 0.0000000000000000e+00 0.0000000000000000e+00  0.0000000000000000e+00 0.0000000000000000e+00 0.0000000000000000e+00  0.0000000000000000e+00 0.0000000000000000e+00 0.0000000000000000e+00  0.0000000000000000e+00 0.0000000000000000e+00 0.0000000000000000e+00  0.0000000000000000e+00 0.0000000000000000e+00 0.0000000000000000e+00  0.0000000000000000e+00 0.0000000000000000e+00 0.0000000000000000e+00  0.0000000000000000e+00 0.0000000000000000e+00 0.0000000000000000e+00  0.0000000000000000e+00 0.0000000000000000e+00 0.0000000000000000e+00  0.0000000000000000e+00 0.0000000000000000e+00 0.0000000000000000e+00  0.0000000000000000e+00 0.0000000000000000e+00 0.0000000000000000e+00  0.0000000000000000e+00 0.0000000000000000e+00 0.0000000000000000e+00  0.0000000000000000e+00 0.0000000000000000e+00 0.0000000000000000e+00  0.0000000000000000e+00 0.0000000000000000e+00 0.0000000000000000e+00  0.0000000000000000e+00 0.0000000000000000e+00 0.0000000000000000e+00  0.0000000000000000e+00 0.0000000000000000e+00 0.0000000000000000e+00  0.0000000000000000e+00 0.0000000000000000e+00 0.0000000000000000e+00  0.0000000000000000e+00 0.0000000000000000e+00 0.0000000000000000e+00  0.0000000000000000e+00 0.0000000000000000e+00 0.0000000000000000e+00  0.0000000000000000e+00 0.0000000000000000e+00 0.0000000000000000e+00  0.0000000000000000e+00 0.0000000000000000e+00 0.0000000000000000e+00  0.0000000000000000e+00 0.0000000000000000e+00 0.0000000000000000e+00  0.0000000000000000e+00 0.0000000000000000e+00 0.0000000000000000e+00  0.0000000000000000e+00 0.0000000000000000e+00 0.0000000000000000e+00  0.0000000000000000e+00 0.0000000000000000e+00 0.0000000000000000e+00  0.0000000000000000e+00 0.0000000000000000e+00 0.0000000000000000e+00  0.0000000000000000e+00 0.0000000000000000e+00 0.0000000000000000e+00  0.0000000000000000e+00 0.0000000000000000e+00 0.0000000000000000e+00  0.0000000000000000e+00 0.0000000000000000e+00 0.0000000000000000e+00  0.0000000000000000e+00 0.0000000000000000e+00 0.0000000000000000e+00  0.0000000000000000e+00 0.0000000000000000e+00 0.0000000000000000e+00  0.0000000000000000e+00 0.0000000000000000e+00 0.0000000000000000e+00  0.0000000000000000e+00 0.0000000000000000e+00 0.0000000000000000e+00  0.0000000000000000e+00 0.0000000000000000e+00 0.0000000000000000e+00  0.0000000000000000e+00 0.0000000000000000e+00 0.0000000000000000e+00  0.0000000000000000e+00 0.0000000000000000e+00 0.0000000000000000e+00  0.0000000000000000e+00 0.0000000000000000e+00 0.0000000000000000e+00  0.0000000000000000e+00 0.0000000000000000e+00 0.0000000000000000e+00  0.0000000000000000e+00 0.0000000000000000e+00 0.0000000000000000e+00  0.0000000000000000e+00 0.0000000000000000e+00 0.0000000000000000e+00  0.0000000000000000e+00 0.0000000000000000e+00 0.0000000000000000e+00  0.0000000000000000e+00 0.0000000000000000e+00 0.0000000000000000e+00  0.0000000000000000e+00 0.0000000000000000e+00 0.0000000000000000e+00  0.0000000000000000e+00 0.0000000000000000e+00 0.0000000000000000e+00  0.0000000000000000e+00 0.0000000000000000e+00 0.0000000000000000e+00  0.0000000000000000e+00 0.0000000000000000e+00 0.0000000000000000e+00  0.0000000000000000e+00 0.0000000000000000e+00 0.0000000000000000e+00  0.0000000000000000e+00 0.0000000000000000e+00 0.0000000000000000e+00  0.0000000000000000e+00 0.0000000000000000e+00 0.0000000000000000e+00  0.0000000000000000e+00 0.0000000000000000e+00 0.0000000000000000e+00  0.0000000000000000e+00 0.0000000000000000e+00 0.0000000000000000e+00  0.0000000000000000e+00 0.0000000000000000e+00 0.0000000000000000e+00  0.0000000000000000e+00 0.0000000000000000e+00 0.0000000000000000e+00  0.0000000000000000e+00 0.0000000000000000e+00 0.0000000000000000e+00  0.0000000000000000e+00 0.0000000000000000e+00 0.0000000000000000e+00  0.0000000000000000e+00 0.0000000000000000e+00 0.0000000000000000e+00  0.0000000000000000e+00 0.0000000000000000e+00 0.0000000000000000e+00  0.0000000000000000e+00 0.0000000000000000e+00 0.0000000000000000e+00  0.0000000000000000e+00 0.0000000000000000e+00 0.0000000000000000e+00  0.0000000000000000e+00 0.0000000000000000e+00 0.0000000000000000e+00  0.0000000000000000e+00 0.0000000000000000e+00 0.0000000000000000e+00  0.0000000000000000e+00 0.0000000000000000e+00 0.0000000000000000e+00  0.0000000000000000e+00 0.0000000000000000e+00 0.0000000000000000e+00  0.0000000000000000e+00 0.0000000000000000e+00 0.0000000000000000e+00  0.0000000000000000e+00 0.0000000000000000e+00 0.0000000000000000e+00  0.0000000000000000e+00 2.1237993377372152e-04 0.0000000000000000e+00  0.0000000000000000e+00 2.0885010501212241e-04 0.0000000000000000e+00  0.0000000000000000e+00 2.0377251129506389e-04 0.0000000000000000e+00  0.0000000000000000e+00 1.9672652340771210e-04 0.0000000000000000e+00  0.0000000000000000e+00 1.8748935715436651e-04 0.0000000000000000e+00  0.0000000000000000e+00 1.7598977013622556e-04 0.0000000000000000e+00  0.0000000000000000e+00 1.6231791956157154e-04 0.0000000000000000e+00  0.0000000000000000e+00 1.4670302852825567e-04 0.0000000000000000e+00  0.0000000000000000e+00 1.2950901302462775e-04 0.0000000000000000e+00  0.0000000000000000e+00 1.1118372040656131e-04 0.0000000000000000e+00  0.0000000000000000e+00 9.2286829423883759e-05 0.0000000000000000e+00  0.0000000000000000e+00 7.3443347944773249e-05 0.0000000000000000e+00  0.0000000000000000e+00 5.5301039896799688e-05 0.0000000000000000e+00  0.0000000000000000e+00 3.8575560857909082e-05 0.0000000000000000e+00  0.0000000000000000e+00 2.3970399318126765e-05 0.0000000000000000e+00  0.0000000000000000e+00 1.2184766862167757e-05 0.0000000000000000e+00  0.0000000000000000e+00 3.8667273076544463e-06 0.0000000000000000e+00  0.0000000000000000e+00 -3.6443760301801177e-07 0.0000000000000000e+00  -6.0258316759060921e-05 -3.6741177389776206e-03 0.0000000000000000e+00  -1.2194944580625025e-04 -3.6641088705282481e-03 0.0000000000000000e+00  -1.8527690729502397e-04 -3.6466542632655114e-03 0.0000000000000000e+00  -2.5039670210597547e-04 -3.6208617534567505e-03 0.0000000000000000e+00  -3.1731821307739099e-04 -3.5855932596255634e-03 0.0000000000000000e+00  -3.8578426439332171e-04 -3.5394869064807985e-03 0.0000000000000000e+00  -4.5507043037145751e-04 -3.4810936882756207e-03 0.0000000000000000e+00  -5.2410252128653122e-04 -3.4090931907264882e-03 0.0000000000000000e+00  -5.9122150494722852e-04 -3.3225754851348012e-03 0.0000000000000000e+00  -6.5440322462027682e-04 -3.2213273998755107e-03 0.0000000000000000e+00  -7.1179919680520803e-04 -3.1059360508806644e-03 0.0000000000000000e+00  -7.6155444879125037e-04 -2.9777995041404067e-03 0.0000000000000000e+00  -8.0232059255278443e-04 -2.8389690707424317e-03 0.0000000000000000e+00  -8.3336904584163987e-04 -2.6919122817869079e-03 0.0000000000000000e+00  -8.5440786586542272e-04 -2.5391434981900415e-03 0.0000000000000000e+00  -8