<?xml version="1.0"?>
<VTKFile type="UnstructuredGrid"  version="0.1"  >
<UnstructuredGrid>
<Piece  NumberOfPoints="1250" NumberOfCells="2352">
<Points>
<DataArray  type="Float64"  NumberOfComponents="3"  format="ascii">0 0 0  0.0336 0 0  0.0336 0.07729999999999999 0  0 0.07729999999999999 0  0.001400000000000002 0 0  0.002800000000000005 0 0  0.004200000000000008 0 0  0.005600000000000009 0 0  0.007000000000000011 0 0  0.008400000000000013 0 0  0.009800000000000019 0 0  0.01120000000000002 0 0  0.01260000000000003 0 0  0.01400000000000003 0 0  0.01540000000000004 0 0  0.01680000000000005 0 0  0.01820000000000004 0 0  0.01960000000000004 0 0  0.02100000000000004 0 0  0.02240000000000003 0 0  0.02380000000000003 0 0  0.02520000000000002 0 0  0.02660000000000002 0 0  0.02800000000000001 0 0  0.02940000000000001 0 0  0.03080000000000001 0 0  0.0322 0 0  0.0336 0.001577551020408161 0  0.0336 0.003155102040816321 0  0.0336 0.004732653061224482 0  0.0336 0.006310204081632642 0  0.0336 0.007887755102040803 0  0.0336 0.009465306122448964 0  0.0336 0.01104285714285712 0  0.0336 0.01262040816326528 0  0.0336 0.01419795918367344 0  0.0336 0.0157755102040816 0  0.0336 0.01735306122448976 0  0.0336 0.01893061224489792 0  0.0336 0.02050816326530608 0  0.0336 0.02208571428571425 0  0.0336 0.02366326530612241 0  0.0336 0.02524081632653058 0  0.0336 0.02681836734693874 0  0.0336 0.02839591836734691 0  0.0336 0.02997346938775507 0  0.0336 0.03155102040816323 0  0.0336 0.0331285714285714 0  0.0336 0.03470612244897956 0  0.0336 0.03628367346938772 0  0.0336 0.03786122448979588 0  0.0336 0.03943877551020405 0  0.0336 0.04101632653061221 0  0.0336 0.04259387755102037 0  0.0336 0.04417142857142854 0  0.0336 0.04574897959183671 0  0.0336 0.04732653061224486 0  0.0336 0.04890408163265302 0  0.0336 0.05048163265306119 0  0.0336 0.05205918367346936 0  0.0336 0.05363673469387752 0  0.0336 0.05521428571428568 0  0.0336 0.05679183673469385 0  0.0336 0.05836938775510202 0  0.0336 0.05994693877551018 0  0.0336 0.06152448979591834 0  0.0336 0.0631020408163265 0  0.0336 0.06467959183673468 0  0.0336 0.06625714285714283 0  0.0336 0.06783469387755101 0  0.0336 0.06941224489795916 0  0.0336 0.07098979591836733 0  0.0336 0.07256734693877549 0  0.0336 0.07414489795918365 0  0.0336 0.07572244897959182 0  0.03219999999999999 0.07729999999999999 0  0.03079999999999999 0.07729999999999999 0  0.02939999999999999 0.07729999999999999 0  0.02799999999999999 0.07729999999999999 0  0.02659999999999999 0.07729999999999999 0  0.02519999999999999 0.07729999999999999 0  0.02379999999999998 0.07729999999999999 0  0.02239999999999998 0.07729999999999999 0  0.02099999999999997 0.07729999999999999 0  0.01959999999999996 0.07729999999999999 0  0.01819999999999996 0.07729999999999999 0  0.01679999999999995 0.07729999999999999 0  0.01539999999999996 0.07729999999999999 0  0.01399999999999996 0.07729999999999999 0  0.01259999999999996 0.07729999999999999 0  0.01119999999999997 0.07729999999999999 0  0.009799999999999972 0.07729999999999999 0  0.008399999999999977 0.07729999999999999 0  0.006999999999999978 0.07729999999999999 0  0.005599999999999983 0.07729999999999999 0  0.004199999999999988 0.07729999999999999 0  0.00279999999999999 0.07729999999999999 0  0.001399999999999998 0.07729999999999999 0  0 0.07572244897959184 0  0 0.07414489795918368 0  0 0.07256734693877551 0  0 0.07098979591836735 0  0 0.06941224489795919 0  0 0.06783469387755103 0  0 0.06625714285714288 0  0 0.06467959183673472 0  0 0.06310204081632656 0  0 0.0615244897959184 0  0 0.05994693877551023 0  0 0.05836938775510207 0  0 0.05679183673469392 0  0 0.05521428571428574 0  0 0.05363673469387759 0  0 0.05205918367346941 0  0 0.05048163265306126 0  0 0.04890408163265308 0  0 0.04732653061224493 0  0 0.04574897959183676 0  0 0.0441714285714286 0  0 0.04259387755102043 0  0 0.04101632653061228 0  0 0.03943877551020411 0  0 0.03786122448979595 0  0 0.03628367346938779 0  0 0.03470612244897962 0  0 0.03312857142857146 0  0 0.03155102040816329 0  0 0.02997346938775513 0  0 0.02839591836734697 0  0 0.0268183673469388 0  0 0.02524081632653064 0  0 0.02366326530612247 0  0 0.02208571428571431 0  0 0.02050816326530614 0  0 0.01893061224489798 0  0 0.01735306122448981 0  0 0.01577551020408165 0  0 0.01419795918367349 0  0 0.01262040816326532 0  0 0.01104285714285716 0  0 0.009465306122448988 0  0 0.00788775510204083 0  0 0.006310204081632659 0  0 0.004732653061224501 0  0 0.003155102040816343 0  0 0.001577551020408172 0  0.001400000000000004 0.001577551020408172 0  0.001400000000000004 0.003155102040816329 0  0.001400000000000002 0.004732653061224501 0  0.001400000000000002 0.006310204081632645 0  0.001400000000000005 0.007887755102040823 0  0.001400000000000002 0.009465306122448981 0  0.001400000000000002 0.01104285714285717 0  0.001400000000000004 0.01262040816326531 0  0.0014 0.01419795918367349 0  0.001400000000000002 0.01577551020408166 0  0.001400000000000005 0.0173530612244898 0  0.001400000000000002 0.01893061224489797 0  0.001400000000000002 0.02050816326530613 0  0.001400000000000002 0.02208571428571431 0  0.001400000000000002 0.02366326530612247 0  0.001400000000000002 0.02524081632653063 0  0.001400000000000002 0.0268183673469388 0  0.001400000000000002 0.02839591836734696 0  0.001400000000000002 0.02997346938775513 0  0.001400000000000002 0.03155102040816328 0  0.001400000000000002 0.03312857142857147 0  0.001399999999999997 0.03470612244897962 0  0.001400000000000005 0.03628367346938778 0  0.001400000000000002 0.03786122448979594 0  0.001400000000000002 0.03943877551020411 0  0.001400000000000002 0.04101632653061228 0  0.001400000000000002 0.04259387755102043 0  0.001400000000000002 0.0441714285714286 0  0.0014 0.04574897959183676 0  0.001400000000000002 0.04732653061224492 0  0.001400000000000004 0.04890408163265308 0  0.001400000000000002 0.05048163265306126 0  0.001400000000000002 0.05205918367346941 0  0.0014 0.05363673469387758 0  0.001400000000000004 0.05521428571428574 0  0.001399999999999998 0.05679183673469391 0  0.001400000000000002 0.05836938775510207 0  0.0014 0.05994693877551023 0  0.001400000000000002 0.0615244897959184 0  0.001400000000000002 0.06310204081632656 0  0.001400000000000002 0.06467959183673472 0  0.0014 0.06625714285714286 0  0.001400000000000002 0.06783469387755102 0  0.001399999999999998 0.06941224489795919 0  0.001400000000000002 0.07098979591836735 0  0.0014 0.07256734693877552 0  0.001400000000000002 0.07414489795918368 0  0.001400000000000002 0.07572244897959184 0  0.002800000000000006 0.001577551020408165 0  0.002800000000000004 0.003155102040816343 0  0.002800000000000002 0.004732653061224487 0  0.002800000000000002 0.006310204081632652 0  0.002800000000000002 0.007887755102040813 0  0.0028 0.009465306122448981 0  0.002799999999999997 0.01104285714285715 0  0.0028 0.01262040816326532 0  0.0028 0.01419795918367348 0  0.0028 0.01577551020408165 0  0.002799999999999997 0.0173530612244898 0  0.0028 0.01893061224489797 0  0.002800000000000004 0.02050816326530613 0  0.0028 0.0220857142857143 0  0.0028 0.02366326530612247 0  0.002800000000000004 0.02524081632653064 0  0.0028 0.0268183673469388 0  0.0028 0.02839591836734696 0  0.002799999999999995 0.02997346938775512 0  0.002799999999999997 0.03155102040816328 0  0.002799999999999995 0.03312857142857146 0  0.0028 0.03470612244897962 0  0.002799999999999995 0.03628367346938778 0  0.002799999999999997 0.03786122448979594 0  0.002799999999999997 0.03943877551020411 0  0.002799999999999997 0.04101632653061228 0  0.002799999999999997 0.04259387755102043 0  0.002799999999999995 0.0441714285714286 0  0.002799999999999997 0.04574897959183676 0  0.002799999999999997 0.04732653061224493 0  0.002799999999999995 0.04890408163265308 0  0.002799999999999993 0.05048163265306124 0  0.002799999999999995 0.05205918367346941 0  0.002799999999999995 0.05363673469387757 0  0.002799999999999992 0.05521428571428574 0  0.002799999999999997 0.05679183673469391 0  0.002799999999999993 0.05836938775510207 0  0.002799999999999993 0.05994693877551022 0  0.002799999999999992 0.0615244897959184 0  0.002799999999999988 0.06310204081632655 0  0.002799999999999992 0.0646795918367347 0  0.002799999999999992 0.06625714285714286 0  0.00279999999999999 0.06783469387755103 0  0.00279999999999999 0.06941224489795919 0  0.002799999999999988 0.07098979591836735 0  0.00279999999999999 0.07256734693877552 0  0.002799999999999988 0.07414489795918368 0  0.00279999999999999 0.07572244897959184 0  0.004200000000000006 0.001577551020408172 0  0.004200000000000006 0.003155102040816329 0  0.004200000000000008 0.00473265306122448 0  0.004200000000000009 0.006310204081632652 0  0.004200000000000008 0.00788775510204082 0  0.004200000000000008 0.009465306122448978 0  0.004200000000000006 0.01104285714285716 0  0.004200000000000006 0.01262040816326532 0  0.004200000000000004 0.01419795918367349 0  0.004200000000000002 0.01577551020408165 0  0.004200000000000004 0.0173530612244898 0  0.004200000000000006 0.01893061224489797 0  0.004200000000000006 0.02050816326530613 0  0.004200000000000002 0.0220857142857143 0  0.004200000000000004 0.02366326530612247 0  0.004199999999999999 0.02524081632653062 0  0.004200000000000004 0.0268183673469388 0  0.004200000000000004 0.02839591836734696 0  0.004200000000000002 0.02997346938775512 0  0.004199999999999999 0.03155102040816328 0  0.004200000000000001 0.03312857142857145 0  0.004200000000000001 0.03470612244897962 0  0.004199999999999995 0.03628367346938778 0  0.004199999999999999 0.03786122448979594 0  0.004199999999999999 0.0394387755102041 0  0.004199999999999997 0.04101632653061227 0  0.004199999999999999 0.04259387755102043 0  0.004199999999999999 0.04417142857142859 0  0.004199999999999999 0.04574897959183676 0  0.004199999999999999 0.04732653061224492 0  0.004199999999999997 0.04890408163265308 0  0.004199999999999997 0.05048163265306124 0  0.004199999999999999 0.05205918367346941 0  0.004199999999999992 0.05363673469387757 0  0.0
[...]
<PointData  Vectors="displacement"> 
<DataArray  type="Float64"  Name="displacement"  NumberOfComponents="3" format="ascii">0.0000000000000000e+00 0.0000000000000000e+00 0.0000000000000000e+00  0.0000000000000000e+00 0.0000000000000000e+00 0.0000000000000000e+00  9.8309899404616478e-03 -8.1544360108617889e-02 0.0000000000000000e+00  -9.5533682893319920e-03 -8.1489718494081639e-02 0.0000000000000000e+00  0.0000000000000000e+00 0.0000000000000000e+00 0.0000000000000000e+00  0.0000000000000000e+00 0.0000000000000000e+00 0.0000000000000000e+00  0.0000000000000000e+00 0.0000000000000000e+00 0.0000000000000000e+00  0.0000000000000000e+00 0.0000000000000000e+00 0.0000000000000000e+00  0.0000000000000000e+00 0.0000000000000000e+00 0.0000000000000000e+00  0.0000000000000000e+00 0.0000000000000000e+00 0.0000000000000000e+00  0.0000000000000000e+00 0.0000000000000000e+00 0.0000000000000000e+00  0.0000000000000000e+00 0.0000000000000000e+00 0.0000000000000000e+00  0.0000000000000000e+00 0.0000000000000000e+00 0.0000000000000000e+00  0.0000000000000000e+00 0.0000000000000000e+00 0.0000000000000000e+00  0.0000000000000000e+00 0.0000000000000000e+00 0.0000000000000000e+00  0.0000000000000000e+00 0.0000000000000000e+00 0.0000000000000000e+00  0.0000000000000000e+00 0.0000000000000000e+00 0.0000000000000000e+00  0.0000000000000000e+00 0.0000000000000000e+00 0.0000000000000000e+00  0.0000000000000000e+00 0.0000000000000000e+00 0.0000000000000000e+00  0.0000000000000000e+00 0.0000000000000000e+00 0.0000000000000000e+00  0.0000000000000000e+00 0.0000000000000000e+00 0.0000000000000000e+00  0.0000000000000000e+00 0.0000000000000000e+00 0.0000000000000000e+00  0.0000000000000000e+00 0.0000000000000000e+00 0.0000000000000000e+00  0.0000000000000000e+00 0.0000000000000000e+00 0.0000000000000000e+00  0.0000000000000000e+00 0.0000000000000000e+00 0.0000000000000000e+00  0.0000000000000000e+00 0.0000000000000000e+00 0.0000000000000000e+00  0.0000000000000000e+00 0.0000000000000000e+00 0.0000000000000000e+00  3.2538226618369671e-03 -3.0597757712868177e-03 0.0000000000000000e+00  4.9807201561729644e-03 -4.7592052045010462e-03 0.0000000000000000e+00  6.1973216827270116e-03 -6.2744664131241818e-03 0.0000000000000000e+00  7.1120896935298892e-03 -7.7261923477676851e-03 0.0000000000000000e+00  7.8121087496189918e-03 -9.1567019703406791e-03 0.0000000000000000e+00  8.3500433100356809e-03 -1.0588058174476772e-02 0.0000000000000000e+00  8.7625009783374556e-03 -1.2032395658265216e-02 0.0000000000000000e+00  9.0766985868323911e-03 -1.3496212339710776e-02 0.0000000000000000e+00  9.3136416721528968e-03 -1.4982614916580449e-02 0.0000000000000000e+00  9.4899004390827345e-03 -1.6492591398448157e-02 0.0000000000000000e+00  9.6187037687747445e-03 -1.8025786875101021e-02 0.0000000000000000e+00  9.7106687836865380e-03 -1.9581006454913345e-02 0.0000000000000000e+00  9.7743214196149980e-03 -2.1156555477448484e-02 0.0000000000000000e+00  9.8164889776333614e-03 -2.2750475154688553e-02 0.0000000000000000e+00  9.8426089167627257e-03 -2.4360706826901269e-02 0.0000000000000000e+00  9.8569791069813596e-03 -2.5985205290888231e-02 0.0000000000000000e+00  9.8629645277791434e-03 -2.7622014778524856e-02 0.0000000000000000e+00  9.8631697730427355e-03 -2.9269317194883897e-02 0.0000000000000000e+00  9.8595835893590354e-03 -3.0925459756055495e-02 0.0000000000000000e+00  9.8536999068341829e-03 -3.2588967500198372e-02 0.0000000000000000e+00  9.8466188022020042e-03 -3.4258544932698802e-02 0.0000000000000000e+00  9.8391302196156535e-03 -3.5933070131668535e-02 0.0000000000000000e+00  9.8317828738348021e-03 -3.7611583893404348e-02 0.0000000000000000e+00  9.8249404690298383e-03 -3.9293275891019275e-02 0.0000000000000000e+00  9.8188271291419459e-03 -4.0977469325601687e-02 0.0000000000000000e+00  9.8135637255920300e-03 -4.2663605149641175e-02 0.0000000000000000e+00  9.8091965933017715e-03 -4.4351226623049272e-02 0.0000000000000000e+00  9.8057199425370927e-03 -4.6039964710908966e-02 0.0000000000000000e+00  9.8030931017344808e-03 -4.7729524638365849e-02 0.0000000000000000e+00  9.8012535663110304e-03 -4.9419673772079356e-02 0.0000000000000000e+00  9.8001266817562376e-03 -5.1110230890638167e-02 0.0000000000000000e+00  9.7996326569557337e-03 -5.2801056830614569e-02 0.0000000000000000e+00  9.7996914860810375e-03 -5.4492046443849043e-02 0.0000000000000000e+00  9.8002262543278144e-03 -5.6183121769499543e-02 0.0000000000000000e+00  9.8011652137161270e-03 -5.7874226306739163e-02 0.0000000000000000e+00  9.8024429391780528e-03 -5.9565320266981137e-02 0.0000000000000000e+00  9.8040008111749417e-03 -6.1256376685195048e-02 0.0000000000000000e+00  9.8057870179764743e-03 -6.2947378275987634e-02 0.0000000000000000e+00  9.8077562274208174e-03 -6.4638314929986215e-02 0.0000000000000000e+00  9.8098690435928643e-03 -6.6329181758558564e-02 0.0000000000000000e+00  9.8120913379269748e-03 -6.8019977609375434e-02 0.0000000000000000e+00  9.8143935270306130e-03 -6.9710703991584466e-02 0.0000000000000000e+00  9.8167498627244228e-03 -7.1401364367640038e-02 0.0000000000000000e+00  9.8191378080468711e-03 -7.3091963789688866e-02 0.0000000000000000e+00  9.8215376074986035e-03 -7.4782508882415499e-02 0.0000000000000000e+00  9.8239322491716907e-03 -7.6473008201020973e-02 0.0000000000000000e+00  9.8263082517340439e-03 -7.8163473004872544e-02 0.0000000000000000e+00  9.8286584717265264e-03 -7.9853918225642750e-02 0.0000000000000000e+00  9.0231945622407574e-03 -8.1542294468999285e-02 0.0000000000000000e+00  8.2154005849454179e-03 -8.1540241940323110e-02 0.0000000000000000e+00  7.4076190351705044e-03 -8.1538209227742089e-02 0.0000000000000000e+00  6.5998602881839358e-03 -8.1536191994728349e-02 0.0000000000000000e+00  5.7921310318064644e-03 -8.1534180812981236e-02 0.0000000000000000e+00  4.9844344186826288e-03 -8.1532164287404646e-02 0.0000000000000000e+00  4.1767706360811493e-03 -8.1530130753167174e-02 0.0000000000000000e+00  3.3691374791218315e-03 -8.1528069297490319e-02 0.0000000000000000e+00  2.5615308709737638e-03 -8.1525970403838285e-02 0.0000000000000000e+00  1.7539453246586535e-03 -8.1523826360731466e-02 0.0000000000000000e+00  9.4637435029456846e-04 -8.1521631515992038e-02 0.0000000000000000e+00  1.3881081672131596e-04 -8.1519382427075043e-02 0.0000000000000000e+00  -6.6875271958758765e-04 -8.1517077939445820e-02 0.0000000000000000e+00  -1.4763237026606025e-03 -8.1514719210960013e-02 0.0000000000000000e+00  -2.2839092651243021e-03 -8.1512309688061807e-02 0.0000000000000000e+00  -3.0915158991785601e-03 -8.1509855027998873e-02 0.0000000000000000e+00  -3.8991490947930152e-03 -8.1507362949116133e-02 0.0000000000000000e+00  -4.7068129322423453e-03 -8.1504842977249164e-02 0.0000000000000000e+00  -5.5145096200978228e-03 -8.1502306037374142e-02 0.0000000000000000e+00  -6.3222389749929856e-03 -8.1499763808623893e-02 0.0000000000000000e+00  -7.1299978485329287e-03 -8.1497227695887159e-02 0.0000000000000000e+00  -7.9377795513386248e-03 -8.1494707106341283e-02 0.0000000000000000e+00  -8.7455736401460486e-03 -8.1492206313308668e-02 0.0000000000000000e+00  -9.5561679382033544e-03 -7.9799276044162107e-02 0.0000000000000000e+00  -9.5589488335597588e-03 -7.8108830930288559e-02 0.0000000000000000e+00  -9.5617040490219036e-03 -7.6418366201866914e-02 0.0000000000000000e+00  -9.5644405854011690e-03 -7.4727866933865100e-02 0.0000000000000000e+00  -9.5671719148483873e-03 -7.3037321874493147e-02 0.0000000000000000e+00  -9.5699150717533325e-03 -7.1346722475789701e-02 0.0000000000000000e+00  -9.5726898296991120e-03 -6.9656062119451773e-02 0.0000000000000000e+00  -9.5755187364523642e-03 -6.7965335759035586e-02 0.0000000000000000e+00  -9.5784275453215453e-03 -6.6274539937597993e-02 0.0000000000000000e+00  -9.5814458404923971e-03 -6.4583673151831417e-02 0.0000000000000000e+00  -9.5846077476531670e-03 -6.2892736560736198e-02 0.0000000000000000e+00  -9.5879526562895005e-03 -6.1201735060969820e-02 0.0000000000000000e+00  -9.5915258882850619e-03 -5.9510678771885886e-02 0.0000000000000000e+00  -9.5953792406038678e-03 -5.7819584991565434e-02 0.0000000000000000e+00  -9.5995713125653654e-03 -5.6128480701413318e-02 0.0000000000000000e+00  -9.6041675022442048e-03 -5.4437405711392634e-02 0.0000000000000000e+00  -9.6092395220911241e-03 -5.2746416550496958e-02 0.0000000000000000e+00  -9.6148642404916135e-03 -5.1055591216967587e-02 0.0000000000000000e+00  -9.6211216027762714e-03 -4.9365034908924896e-02 0.0000000000000000e+00  -9.6280913210761640e-03 -4.7674886856828164e-02 0.0000000000000000e+00  -9.6358479462296809e-03 -4.5985328372241369e-02 0.0000000000000000e+00  -9.6444538455835536e-03 -4.4296592209786614e-02 0.0000000000000000e+00  -9.6539495070614365e-03 -4.2608973307148378e-02 0.0000000000000000e+00  -9.6643404716528058e-03 -4.0922840916883196e-02 0.0000000000000000e+00  -9.6755800632910664e-03 -3.9238652067926968e-02 0.0000000000000000e+00  -9.6875469372244057e-03 -3.7556966187348453e-02 0.0000000000000000e+00  -9.7000163062478367e-03 -3.5878460566243345e-02 0.0000000000000000e+00  -9.7126235297041383e-03 -3.4203946158748104e-02 0.0000000000000000e+00  -9.7248185639254182e-03 -3.2534382949935874e-02 0.0000000000000000e+00  -9.7358095743371922e-03 -3.0870893805635968e-02 0.0000000000000000e+00  -9.7444937946365162e-03 -2.9214775312350408e-02 0.0000000000000000e+00  -9.7493734752019130e-03 -2.7567503613394002e-02 0.0000000000000000e+00  -9.7484544637145010e-03 -2.5930732628328117e-02 0.0000000000000000e+00  -9.7391245502127018e-03 -2.4306281276619914e-02 0.0000000000000000e+00  -9.7180080807380380e-03 -2.2696105361367205e-02 0.0000000000000000e+00  -9.6807923048455140e-03 -2.1102248507743830e-02 0.0000000000000000e+00  -9.6220191247099705e-03 -1.9526764804261399e-02 0.0000000000000000e+00  -9.5348327332419186e-03 -1.7971603187981831e-02 0.0000000000000000e+00  -9.4106679299105194e-03 -1.6438439396381999e-02 0.0000000000000000e+00  -9.2388535561522874e-03 -1.4928433950633932e-02 0.0000000000000000e+00  -9.0060863113263050e-03 -1.3441880936998834e-02 0.0000000000000000e+00  -8.6956934607605434e-03 -1.1977685231885232e-02 0.0000000000000000e+00  -8.2865295637666713e-03 -1.0532548294179085e-02 0.0000000000000000e+00  -7.7512019388783033e-03 -9.0996147983798299e-03 0.0000000000000000e+00  -7.0530015129460413e-03 -7.6660927907447139e-03 0.0000000000000000e+00  -6.1398557073977043e-03 -6.2092794267909661e-03 0.0000000000000000e+00  -4.9258401967826829e-03 -4.6895145605831620e-03 0.0000000000000000e+00  -3.1929042040681186e-03 -2.9899621097338805e-03 0.0000000000000000e+00  -2.2604276691248716e-03 -1.7426860949836418e-03 0.0000000000000000e+00  -4.0944834029940690e-03 -3.6352049666568010e-03 0.0000000000000000e+00  -5.3833238840410736e-03 -5.3715236699910900e-03 0.0000000000000000e+00  -6.3282722929903414e-03 -6.9993608318351186e-03 0.0000000000000000e+00  -7.0386329883948048e-03 -8.5702255916940539e-03 0.0000000000000000e+00  -7.5761812761931226e-03 -1.0114320699326195e-02 0.0000000000000000e+00  -7.9820044030330887e-03 -1.1649512166933435e-02 0.0000000000000000e+00  -8.2859322956216775e-03 -1.3186583221746607e-02 0.0000000000000000e+00  -8.5106074716332723e-03 -1.4731942745267590e-02 0.0000000000000000e+00  -8.6736581299900958e-03 -1.6289185973477515e-02 0.0000000000000000e+00  -8.7890041203469403e-03 -1.7860061286739341e-02 0.0000000000000000e+00  -8.8677096964680791e-03 -1.9445098711019668e-02 0.0000000000000000e+00  -8.9185806313564712e-03 -2.1044033743094267e-02 0.0000000000000000e+00  -8.9486072112876496e-03 -2.2656100518519001e-02 0.0000000000000000e+00  -8.9633078969524570e-03 -2.4280237437216381e-02 0.0000000000000000e+00  -8.9670045323975035e-03 -2.5915231752747923e-02 0.0000000000000000e+00  -8.9630472969116932e-03 -2.7559820339818433e-02 0.0000000000000000e+00  -8.9540006924937743e-03 -2.9212758409967701e-02 0.0000000000000000e+00  -8.9417980355932548e-03 -3.0872864583493961e-02 0.0000000000000000e+00  -8.9278697649815345e-03 -3.2539048528580986e-02 0.0000000000000000e+00  -8.9132496266371188e-03 -3.4210325859274304e-02 0.0000000000000000e+00  -8.8986620340167789e-03 -3.5885823879106854e-02 0.0000000000000000e+00  -8.8845933989652390e-03 -3.7564780921574219e-02 0.0000000000000000e+00  -8.8713498609117643e-03 -3.9246541389685079e-02 0.0000000000000000e+00  -8.8591035450277418e-03 -4.0930548085306613e-02 0.0000000000000000e+00  -8.8479292214987681e-03 -4.2616333013733708e-02 0.0000000000000000e+00  -8.8378330034413113e-03 -4.4303507528382254e-02 0.0000000000000000e+00  -8.8287745047242825e-03 -4.5991752428803968e-02 0.0000000000000000e+00  -8.8206836796837964e-03 -4.7680808429754848e-02 0.0000000000000000e+00  -8.8134733846884309e-03 -4.9370467269465271e-02 0.0000000000000000e+00  -8.8070485372601943e-03 -5.1060563612872027e-02 0.0000000000000000e+00  -8.8013126022262501e-03 -5.2750967823031958e-02 0.0000000000000000e+00  -8.7961720059433722e-03 -5.4441579615084050e-02 0.0000000000000000e+00  -8.7915389683023305e-03 -5.6132322566794630e-02 0.0000000000000000e+00  -8.7873331469167249e-03 -5.7823139433667119e-02 0.0000000000000000e+00  -8.7834824073159973e-03 -5.9513988201362902e-02 0.0000000000000000e+00  -8.7799229656631266e-03 -6.1204838800991042e-02 0.0000000000000000e+00  -8.7765990950613368e-03 -6.2895670411489621e-02 0.0000000000000000e+00  -8.7734625415779866e-03 -6.4586469276154593e-02 0.0000000000000000e+00  -8.7704717606136660e-03 -6.6277226966049818e-02 0.0000000000000000e+00  -8.7675910575466184e-03 -6.7967939030537008e-02 0.0000000000000000e+00  -8.7647896988628047e-03 -6.9658603983559664e-02 0.0000000000000000e+00  -8.7620410530122959e-03 -7.1349222582482955e-02 0.0000000000000000e+00  -8.7593218292459970e-03 -7.3039797362211431e-02 0.0000000000000000e+00  -8.7566115213534128e-03 -7.4730332386316753e-02 0.0000000000000000e+00  -8.7538922678321255e-03 -7.6420833156667770e-02 0.0000000000000000e+00  -8.7511496031810708e-03 -7.8111306561610999e-02 0.0000000000000000e+00  -8.7483751619015730e-03 -7.9801760768261787e-02 0.0000000000000000e+00  -1.7297602057217197e-03 -1.3986859999449628e-03 0.0000000000000000e+00  -3.3451073755673554e-03 -3.0576452941553536e-03 0.0000000000000000e+00  -4.6123792259813003e-03 -4.7708243373591006e-03 0.0000000000000000e+00  -5.5681510897189366e-03 -6.4530085925328341e-03 0.0000000000000000e+00  -6.2879976227412241e-03 -8.0975499681532528e-03 0.0000000000000000e+00  -6.8301536383410738e-03 -9.7155354072371476e-03 0.0000000000000000e+00  -7.2365474596453377e-03 -1.1318475002150040e-02 0.0000000000000000e+00  -7.5382229289626514e-03 -1.2915225208219258e-02 0.0000000000000000e+00  -7.7588463260885084e-03 -1.4511986728981333e-02 0.0000000000000000e+00  -7.9168209461180795e-03 -1.6112839280695918e-02 0.0000000000000000e+00  -8.0266259884256182e-03 -1.7720280308211284e-02 0.0000000000000000e+00  -8.0997155211615848e-03 -1.9335664973134638e-02 0.0000000000000000e+00  -8.1451566876626514e-03 -2.0959544171081042e-02 0.0000000000000000e+00  -8.1701056007877602e-03 -2.2591918288543452e-02 0.0000000000000000e+00  -8.1801765221281887e-03 -2.4232425453848280e-02 0.0000000000000000e+00  -8.1797366589914551e-03 -2.5880479764428539e-02 0.0000000000000000e+00  -8.1721460749275936e-03 -2.7535371485315735e-02 0.0000000000000000e+00  -8.1599550340992963e-03 -2.9196338384217049e-02 0.0000000000000000e+00  -8.1450670400073626e-03 -3.0862615221574463e-02 0.0000000000000000e+00  -8.1288734937527054e-03 -3.2533466801892216e-02 0.0000000000000000e+00  -8.1123645139861041e-03 -3.4208208770676062e-02 0.0000000000000000e+00  -8.0962195989390095e-03 -3.5886219401275440e-02 0.0000000000000000e+00  -8.0808812311220831e-03 -3.7566944882762465e-02 0.0000000000000000e+00  -8.0666140968297315e-03 -3.9249900042547241e-02 0.0000000000000000e+00  -8.0535522463975953e-03 -4.0934665980255920e-02 0.0000000000000000e+00  -8.0417362223945705e-03 -4.2620885727080227e-02 0.0000000000000000e+00  -8.0311419152733054e-03 -4.4308258758436934e-02 0.0000000000000000e+00  -8.0217026626623351e-03 -4.5996534962718952e-02 0.0000000000000000e+00  -8.0133258871458741e-03 -4.7685508493540432e-02 0.0000000000000000e+00  -8.0059053674997899e-03 -4.9375011797689737e-02 0.0000000000000000e+00  -7.9993300598061243e-03 -5.1064910008203040e-02 0.0000000000000000e+00  -7.9934902273153495e-03 -5.2755095815104298e-02 0.0000000000000000e+00  -7.9882815006348026e-03 -5.4445484870061810e-02 0.0000000000000000e+00  -7.9836073716522682e-03 -5.6136011741097482e-02 0.0000000000000000e+00  -7.9793805241128619e-03 -5.7826626405910207e-02 0.0000000000000000e+00  -7.9755233193142833e-03 -5.9517291254417418e-02 0.0000000000000000e+00  -7.9719676852685346e-03 -6.1207978560389384e-02 0.0000000000000000e+00  -7.9686546002287143e-03 -6.2898668376635006e-02 0.0000000000000000e+00  -7.9655333151968065e-03 -6.4589346806569192e-02 0.0000000000000000e+00  -7.9625604236919899e-03 -6.6280004605877296e-02 0.0000000000000000e+00  -7.9596988599384966e-03 -6.7970636070324580e-02 0.0000000000000000e+00  -7.9569168888302608e-03 -6.9661238168516076e-02 0.0000000000000000e+00  -7.9541871441693290e-03 -7.1351809880577002e-02 0.0000000000000000e+00  -7.9514857802651193e-03 -7.3042351704476663e-02 0.0000000000000000e+00  -7.9487918359316349e-03 -7.4732865292240117e-02 0.0000000000000000e+00  -7.9460869867525492e-03 -7.6423353192736021e-02 0.0000000000000000e+00  -7.9433559896629879e-03 -7.8113818783852249e-02 0.0000000000000000e+00  -7.9405881564013105e-03 -7.9804266946505636e-02 0.0000000000000000e+00  -1.3982121488691935e-03 -1.2729672790613960e-03 0.0000000000000000e+00  -2.7574409987371896e-03 -2.7666549727269870e-03 0.0000000000000000e+00  -3.9120501760260265e-03 -4.3864292806898532e-03 0.0000000000000000e+00  -4.8277966111646793e-03 -6.0470573825046198e-03 0.0000000000000000e+00  -5.5337247038350912e-03 -7.7100875121602188e-03 0.0000000000000000e+00  -6.0702017596412127e-03 -9.3646013907317319e-03 0.0000000000000000e+00  -6.4731069155348582e-03 -1.1010405148261316e-02 0.0000000000000000e+00  -6.7715503988318142e-03 -1.2650461440373951e-02 0.0000000000000000e+00  -6.9886963847452894e-03 -1.4288083700846659e-02 0.0000000000000000e+00  -7.1429382622462826e-03 -1.5926031105569532e-02 0.0000000000000000e+00  -7.2488918441143630e-03 -1.7566313615284986e-02 0.0000000000000000e+00  -7.3181657823391854e-03 -1.9210247697002251e-02 0.0000000000000000e+00  -7.3599554417700152e-03 -2.0858586121240509e-02 0.0000000000000000e+00  -7.3815078566494864e-03 -2.2511654936437010e-02 0.0000000000000000e+00  -7.3884928557839636e-03 -2.4169474141533275e-02 0.0000000000000000e+00  -7.3853041507945484e-03 -2.5831855874593513e-02 0.0000000000000000e+00  -7.3753063197403755e-03 -2.7498480651073576e-02 0.0000000000000000e+00  -7.3610385900200592e-03 -2.9168954535227037e-02 0.0000000000000000e+00  -7.3443832105443245e-03 -3.0842850673804729e-02 0.0000000000000000e+00  -7.3267042812886832e-03 -3.2519738446219179e-02 0.0000000000000000e+00  -7.3089616952838410e-03 -3.4199203055739175e-02 0.0000000000000000e+00  -7.2918040434813373e-03 -3.5880857902128950e-02 0.0000000000000000e+00  -7.2756437587422193e-03 -3.7564351620070296e-02 0.0000000000000000e+00  -7.2607173303525707e-03 -3.9249371269686001e-02 0.0000000000000000e+00  -7.2471330501758186e-03 -4.0935642832029669e-02 0.0000000000000000e+00  -7.2349084277625059e-03 -4.2622929889995505e-02 0.0000000000000000e+00  -7.2239991211550184e-03 -4.4311031156415159e-02 0.0000000000000000e+00  -7.2143209670711408e-03 -4.5999777337943755e-02 0.0000000000000000e+00  -7.2057664564934001e-03 -4.7689027687848849e-02 0.0000000000000000e+00  -7.1982167886584254e-03 -4.9378666496044325e-02 0.0000000000000000e+00  -7.1915504474853028e-03 -5.1068599684680513e-02 0.0000000000000000e+00  -7.1856490788324403e-03 -5.2758751617329243e-02 0.0000000000000000e+00  -7.1804013034758923e-03 -5.4449062185141991e-02 0.0000000000000000e+00  -7.1757049778524481e-03 -5.6139484200941864e-02 0.0000000000000000e+00  -7.1714683106518396e-03 -5.7829981109276257e-02 0.0000000000000000e+00  -7.1676101563807378e-03 -5.9520525004787446