<?xml version="1.0"?>
<VTKFile type="UnstructuredGrid"  version="0.1"  >
<UnstructuredGrid>
<Piece  NumberOfPoints="1656" NumberOfCells="3000">
<Points>
<DataArray  type="Float64"  NumberOfComponents="3"  format="ascii">0 0 0  2 0 0  4 0 0  6 0 0  8 0 0  10 0 0  12 0 0  14 0 0  16 0 0  18 0 0  20 0 0  22 0 0  24 0 0  26 0 0  28 0 0  30 0 0  32 0 0  34 0 0  36 0 0  38 0 0  40 0 0  42 0 0  44 0 0  46 0 0  48 0 0  50 0 0  52 0 0  54 0 0  56 0 0  58 0 0  60 0 0  62 0 0  64 0 0  66 0 0  68 0 0  70 0 0  72 0 0  74 0 0  76 0 0  78 0 0  80 0 0  82 0 0  84 0 0  86 0 0  88 0 0  90 0 0  92 0 0  94 0 0  96 0 0  98 0 0  100 0 0  102 0 0  104 0 0  106 0 0  108 0 0  110 0 0  112 0 0  114 0 0  116 0 0  118 0 0  120 0 0  122 0 0  124 0 0  126 0 0  128 0 0  130 0 0  132 0 0  134 0 0  136 0 0  138 0 0  140 0 0  142 0 0  144 0 0  146 0 0  148 0 0  150 0 0  152 0 0  154 0 0  156 0 0  158 0 0  160 0 0  162 0 0  164 0 0  166 0 0  168 0 0  170 0 0  172 0 0  174 0 0  176 0 0  178 0 0  180 0 0  182 0 0  184 0 0  186 0 0  188 0 0  190 0 0  192 0 0  194 0 0  196 0 0  198 0 0  200 0 0  202 0 0  204 0 0  206 0 0  208 0 0  210 0 0  212 0 0  214 0 0  216 0 0  218 0 0  220 0 0  222 0 0  224 0 0  226 0 0  228 0 0  230 0 0  232 0 0  234 0 0  236 0 0  238 0 0  240 0 0  242 0 0  244 0 0  246 0 0  248 0 0  250 0 0  252 0 0  254 0 0  256 0 0  258 0 0  260 0 0  262 0 0  264 0 0  266 0 0  268 0 0  270 0 0  272 0 0  274 0 0  276 0 0  278 0 0  280 0 0  282 0 0  284 0 0  286 0 0  288 0 0  290 0 0  292 0 0  294 0 0  296 0 0  298 0 0  300 0 0  0 2 0  2 2 0  4 2 0  6 2 0  8 2 0  10 2 0  12 2 0  14 2 0  16 2 0  18 2 0  20 2 0  22 2 0  24 2 0  26 2 0  28 2 0  30 2 0  32 2 0  34 2 0  36 2 0  38 2 0  40 2 0  42 2 0  44 2 0  46 2 0  48 2 0  50 2 0  52 2 0  54 2 0  56 2 0  58 2 0  60 2 0  62 2 0  64 2 0  66 2 0  68 2 0  70 2 0  72 2 0  74 2 0  76 2 0  78 2 0  80 2 0  82 2 0  84 2 0  86 2 0  88 2 0  90 2 0  92 2 0  94 2 0  96 2 0  98 2 0  100 2 0  102 2 0  104 2 0  106 2 0  108 2 0  110 2 0  112 2 0  114 2 0  116 2 0  118 2 0  120 2 0  122 2 0  124 2 0  126 2 0  128 2 0  130 2 0  132 2 0  134 2 0  136 2 0  138 2 0  140 2 0  142 2 0  144 2 0  146 2 0  148 2 0  150 2 0  152 2 0  154 2 0  156 2 0  158 2 0  160 2 0  162 2 0  164 2 0  166 2 0  168 2 0  170 2 0  172 2 0  174 2 0  176 2 0  178 2 0  180 2 0  182 2 0  184 2 0  186 2 0  188 2 0  190 2 0  192 2 0  194 2 0  196 2 0  198 2 0  200 2 0  202 2 0  204 2 0  206 2 0  208 2 0  210 2 0  212 2 0  214 2 0  216 2 0  218 2 0  220 2 0  222 2 0  224 2 0  226 2 0  228 2 0  230 2 0  232 2 0  234 2 0  236 2 0  238 2 0  240 2 0  242 2 0  244 2 0  246 2 0  248 2 0  250 2 0  252 2 0  254 2 0  256 2 0  258 2 0  260 2 0  262 2 0  264 2 0  266 2 0  268 2 0  270 2 0  272 2 0  274 2 0  276 2 0  278 2 0  280 2 0  282 2 0  284 2 0  286 2 0  288 2 0  290 2 0  292 2 0  294 2 0  296 2 0  298 2 0  300 2 0  0 4 0  2 4 0  4 4 0  6 4 0  8 4 0  10 4 0  12 4 0  14 4 0  16 4 0  18 4 0  20 4 0  22 4 0  24 4 0  26 4 0  28 4 0  30 4 0  32 4 0  34 4 0  36 4 0  38 4 0  40 4 0  42 4 0  44 4 0  46 4 0  48 4 0  50 4 0  52 4 0  54 4 0  56 4 0  58 4 0  60 4 0  62 4 0  64 4 0  66 4 0  68 4 0  70 4 0  72 4 0  74 4 0  76 4 0  78 4 0  80 4 0  82 4 0  84 4 0  86 4 0  88 4 0  90 4 0  92 4 0  94 4 0  96 4 0  98 4 0  100 4 0  102 4 0  104 4 0  106 4 0  108 4 0  110 4 0  112 4 0  114 4 0  116 4 0  118 4 0  120 4 0  122 4 0  124 4 0  126 4 0  128 4 0  130 4 0  132 4 0  134 4 0  136 4 0  138 4 0  140 4 0  142 4 0  144 4 0  146 4 0  148 4 0  150 4 0  152 4 0  154 4 0  156 4 0  158 4 0  160 4 0  162 4 0  164 4 0  166 4 0  168 4 0  170 4 0  172 4 0  174 4 0  176 4 0  178 4 0  180 4 0  182 4 0  184 4 0  186 4 0  188 4 0  190 4 0  192 4 0  194 4 0  196 4 0  198 4 0  200 4 0  202 4 0  204 4 0  206 4 0  208 4 0  210 4 0  212 4 0  214 4 0  216 4 0  218 4 0  220 4 0  222 4 0  224 4 0  226 4 0  228 4 0  230 4 0  232 4 0  234 4 0  236 4 0  238 4 0  240 4 0  242 4 0  244 4 0  246 4 0  248 4 0  250 4 0  252 4 0  254 4 0  256 4 0  258 4 0  260 4 0  262 4 0  264 4 0  266 4 0  268 4 0  270 4 0  272 4 0  274 4 0  276 4 0  278 4 0  280 4 0  282 4 0  284 4 0  286 4 0  288 4 0  290 4 0  292 4 0  294 4 0  296 4 0  298 4 0  300 4 0  0 6 0  2 6 0  4 6 0  6 6 0  8 6 0  10 6 0  12 6 0  14 6 0  16 6 0  18 6 0  20 6 0  22 6 0  24 6 0  26 6 0  28 6 0  30 6 0  32 6 0  34 6 0  36 6 0  38 6 0  40 6 0  42 6 0  44 6 0  46 6 0  48 6 0  50 6 0  52 6 0  54 6 0  56 6 0  58 6 0  60 6 0  62 6 0  64 6 0  66 6 0  68 6 0  70 6 0  72 6 0  74 6 0  76 6 0  78 6 0  80 6 0  82 6 0  84 6 0  86 6 0  88 6 0  90 6 0  92 6 0  94 6 0  96 6 0  98 6 0  100 6 0  102 6 0  104 6 0  106 6 0  108 6 0  110 6 0  112 6 0  114 6 0  116 6 0  118 6 0  120 6 0  122 6 0  124 6 0  126 6 0  128 6 0  130 6 0  132 6 0  134 6 0  136 6 0  138 6 0  140 6 0  142 6 0  144 6 0  146 6 0  148 6 0  150 6 0  152 6 0  154 6 0  156 6 0  158 6 0  160 6 0  162 6 0  164 6 0  166 6 0  168 6 0  170 6 0  172 6 0  174 6 0  176 6 0  178 6 0  180 6 0  182 6 0  184 6 0  186 6 0  188 6 0  190 6 0  192 6 0  194 6 0  196 6 0  198 6 0  200 6 0  202 6 0  204 6 0  206 6 0  208 6 0  210 6 0  212 6 0  214 6 0  216 6 0  218 6 0  220 6 0  222 6 0  224 6 0  226 6 0  228 6 0  230 6 0  232 6 0  234 6 0  236 6 0  238 6 0  240 6 0  242 6 0  244 6 0  246 6 0  248 6 0  250 6 0  252 6 0  254 6 0  256 6 0  258 6 0  260 6 0  262 6 0  264 6 0  266 6 0  268 6 0  270 6 0  272 6 0  274 6 0  276 6 0  278 6 0  280 6 0  282 6 0  284 6 0  286 6 0  288 6 0  290 6 0  292 6 0  294 6 0  296 6 0  298 6 0  300 6 0  0 8 0  2 8 0  4 8 0  6 8 0  8 8 0  10 8 0  12 8 0  14 8 0  16 8 0  18 8 0  20 8 0  22 8 0  24 8 0  26 8 0  28 8 0  30 8 0  32 8 0  34 8 0  36 8 0  38 8 0  40 8 0  42 8 0  44 8 0  46 8 0  48 8 0  50 8 0  52 8 0  54 8 0  56 8 0  58 8 0  60 8 0  62 8 0  64 8 0  66 8 0  68 8 0  70 8 0  72 8 0  74 8 0  76 8 0  78 8 0  80 8 0  82 8 0  84 8 0  86 8 0  88 8 0  90 8 0  92 8 0  94 8 0  96 8 0  98 8 0  100 8 0  102 8 0  104 8 0  106 8 0  108 8 0  110 8 0  112 8 0  114 8 0  116 8 0  118 8 0  120 8 0  122 8 0  124 8 0  126 8 0  128 8 0  130 8 0  132 8 0  134 8 0  136 8 0  138 8 0  140 8 0  142 8 0  144 8 0  146 8 0  148 8 0  150 8 0  152 8 0  154 8 0  156 8 0  158 8 0  160 8 0  162 8 0  164 8 0  166 8 0  168 8 0  170 8 0  172 8 0  174 8 0  176 8 0  178 8 0  180 8 0  182 8 0  184 8 0  186 8 0  188 8 0  190 8 0  192 8 0  194 8 0  196 8 0  198 8 0  200 8 0  202 8 0  204 8 0  206 8 0  208 8 0  210 8 0  212 8 0  214 8 0  216 8 0  218 8 0  220 8 0  222 8 0  224 8 0  226 8 0  228 8 0  230 8 0  232 8 0  234 8 0  236 8 0  238 8 0  240 8 0  242 8 0  244 8 0  246 8 0  248 8 0  250 8 0  252 8 0  254 8 0  256 8 0  258 8 0  260 8 0  262 8 0  264 8 0  266 8 0  268 8 0  270 8 0  272 8 0  274 8 0  276 8 0  278 8 0  280 8 0  282 8 0  284 8 0  286 8 0  288 8 0  290 8 0  292 8 0  294 8 0  296 8 0  298 8 0  300 8 0  0 10 0  2 10 0  4 10 0  6 10 0  8 10 0  10 10 0  12 10 0  14 10 0  16 10 0  18 10 0  20 10 0  22 10 0  24 10 0  26 10 0  28 10 0  30 10 0  32 10 0  34 10 0  36 10 0  38 10 0  40 10 0  42 10 0  44 10 0  46 10 0  48 10 0  50 10 0  52 10 0  54 10 0  56 10 0  58 10 0  60 10 0  62 10 0  64 10 0  66 10 0  68 10 0  70 10 0  72 10 0  74 10 0  76 10 0  78 10 0  80 10 0  82 10 0  84 10 0  86 10 0  88 10 0  90 10 0  92 10 0  94 10 0  96 10 0  98 10 0  100 10 0  102 10 0  104 10 0  106 10 0  108 10 0  110 10 0  112 10 0  114 10 0  116 10 0  118 10 0  120 10 0  122 10 0  124 10 0  126 10 0  128 10 0  130 10 0  132 10 0  134 10 0  136 10 0  138 10 0  140 10 0  142 10 0  144 10 0  146 10 0  148 10 0  150 10 0  152 10 0  154 10 0  156 10 0  158 10 0  160 10 0  162 10 0  164 10 0  166 10 0  168 10 0  170 10 0  172 10 0  174 10 0  176 10 0  178 10 0  180 10 0  182 10 0  184 10 0  186 10 0  188 10 0  190 10 0  192 10 0  194 10 0  196 10 0  198 10 0  200 10 0  202 10 0  204 10 0  206 10 0  208 10 0  210 10 0  212 10 0  214 10 0  216 10 0  218 10 0  220 10 0  222 10 0  224 10 0  226 10 0  228 10 0  230 10 0  232 10 0  234 10 0  236 10 0  238 10 0  240 10 0  242 10 0  244 10 0  246 10 0  248 10 0  250 10 0  252 10 0  254 10 0  256 10 0  258 10 0  260 10 0  262 10 0  264 10 0  266 10 0  268 10 0  270 10 0  272 10 0  274 10 0  276 10 0  278 10 0  280 10 0  282 10 0  284 10 0  286 10 0  288 10 0  290 10 0  292 10 0  294 10 0  296 10 0  298 10 0  300 10 0  1 1 0  3 1 0  5 1 0  7 1 0  9 1 0  11 1 0  13 1 0  15 1 0  17 1 0  19 1 0  21 1 0  23 1 0  25 1 0  27 1 0  29 1 0  31 1 0  33 1 0  35 1 0  37 1 0  39 1 0  41 1 0  43 1 0  45 1 0  47 1 0  49 1 0  51 1 0  53 1 0  55 1 0  57 1 0  59 1 0  61 1 0  63 1 0  65 1 0  67 1 0  69 1 0  71 1 0  73 1 0  75 1 0  77 1 0  79 1 0  81 1 0  83 1 0  85 1 0  87 1 0  89 1 0  91 1 0  93 1 0  95 1 0  97 1 0  99 1 0  101 1 0  103 1 0  105 1 0  107 1 0  109 1 0  111 1 0  113 1 0  115 1 0  117 1 0  119 1 0  121 1 0  123 1 0  125 1 0  127 1 0  129 1 0  131 1 0  133 1 0  135 1 0  137 1 0  139 1 0  141 1 0  143 1 0  145 1 0  147 1 0  149 1 0  151 1 0  153 1 0  155 1 0  157 1 0  159 1 0  161 1 0  163 1 0  165 1 0  167 1 0  169 1 0  171 1 0  173 1 0  175 1 0  177 1 0  179 1 0  181 1 0  183 1 0  185 1 0  187 1 0  189 1 0  191 1 0  193 1 0  195 1 0  197 1 0  199 1 0  201 1 0  203 1 0  205 1 0  207 1 0  209 1 0  211 1 0  213 1 0  215 1 0  217 1 0  219 1 0  221 1 0  223 1 0  225 1 0  227 1 0  229 1 0  231 1 0  233 1 0  235 1 0  237 1 0  239 1 0  241 1 0  243 1 0  245 1 0  247 1 0  249 1 0  251 1 0  253 1 0  255 1 0  257 1 0  259 1 0  261 1 0  263 1 0  265 1 0  267 1 0  269 1 0  271 1 0  273 1 0  275 1 0  277 1 0  279 1 0  281 1 0  283 1 0  285 1 0  287 1 0  289 1 0  291 1 0  293 1 0  295 1 0  297 1 0  299 1 0  1 3 0  3 3 0  5 3 0  7 3 0  9 3 0  11 3 0  13 3 0  15 3 0  17 3 0  19 3 0  21 3 0  23 3 0  25 3 0  27 3 0  29 3 0  31 3 0  33 3 0  35 3 0  37 3 0  39 3 0  41 3 0  43 3 0  45 3 0  47 3 0  49 3 0  51 3 0  53 3 0  55 3 0  57 3 0  59 3 0  61 3 0  63 3 0  65 3 0  67 3 0  69 3 0  71 3 0  73 3 0  75 3 0  77 3 0  79 3 0  81 3 0  83 3 0  85 3 0  87 3 0  89 3 0  91 3 0  93 3 0  95 3 0  97 3 0  99 3 0  101 3 0  103 3 0  105 3 0  107 3 0  109 3 0  111 3 0  113 3 0  115 3 0  117 3 0  119 3 0  121 3 0  123 3 0  125 3 0
[...]
<PointData  Vectors="flow"> 
<DataArray  type="Float64"  Name="flow"  NumberOfComponents="3" format="ascii">-4.5817236215158249e+02 -1.5731535990129271e+00 0.0000000000000000e+00  -4.5188096534080660e+02 -1.5726096665499525e+00 0.0000000000000000e+00  -4.4244977958045217e+02 -1.5709790646023736e+00 0.0000000000000000e+00  -4.3303162853968212e+02 -1.5682653750099256e+00 0.0000000000000000e+00  -4.2363299379645224e+02 -1.5644745515304597e+00 0.0000000000000000e+00  -4.1426031414949244e+02 -1.5596148964863450e+00 0.0000000000000000e+00  -4.0491997162239687e+02 -1.5536970277697693e+00 0.0000000000000000e+00  -3.9561827769194605e+02 -1.5467338371546711e+00 0.0000000000000000e+00  -3.8636145979399413e+02 -1.5387404393989459e+00 0.0000000000000000e+00  -3.7715564815907510e+02 -1.5297341133823315e+00 0.0000000000000000e+00  -3.6800686302731236e+02 -1.5197342344669740e+00 0.0000000000000000e+00  -3.5892100229073526e+02 -1.5087621998672178e+00 0.0000000000000000e+00  -3.4990382960794966e+02 -1.4968413458041416e+00 0.0000000000000000e+00  -3.4096096303364504e+02 -1.4839968586731369e+00 0.0000000000000000e+00  -3.3209786420279465e+02 -1.4702556793600221e+00 0.0000000000000000e+00  -3.2331982810548436e+02 -1.4556464018730133e+00 0.0000000000000000e+00  -3.1463197348572589e+02 -1.4401991668058614e+00 0.0000000000000000e+00  -3.0603923389371801e+02 -1.4239455502062004e+00 0.0000000000000000e+00  -2.9754634941745576e+02 -1.4069184483573278e+00 0.0000000000000000e+00  -2.8915785911618616e+02 -1.3891519591047194e+00 0.0000000000000000e+00  -2.8087809417381845e+02 -1.3706812605624847e+00 0.0000000000000000e+00  -2.7271117178741014e+02 -1.3515424875464372e+00 0.0000000000000000e+00  -2.6466098980131005e+02 -1.3317726066017441e+00 0.0000000000000000e+00  -2.5673122209414936e+02 -1.3114092901868937e+00 0.0000000000000000e+00  -2.4892531472196873e+02 -1.2904907904660607e+00 0.0000000000000000e+00  -2.4124648281711157e+02 -1.2690558136639123e+00 0.0000000000000000e+00  -2.3369770823876286e+02 -1.2471433952743949e+00 0.0000000000000000e+00  -2.2628173796781556e+02 -1.2247927768294282e+00 0.0000000000000000e+00  -2.1900108323490056e+02 -1.2020432847370943e+00 0.0000000000000000e+00  -2.1185801936777898e+02 -1.1789342118009452e+00 0.0000000000000000e+00  -2.0485458634066498e+02 -1.1555047017540332e+00 0.0000000000000000e+00  -1.9799259000553388e+02 -1.1317936374293580e+00 0.0000000000000000e+00  -1.9127360398273686e+02 -1.1078395329044648e+00 0.0000000000000000e+00  -1.8469897218570341e+02 -1.0836804300413418e+00 0.0000000000000000e+00  -1.7826981195218039e+02 -1.0593537997949918e+00 0.0000000000000000e+00  -1.7198701775275015e+02 -1.0348964485621335e+00 0.0000000000000000e+00  -1.6585126544518343e+02 -1.0103444298475783e+00 0.0000000000000000e+00  -1.5986301704184388e+02 -9.8573296164097568e-01 0.0000000000000000e+00  -1.5402252595610045e+02 -9.6109634944879541e-01 0.0000000000000000e+00  -1.4832984269234836e+02 -9.3646791532942708e-01 0.0000000000000000e+00  -1.4278482094362195e+02 -9.1187993302277515e-01 0.0000000000000000e+00  -1.3738712406012880e+02 -8.8736356925029158e-01 0.0000000000000000e+00  -1.3213623185144110e+02 -8.6294883114433829e-01 0.0000000000000000e+00  -1.2703144768515605e+02 -8.3866451999745761e-01 0.0000000000000000e+00  -1.2207190584466117e+02 -8.1453819114399439e-01 0.0000000000000000e+00  -1.1725657910900128e+02 -7.9059612006069868e-01 0.0000000000000000e+00  -1.1258428651813492e+02 -7.6686327443069668e-01 0.0000000000000000e+00  -1.0805370128756869e+02 -7.4336329227332776e-01 0.0000000000000000e+00  -1.0366335883707961e+02 -7.2011846578088279e-01 0.0000000000000000e+00  -9.9411664899101510e+01 -6.9714973087755205e-01 0.0000000000000000e+00  -9.5296903673522891e+01 -6.7447666219049962e-01 0.0000000000000000e+00  -9.1317245996700962e+01 -6.5211747330492642e-01 0.0000000000000000e+00  -8.7470757493891952e+01 -6.3008902200296768e-01 0.0000000000000000e+00  -8.3755406685659324e+01 -6.0840682032370230e-01 0.0000000000000000e+00  -8.0169073020288636e+01 -5.8708504914819659e-01 0.0000000000000000e+00  -7.6709554805880742e+01 -5.6613657701790321e-01 0.0000000000000000e+00  -7.3374577017327752e+01 -5.4557298299100210e-01 0.0000000000000000e+00  -7.0161798955089168e+01 -5.2540458313904981e-01 0.0000000000000000e+00  -6.7068821734419046e+01 -5.0564046052610556e-01 0.0000000000000000e+00  -6.4093195585396785e+01 -4.8628849826989129e-01 0.0000000000000000e+00  -6.1232426945837226e+01 -4.6735541547500514e-01 0.0000000000000000e+00  -5.8483985330983785e+01 -4.4884680567813973e-01 0.0000000000000000e+00  -5.5845309965536146e+01 -4.3076717756853194e-01 0.0000000000000000e+00  -5.3313816165351923e+01 -4.1311999769517560e-01 0.0000000000000000e+00  -5.0886901457837254e+01 -3.9590773481450076e-01 0.0000000000000000e+00  -4.8561951431680470e+01 -3.7913190572054312e-01 0.0000000000000000e+00  -4.6336345308266019e+01 -3.6279312217275794e-01 0.0000000000000000e+00  -4.4207461228609603e+01 -3.4689113875165456e-01 0.0000000000000000e+00  -4.2172681251225725e+01 -3.3142490132163027e-01 0.0000000000000000e+00  -4.0229396057817382e+01 -3.1639259594342045e-01 0.0000000000000000e+00  -3.8375009364990071e+01 -3.0179169791217342e-01 0.0000000000000000e+00  -3.6606942041664226e+01 -2.8761902080320206e-01 0.0000000000000000e+00  -3.4922635933016082e+01 -2.7387076521937059e-01 0.0000000000000000e+00  -3.3319557393024894e+01 -2.6054256714712565e-01 0.0000000000000000e+00  -3.1795200528837256e+01 -2.4762954564843609e-01 0.0000000000000000e+00  -3.0347090161192519e+01 -2.3512634978761843e-01 0.0000000000000000e+00  -2.8972784506137355e+01 -2.2302720458716463e-01 0.0000000000000000e+00  -2.7669877584173264e+01 -2.1132595591109543e-01 0.0000000000000000e+00  -2.6436001363804024e+01 -2.0001611410157533e-01 0.0000000000000000e+00  -2.5268827647214703e+01 -1.8909089628255235e-01 0.0000000000000000e+00  -2.4166069706498064e+01 -1.7854326719378949e-01 0.0000000000000000e+00  -2.3125483679457481e+01 -1.6836597848323431e-01 0.0000000000000000e+00  -2.2144869734586852e+01 -1.5855160634994800e-01 0.0000000000000000e+00  -2.1222073015270531e+01 -1.4909258747803736e-01 0.0000000000000000e+00  -2.0354984373703459e+01 -1.3998125319733412e-01 0.0000000000000000e+00  -1.9541540905357898e+01 -1.3120986179961236e-01 0.0000000000000000e+00  -1.8779726295127571e+01 -1.2277062898509257e-01 0.0000000000000000e+00  -1.8067570986514063e+01 -1.1465575640435326e-01 0.0000000000000000e+00  -1.7403152185393736e+01 -1.0685745824949650e-01 0.0000000000000000e+00  -1.6784593710040934e+01 -9.9367985909695922e-02 0.0000000000000000e+00  -1.6210065699149244e+01 -9.2179650654332285e-02 0.0000000000000000e+00  -1.5677784189605056e+01 -8.5284844359598599e-02 0.0000000000000000e+00  -1.5186010575775239e+01 -7.8676058281012276e-02 0.0000000000000000e+00  -1.4733050961982617e+01 -7.2345899889235968e-02 0.0000000000000000e+00  -1.4317255419741274e+01 -6.6287107782642421e-02 0.0000000000000000e+00  -1.3937017161168658e+01 -6.0492564716502342e-02 0.0000000000000000e+00  -1.3590771639833672e+01 -5.4955308772929055e-02 0.0000000000000000e+00  -1.3276995590030808e+01 -4.9668542717450338e-02 0.0000000000000000e+00  -1.2994206015261138e+01 -4.4625641581815062e-02 0.0000000000000000e+00  -1.2740959136373483e+01 -3.9820158526811707e-02 0.0000000000000000e+00  -1.2515849309535323e+01 -3.5245829054474792e-02 0.0000000000000000e+00  -1.2317507923824001e+01 -3.0896573596403111e-02 0.0000000000000000e+00  -1.2144602287867631e+01 -2.6766498573279420e-02 0.0000000000000000e+00  -1.1995834514566376e+01 -2.2849895991979383e-02 0.0000000000000000e+00  -1.1869940412496977e+01 -1.9141241632492801e-02 0.0000000000000000e+00  -1.1765688392142433e+01 -1.5635191922945081e-02 0.0000000000000000e+00  -1.1681878394645626e+01 -1.2326579568099703e-02 0.0000000000000000e+00  -1.1617340850271983e+01 -9.2104080233411482e-03 0.0000000000000000e+00  -1.1570935673281326e+01 -6.2818448949617609e-03 0.0000000000000000e+00  -1.1541551299392111e+01 -3.5362143439205693e-03 0.0000000000000000e+00  -1.1528103771442169e+01 -9.6898859792695345e-04 0.0000000000000000e+00  -1.1529535878414231e+01 1.4242213582561743e-03 0.0000000000000000e+00  -1.1544816352349095e+01 3.6476758348711153e-03 0.0000000000000000e+00  -1.1572939127230168e+01 5.7055171569520245e-03 0.0000000000000000e+00  -1.1612922663389764e+01 7.6017810235082858e-03 0.0000000000000000e+00  -1.1663809340622326e+01 9.3404085105646805e-03 0.0000000000000000e+00  -1.1724664922912751e+01 1.0925258813499841e-02 0.0000000000000000e+00  -1.1794578097751902e+01 1.2360123041480018e-02 0.0000000000000000e+00  -1.1872660093621992e+01 1.3648739673008751e-02 0.0000000000000000e+00  -1.1958044380947619e+01 1.4794812962396103e-02 0.0000000000000000e+00  -1.2049886465521560e+01 1.5802036826795738e-02 0.0000000000000000e+00  -1.2147363791033648e+01 1.6674129057104740e-02 0.0000000000000000e+00  -1.2249675782201621e+01 1.7414885159267517e-02 0.0000000000000000e+00  -1.2356044088770606e+01 1.8028269497127842e-02 0.0000000000000000e+00  -1.2465713145510493e+01 1.8518577318647401e-02 0.0000000000000000e+00  -1.2577951267903035e+01 1.8890731362624456e-02 0.0000000000000000e+00  -1.2692052701592360e+01 1.9150833788663103e-02 0.0000000000000000e+00  -1.2807341420126715e+01 1.9307202228578572e-02 0.0000000000000000e+00  -1.2923178178905196e+01 1.9372323521990475e-02 0.0000000000000000e+00  -1.3038973685422949e+01 1.9366546571439353e-02 0.0000000000000000e+00  -1.3154213307878877e+01 1.9325070662972219e-02 0.0000000000000000e+00  -1.3268503598942610e+01 1.9311178175943987e-02 0.0000000000000000e+00  -1.3381660111775250e+01 1.9441299934587250e-02 0.0000000000000000e+00  -1.3493873424815515e+01 1.9932506274107163e-02 0.0000000000000000e+00  -1.3606023377292082e+01 2.1192515466176003e-02 0.0000000000000000e+00  -1.3720274317433908e+01 2.3990375557074603e-02 0.0000000000000000e+00  -1.3841203949423960e+01 2.9780447399444569e-02 0.0000000000000000e+00  -1.3977946417918769e+01 4.1318703033093880e-02 0.0000000000000000e+00  -1.4148278115991435e+01 6.3839481947862570e-02 0.0000000000000000e+00  -1.4386418377312827e+01 1.0732376649791547e-01 0.0000000000000000e+00  -1.4758270832199493e+01 1.9092278601728935e-01 0.0000000000000000e+00  -1.5390780984979553e+01 3.5198078523467369e-01 0.0000000000000000e+00  -1.6536668871440479e+01 6.6455329747373082e-01 0.0000000000000000e+00  -1.8691704762826610e+01 1.2867584375900547e+00 0.0000000000000000e+00  -2.3011532042935237e+01 2.5516305650207500e+00 0.0000000000000000e+00  -3.1693992287377320e+01 5.4292642261203508e+00 0.0000000000000000e+00  -5.2458075223072086e+01 1.1551976922948533e+01 0.0000000000000000e+00  -9.5746420413199573e+01 3.0969674325783345e+01 0.0000000000000000e+00  -1.7928921869592685e+02 4.7473954827122860e+01 0.0000000000000000e+00  -3.0574905647513322e+02 8.4827035841096006e+01 0.0000000000000000e+00  -3.7696831138277230e+02 7.5909187284459279e+01 0.0000000000000000e+00  -4.5817236215160631e+02 3.4000446003136874e-05 0.0000000000000000e+00  -4.5188096534079705e+02 3.3963082827756345e-05 0.0000000000000000e+00  -4.4244977958045632e+02 3.3851122994629203e-05 0.0000000000000000e+00  -4.3303162853968223e+02 3.3665022831026570e-05 0.0000000000000000e+00  -4.2363299379646020e+02 3.3405510993237296e-05 0.0000000000000000e+00  -4.1426031414948028e+02 3.3073626423688752e-05 0.0000000000000000e+00  -4.0491997162240307e+02 3.2670653170940373e-05 0.0000000000000000e+00  -3.9561827769193877e+02 3.2198203843114282e-05 0.0000000000000000e+00  -3.8636145979400754e+02 3.1658107869921919e-05 0.0000000000000000e+00  -3.7715564815907220e+02 3.1052481239806163e-05 0.0000000000000000e+00  -3.6800686302730588e+02 3.0383656787835649e-05 0.0000000000000000e+00  -3.5892100229075186e+02 2.9654221676291897e-05 0.0000000000000000e+00  -3.4990382960793625e+02 2.8866961922820952e-05 0.0000000000000000e+00  -3.4096096303364180e+02 2.8024861917489388e-05 0.0000000000000000e+00  -3.3209786420279823e+02 2.7131092636749859e-05 0.0000000000000000e+00  -3.2331982810549101e+02 2.6188979621593704e-05 0.0000000000000000e+00  -3.1463197348572527e+02 2.5202004112426508e-05 0.0000000000000000e+00  -3.0603923389371090e+02 2.4173764643184559e-05 0.0000000000000000e+00  -2.9754634941746178e+02 2.3107971816367678e-05 0.0000000000000000e+00  -2.8915785911618673e+02 2.2008409127279852e-05 0.0000000000000000e+00  -2.8087809417381828e+02 2.0878953294139844e-05 0.0000000000000000e+00  -2.7271117178740582e+02 1.9723501653590559e-05 0.0000000000000000e+00  -2.6466098980130937e+02 1.8545995874253111e-05 0.0000000000000000e+00  -2.5673122209415078e+02 1.7350363917196133e-05 0.0000000000000000e+00  -2.4892531472196802e+02 1.6140554860646495e-05 0.0000000000000000e+00  -2.4124648281711262e+02 1.4920456677994744e-05 0.0000000000000000e+00  -2.3369770823876584e+02 1.3693918028560608e-05 0.0000000000000000e+00  -2.2628173796781417e+02 1.2464732263324261e-05 0.0000000000000000e+00  -2.1900108323489445e+02 1.1236608889296449e-05 0.0000000000000000e+00  -2.1185801936778475e+02 1.0013151700729785e-05 0.0000000000000000e+00  -2.0485458634066620e+02 8.7978527651614578e-06 0.0000000000000000e+00  -1.9799259000553354e+02 7.5940865664312969e-06 0.0000000000000000e+00  -1.9127360398273473e+02 6.4050860908428063e-06 0.0000000000000000e+00  -1.8469897218570017e+02 5.2339342545028368e-06 0.0000000000000000e+00  -1.7826981195218082e+02 4.0835628311873049e-06 0.0000000000000000e+00  -1.7198701775275578e+02 2.9567288148651248e-06 0.0000000000000000e+00  -1.6585126544517982e+02 1.8560122609059495e-06 0.0000000000000000e+00  -1.5986301704184538e+02 7.8383088893056060e-07 0.0000000000000000e+00  -1.5402252595610409e+02 -2.5761339276930773e-07 0.0000000000000000e+00  -1.4832984269234478e+02 -1.2662803080583606e-06 0.0000000000000000e+00  -1.4278482094362022e+02 -2.2403433482764416e-06 0.0000000000000000e+00  -1.3738712406013067e+02 -3.1781583335629955e-06 0.0000000000000000e+00  -1.3213623185144095e+02 -4.0782749276046060e-06 0.0000000000000000e+00  -1.2703144768515499e+02 -4.9394475093965774e-06 0.0000000000000000e+00  -1.2207190584466207e+02 -5.7606111575078336e-06 0.0000000000000000e+00  -1.1725657910900024e+02 -6.5408935090040281e-06 0.0000000000000000e+00  -1.1258428651813469e+02 -7.2796119330379866e-06 0.0000000000000000e+00  -1.0805370128757176e+02 -7.9762634607755851e-06 0.0000000000000000e+00  -1.0366335883707931e+02 -8.6305199792614820e-06 0.0000000000000000e+00  -9.9411664899101396e+01 -9.2422285326742034e-06 0.0000000000000000e+00  -9.5296903673521911e+01 -9.8113910839018332e-06 0.0000000000000000e+00  -9.1317245996700365e+01 -1.0338178862946928e-05 0.0000000000000000e+00  -8.7470757493893615e+01 -1.0822900167857206e-05 0.0000000000000000e+00  -8.3755406685660049e+01 -1.1266016952061213e-05 0.0000000000000000e+00  -8.0169073020287868e+01 -1.1668113056283496e-05 0.0000000000000000e+00  -7.6709554805880444e+01 -1.2029908115822613e-05 0.0000000000000000e+00  -7.3374577017327596e+01 -1.2352226790298785e-05 0.0000000000000000e+00  -7.0161798955088329e+01 -1.2636007035919858e-05 0.0000000000000000e+00  -6.7068821734419032e+01 -1.2882283589837443e-05 0.0000000000000000e+00  -6.4093195585396714e+01 -1.3092181302367004e-05 0.0000000000000000e+00  -6.1232426945838128e+01 -1.3266899839949223e-05 0.0000000000000000e+00  -5.8483985330982890e+01 -1.3407712871296502e-05 0.0000000000000000e+00  -5.5845309965535428e+01 -1.3515955680680783e-05 0.0000000000000000e+00  -5.3313816165353337e+01 -1.3593015002515176e-05 0.0000000000000000e+00  -5.0886901457837034e+01 -1.3640323326082977e-05 0.0000000000000000e+00  -4.8561951431680242e+01 -1.3659347054415284e-05 0.0000000000000000e+00  -4.6336345308266154e+01 -1.3651583585445717e-05 0.0000000000000000e+00  -4.4207461228608778e+01 -1.3618545030760840e-05 0.0000000000000000e+00  -4.2172681251226798e+01 -1.3561763439281840e-05 0.0000000000000000e+00  -4.0229396057817809e+01 -1.3482771614329283e-05 0.0000000000000000e+00  -3.8375009364990028e+01 -1.3383101401233202e-05 0.0000000000000000e+00  -3.6606942041664666e+01 -1.3264275304248948e-05 0.0000000000000000e+00  -3.4922635933015371e+01 -1.3127806685793837e-05 0.0000000000000000e+00  -3.3319557393024560e+01 -1.2975186012629945e-05 0.0000000000000000e+00  -3.1795200528837505e+01 -1.2807878988663539e-05 0.0000000000000000e+00  -3.0347090161192920e+01 -1.2627323528757908e-05 0.0000000000000000e+00  -2.8972784506137543e+01 -1.2434921327194576e-05 0.0000000000000000e+00  -2.7669877584172887e+01 -1.2232036816620935e-05 0.0000000000000000e+00  -2.6436001363803811e+01 -1.2019991879946886e-05 0.0000000000000000e+00  -2.5268827647214891e+01 -1.1800063601935444e-05 0.0000000000000000e+00  -2.4166069706498575e+01 -1.1573479357511214e-05 0.0000000000000000e+00  -2.3125483679458060e+01 -1.1341415805845161e-05 0.0000000000000000e+00  -2.2144869734586656e+01 -1.1104995694570950e-05 0.0000000000000000e+00  -2.1222073015269803e+01 -1.0865286442042098e-05 0.0000000000000000e+00  -2.0354984373703132e+01 -1.0623297642990576e-05 0.0000000000000000e+00  -1.9541540905357706e+01 -1.0379982115726250e-05 0.0000000000000000e+00  -1.8779726295127826e+01 -1.0136231947070841e-05 0.0000000000000000e+00  -1.8067570986514340e+01 -9.8928776691095976e-06 0.0000000000000000e+00  -1.7403152185393502e+01 -9.6506888948167129e-06 0.0000000000000000e+00  -1.6784593710040966e+01 -9.4103759223295316e-06 0.0000000000000000e+00  -1.6210065699149098e+01 -9.1725854893863650e-06 0.0000000000000000e+00  -1.5677784189605058e+01 -8.9379043583340532e-06 0.0000000000000000e+00  -1.5186010575775487e+01 -8.7068583204076694e-06 0.0000000000000000e+00  -1.4733050961982997e+01 -8.4799145018157468e-06 0.0000000000000000e+00  -1.4317255419741361e+01 -8.2574792479368700e-06 0.0000000000000000e+00  -1.3937017161168207e+01 -8.0399006203518914e-06 0.0000000000000000e+00  -1.3590771639833454e+01 -7.8274718041364560e-06 0.0000000000000000e+00  -1.3276995590031541e+01 -7.6204299097037572e-06 0.0000000000000000e+00  -1.2994206015260598e+01 -7.4189583068969797e-06 0.0000000000000000e+00  -1.2740959136372325e+01 -7.2231864129014794e-06 0.0000000000000000e+00  -1.2515849309534612e+01 -7.0331966613007529e-06 0.0000000000000000e+00  -1.2317507923822708e+01 -6.8490216195642287e-06 0.0000000000000000e+00  -1.2144602287863888e+01 -6.6706460224363012e-06 0.0000000000000000e+00  -1.1995834514559812e+01 -6.4980120539796773e-06 0.0000000000000000e+00  -1.1869940412485031e+01 -6.3310186753550289e-06 0.0000000000000000e+00  -1.1765688392119953e+01 -6.1695230010694532e-06 0.0000000000000000e+00  -1.1681878394601911e+01 -6.0133404749959470e-06 0.0000000000000000e+00  -1.1617340850189152e+01 -5.8622391961867757e-06 0.0000000000000000e+00  -1.1570935673126472e+01 -5.7159416852791330e-06 0.0000000000000000e+00  -1.1541551299097261e+01 -5.5740990461175723e-06 0.0000000000000000e+00  -1.1528103770883259e+01 -5.4362631173405766e-06 0.0000000000000000e+00  -1.1529535877354981e+01 -5.3018260494160200e-06 0.0000000000000000e+00  -1.1544816350343677e+01 -5.1698935108877649e-06 0.0000000000000000e+00  -1.1572939123431984e+01 -5.0390529398697464e-06 0.0000000000000000e+00  -1.1612922656192399e+01 -4.9069223275727863e-06 0.0000000000000000e+00  -1.1663809326986909e+01 -4.7693054174782160e-06 0.0000000000000000e+00  -1.1724664897081727e+01 -4.6185749148587072e-06 0.0000000000000000e+00  -1.1794578048816017e+01 -4.4406142502167431e-06 0.0000000000000000e+00  -1.1872660000913754e+01 -4.2090190568349563e-06 0.0000000000000000e+00  -1.1958044205315757e+01 -3.8741127629542540e-06 0.0000000000000000e+00  -1.2049886132792965e+01 -3.3421293463077250e-06 0.0000000000000000e+00  -1.2147363160690754e+01 -2.4357749826581939e-06 0.0000000000000000e+00  -1.2249674588038893e+01 -8.1951206679247004e-07 0.0000000000000000e+00  -1.2356041826469660e+01 2.1419891041457649e-06 0.0000000000000000e+00  -1.2465708859658173e+01 7.6520215780151965e-06 0.0000000000000000e+00  -1.2577943148501490e+01 1.7989864488003962e-05 0.0000000000000000e+00  -1.2692037319656629e+01 3.747