<?xml version="1.0"?>
<VTKFile type="UnstructuredGrid"  version="0.1"  >
<UnstructuredGrid>
<Piece  NumberOfPoints="1656" NumberOfCells="3000">
<Points>
<DataArray  type="Float64"  NumberOfComponents="3"  format="ascii">0 0 0  2 0 0  4 0 0  6 0 0  8 0 0  10 0 0  12 0 0  14 0 0  16 0 0  18 0 0  20 0 0  22 0 0  24 0 0  26 0 0  28 0 0  30 0 0  32 0 0  34 0 0  36 0 0  38 0 0  40 0 0  42 0 0  44 0 0  46 0 0  48 0 0  50 0 0  52 0 0  54 0 0  56 0 0  58 0 0  60 0 0  62 0 0  64 0 0  66 0 0  68 0 0  70 0 0  72 0 0  74 0 0  76 0 0  78 0 0  80 0 0  82 0 0  84 0 0  86 0 0  88 0 0  90 0 0  92 0 0  94 0 0  96 0 0  98 0 0  100 0 0  102 0 0  104 0 0  106 0 0  108 0 0  110 0 0  112 0 0  114 0 0  116 0 0  118 0 0  120 0 0  122 0 0  124 0 0  126 0 0  128 0 0  130 0 0  132 0 0  134 0 0  136 0 0  138 0 0  140 0 0  142 0 0  144 0 0  146 0 0  148 0 0  150 0 0  152 0 0  154 0 0  156 0 0  158 0 0  160 0 0  162 0 0  164 0 0  166 0 0  168 0 0  170 0 0  172 0 0  174 0 0  176 0 0  178 0 0  180 0 0  182 0 0  184 0 0  186 0 0  188 0 0  190 0 0  192 0 0  194 0 0  196 0 0  198 0 0  200 0 0  202 0 0  204 0 0  206 0 0  208 0 0  210 0 0  212 0 0  214 0 0  216 0 0  218 0 0  220 0 0  222 0 0  224 0 0  226 0 0  228 0 0  230 0 0  232 0 0  234 0 0  236 0 0  238 0 0  240 0 0  242 0 0  244 0 0  246 0 0  248 0 0  250 0 0  252 0 0  254 0 0  256 0 0  258 0 0  260 0 0  262 0 0  264 0 0  266 0 0  268 0 0  270 0 0  272 0 0  274 0 0  276 0 0  278 0 0  280 0 0  282 0 0  284 0 0  286 0 0  288 0 0  290 0 0  292 0 0  294 0 0  296 0 0  298 0 0  300 0 0  0 2 0  2 2 0  4 2 0  6 2 0  8 2 0  10 2 0  12 2 0  14 2 0  16 2 0  18 2 0  20 2 0  22 2 0  24 2 0  26 2 0  28 2 0  30 2 0  32 2 0  34 2 0  36 2 0  38 2 0  40 2 0  42 2 0  44 2 0  46 2 0  48 2 0  50 2 0  52 2 0  54 2 0  56 2 0  58 2 0  60 2 0  62 2 0  64 2 0  66 2 0  68 2 0  70 2 0  72 2 0  74 2 0  76 2 0  78 2 0  80 2 0  82 2 0  84 2 0  86 2 0  88 2 0  90 2 0  92 2 0  94 2 0  96 2 0  98 2 0  100 2 0  102 2 0  104 2 0  106 2 0  108 2 0  110 2 0  112 2 0  114 2 0  116 2 0  118 2 0  120 2 0  122 2 0  124 2 0  126 2 0  128 2 0  130 2 0  132 2 0  134 2 0  136 2 0  138 2 0  140 2 0  142 2 0  144 2 0  146 2 0  148 2 0  150 2 0  152 2 0  154 2 0  156 2 0  158 2 0  160 2 0  162 2 0  164 2 0  166 2 0  168 2 0  170 2 0  172 2 0  174 2 0  176 2 0  178 2 0  180 2 0  182 2 0  184 2 0  186 2 0  188 2 0  190 2 0  192 2 0  194 2 0  196 2 0  198 2 0  200 2 0  202 2 0  204 2 0  206 2 0  208 2 0  210 2 0  212 2 0  214 2 0  216 2 0  218 2 0  220 2 0  222 2 0  224 2 0  226 2 0  228 2 0  230 2 0  232 2 0  234 2 0  236 2 0  238 2 0  240 2 0  242 2 0  244 2 0  246 2 0  248 2 0  250 2 0  252 2 0  254 2 0  256 2 0  258 2 0  260 2 0  262 2 0  264 2 0  266 2 0  268 2 0  270 2 0  272 2 0  274 2 0  276 2 0  278 2 0  280 2 0  282 2 0  284 2 0  286 2 0  288 2 0  290 2 0  292 2 0  294 2 0  296 2 0  298 2 0  300 2 0  0 4 0  2 4 0  4 4 0  6 4 0  8 4 0  10 4 0  12 4 0  14 4 0  16 4 0  18 4 0  20 4 0  22 4 0  24 4 0  26 4 0  28 4 0  30 4 0  32 4 0  34 4 0  36 4 0  38 4 0  40 4 0  42 4 0  44 4 0  46 4 0  48 4 0  50 4 0  52 4 0  54 4 0  56 4 0  58 4 0  60 4 0  62 4 0  64 4 0  66 4 0  68 4 0  70 4 0  72 4 0  74 4 0  76 4 0  78 4 0  80 4 0  82 4 0  84 4 0  86 4 0  88 4 0  90 4 0  92 4 0  94 4 0  96 4 0  98 4 0  100 4 0  102 4 0  104 4 0  106 4 0  108 4 0  110 4 0  112 4 0  114 4 0  116 4 0  118 4 0  120 4 0  122 4 0  124 4 0  126 4 0  128 4 0  130 4 0  132 4 0  134 4 0  136 4 0  138 4 0  140 4 0  142 4 0  144 4 0  146 4 0  148 4 0  150 4 0  152 4 0  154 4 0  156 4 0  158 4 0  160 4 0  162 4 0  164 4 0  166 4 0  168 4 0  170 4 0  172 4 0  174 4 0  176 4 0  178 4 0  180 4 0  182 4 0  184 4 0  186 4 0  188 4 0  190 4 0  192 4 0  194 4 0  196 4 0  198 4 0  200 4 0  202 4 0  204 4 0  206 4 0  208 4 0  210 4 0  212 4 0  214 4 0  216 4 0  218 4 0  220 4 0  222 4 0  224 4 0  226 4 0  228 4 0  230 4 0  232 4 0  234 4 0  236 4 0  238 4 0  240 4 0  242 4 0  244 4 0  246 4 0  248 4 0  250 4 0  252 4 0  254 4 0  256 4 0  258 4 0  260 4 0  262 4 0  264 4 0  266 4 0  268 4 0  270 4 0  272 4 0  274 4 0  276 4 0  278 4 0  280 4 0  282 4 0  284 4 0  286 4 0  288 4 0  290 4 0  292 4 0  294 4 0  296 4 0  298 4 0  300 4 0  0 6 0  2 6 0  4 6 0  6 6 0  8 6 0  10 6 0  12 6 0  14 6 0  16 6 0  18 6 0  20 6 0  22 6 0  24 6 0  26 6 0  28 6 0  30 6 0  32 6 0  34 6 0  36 6 0  38 6 0  40 6 0  42 6 0  44 6 0  46 6 0  48 6 0  50 6 0  52 6 0  54 6 0  56 6 0  58 6 0  60 6 0  62 6 0  64 6 0  66 6 0  68 6 0  70 6 0  72 6 0  74 6 0  76 6 0  78 6 0  80 6 0  82 6 0  84 6 0  86 6 0  88 6 0  90 6 0  92 6 0  94 6 0  96 6 0  98 6 0  100 6 0  102 6 0  104 6 0  106 6 0  108 6 0  110 6 0  112 6 0  114 6 0  116 6 0  118 6 0  120 6 0  122 6 0  124 6 0  126 6 0  128 6 0  130 6 0  132 6 0  134 6 0  136 6 0  138 6 0  140 6 0  142 6 0  144 6 0  146 6 0  148 6 0  150 6 0  152 6 0  154 6 0  156 6 0  158 6 0  160 6 0  162 6 0  164 6 0  166 6 0  168 6 0  170 6 0  172 6 0  174 6 0  176 6 0  178 6 0  180 6 0  182 6 0  184 6 0  186 6 0  188 6 0  190 6 0  192 6 0  194 6 0  196 6 0  198 6 0  200 6 0  202 6 0  204 6 0  206 6 0  208 6 0  210 6 0  212 6 0  214 6 0  216 6 0  218 6 0  220 6 0  222 6 0  224 6 0  226 6 0  228 6 0  230 6 0  232 6 0  234 6 0  236 6 0  238 6 0  240 6 0  242 6 0  244 6 0  246 6 0  248 6 0  250 6 0  252 6 0  254 6 0  256 6 0  258 6 0  260 6 0  262 6 0  264 6 0  266 6 0  268 6 0  270 6 0  272 6 0  274 6 0  276 6 0  278 6 0  280 6 0  282 6 0  284 6 0  286 6 0  288 6 0  290 6 0  292 6 0  294 6 0  296 6 0  298 6 0  300 6 0  0 8 0  2 8 0  4 8 0  6 8 0  8 8 0  10 8 0  12 8 0  14 8 0  16 8 0  18 8 0  20 8 0  22 8 0  24 8 0  26 8 0  28 8 0  30 8 0  32 8 0  34 8 0  36 8 0  38 8 0  40 8 0  42 8 0  44 8 0  46 8 0  48 8 0  50 8 0  52 8 0  54 8 0  56 8 0  58 8 0  60 8 0  62 8 0  64 8 0  66 8 0  68 8 0  70 8 0  72 8 0  74 8 0  76 8 0  78 8 0  80 8 0  82 8 0  84 8 0  86 8 0  88 8 0  90 8 0  92 8 0  94 8 0  96 8 0  98 8 0  100 8 0  102 8 0  104 8 0  106 8 0  108 8 0  110 8 0  112 8 0  114 8 0  116 8 0  118 8 0  120 8 0  122 8 0  124 8 0  126 8 0  128 8 0  130 8 0  132 8 0  134 8 0  136 8 0  138 8 0  140 8 0  142 8 0  144 8 0  146 8 0  148 8 0  150 8 0  152 8 0  154 8 0  156 8 0  158 8 0  160 8 0  162 8 0  164 8 0  166 8 0  168 8 0  170 8 0  172 8 0  174 8 0  176 8 0  178 8 0  180 8 0  182 8 0  184 8 0  186 8 0  188 8 0  190 8 0  192 8 0  194 8 0  196 8 0  198 8 0  200 8 0  202 8 0  204 8 0  206 8 0  208 8 0  210 8 0  212 8 0  214 8 0  216 8 0  218 8 0  220 8 0  222 8 0  224 8 0  226 8 0  228 8 0  230 8 0  232 8 0  234 8 0  236 8 0  238 8 0  240 8 0  242 8 0  244 8 0  246 8 0  248 8 0  250 8 0  252 8 0  254 8 0  256 8 0  258 8 0  260 8 0  262 8 0  264 8 0  266 8 0  268 8 0  270 8 0  272 8 0  274 8 0  276 8 0  278 8 0  280 8 0  282 8 0  284 8 0  286 8 0  288 8 0  290 8 0  292 8 0  294 8 0  296 8 0  298 8 0  300 8 0  0 10 0  2 10 0  4 10 0  6 10 0  8 10 0  10 10 0  12 10 0  14 10 0  16 10 0  18 10 0  20 10 0  22 10 0  24 10 0  26 10 0  28 10 0  30 10 0  32 10 0  34 10 0  36 10 0  38 10 0  40 10 0  42 10 0  44 10 0  46 10 0  48 10 0  50 10 0  52 10 0  54 10 0  56 10 0  58 10 0  60 10 0  62 10 0  64 10 0  66 10 0  68 10 0  70 10 0  72 10 0  74 10 0  76 10 0  78 10 0  80 10 0  82 10 0  84 10 0  86 10 0  88 10 0  90 10 0  92 10 0  94 10 0  96 10 0  98 10 0  100 10 0  102 10 0  104 10 0  106 10 0  108 10 0  110 10 0  112 10 0  114 10 0  116 10 0  118 10 0  120 10 0  122 10 0  124 10 0  126 10 0  128 10 0  130 10 0  132 10 0  134 10 0  136 10 0  138 10 0  140 10 0  142 10 0  144 10 0  146 10 0  148 10 0  150 10 0  152 10 0  154 10 0  156 10 0  158 10 0  160 10 0  162 10 0  164 10 0  166 10 0  168 10 0  170 10 0  172 10 0  174 10 0  176 10 0  178 10 0  180 10 0  182 10 0  184 10 0  186 10 0  188 10 0  190 10 0  192 10 0  194 10 0  196 10 0  198 10 0  200 10 0  202 10 0  204 10 0  206 10 0  208 10 0  210 10 0  212 10 0  214 10 0  216 10 0  218 10 0  220 10 0  222 10 0  224 10 0  226 10 0  228 10 0  230 10 0  232 10 0  234 10 0  236 10 0  238 10 0  240 10 0  242 10 0  244 10 0  246 10 0  248 10 0  250 10 0  252 10 0  254 10 0  256 10 0  258 10 0  260 10 0  262 10 0  264 10 0  266 10 0  268 10 0  270 10 0  272 10 0  274 10 0  276 10 0  278 10 0  280 10 0  282 10 0  284 10 0  286 10 0  288 10 0  290 10 0  292 10 0  294 10 0  296 10 0  298 10 0  300 10 0  1 1 0  3 1 0  5 1 0  7 1 0  9 1 0  11 1 0  13 1 0  15 1 0  17 1 0  19 1 0  21 1 0  23 1 0  25 1 0  27 1 0  29 1 0  31 1 0  33 1 0  35 1 0  37 1 0  39 1 0  41 1 0  43 1 0  45 1 0  47 1 0  49 1 0  51 1 0  53 1 0  55 1 0  57 1 0  59 1 0  61 1 0  63 1 0  65 1 0  67 1 0  69 1 0  71 1 0  73 1 0  75 1 0  77 1 0  79 1 0  81 1 0  83 1 0  85 1 0  87 1 0  89 1 0  91 1 0  93 1 0  95 1 0  97 1 0  99 1 0  101 1 0  103 1 0  105 1 0  107 1 0  109 1 0  111 1 0  113 1 0  115 1 0  117 1 0  119 1 0  121 1 0  123 1 0  125 1 0  127 1 0  129 1 0  131 1 0  133 1 0  135 1 0  137 1 0  139 1 0  141 1 0  143 1 0  145 1 0  147 1 0  149 1 0  151 1 0  153 1 0  155 1 0  157 1 0  159 1 0  161 1 0  163 1 0  165 1 0  167 1 0  169 1 0  171 1 0  173 1 0  175 1 0  177 1 0  179 1 0  181 1 0  183 1 0  185 1 0  187 1 0  189 1 0  191 1 0  193 1 0  195 1 0  197 1 0  199 1 0  201 1 0  203 1 0  205 1 0  207 1 0  209 1 0  211 1 0  213 1 0  215 1 0  217 1 0  219 1 0  221 1 0  223 1 0  225 1 0  227 1 0  229 1 0  231 1 0  233 1 0  235 1 0  237 1 0  239 1 0  241 1 0  243 1 0  245 1 0  247 1 0  249 1 0  251 1 0  253 1 0  255 1 0  257 1 0  259 1 0  261 1 0  263 1 0  265 1 0  267 1 0  269 1 0  271 1 0  273 1 0  275 1 0  277 1 0  279 1 0  281 1 0  283 1 0  285 1 0  287 1 0  289 1 0  291 1 0  293 1 0  295 1 0  297 1 0  299 1 0  1 3 0  3 3 0  5 3 0  7 3 0  9 3 0  11 3 0  13 3 0  15 3 0  17 3 0  19 3 0  21 3 0  23 3 0  25 3 0  27 3 0  29 3 0  31 3 0  33 3 0  35 3 0  37 3 0  39 3 0  41 3 0  43 3 0  45 3 0  47 3 0  49 3 0  51 3 0  53 3 0  55 3 0  57 3 0  59 3 0  61 3 0  63 3 0  65 3 0  67 3 0  69 3 0  71 3 0  73 3 0  75 3 0  77 3 0  79 3 0  81 3 0  83 3 0  85 3 0  87 3 0  89 3 0  91 3 0  93 3 0  95 3 0  97 3 0  99 3 0  101 3 0  103 3 0  105 3 0  107 3 0  109 3 0  111 3 0  113 3 0  115 3 0  117 3 0  119 3 0  121 3 0  123 3 0  125 3 0
[...]
<PointData  Vectors="flow"> 
<DataArray  type="Float64"  Name="flow"  NumberOfComponents="3" format="ascii">-4.5624654666748529e+02 -2.5360500695757797e+00 0.0000000000000000e+00  -4.4610785543030130e+02 -2.5335889042021713e+00 0.0000000000000000e+00  -4.3092653035177256e+02 -2.5262228655203671e+00 0.0000000000000000e+00  -4.1580398661059587e+02 -2.5140040622304607e+00 0.0000000000000000e+00  -4.0076909576468239e+02 -2.4970184714565957e+00 0.0000000000000000e+00  -3.8585011515395320e+02 -2.4753846590598272e+00 0.0000000000000000e+00  -3.7107449741918606e+02 -2.4492520392342065e+00 0.0000000000000000e+00  -3.5646871172299768e+02 -2.4187987209663806e+00 0.0000000000000000e+00  -3.4205807898392163e+02 -2.3842289984351179e+00 0.0000000000000000e+00  -3.2786662307118974e+02 -2.3457705489483085e+00 0.0000000000000000e+00  -3.1391693951367063e+02 -2.3036714057377603e+00 0.0000000000000000e+00  -3.0023008286714537e+02 -2.2581967747402807e+00 0.0000000000000000e+00  -2.8682547347292370e+02 -2.2096257625877413e+00 0.0000000000000000e+00  -2.7372082394292477e+02 -2.1582480812080673e+00 0.0000000000000000e+00  -2.6093208533095719e+02 -2.1043607885869529e+00 0.0000000000000000e+00  -2.4847341260670484e+02 -2.0482651203496487e+00 0.0000000000000000e+00  -2.3635714874392738e+02 -1.9902634590754378e+00 0.0000000000000000e+00  -2.2459382647196753e+02 -1.9306564818937013e+00 0.0000000000000000e+00  -2.1319218652166734e+02 -1.8697405184591669e+00 0.0000000000000000e+00  -2.0215921102441774e+02 -1.8078051446754637e+00 0.0000000000000000e+00  -1.9150017059445668e+02 -1.7451310297487703e+00 0.0000000000000000e+00  -1.8121868353803109e+02 -1.6819880477716216e+00 0.0000000000000000e+00  -1.7131678558593524e+02 -1.6186336586875421e+00 0.0000000000000000e+00  -1.6179500853308039e+02 -1.5553115578137520e+00 0.0000000000000000e+00  -1.5265246618798761e+02 -1.4922505887104380e+00 0.0000000000000000e+00  -1.4388694608026356e+02 -1.4296639095046091e+00 0.0000000000000000e+00  -1.3549500544199626e+02 -1.3677484000448263e+00 0.0000000000000000e+00  -1.2747207006469496e+02 -1.3066842941087942e+00 0.0000000000000000e+00  -1.1981253473297431e+02 -1.2466350191966327e+00 0.0000000000000000e+00  -1.1250986404591066e+02 -1.1877472250209666e+00 0.0000000000000000e+00  -1.0555669255316494e+02 -1.1301509808510199e+00 0.0000000000000000e+00  -9.8944923252702935e+01 -1.0739601216991810e+00 0.0000000000000000e+00  -9.2665823617305676e+01 -1.0192727232987651e+00 0.0000000000000000e+00  -8.6710118436000798e+01 -9.6617168634504047e-01 0.0000000000000000e+00  -8.1068078871826202e+01 -9.1472541110206773e-01 0.0000000000000000e+00  -7.5729607247591701e+01 -8.6498854455059626e-01 0.0000000000000000e+00  -7.0684317175297906e+01 -8.1700278329051246e-01 0.0000000000000000e+00  -6.5921608741506731e+01 -7.7079771672664488e-01 0.0000000000000000e+00  -6.1430738549895736e+01 -7.2639169643660928e-01 0.0000000000000000e+00  -5.7200884502797628e+01 -6.8379271891976423e-01 0.0000000000000000e+00  -5.3221205275754407e+01 -6.4299931047231440e-01 0.0000000000000000e+00  -4.9480894502896703e+01 -6.0400140418148052e-01 0.0000000000000000e+00  -4.5969229746569745e+01 -5.6678120049398362e-01 0.0000000000000000e+00  -4.2675616372216822e+01 -5.3131400404057916e-01 0.0000000000000000e+00  -3.9589626489599645e+01 -4.9756903065650604e-01 0.0000000000000000e+00  -3.6701033154399660e+01 -4.6551017967445218e-01 0.0000000000000000e+00  -3.3999840050581447e+01 -4.3509676761074800e-01 0.0000000000000000e+00  -3.1476306894196242e+01 -4.0628422035291201e-01 0.0000000000000000e+00  -2.9120970814105597e+01 -3.7902472178663271e-01 0.0000000000000000e+00  -2.6924663974950022e+01 -3.5326781763948983e-01 0.0000000000000000e+00  -2.4878527713173270e+01 -3.2896097392726209e-01 0.0000000000000000e+00  -2.2974023458548206e+01 -3.0605009003342304e-01 0.0000000000000000e+00  -2.1202940711955037e+01 -2.8447996698573685e-01 0.0000000000000000e+00  -1.9557402345659877e+01 -2.6419473183559561e-01 0.0000000000000000e+00  -1.8029867485420326e+01 -2.4513821951655318e-01 0.0000000000000000e+00  -1.6613132224921458e+01 -2.2725431377458333e-01 0.0000000000000000e+00  -1.5300328412609883e+01 -2.1048724902267718e-01 0.0000000000000000e+00  -1.4084920739365252e+01 -1.9478187514345835e-01 0.0000000000000000e+00  -1.2960702342915990e+01 -1.8008388739059600e-01 0.0000000000000000e+00  -1.1921789131740036e+01 -1.6634002361656366e-01 0.0000000000000000e+00  -1.0962613017647625e+01 -1.5349823111173022e-01 0.0000000000000000e+00  -1.0077914232541705e+01 -1.4150780533730484e-01 0.0000000000000000e+00  -9.2627328911414679e+00 -1.3031950282598653e-01 0.0000000000000000e+00  -8.5123999479358510e+00 -1.1988563049247203e-01 0.0000000000000000e+00  -7.8225276833739290e+00 -1.1016011351782519e-01 0.0000000000000000e+00  -7.1889998414806868e+00 -1.0109854392424025e-01 0.0000000000000000e+00  -6.6079615286924991e+00 -9.2658211847417238e-02 0.0000000000000000e+00  -6.0758089718913801e+00 -8.4798121437797497e-02 0.0000000000000000e+00  -5.5891792223688039e+00 -7.7478993213892705e-02 0.0000000000000000e+00  -5.1449398818235252e+00 -7.0663254579527351e-02 0.0000000000000000e+00  -4.7401789164819723e+00 -6.4315020128222170e-02 0.0000000000000000e+00  -4.3721946160965892e+00 -5.8400063239110553e-02 0.0000000000000000e+00  -4.0384857458231664e+00 -5.2885780359589435e-02 0.0000000000000000e+00  -3.7367419308926548e+00 -4.7741149284928876e-02 0.0000000000000000e+00  -3.4648343064843639e+00 -4.2936682626938075e-02 0.0000000000000000e+00  -3.2208064583053821e+00 -3.8444377581315789e-02 0.0000000000000000e+00  -3.0028656730037913e+00 -3.4237663003408143e-02 0.0000000000000000e+00  -2.8093745117356175e+00 -3.0291344732896186e-02 0.0000000000000000e+00  -2.6388427148422320e+00 -2.6581550001817868e-02 0.0000000000000000e+00  -2.4899194407476322e+00 -2.3085671714330902e-02 0.0000000000000000e+00  -2.3613858377303396e+00 -1.9782313296813105e-02 0.0000000000000000e+00  -2.2521479431824165e+00 -1.6651234762887348e-02 0.0000000000000000e+00  -2.1612299012994338e+00 -1.3673300577338107e-02 0.0000000000000000e+00  -2.0877674868027718e+00 -1.0830429845811014e-02 0.0000000000000000e+00  -2.0310019192754205e+00 -8.1055493123800976e-03 0.0000000000000000e+00  -1.9902739499514430e+00 -5.4825495967049482e-03 0.0000000000000000e+00  -1.9650182003259595e+00 -2.9462450643588907e-03 0.0000000000000000e+00  -1.9547577297321812e+00 -4.8233767958404973e-04 0.0000000000000000e+00  -1.9590988070187296e+00 1.9226148466565131e-03 0.0000000000000000e+00  -1.9777258597078544e+00 4.2812263294336496e-03 0.0000000000000000e+00  -2.0103965724307638e+00 6.6053045665849311e-03 0.0000000000000000e+00  -2.0569371051016989e+00 8.9058687715638934e-03 0.0000000000000000e+00  -2.1172374001400773e+00 1.1193161803275275e-02 0.0000000000000000e+00  -2.1912465471369202e+00 1.3476657068869432e-02 0.0000000000000000e+00  -2.2789681726726543e+00 1.5765059996250240e-02 0.0000000000000000e+00  -2.3804558225489383e+00 1.8066304027591167e-02 0.0000000000000000e+00  -2.4958083035219167e+00 2.0387541129468653e-02 0.0000000000000000e+00  -2.6251649517493862e+00 2.2735126863728004e-02 0.0000000000000000e+00  -2.7687007956065939e+00 2.5114600123289581e-02 0.0000000000000000e+00  -2.9266215813382503e+00 2.7530657698740288e-02 0.0000000000000000e+00  -3.0991586312135619e+00 2.9987123917673608e-02 0.0000000000000000e+00  -3.2865635055092457e+00 3.2486915659931608e-02 0.0000000000000000e+00  -3.4891024417896879e+00 3.5032003163172919e-02 0.0000000000000000e+00  -3.7070505476303826e+00 3.7623367103683573e-02 0.0000000000000000e+00  -3.9406857262018500e+00 4.0260952554166660e-02 0.0000000000000000e+00  -4.1902823180544280e+00 4.2943620523390465e-02 0.0000000000000000e+00  -4.4561044470355569e+00 4.5669097910815040e-02 0.0000000000000000e+00  -4.7383990636232580e+00 4.8433926825361656e-02 0.0000000000000000e+00  -5.0373886850721998e+00 5.1233414356732399e-02 0.0000000000000000e+00  -5.3532638387099301e+00 5.4061584032564794e-02 0.0000000000000000e+00  -5.6861752225024524e+00 5.6911130320997205e-02 0.0000000000000000e+00  -6.0362256056396504e+00 5.9773377706728005e-02 0.0000000000000000e+00  -6.4034615013924636e+00 6.2638245995467925e-02 0.0000000000000000e+00  -6.7878646548471302e+00 6.5494223666357765e-02 0.0000000000000000e+00  -7.1893433992788616e+00 6.8328351231961765e-02 0.0000000000000000e+00  -7.6077239469082238e+00 7.1126216731225128e-02 0.0000000000000000e+00  -8.0427416924897805e+00 7.3871965662804809e-02 0.0000000000000000e+00  -8.4940326216801925e+00 7.6548327912246111e-02 0.0000000000000000e+00  -8.9611249304373377e+00 7.9136664585169991e-02 0.0000000000000000e+00  -9.4434309771742431e+00 8.1617038298275407e-02 0.0000000000000000e+00  -9.9402397065883328e+00 8.3968311616580832e-02 0.0000000000000000e+00  -1.0450709704589652e+01 8.6168280515813989e-02 0.0000000000000000e+00  -1.0973863070489237e+01 8.8193853880823958e-02 0.0000000000000000e+00  -1.1508580331550997e+01 9.0021298038029829e-02 0.0000000000000000e+00  -1.2053596687833597e+01 9.1626580530345489e-02 0.0000000000000000e+00  -1.2607499984336531e+01 9.2985876409064444e-02 0.0000000000000000e+00  -1.3168731005712644e+01 9.4076355709523468e-02 0.0000000000000000e+00  -1.3735587057983579e+01 9.4877475984654541e-02 0.0000000000000000e+00  -1.4306230497133303e+01 9.5373203708175786e-02 0.0000000000000000e+00  -1.4878705181190817e+01 9.5555967651754004e-02 0.0000000000000000e+00  -1.5450966319954656e+01 9.5433866689990432e-02 0.0000000000000000e+00  -1.6020933935915352e+01 9.5044018536741950e-02 0.0000000000000000e+00  -1.6586589143884598e+01 9.4477522206535214e-02 0.0000000000000000e+00  -1.7146149523349802e+01 9.3926412706183876e-02 0.0000000000000000e+00  -1.7698392261343631e+01 9.3772298965944745e-02 0.0000000000000000e+00  -1.8243255284388376e+01 9.4754089344697714e-02 0.0000000000000000e+00  -1.8782964027974256e+01 9.8286015445739852e-02 0.0000000000000000e+00  -1.9324155126648712e+01 1.0706227787792072e-01 0.0000000000000000e+00  -1.9881907575495163e+01 1.2621130222368995e-01 0.0000000000000000e+00  -2.0487419549139545e+01 1.6552052171226223e-01 0.0000000000000000e+00  -2.1202985809497886e+01 2.4377527702730772e-01 0.0000000000000000e+00  -2.2150824904096403e+01 3.9760944667987663e-01 0.0000000000000000e+00  -2.3576615032164202e+01 6.9967171705364284e-01 0.0000000000000000e+00  -2.5964583677017082e+01 1.3050811664376640e+00 0.0000000000000000e+00  -3.0446520652501700e+01 2.5405639285887593e+00 0.0000000000000000e+00  -3.9176945017629421e+01 5.3579046179925331e+00 0.0000000000000000e+00  -5.9728082390691931e+01 1.1358605503965276e+01 0.0000000000000000e+00  -1.0234541836618362e+02 3.0403821451307042e+01 0.0000000000000000e+00  -1.8442795178377435e+02 4.6589965706978433e+01 0.0000000000000000e+00  -3.0859631689347441e+02 8.3235896810695337e+01 0.0000000000000000e+00  -3.7853382320852194e+02 7.4483118709766700e+01 0.0000000000000000e+00  -4.5624654666746835e+02 1.5389111742117811e-04 0.0000000000000000e+00  -4.4610785543030357e+02 1.5334505273628554e-04 0.0000000000000000e+00  -4.3092653035176954e+02 1.5171512272532203e-04 0.0000000000000000e+00  -4.1580398661060474e+02 1.4902582827100718e-04 0.0000000000000000e+00  -4.0076909576467443e+02 1.4531724028879258e-04 0.0000000000000000e+00  -3.8585011515395473e+02 1.4064383319440521e-04 0.0000000000000000e+00  -3.7107449741919038e+02 1.3507301440009926e-04 0.0000000000000000e+00  -3.5646871172299558e+02 1.2868333558373155e-04 0.0000000000000000e+00  -3.4205807898392351e+02 1.2156250146382068e-04 0.0000000000000000e+00  -3.2786662307118536e+02 1.1380523720752122e-04 0.0000000000000000e+00  -3.1391693951367102e+02 1.0551115002683788e-04 0.0000000000000000e+00  -3.0023008286715117e+02 9.6782618736472589e-05 0.0000000000000000e+00  -2.8682547347292308e+02 8.7722747461367972e-05 0.0000000000000000e+00  -2.7372082394292266e+02 7.8433490200959373e-05 0.0000000000000000e+00  -2.6093208533095799e+02 6.9013952374178989e-05 0.0000000000000000e+00  -2.4847341260670348e+02 5.9558919577583339e-05 0.0000000000000000e+00  -2.3635714874393190e+02 5.0157594625214940e-05 0.0000000000000000e+00  -2.2459382647196742e+02 4.0892587966639603e-05 0.0000000000000000e+00  -2.1319218652166091e+02 3.1839137871735660e-05 0.0000000000000000e+00  -2.0215921102442363e+02 2.3064535107413815e-05 0.0000000000000000e+00  -1.9150017059445469e+02 1.4627808257127044e-05 0.0000000000000000e+00  -1.8121868353803063e+02 6.5795495337643577e-06 0.0000000000000000e+00  -1.7131678558593666e+02 -1.0380533679404501e-06 0.0000000000000000e+00  -1.6179500853308039e+02 -8.1910387457543720e-06 0.0000000000000000e+00  -1.5265246618798835e+02 -1.4853387444941107e-05 0.0000000000000000e+00  -1.4388694608026057e+02 -2.1006596955002003e-05 0.0000000000000000e+00  -1.3549500544199577e+02 -2.6639212550216767e-05 0.0000000000000000e+00  -1.2747207006469634e+02 -3.1746264304922760e-05 0.0000000000000000e+00  -1.1981253473297497e+02 -3.6328679060315725e-05 0.0000000000000000e+00  -1.1250986404591090e+02 -4.0392663859389453e-05 0.0000000000000000e+00  -1.0555669255316495e+02 -4.3949078375368596e-05 0.0000000000000000e+00  -9.8944923252702836e+01 -4.7012800758487584e-05 0.0000000000000000e+00  -9.2665823617305676e+01 -4.9602127279905071e-05 0.0000000000000000e+00  -8.6710118436001864e+01 -5.1738173619627022e-05 0.0000000000000000e+00  -8.1068078871824909e+01 -5.3444321713942031e-05 0.0000000000000000e+00  -7.5729607247591957e+01 -5.4745691041455800e-05 0.0000000000000000e+00  -7.0684317175298318e+01 -5.5668660135150058e-05 0.0000000000000000e+00  -6.5921608741506688e+01 -5.6240420588038596e-05 0.0000000000000000e+00  -6.1430738549895295e+01 -5.6488581741080796e-05 0.0000000000000000e+00  -5.7200884502798061e+01 -5.6440814047429849e-05 0.0000000000000000e+00  -5.3221205275754819e+01 -5.6124541440530296e-05 0.0000000000000000e+00  -4.9480894502896696e+01 -5.5566670086623927e-05 0.0000000000000000e+00  -4.5969229746569894e+01 -5.4793363044273289e-05 0.0000000000000000e+00  -4.2675616372216581e+01 -5.3829848599488628e-05 0.0000000000000000e+00  -3.9589626489599567e+01 -5.2700269404269557e-05 0.0000000000000000e+00  -3.6701033154399497e+01 -5.1427558118817263e-05 0.0000000000000000e+00  -3.3999840050581611e+01 -5.0033349769045480e-05 0.0000000000000000e+00  -3.1476306894196043e+01 -4.8537917148798042e-05 0.0000000000000000e+00  -2.9120970814105579e+01 -4.6960130397286004e-05 0.0000000000000000e+00  -2.6924663974950647e+01 -4.5317441452100108e-05 0.0000000000000000e+00  -2.4878527713173366e+01 -4.3625883300345169e-05 0.0000000000000000e+00  -2.2974023458547538e+01 -4.1900086307561936e-05 0.0000000000000000e+00  -2.1202940711955048e+01 -4.0153310739738811e-05 0.0000000000000000e+00  -1.9557402345659824e+01 -3.8397486881555870e-05 0.0000000000000000e+00  -1.8029867485420468e+01 -3.6643264528657721e-05 0.0000000000000000e+00  -1.6613132224921618e+01 -3.4900073310343799e-05 0.0000000000000000e+00  -1.5300328412609847e+01 -3.3176183626152534e-05 0.0000000000000000e+00  -1.4084920739365240e+01 -3.1478775278042975e-05 0.0000000000000000e+00  -1.2960702342916150e+01 -2.9814007772409750e-05 0.0000000000000000e+00  -1.1921789131739825e+01 -2.8187090021123063e-05 0.0000000000000000e+00  -1.0962613017647714e+01 -2.6602352945213116e-05 0.0000000000000000e+00  -1.0077914232541541e+01 -2.5063320224571310e-05 0.0000000000000000e+00  -9.2627328911415070e+00 -2.3572779078686764e-05 0.0000000000000000e+00  -8.5123999479360162e+00 -2.2132846652800566e-05 0.0000000000000000e+00  -7.8225276833739352e+00 -2.0745036707747738e-05 0.0000000000000000e+00  -7.1889998414809320e+00 -1.9410322816473973e-05 0.0000000000000000e+00  -6.6079615286923090e+00 -1.8129198166382553e-05 0.0000000000000000e+00  -6.0758089718911421e+00 -1.6901732983093298e-05 0.0000000000000000e+00  -5.5891792223691121e+00 -1.5727627918968530e-05 0.0000000000000000e+00  -5.1449398818233973e+00 -1.4606264738254668e-05 0.0000000000000000e+00  -4.7401789164818693e+00 -1.3536752755968431e-05 0.0000000000000000e+00  -4.3721946160967926e+00 -1.2517973364979225e-05 0.0000000000000000e+00  -4.0384857458230776e+00 -1.1548620728993546e-05 0.0000000000000000e+00  -3.7367419308925047e+00 -1.0627238179744877e-05 0.0000000000000000e+00  -3.4648343064845264e+00 -9.7522540525742921e-06 0.0000000000000000e+00  -3.2208064583054652e+00 -8.9220129257530958e-06 0.0000000000000000e+00  -3.0028656730037091e+00 -8.1348039479645855e-06 0.0000000000000000e+00  -2.8093745117355846e+00 -7.3888887039176949e-06 0.0000000000000000e+00  -2.6388427148422737e+00 -6.6825247415199383e-06 0.0000000000000000e+00  -2.4899194407476068e+00 -6.0139871523964566e-06 0.0000000000000000e+00  -2.3613858377302459e+00 -5.3815896821673939e-06 0.0000000000000000e+00  -2.2521479431822482e+00 -4.7837014853834432e-06 0.0000000000000000e+00  -2.1612299012993428e+00 -4.2187652080048706e-06 0.0000000000000000e+00  -2.0877674868028517e+00 -3.6853115117767199e-06 0.0000000000000000e+00  -2.0310019192756923e+00 -3.1819718907092466e-06 0.0000000000000000e+00  -1.9902739499513045e+00 -2.7074914828917353e-06 0.0000000000000000e+00  -1.9650182003259344e+00 -2.2607401283241829e-06 0.0000000000000000e+00  -1.9547577297323497e+00 -1.8407218775179637e-06 0.0000000000000000e+00  -1.9590988070186324e+00 -1.4465838630570858e-06 0.0000000000000000e+00  -1.9777258597079197e+00 -1.0776244379780788e-06 0.0000000000000000e+00  -2.0103965724307713e+00 -7.3329776747562137e-07 0.0000000000000000e+00  -2.0569371051015786e+00 -4.1322188072781219e-07 0.0000000000000000e+00  -2.1172374001402066e+00 -1.1718098390359769e-07 0.0000000000000000e+00  -2.1912465471369438e+00 1.5487139078187464e-07 0.0000000000000000e+00  -2.2789681726726019e+00 4.0281006753667809e-07 0.0000000000000000e+00  -2.3804558225489765e+00 6.2633815241519072e-07 0.0000000000000000e+00  -2.4958083035217524e+00 8.2498921354223088e-07 0.0000000000000000e+00  -2.6251649517490261e+00 9.9812957618969255e-07 0.0000000000000000e+00  -2.7687007956062972e+00 1.1449640237840000e-06 0.0000000000000000e+00  -2.9266215813380279e+00 1.2645430250914605e-06 0.0000000000000000e+00  -3.0991586312125898e+00 1.3557735369672796e-06 0.0000000000000000e+00  -3.2865635055074880e+00 1.4174295779652989e-06 0.0000000000000000e+00  -3.4891024417866086e+00 1.4481698959118444e-06 0.0000000000000000e+00  -3.7070505476241475e+00 1.4465557048096109e-06 0.0000000000000000e+00  -3.9406857261898232e+00 1.4110749178758667e-06 0.0000000000000000e+00  -4.1902823180319713e+00 1.3401676736147984e-06 0.0000000000000000e+00  -4.4561044469930673e+00 1.2322600613772417e-06 0.0000000000000000e+00  -4.7383990635430981e+00 1.0858017169180235e-06 0.0000000000000000e+00  -5.0373886849202592e+00 8.9931605590900783e-07 0.0000000000000000e+00  -5.3532638384220661e+00 6.7145852046853006e-07 0.0000000000000000e+00  -5.6861752219566615e+00 4.0109877482053549e-07 0.0000000000000000e+00  -6.0362256046050646e+00 8.7437819177904286e-08 0.0000000000000000e+00  -6.4034614994328170e+00 -2.6981504162248258e-07 0.0000000000000000e+00  -6.7878646511342495e+00 -6.7014903772835193e-07 0.0000000000000000e+00  -7.1893433922438792e+00 -1.1117488258457227e-06 0.0000000000000000e+00  -7.6077239335790710e+00 -1.5905944658149351e-06 0.0000000000000000e+00  -8.0427416672355729e+00 -2.0988113722347102e-06 0.0000000000000000e+00  -8.4940325738307383e+00 -2.6216074260361980e-06 0.0000000000000000e+00  -8.9611248397774705e+00 -3.1315276433417905e-06 0.0000000000000000e+00  -9.4434308054030751e+00 -3.5776372328353289e-06 0.0000000000000000e+00  -9.9402393811356298e+00 -3.8650822853649141e-06 0.0000000000000000e+00  -1.0450709087959524e+01 -3.8164352646757125e-06 0.0000000000000000e+00  -1.0973861902171921e+01 -3.0985106245497028e-06 0.0000000000000000e+00  -1.1508578117961470e+01 -1.0837600326608684e-06 0.0000000000000000e+00  -1.2053592493788978e+01 3.4122876063576491e-06 0.0000000000000000e+00  -1.2607492037966693e+01 1.2628458003271427e-05 0.0000000000000000e+00  -1.3168715949892995e+01 3.0800369424939881e-05 0.00000