<?xml version="1.0"?>
<VTKFile type="UnstructuredGrid"  version="0.1"  >
<UnstructuredGrid>
<Piece  NumberOfPoints="1656" NumberOfCells="3000">
<Points>
<DataArray  type="Float64"  NumberOfComponents="3"  format="ascii">0 0 0  2 0 0  4 0 0  6 0 0  8 0 0  10 0 0  12 0 0  14 0 0  16 0 0  18 0 0  20 0 0  22 0 0  24 0 0  26 0 0  28 0 0  30 0 0  32 0 0  34 0 0  36 0 0  38 0 0  40 0 0  42 0 0  44 0 0  46 0 0  48 0 0  50 0 0  52 0 0  54 0 0  56 0 0  58 0 0  60 0 0  62 0 0  64 0 0  66 0 0  68 0 0  70 0 0  72 0 0  74 0 0  76 0 0  78 0 0  80 0 0  82 0 0  84 0 0  86 0 0  88 0 0  90 0 0  92 0 0  94 0 0  96 0 0  98 0 0  100 0 0  102 0 0  104 0 0  106 0 0  108 0 0  110 0 0  112 0 0  114 0 0  116 0 0  118 0 0  120 0 0  122 0 0  124 0 0  126 0 0  128 0 0  130 0 0  132 0 0  134 0 0  136 0 0  138 0 0  140 0 0  142 0 0  144 0 0  146 0 0  148 0 0  150 0 0  152 0 0  154 0 0  156 0 0  158 0 0  160 0 0  162 0 0  164 0 0  166 0 0  168 0 0  170 0 0  172 0 0  174 0 0  176 0 0  178 0 0  180 0 0  182 0 0  184 0 0  186 0 0  188 0 0  190 0 0  192 0 0  194 0 0  196 0 0  198 0 0  200 0 0  202 0 0  204 0 0  206 0 0  208 0 0  210 0 0  212 0 0  214 0 0  216 0 0  218 0 0  220 0 0  222 0 0  224 0 0  226 0 0  228 0 0  230 0 0  232 0 0  234 0 0  236 0 0  238 0 0  240 0 0  242 0 0  244 0 0  246 0 0  248 0 0  250 0 0  252 0 0  254 0 0  256 0 0  258 0 0  260 0 0  262 0 0  264 0 0  266 0 0  268 0 0  270 0 0  272 0 0  274 0 0  276 0 0  278 0 0  280 0 0  282 0 0  284 0 0  286 0 0  288 0 0  290 0 0  292 0 0  294 0 0  296 0 0  298 0 0  300 0 0  0 2 0  2 2 0  4 2 0  6 2 0  8 2 0  10 2 0  12 2 0  14 2 0  16 2 0  18 2 0  20 2 0  22 2 0  24 2 0  26 2 0  28 2 0  30 2 0  32 2 0  34 2 0  36 2 0  38 2 0  40 2 0  42 2 0  44 2 0  46 2 0  48 2 0  50 2 0  52 2 0  54 2 0  56 2 0  58 2 0  60 2 0  62 2 0  64 2 0  66 2 0  68 2 0  70 2 0  72 2 0  74 2 0  76 2 0  78 2 0  80 2 0  82 2 0  84 2 0  86 2 0  88 2 0  90 2 0  92 2 0  94 2 0  96 2 0  98 2 0  100 2 0  102 2 0  104 2 0  106 2 0  108 2 0  110 2 0  112 2 0  114 2 0  116 2 0  118 2 0  120 2 0  122 2 0  124 2 0  126 2 0  128 2 0  130 2 0  132 2 0  134 2 0  136 2 0  138 2 0  140 2 0  142 2 0  144 2 0  146 2 0  148 2 0  150 2 0  152 2 0  154 2 0  156 2 0  158 2 0  160 2 0  162 2 0  164 2 0  166 2 0  168 2 0  170 2 0  172 2 0  174 2 0  176 2 0  178 2 0  180 2 0  182 2 0  184 2 0  186 2 0  188 2 0  190 2 0  192 2 0  194 2 0  196 2 0  198 2 0  200 2 0  202 2 0  204 2 0  206 2 0  208 2 0  210 2 0  212 2 0  214 2 0  216 2 0  218 2 0  220 2 0  222 2 0  224 2 0  226 2 0  228 2 0  230 2 0  232 2 0  234 2 0  236 2 0  238 2 0  240 2 0  242 2 0  244 2 0  246 2 0  248 2 0  250 2 0  252 2 0  254 2 0  256 2 0  258 2 0  260 2 0  262 2 0  264 2 0  266 2 0  268 2 0  270 2 0  272 2 0  274 2 0  276 2 0  278 2 0  280 2 0  282 2 0  284 2 0  286 2 0  288 2 0  290 2 0  292 2 0  294 2 0  296 2 0  298 2 0  300 2 0  0 4 0  2 4 0  4 4 0  6 4 0  8 4 0  10 4 0  12 4 0  14 4 0  16 4 0  18 4 0  20 4 0  22 4 0  24 4 0  26 4 0  28 4 0  30 4 0  32 4 0  34 4 0  36 4 0  38 4 0  40 4 0  42 4 0  44 4 0  46 4 0  48 4 0  50 4 0  52 4 0  54 4 0  56 4 0  58 4 0  60 4 0  62 4 0  64 4 0  66 4 0  68 4 0  70 4 0  72 4 0  74 4 0  76 4 0  78 4 0  80 4 0  82 4 0  84 4 0  86 4 0  88 4 0  90 4 0  92 4 0  94 4 0  96 4 0  98 4 0  100 4 0  102 4 0  104 4 0  106 4 0  108 4 0  110 4 0  112 4 0  114 4 0  116 4 0  118 4 0  120 4 0  122 4 0  124 4 0  126 4 0  128 4 0  130 4 0  132 4 0  134 4 0  136 4 0  138 4 0  140 4 0  142 4 0  144 4 0  146 4 0  148 4 0  150 4 0  152 4 0  154 4 0  156 4 0  158 4 0  160 4 0  162 4 0  164 4 0  166 4 0  168 4 0  170 4 0  172 4 0  174 4 0  176 4 0  178 4 0  180 4 0  182 4 0  184 4 0  186 4 0  188 4 0  190 4 0  192 4 0  194 4 0  196 4 0  198 4 0  200 4 0  202 4 0  204 4 0  206 4 0  208 4 0  210 4 0  212 4 0  214 4 0  216 4 0  218 4 0  220 4 0  222 4 0  224 4 0  226 4 0  228 4 0  230 4 0  232 4 0  234 4 0  236 4 0  238 4 0  240 4 0  242 4 0  244 4 0  246 4 0  248 4 0  250 4 0  252 4 0  254 4 0  256 4 0  258 4 0  260 4 0  262 4 0  264 4 0  266 4 0  268 4 0  270 4 0  272 4 0  274 4 0  276 4 0  278 4 0  280 4 0  282 4 0  284 4 0  286 4 0  288 4 0  290 4 0  292 4 0  294 4 0  296 4 0  298 4 0  300 4 0  0 6 0  2 6 0  4 6 0  6 6 0  8 6 0  10 6 0  12 6 0  14 6 0  16 6 0  18 6 0  20 6 0  22 6 0  24 6 0  26 6 0  28 6 0  30 6 0  32 6 0  34 6 0  36 6 0  38 6 0  40 6 0  42 6 0  44 6 0  46 6 0  48 6 0  50 6 0  52 6 0  54 6 0  56 6 0  58 6 0  60 6 0  62 6 0  64 6 0  66 6 0  68 6 0  70 6 0  72 6 0  74 6 0  76 6 0  78 6 0  80 6 0  82 6 0  84 6 0  86 6 0  88 6 0  90 6 0  92 6 0  94 6 0  96 6 0  98 6 0  100 6 0  102 6 0  104 6 0  106 6 0  108 6 0  110 6 0  112 6 0  114 6 0  116 6 0  118 6 0  120 6 0  122 6 0  124 6 0  126 6 0  128 6 0  130 6 0  132 6 0  134 6 0  136 6 0  138 6 0  140 6 0  142 6 0  144 6 0  146 6 0  148 6 0  150 6 0  152 6 0  154 6 0  156 6 0  158 6 0  160 6 0  162 6 0  164 6 0  166 6 0  168 6 0  170 6 0  172 6 0  174 6 0  176 6 0  178 6 0  180 6 0  182 6 0  184 6 0  186 6 0  188 6 0  190 6 0  192 6 0  194 6 0  196 6 0  198 6 0  200 6 0  202 6 0  204 6 0  206 6 0  208 6 0  210 6 0  212 6 0  214 6 0  216 6 0  218 6 0  220 6 0  222 6 0  224 6 0  226 6 0  228 6 0  230 6 0  232 6 0  234 6 0  236 6 0  238 6 0  240 6 0  242 6 0  244 6 0  246 6 0  248 6 0  250 6 0  252 6 0  254 6 0  256 6 0  258 6 0  260 6 0  262 6 0  264 6 0  266 6 0  268 6 0  270 6 0  272 6 0  274 6 0  276 6 0  278 6 0  280 6 0  282 6 0  284 6 0  286 6 0  288 6 0  290 6 0  292 6 0  294 6 0  296 6 0  298 6 0  300 6 0  0 8 0  2 8 0  4 8 0  6 8 0  8 8 0  10 8 0  12 8 0  14 8 0  16 8 0  18 8 0  20 8 0  22 8 0  24 8 0  26 8 0  28 8 0  30 8 0  32 8 0  34 8 0  36 8 0  38 8 0  40 8 0  42 8 0  44 8 0  46 8 0  48 8 0  50 8 0  52 8 0  54 8 0  56 8 0  58 8 0  60 8 0  62 8 0  64 8 0  66 8 0  68 8 0  70 8 0  72 8 0  74 8 0  76 8 0  78 8 0  80 8 0  82 8 0  84 8 0  86 8 0  88 8 0  90 8 0  92 8 0  94 8 0  96 8 0  98 8 0  100 8 0  102 8 0  104 8 0  106 8 0  108 8 0  110 8 0  112 8 0  114 8 0  116 8 0  118 8 0  120 8 0  122 8 0  124 8 0  126 8 0  128 8 0  130 8 0  132 8 0  134 8 0  136 8 0  138 8 0  140 8 0  142 8 0  144 8 0  146 8 0  148 8 0  150 8 0  152 8 0  154 8 0  156 8 0  158 8 0  160 8 0  162 8 0  164 8 0  166 8 0  168 8 0  170 8 0  172 8 0  174 8 0  176 8 0  178 8 0  180 8 0  182 8 0  184 8 0  186 8 0  188 8 0  190 8 0  192 8 0  194 8 0  196 8 0  198 8 0  200 8 0  202 8 0  204 8 0  206 8 0  208 8 0  210 8 0  212 8 0  214 8 0  216 8 0  218 8 0  220 8 0  222 8 0  224 8 0  226 8 0  228 8 0  230 8 0  232 8 0  234 8 0  236 8 0  238 8 0  240 8 0  242 8 0  244 8 0  246 8 0  248 8 0  250 8 0  252 8 0  254 8 0  256 8 0  258 8 0  260 8 0  262 8 0  264 8 0  266 8 0  268 8 0  270 8 0  272 8 0  274 8 0  276 8 0  278 8 0  280 8 0  282 8 0  284 8 0  286 8 0  288 8 0  290 8 0  292 8 0  294 8 0  296 8 0  298 8 0  300 8 0  0 10 0  2 10 0  4 10 0  6 10 0  8 10 0  10 10 0  12 10 0  14 10 0  16 10 0  18 10 0  20 10 0  22 10 0  24 10 0  26 10 0  28 10 0  30 10 0  32 10 0  34 10 0  36 10 0  38 10 0  40 10 0  42 10 0  44 10 0  46 10 0  48 10 0  50 10 0  52 10 0  54 10 0  56 10 0  58 10 0  60 10 0  62 10 0  64 10 0  66 10 0  68 10 0  70 10 0  72 10 0  74 10 0  76 10 0  78 10 0  80 10 0  82 10 0  84 10 0  86 10 0  88 10 0  90 10 0  92 10 0  94 10 0  96 10 0  98 10 0  100 10 0  102 10 0  104 10 0  106 10 0  108 10 0  110 10 0  112 10 0  114 10 0  116 10 0  118 10 0  120 10 0  122 10 0  124 10 0  126 10 0  128 10 0  130 10 0  132 10 0  134 10 0  136 10 0  138 10 0  140 10 0  142 10 0  144 10 0  146 10 0  148 10 0  150 10 0  152 10 0  154 10 0  156 10 0  158 10 0  160 10 0  162 10 0  164 10 0  166 10 0  168 10 0  170 10 0  172 10 0  174 10 0  176 10 0  178 10 0  180 10 0  182 10 0  184 10 0  186 10 0  188 10 0  190 10 0  192 10 0  194 10 0  196 10 0  198 10 0  200 10 0  202 10 0  204 10 0  206 10 0  208 10 0  210 10 0  212 10 0  214 10 0  216 10 0  218 10 0  220 10 0  222 10 0  224 10 0  226 10 0  228 10 0  230 10 0  232 10 0  234 10 0  236 10 0  238 10 0  240 10 0  242 10 0  244 10 0  246 10 0  248 10 0  250 10 0  252 10 0  254 10 0  256 10 0  258 10 0  260 10 0  262 10 0  264 10 0  266 10 0  268 10 0  270 10 0  272 10 0  274 10 0  276 10 0  278 10 0  280 10 0  282 10 0  284 10 0  286 10 0  288 10 0  290 10 0  292 10 0  294 10 0  296 10 0  298 10 0  300 10 0  1 1 0  3 1 0  5 1 0  7 1 0  9 1 0  11 1 0  13 1 0  15 1 0  17 1 0  19 1 0  21 1 0  23 1 0  25 1 0  27 1 0  29 1 0  31 1 0  33 1 0  35 1 0  37 1 0  39 1 0  41 1 0  43 1 0  45 1 0  47 1 0  49 1 0  51 1 0  53 1 0  55 1 0  57 1 0  59 1 0  61 1 0  63 1 0  65 1 0  67 1 0  69 1 0  71 1 0  73 1 0  75 1 0  77 1 0  79 1 0  81 1 0  83 1 0  85 1 0  87 1 0  89 1 0  91 1 0  93 1 0  95 1 0  97 1 0  99 1 0  101 1 0  103 1 0  105 1 0  107 1 0  109 1 0  111 1 0  113 1 0  115 1 0  117 1 0  119 1 0  121 1 0  123 1 0  125 1 0  127 1 0  129 1 0  131 1 0  133 1 0  135 1 0  137 1 0  139 1 0  141 1 0  143 1 0  145 1 0  147 1 0  149 1 0  151 1 0  153 1 0  155 1 0  157 1 0  159 1 0  161 1 0  163 1 0  165 1 0  167 1 0  169 1 0  171 1 0  173 1 0  175 1 0  177 1 0  179 1 0  181 1 0  183 1 0  185 1 0  187 1 0  189 1 0  191 1 0  193 1 0  195 1 0  197 1 0  199 1 0  201 1 0  203 1 0  205 1 0  207 1 0  209 1 0  211 1 0  213 1 0  215 1 0  217 1 0  219 1 0  221 1 0  223 1 0  225 1 0  227 1 0  229 1 0  231 1 0  233 1 0  235 1 0  237 1 0  239 1 0  241 1 0  243 1 0  245 1 0  247 1 0  249 1 0  251 1 0  253 1 0  255 1 0  257 1 0  259 1 0  261 1 0  263 1 0  265 1 0  267 1 0  269 1 0  271 1 0  273 1 0  275 1 0  277 1 0  279 1 0  281 1 0  283 1 0  285 1 0  287 1 0  289 1 0  291 1 0  293 1 0  295 1 0  297 1 0  299 1 0  1 3 0  3 3 0  5 3 0  7 3 0  9 3 0  11 3 0  13 3 0  15 3 0  17 3 0  19 3 0  21 3 0  23 3 0  25 3 0  27 3 0  29 3 0  31 3 0  33 3 0  35 3 0  37 3 0  39 3 0  41 3 0  43 3 0  45 3 0  47 3 0  49 3 0  51 3 0  53 3 0  55 3 0  57 3 0  59 3 0  61 3 0  63 3 0  65 3 0  67 3 0  69 3 0  71 3 0  73 3 0  75 3 0  77 3 0  79 3 0  81 3 0  83 3 0  85 3 0  87 3 0  89 3 0  91 3 0  93 3 0  95 3 0  97 3 0  99 3 0  101 3 0  103 3 0  105 3 0  107 3 0  109 3 0  111 3 0  113 3 0  115 3 0  117 3 0  119 3 0  121 3 0  123 3 0  125 3 0
[...]
<PointData  Vectors="flow"> 
<DataArray  type="Float64"  Name="flow"  NumberOfComponents="3" format="ascii">-4.5835031542991499e+02 -1.4841774739315527e+00 0.0000000000000000e+00  -4.5241462457546038e+02 -1.4837222382540820e+00 0.0000000000000000e+00  -4.4351603439677558e+02 -1.4823574084969358e+00 0.0000000000000000e+00  -4.3462835544649147e+02 -1.4800856134898308e+00 0.0000000000000000e+00  -4.2575701707390823e+02 -1.4769112244080460e+00 0.0000000000000000e+00  -4.1690741721199117e+02 -1.4728403397862337e+00 0.0000000000000000e+00  -4.0808491207423049e+02 -1.4678807645361298e+00 0.0000000000000000e+00  -3.9929480599494946e+02 -1.4620419829687008e+00 0.0000000000000000e+00  -3.9054234144802626e+02 -1.4553351263906280e+00 0.0000000000000000e+00  -3.8183268927693280e+02 -1.4477729349801578e+00 0.0000000000000000e+00  -3.7317093916959453e+02 -1.4393697145211424e+00 0.0000000000000000e+00  -3.6456209040822034e+02 -1.4301412879050888e+00 0.0000000000000000e+00  -3.5601104292500816e+02 -1.4201049417550677e+00 0.0000000000000000e+00  -3.4752258869136068e+02 -1.4092793686214939e+00 0.0000000000000000e+00  -3.3910140346767616e+02 -1.3976846046619917e+00 0.0000000000000000e+00  -3.3075203893839063e+02 -1.3853419635866822e+00 0.0000000000000000e+00  -3.2247891525542423e+02 -1.3722739666396109e+00 0.0000000000000000e+00  -3.1428631401088944e+02 -1.3585042695155476e+00 0.0000000000000000e+00  -3.0617837165806225e+02 -1.3440575861862216e+00 0.0000000000000000e+00  -2.9815907339733923e+02 -1.3289596099692240e+00 0.0000000000000000e+00  -2.9023224754181592e+02 -1.3132369327382656e+00 0.0000000000000000e+00  -2.8240156037471979e+02 -1.2969169617997485e+00 0.0000000000000000e+00  -2.7467051150886175e+02 -1.2800278356772208e+00 0.0000000000000000e+00  -2.6704242975581650e+02 -1.2625983385351947e+00 0.0000000000000000e+00  -2.5952046951030178e+02 -1.2446578140020290e+00 0.0000000000000000e+00  -2.5210760765316675e+02 -1.2262360785838371e+00 0.0000000000000000e+00  -2.4480664097366869e+02 -1.2073633351595268e+00 0.0000000000000000e+00  -2.3762018411012463e+02 -1.1880700867657192e+00 0.0000000000000000e+00  -2.3055066800549446e+02 -1.1683870512142622e+00 0.0000000000000000e+00  -2.2360033887223514e+02 -1.1483450767078558e+00 0.0000000000000000e+00  -2.1677125765939996e+02 -1.1279750589463715e+00 0.0000000000000000e+00  -2.1006530001223106e+02 -1.1073078598376072e+00 0.0000000000000000e+00  -2.0348415671315905e+02 -1.0863742283042523e+00 0.0000000000000000e+00  -1.9702933459140104e+02 -1.0652047234356803e+00 0.0000000000000000e+00  -1.9070215788636943e+02 -1.0438296399978726e+00 0.0000000000000000e+00  -1.8450377004895847e+02 -1.0222789370112730e+00 0.0000000000000000e+00  -1.7843513596330953e+02 -1.0005821690950250e+00 0.0000000000000000e+00  -1.7249704457016009e+02 -9.7876842124098284e-01 0.0000000000000000e+00  -1.6669011187201815e+02 -9.5686624676080978e-01 0.0000000000000000e+00  -1.6101478429940272e+02 -9.3490360904550740e-01 0.0000000000000000e+00  -1.5547134241625594e+02 -9.1290782677178117e-01 0.0000000000000000e+00  -1.5005990494212321e+02 -8.9090552306838355e-01 0.0000000000000000e+00  -1.4478043306813720e+02 -8.6892257849499022e-01 0.0000000000000000e+00  -1.3963273504304118e+02 -8.4698408798658087e-01 0.0000000000000000e+00  -1.3461647100563681e+02 -8.2511432182487221e-01 0.0000000000000000e+00  -1.2973115803925728e+02 -8.0333669062332935e-01 0.0000000000000000e+00  -1.2497617542432862e+02 -7.8167371435812649e-01 0.0000000000000000e+00  -1.2035077006465531e+02 -7.6014699537132513e-01 0.0000000000000000e+00  -1.1585406206345972e+02 -7.3877719547259391e-01 0.0000000000000000e+00  -1.1148505042541649e+02 -7.1758401684714845e-01 0.0000000000000000e+00  -1.0724261886118339e+02 -6.9658618694137231e-01 0.0000000000000000e+00  -1.0312554167144302e+02 -6.7580144706449197e-01 0.0000000000000000e+00  -9.9132489688067793e+01 -6.5524654477233102e-01 0.0000000000000000e+00  -9.5262036250496365e+01 -6.3493722968847610e-01 0.0000000000000000e+00  -9.1512663196297950e+01 -6.1488825294518945e-01 0.0000000000000000e+00  -8.7882766845483829e+01 -5.9511336982285812e-01 0.0000000000000000e+00  -8.4370663959112292e+01 -5.7562534563813894e-01 0.0000000000000000e+00  -8.0974597653585391e+01 -5.5643596464270229e-01 0.0000000000000000e+00  -7.7692743252914497e+01 -5.3755604174481508e-01 0.0000000000000000e+00  -7.4523214062311581e+01 -5.1899543699189277e-01 0.0000000000000000e+00  -7.1464067047431300e+01 -5.0076307254311803e-01 0.0000000000000000e+00  -6.8513308404618058e+01 -4.8286695197274176e-01 0.0000000000000000e+00  -6.5668899008668063e+01 -4.6531418179034900e-01 0.0000000000000000e+00  -6.2928759725605282e+01 -4.4811099489884282e-01 0.0000000000000000e+00  -6.0290776579090704e+01 -4.3126277587860606e-01 0.0000000000000000e+00  -5.7752805760258859e+01 -4.1477408789408510e-01 0.0000000000000000e+00  -5.5312678471736312e+01 -3.9864870102294592e-01 0.0000000000000000e+00  -5.2968205597809131e+01 -3.8288962186249631e-01 0.0000000000000000e+00  -5.0717182193688281e+01 -3.6749912418472036e-01 0.0000000000000000e+00  -4.8557391787955211e+01 -3.5247878054908660e-01 0.0000000000000000e+00  -4.6486610493227602e+01 -3.3782949459205308e-01 0.0000000000000000e+00  -4.4502610921154783e+01 -3.2355153393636304e-01 0.0000000000000000e+00  -4.2603165898821473e+01 -3.0964456346036467e-01 0.0000000000000000e+00  -4.0786051984543022e+01 -2.9610767887246370e-01 0.0000000000000000e+00  -3.9049052782024127e+01 -2.8293944034306634e-01 0.0000000000000000e+00  -3.7389962052631276e+01 -2.7013790613862687e-01 0.0000000000000000e+00  -3.5806586626470754e+01 -2.5770066604120434e-01 0.0000000000000000e+00  -3.4296749113665420e+01 -2.4562487450777423e-01 0.0000000000000000e+00  -3.2858290418015457e+01 -2.3390728337551148e-01 0.0000000000000000e+00  -3.1489072055949293e+01 -2.2254427403818772e-01 0.0000000000000000e+00  -3.0186978284282993e+01 -2.1153188899123881e-01 0.0000000000000000e+00  -2.8949918040950088e+01 -2.0086586261746217e-01 0.0000000000000000e+00  -2.7775826703441904e+01 -1.9054165115254235e-01 0.0000000000000000e+00  -2.6662667670184028e+01 -1.8055446172883935e-01 0.0000000000000000e+00  -2.5608433770559607e+01 -1.7089928044218561e-01 0.0000000000000000e+00  -2.4611148509752695e+01 -1.6157089934326130e-01 0.0000000000000000e+00  -2.3668867154890329e+01 -1.5256394232707493e-01 0.0000000000000000e+00  -2.2779677669356069e+01 -1.4387288985283295e-01 0.0000000000000000e+00  -2.1941701502439390e+01 -1.3549210244416671e-01 0.0000000000000000e+00  -2.1153094241663904e+01 -1.2741584294935140e-01 0.0000000000000000e+00  -2.0412046135423374e+01 -1.1963829751587403e-01 0.0000000000000000e+00  -1.9716782493653128e+01 -1.1215359526726990e-01 0.0000000000000000e+00  -1.9065563974409915e+01 -1.0495582665276758e-01 0.0000000000000000e+00  -1.8456686764297451e+01 -9.8039060479602924e-02 0.0000000000000000e+00  -1.7888482660733324e+01 -9.1397359607068643e-02 0.0000000000000000e+00  -1.7359319064031759e+01 -8.5024795306801196e-02 0.0000000000000000e+00  -1.6867598887269253e+01 -7.8915460315455363e-02 0.0000000000000000e+00  -1.6411760391808453e+01 -7.3063480564225666e-02 0.0000000000000000e+00  -1.5990276956274162e+01 -6.7463025631700785e-02 0.0000000000000000e+00  -1.5601656786641387e+01 -6.2108317921505229e-02 0.0000000000000000e+00  -1.5244442574928796e+01 -5.6993640627968425e-02 0.0000000000000000e+00  -1.4917211113810708e+01 -5.2113344467960419e-02 0.0000000000000000e+00  -1.4618572874238886e+01 -4.7461853276287921e-02 0.0000000000000000e+00  -1.4347171552931911e+01 -4.3033668461545597e-02 0.0000000000000000e+00  -1.4101683596348332e+01 -3.8823372401030745e-02 0.0000000000000000e+00  -1.3880817707438391e+01 -3.4825630792260365e-02 0.0000000000000000e+00  -1.3683314341193125e+01 -3.1035194032704605e-02 0.0000000000000000e+00  -1.3507945194704833e+01 -2.7446897677806826e-02 0.0000000000000000e+00  -1.3353512697096336e+01 -2.4055662032767457e-02 0.0000000000000000e+00  -1.3218849504342808e+01 -2.0856490922862896e-02 0.0000000000000000e+00  -1.3102818003665613e+01 -1.7844469721077533e-02 0.0000000000000000e+00  -1.3004309831803564e+01 -1.5014762667987168e-02 0.0000000000000000e+00  -1.2922245411148204e+01 -1.2362609536373283e-02 0.0000000000000000e+00  -1.2855573507346996e+01 -9.8833216873627314e-03 0.0000000000000000e+00  -1.2803270811727050e+01 -7.5722774976381474e-03 0.0000000000000000e+00  -1.2764341551673215e+01 -5.4249171567321928e-03 0.0000000000000000e+00  -1.2737817132009518e+01 -3.4367366520733087e-03 0.0000000000000000e+00  -1.2722755810684857e+01 -1.6032806550743269e-03 0.0000000000000000e+00  -1.2718242412929925e+01 7.9866369792344326e-05 0.0000000000000000e+00  -1.2723388089862354e+01 1.6170921539568877e-03 0.0000000000000000e+00  -1.2737330131521293e+01 3.0127742638582583e-03 0.0000000000000000e+00  -1.2759231852068528e+01 4.2713082829501335e-03 0.0000000000000000e+00  -1.2788282580017320e+01 5.3971558849454249e-03 0.0000000000000000e+00  -1.2823697815309274e+01 6.3949305070921175e-03 0.0000000000000000e+00  -1.2864719670198664e+01 7.2695543229461170e-03 0.0000000000000000e+00  -1.2910617815748033e+01 8.0265502573387843e-03 0.0000000000000000e+00  -1.2960691354579906e+01 8.6725900289669373e-03 0.0000000000000000e+00  -1.3014272417559443e+01 9.2165273107346884e-03 0.0000000000000000e+00  -1.3070732996608852e+01 9.6713501557193823e-03 0.0000000000000000e+00  -1.3129497879799612e+01 1.0057875194497658e-02 0.0000000000000000e+00  -1.3190069120224912e+01 1.0411741943797580e-02 0.0000000000000000e+00  -1.3252072331062148e+01 1.0796659892142606e-02 0.0000000000000000e+00  -1.3315344311064926e+01 1.1329503655786484e-02 0.0000000000000000e+00  -1.3380098965761631e+01 1.2227862487554746e-02 0.0000000000000000e+00  -1.3447241615861223e+01 1.3900160763400837e-02 0.0000000000000000e+00  -1.3518964661143102e+01 1.7116552576346932e-02 0.0000000000000000e+00  -1.3599877497772603e+01 2.3333307361491060e-02 0.0000000000000000e+00  -1.3699151915228871e+01 3.5309870267528867e-02 0.0000000000000000e+00  -1.3834612583929619e+01 5.8287064987448511e-02 0.0000000000000000e+00  -1.4040546927478175e+01 1.0225814058748009e-01 0.0000000000000000e+00  -1.4382964613331684e+01 1.8639774772428064e-01 0.0000000000000000e+00  -1.4988990168308572e+01 3.4809559563591097e-01 0.0000000000000000e+00  -1.6111672764256852e+01 6.6149696017792026e-01 0.0000000000000000e+00  -1.8247401462959132e+01 1.2849104944151435e+00 0.0000000000000000e+00  -2.2553222028627911e+01 2.5517702100226454e+00 0.0000000000000000e+00  -3.1229614831175603e+01 5.4333273523673364e+00 0.0000000000000000e+00  -5.2004736995141940e+01 1.1563845261221529e+01 0.0000000000000000e+00  -9.5333577174754168e+01 3.1005126985366154e+01 0.0000000000000000e+00  -1.7896710745843711e+02 4.7529560423298960e+01 0.0000000000000000e+00  -3.0557041681280668e+02 8.4927274335116394e+01 0.0000000000000000e+00  -3.7686985483700903e+02 7.5999052251838208e+01 0.0000000000000000e+00  -4.5835031542993113e+02 2.8455666760652005e-05 0.0000000000000000e+00  -4.5241462457546089e+02 2.8428239247403670e-05 0.0000000000000000e+00  -4.4351603439677029e+02 2.8346072913348634e-05 0.0000000000000000e+00  -4.3462835544649010e+02 2.8209447719997409e-05 0.0000000000000000e+00  -4.2575701707390863e+02 2.8018829089814013e-05 0.0000000000000000e+00  -4.1690741721198788e+02 2.7774875815862056e-05 0.0000000000000000e+00  -4.0808491207423430e+02 2.7478425598402071e-05 0.0000000000000000e+00  -3.9929480599496083e+02 2.7130497906729491e-05 0.0000000000000000e+00  -3.9054234144802405e+02 2.6732280357308804e-05 0.0000000000000000e+00  -3.8183268927693393e+02 2.6285128599137219e-05 0.0000000000000000e+00  -3.7317093916959163e+02 2.5790553106586094e-05 0.0000000000000000e+00  -3.6456209040821858e+02 2.5250231033710802e-05 0.0000000000000000e+00  -3.5601104292501526e+02 2.4665966617353161e-05 0.0000000000000000e+00  -3.4752258869135784e+02 2.4039711444190186e-05 0.0000000000000000e+00  -3.3910140346767759e+02 2.3373516398021435e-05 0.0000000000000000e+00  -3.3075203893839199e+02 2.2669591144688734e-05 0.0000000000000000e+00  -3.2247891525541951e+02 2.1930197230151080e-05 0.0000000000000000e+00  -3.1428631401089302e+02 2.1157735063522004e-05 0.0000000000000000e+00  -3.0617837165806054e+02 2.0354662548334523e-05 0.0000000000000000e+00  -2.9815907339733502e+02 1.9523506093438170e-05 0.0000000000000000e+00  -2.9023224754181820e+02 1.8666861618298401e-05 0.0000000000000000e+00  -2.8240156037472036e+02 1.7787363241005523e-05 0.0000000000000000e+00  -2.7467051150886005e+02 1.6887694908718790e-05 0.0000000000000000e+00  -2.6704242975581514e+02 1.5970531937430520e-05 0.0000000000000000e+00  -2.5952046951030684e+02 1.5038596035157125e-05 0.0000000000000000e+00  -2.5210760765316832e+02 1.4094585394097587e-05 0.0000000000000000e+00  -2.4480664097366352e+02 1.3141202382082550e-05 0.0000000000000000e+00  -2.3762018411013332e+02 1.2181107775529753e-05 0.0000000000000000e+00  -2.3055066800549136e+02 1.1216937906236136e-05 0.0000000000000000e+00  -2.2360033887223145e+02 1.0251287132340947e-05 0.0000000000000000e+00  -2.1677125765940411e+02 9.2866955670689816e-06 0.0000000000000000e+00  -2.1006530001222683e+02 8.3256430419461740e-06 0.0000000000000000e+00  -2.0348415671316332e+02 7.3705263863620267e-06 0.0000000000000000e+00  -1.9702933459140561e+02 6.4236747589512867e-06 0.0000000000000000e+00  -1.9070215788636210e+02 5.4873242671137049e-06 0.0000000000000000e+00  -1.8450377004895628e+02 4.5636113064197268e-06 0.0000000000000000e+00  -1.7843513596331368e+02 3.6545852554609461e-06 0.0000000000000000e+00  -1.7249704457015773e+02 2.7621818914300848e-06 0.0000000000000000e+00  -1.6669011187201670e+02 1.8882189327810197e-06 0.0000000000000000e+00  -1.6101478429940690e+02 1.0344075064979303e-06 0.0000000000000000e+00  -1.5547134241625278e+02 2.0234470151975019e-07 0.0000000000000000e+00  -1.5005990494212389e+02 -6.0650544417124972e-07 0.0000000000000000e+00  -1.4478043306813518e+02 -1.3907995034279188e-06 0.0000000000000000e+00  -1.3963273504304425e+02 -2.1493129270121959e-06 0.0000000000000000e+00  -1.3461647100563491e+02 -2.8809560107284415e-06 0.0000000000000000e+00  -1.2973115803925779e+02 -3.5847574761578622e-06 0.0000000000000000e+00  -1.2497617542433136e+02 -4.2598750724453478e-06 0.0000000000000000e+00  -1.2035077006465413e+02 -4.9055953603764369e-06 0.0000000000000000e+00  -1.1585406206345867e+02 -5.5213165353640365e-06 0.0000000000000000e+00  -1.1148505042541993e+02 -6.1065714106903441e-06 0.0000000000000000e+00  -1.0724261886118316e+02 -6.6610040791488816e-06 0.0000000000000000e+00  -1.0312554167144179e+02 -7.1843729543670390e-06 0.0000000000000000e+00  -9.9132489688065462e+01 -7.6765504721486215e-06 0.0000000000000000e+00  -9.5262036250496081e+01 -8.1375168777660301e-06 0.0000000000000000e+00  -9.1512663196301006e+01 -8.5673588968132841e-06 0.0000000000000000e+00  -8.7882766845483204e+01 -8.9662585734351738e-06 0.0000000000000000e+00  -8.4370663959111127e+01 -9.3344928133218169e-06 0.0000000000000000e+00  -8.0974597653585093e+01 -9.6724298032285131e-06 0.0000000000000000e+00  -7.7692743252913957e+01 -9.9805217834605305e-06 0.0000000000000000e+00  -7.4523214062312562e+01 -1.0259302329822565e-05 0.0000000000000000e+00  -7.1464067047431513e+01 -1.0509371696463356e-05 0.0000000000000000e+00  -6.8513308404617064e+01 -1.0731403372399453e-05 0.0000000000000000e+00  -6.5668899008668589e+01 -1.0926134105978824e-05 0.0000000000000000e+00  -6.2928759725606071e+01 -1.1094349534276862e-05 0.0000000000000000e+00  -6.0290776579090526e+01 -1.1236894009173846e-05 0.0000000000000000e+00  -5.7752805760258489e+01 -1.1354651489853755e-05 0.0000000000000000e+00  -5.5312678471737108e+01 -1.1448546552509588e-05 0.0000000000000000e+00  -5.2968205597808080e+01 -1.1519540704175558e-05 0.0000000000000000e+00  -5.0717182193688139e+01 -1.1568619088381119e-05 0.0000000000000000e+00  -4.8557391787956334e+01 -1.1596794731260841e-05 0.0000000000000000e+00  -4.6486610493228056e+01 -1.1605093350603750e-05 0.0000000000000000e+00  -4.4502610921155039e+01 -1.1594555485271560e-05 0.0000000000000000e+00  -4.2603165898820841e+01 -1.1566229982725005e-05 0.0000000000000000e+00  -4.0786051984543050e+01 -1.1521169959606673e-05 0.0000000000000000e+00  -3.9049052782024226e+01 -1.1460425350870344e-05 0.0000000000000000e+00  -3.7389962052631034e+01 -1.1385041491485942e-05 0.0000000000000000e+00  -3.5806586626470597e+01 -1.1296053631028382e-05 0.0000000000000000e+00  -3.4296749113665314e+01 -1.1194485284462439e-05 0.0000000000000000e+00  -3.2858290418015635e+01 -1.1081342882216260e-05 0.0000000000000000e+00  -3.1489072055949176e+01 -1.0957610235174704e-05 0.0000000000000000e+00  -3.0186978284283782e+01 -1.0824252388041842e-05 0.0000000000000000e+00  -2.8949918040950333e+01 -1.0682202985410632e-05 0.0000000000000000e+00  -2.7775826703442242e+01 -1.0532371168905873e-05 0.0000000000000000e+00  -2.6662667670182817e+01 -1.0375634123307545e-05 0.0000000000000000e+00  -2.5608433770559419e+01 -1.0212834034609069e-05 0.0000000000000000e+00  -2.4611148509752734e+01 -1.0044782265073131e-05 0.0000000000000000e+00  -2.3668867154890012e+01 -9.8722502049421527e-06 0.0000000000000000e+00  -2.2779677669356321e+01 -9.6959733541978158e-06 0.0000000000000000e+00  -2.1941701502439425e+01 -9.5166460081333972e-06 0.0000000000000000e+00  -2.1153094241663478e+01 -9.3349248898322481e-06 0.0000000000000000e+00  -2.0412046135423243e+01 -9.1514240563902435e-06 0.0000000000000000e+00  -1.9716782493653650e+01 -8.9667178338334718e-06 0.0000000000000000e+00  -1.9065563974410072e+01 -8.7813373572716426e-06 0.0000000000000000e+00  -1.8456686764297920e+01 -8.5957736933960016e-06 0.0000000000000000e+00  -1.7888482660733356e+01 -8.4104760638177369e-06 0.0000000000000000e+00  -1.7359319064030959e+01 -8.2258510068427688e-06 0.0000000000000000e+00  -1.6867598887269143e+01 -8.0422652990549806e-06 0.0000000000000000e+00  -1.6411760391809409e+01 -7.8600467250057286e-06 0.0000000000000000e+00  -1.5990276956273505e+01 -7.6794807852950233e-06 0.0000000000000000e+00  -1.5601656786639532e+01 -7.5008163257441507e-06 0.0000000000000000e+00  -1.5244442574928557e+01 -7.3242638966963803e-06 0.0000000000000000e+00  -1.4917211113809726e+01 -7.1499985895167646e-06 0.0000000000000000e+00  -1.4618572874235904e+01 -6.9781574774996429e-06 0.0000000000000000e+00  -1.4347171552924921e+01 -6.8088436211966807e-06 0.0000000000000000e+00  -1.4101683596336482e+01 -6.6421292993177381e-06 0.0000000000000000e+00  -1.3880817707415281e+01 -6.4780498211646580e-06 0.0000000000000000e+00  -1.3683314341149154e+01 -6.3166069572374271e-06 0.0000000000000000e+00  -1.3507945194622460e+01 -6.1577661464968826e-06 0.0000000000000000e+00  -1.3353512696940411e+01 -6.0014442982052050e-06 0.0000000000000000e+00  -1.3218849504047627e+01 -5.8474982067118346e-06 0.0000000000000000e+00  -1.3102818003105856e+01 -5.6956876894075957e-06 0.0000000000000000e+00  -1.3004309830743400e+01 -5.5456136205726423e-06 0.0000000000000000e+00  -1.2922245409140082e+01 -5.3965920641395725e-06 0.0000000000000000e+00  -1.2855573503542356e+01 -5.2474209118065093e-06 0.0000000000000000e+00  -1.2803270804518515e+01 -5.0959282343496970e-06 0.0000000000000000e+00  -1.2764341538019421e+01 -4.9381238173820768e-06 0.0000000000000000e+00  -1.2737817106142442e+01 -4.7665784821925254e-06 0.0000000000000000e+00  -1.2722755761679995e+01 -4.5673606267886044e-06 0.0000000000000000e+00  -1.2718242320091971e+01 -4.3142313126461745e-06 0.0000000000000000e+00  -1.2723387913985182e+01 -3.9576416896881634e-06 0.0000000000000000e+00  -1.2737329798330148e+01 -3.4038859531667231e-06 0.0000000000000000e+00  -1.2759231220853335e+01 -2.4756098305484152e-06 0.0000000000000000e+00  -1.2788281384211414e+01 -8.3699320452331782e-07 0.0000000000000000e+00  -1.2823695549910987e+01 2.1479940473193417e-06 0.0000000000000000e+00  -1.2864715378507624e+01 7.6841133235415785e-06 0.0000000000000000e+00  -1.2910609685341260e+01 1.8053564467314004e-05 0.0000000000000000e+00  -1.2960675951900559e+01 3