<?xml version="1.0"?>
<VTKFile type="UnstructuredGrid"  version="0.1"  >
<UnstructuredGrid>
<Piece  NumberOfPoints="1656" NumberOfCells="3000">
<Points>
<DataArray  type="Float64"  NumberOfComponents="3"  format="ascii">0 0 0  2 0 0  4 0 0  6 0 0  8 0 0  10 0 0  12 0 0  14 0 0  16 0 0  18 0 0  20 0 0  22 0 0  24 0 0  26 0 0  28 0 0  30 0 0  32 0 0  34 0 0  36 0 0  38 0 0  40 0 0  42 0 0  44 0 0  46 0 0  48 0 0  50 0 0  52 0 0  54 0 0  56 0 0  58 0 0  60 0 0  62 0 0  64 0 0  66 0 0  68 0 0  70 0 0  72 0 0  74 0 0  76 0 0  78 0 0  80 0 0  82 0 0  84 0 0  86 0 0  88 0 0  90 0 0  92 0 0  94 0 0  96 0 0  98 0 0  100 0 0  102 0 0  104 0 0  106 0 0  108 0 0  110 0 0  112 0 0  114 0 0  116 0 0  118 0 0  120 0 0  122 0 0  124 0 0  126 0 0  128 0 0  130 0 0  132 0 0  134 0 0  136 0 0  138 0 0  140 0 0  142 0 0  144 0 0  146 0 0  148 0 0  150 0 0  152 0 0  154 0 0  156 0 0  158 0 0  160 0 0  162 0 0  164 0 0  166 0 0  168 0 0  170 0 0  172 0 0  174 0 0  176 0 0  178 0 0  180 0 0  182 0 0  184 0 0  186 0 0  188 0 0  190 0 0  192 0 0  194 0 0  196 0 0  198 0 0  200 0 0  202 0 0  204 0 0  206 0 0  208 0 0  210 0 0  212 0 0  214 0 0  216 0 0  218 0 0  220 0 0  222 0 0  224 0 0  226 0 0  228 0 0  230 0 0  232 0 0  234 0 0  236 0 0  238 0 0  240 0 0  242 0 0  244 0 0  246 0 0  248 0 0  250 0 0  252 0 0  254 0 0  256 0 0  258 0 0  260 0 0  262 0 0  264 0 0  266 0 0  268 0 0  270 0 0  272 0 0  274 0 0  276 0 0  278 0 0  280 0 0  282 0 0  284 0 0  286 0 0  288 0 0  290 0 0  292 0 0  294 0 0  296 0 0  298 0 0  300 0 0  0 2 0  2 2 0  4 2 0  6 2 0  8 2 0  10 2 0  12 2 0  14 2 0  16 2 0  18 2 0  20 2 0  22 2 0  24 2 0  26 2 0  28 2 0  30 2 0  32 2 0  34 2 0  36 2 0  38 2 0  40 2 0  42 2 0  44 2 0  46 2 0  48 2 0  50 2 0  52 2 0  54 2 0  56 2 0  58 2 0  60 2 0  62 2 0  64 2 0  66 2 0  68 2 0  70 2 0  72 2 0  74 2 0  76 2 0  78 2 0  80 2 0  82 2 0  84 2 0  86 2 0  88 2 0  90 2 0  92 2 0  94 2 0  96 2 0  98 2 0  100 2 0  102 2 0  104 2 0  106 2 0  108 2 0  110 2 0  112 2 0  114 2 0  116 2 0  118 2 0  120 2 0  122 2 0  124 2 0  126 2 0  128 2 0  130 2 0  132 2 0  134 2 0  136 2 0  138 2 0  140 2 0  142 2 0  144 2 0  146 2 0  148 2 0  150 2 0  152 2 0  154 2 0  156 2 0  158 2 0  160 2 0  162 2 0  164 2 0  166 2 0  168 2 0  170 2 0  172 2 0  174 2 0  176 2 0  178 2 0  180 2 0  182 2 0  184 2 0  186 2 0  188 2 0  190 2 0  192 2 0  194 2 0  196 2 0  198 2 0  200 2 0  202 2 0  204 2 0  206 2 0  208 2 0  210 2 0  212 2 0  214 2 0  216 2 0  218 2 0  220 2 0  222 2 0  224 2 0  226 2 0  228 2 0  230 2 0  232 2 0  234 2 0  236 2 0  238 2 0  240 2 0  242 2 0  244 2 0  246 2 0  248 2 0  250 2 0  252 2 0  254 2 0  256 2 0  258 2 0  260 2 0  262 2 0  264 2 0  266 2 0  268 2 0  270 2 0  272 2 0  274 2 0  276 2 0  278 2 0  280 2 0  282 2 0  284 2 0  286 2 0  288 2 0  290 2 0  292 2 0  294 2 0  296 2 0  298 2 0  300 2 0  0 4 0  2 4 0  4 4 0  6 4 0  8 4 0  10 4 0  12 4 0  14 4 0  16 4 0  18 4 0  20 4 0  22 4 0  24 4 0  26 4 0  28 4 0  30 4 0  32 4 0  34 4 0  36 4 0  38 4 0  40 4 0  42 4 0  44 4 0  46 4 0  48 4 0  50 4 0  52 4 0  54 4 0  56 4 0  58 4 0  60 4 0  62 4 0  64 4 0  66 4 0  68 4 0  70 4 0  72 4 0  74 4 0  76 4 0  78 4 0  80 4 0  82 4 0  84 4 0  86 4 0  88 4 0  90 4 0  92 4 0  94 4 0  96 4 0  98 4 0  100 4 0  102 4 0  104 4 0  106 4 0  108 4 0  110 4 0  112 4 0  114 4 0  116 4 0  118 4 0  120 4 0  122 4 0  124 4 0  126 4 0  128 4 0  130 4 0  132 4 0  134 4 0  136 4 0  138 4 0  140 4 0  142 4 0  144 4 0  146 4 0  148 4 0  150 4 0  152 4 0  154 4 0  156 4 0  158 4 0  160 4 0  162 4 0  164 4 0  166 4 0  168 4 0  170 4 0  172 4 0  174 4 0  176 4 0  178 4 0  180 4 0  182 4 0  184 4 0  186 4 0  188 4 0  190 4 0  192 4 0  194 4 0  196 4 0  198 4 0  200 4 0  202 4 0  204 4 0  206 4 0  208 4 0  210 4 0  212 4 0  214 4 0  216 4 0  218 4 0  220 4 0  222 4 0  224 4 0  226 4 0  228 4 0  230 4 0  232 4 0  234 4 0  236 4 0  238 4 0  240 4 0  242 4 0  244 4 0  246 4 0  248 4 0  250 4 0  252 4 0  254 4 0  256 4 0  258 4 0  260 4 0  262 4 0  264 4 0  266 4 0  268 4 0  270 4 0  272 4 0  274 4 0  276 4 0  278 4 0  280 4 0  282 4 0  284 4 0  286 4 0  288 4 0  290 4 0  292 4 0  294 4 0  296 4 0  298 4 0  300 4 0  0 6 0  2 6 0  4 6 0  6 6 0  8 6 0  10 6 0  12 6 0  14 6 0  16 6 0  18 6 0  20 6 0  22 6 0  24 6 0  26 6 0  28 6 0  30 6 0  32 6 0  34 6 0  36 6 0  38 6 0  40 6 0  42 6 0  44 6 0  46 6 0  48 6 0  50 6 0  52 6 0  54 6 0  56 6 0  58 6 0  60 6 0  62 6 0  64 6 0  66 6 0  68 6 0  70 6 0  72 6 0  74 6 0  76 6 0  78 6 0  80 6 0  82 6 0  84 6 0  86 6 0  88 6 0  90 6 0  92 6 0  94 6 0  96 6 0  98 6 0  100 6 0  102 6 0  104 6 0  106 6 0  108 6 0  110 6 0  112 6 0  114 6 0  116 6 0  118 6 0  120 6 0  122 6 0  124 6 0  126 6 0  128 6 0  130 6 0  132 6 0  134 6 0  136 6 0  138 6 0  140 6 0  142 6 0  144 6 0  146 6 0  148 6 0  150 6 0  152 6 0  154 6 0  156 6 0  158 6 0  160 6 0  162 6 0  164 6 0  166 6 0  168 6 0  170 6 0  172 6 0  174 6 0  176 6 0  178 6 0  180 6 0  182 6 0  184 6 0  186 6 0  188 6 0  190 6 0  192 6 0  194 6 0  196 6 0  198 6 0  200 6 0  202 6 0  204 6 0  206 6 0  208 6 0  210 6 0  212 6 0  214 6 0  216 6 0  218 6 0  220 6 0  222 6 0  224 6 0  226 6 0  228 6 0  230 6 0  232 6 0  234 6 0  236 6 0  238 6 0  240 6 0  242 6 0  244 6 0  246 6 0  248 6 0  250 6 0  252 6 0  254 6 0  256 6 0  258 6 0  260 6 0  262 6 0  264 6 0  266 6 0  268 6 0  270 6 0  272 6 0  274 6 0  276 6 0  278 6 0  280 6 0  282 6 0  284 6 0  286 6 0  288 6 0  290 6 0  292 6 0  294 6 0  296 6 0  298 6 0  300 6 0  0 8 0  2 8 0  4 8 0  6 8 0  8 8 0  10 8 0  12 8 0  14 8 0  16 8 0  18 8 0  20 8 0  22 8 0  24 8 0  26 8 0  28 8 0  30 8 0  32 8 0  34 8 0  36 8 0  38 8 0  40 8 0  42 8 0  44 8 0  46 8 0  48 8 0  50 8 0  52 8 0  54 8 0  56 8 0  58 8 0  60 8 0  62 8 0  64 8 0  66 8 0  68 8 0  70 8 0  72 8 0  74 8 0  76 8 0  78 8 0  80 8 0  82 8 0  84 8 0  86 8 0  88 8 0  90 8 0  92 8 0  94 8 0  96 8 0  98 8 0  100 8 0  102 8 0  104 8 0  106 8 0  108 8 0  110 8 0  112 8 0  114 8 0  116 8 0  118 8 0  120 8 0  122 8 0  124 8 0  126 8 0  128 8 0  130 8 0  132 8 0  134 8 0  136 8 0  138 8 0  140 8 0  142 8 0  144 8 0  146 8 0  148 8 0  150 8 0  152 8 0  154 8 0  156 8 0  158 8 0  160 8 0  162 8 0  164 8 0  166 8 0  168 8 0  170 8 0  172 8 0  174 8 0  176 8 0  178 8 0  180 8 0  182 8 0  184 8 0  186 8 0  188 8 0  190 8 0  192 8 0  194 8 0  196 8 0  198 8 0  200 8 0  202 8 0  204 8 0  206 8 0  208 8 0  210 8 0  212 8 0  214 8 0  216 8 0  218 8 0  220 8 0  222 8 0  224 8 0  226 8 0  228 8 0  230 8 0  232 8 0  234 8 0  236 8 0  238 8 0  240 8 0  242 8 0  244 8 0  246 8 0  248 8 0  250 8 0  252 8 0  254 8 0  256 8 0  258 8 0  260 8 0  262 8 0  264 8 0  266 8 0  268 8 0  270 8 0  272 8 0  274 8 0  276 8 0  278 8 0  280 8 0  282 8 0  284 8 0  286 8 0  288 8 0  290 8 0  292 8 0  294 8 0  296 8 0  298 8 0  300 8 0  0 10 0  2 10 0  4 10 0  6 10 0  8 10 0  10 10 0  12 10 0  14 10 0  16 10 0  18 10 0  20 10 0  22 10 0  24 10 0  26 10 0  28 10 0  30 10 0  32 10 0  34 10 0  36 10 0  38 10 0  40 10 0  42 10 0  44 10 0  46 10 0  48 10 0  50 10 0  52 10 0  54 10 0  56 10 0  58 10 0  60 10 0  62 10 0  64 10 0  66 10 0  68 10 0  70 10 0  72 10 0  74 10 0  76 10 0  78 10 0  80 10 0  82 10 0  84 10 0  86 10 0  88 10 0  90 10 0  92 10 0  94 10 0  96 10 0  98 10 0  100 10 0  102 10 0  104 10 0  106 10 0  108 10 0  110 10 0  112 10 0  114 10 0  116 10 0  118 10 0  120 10 0  122 10 0  124 10 0  126 10 0  128 10 0  130 10 0  132 10 0  134 10 0  136 10 0  138 10 0  140 10 0  142 10 0  144 10 0  146 10 0  148 10 0  150 10 0  152 10 0  154 10 0  156 10 0  158 10 0  160 10 0  162 10 0  164 10 0  166 10 0  168 10 0  170 10 0  172 10 0  174 10 0  176 10 0  178 10 0  180 10 0  182 10 0  184 10 0  186 10 0  188 10 0  190 10 0  192 10 0  194 10 0  196 10 0  198 10 0  200 10 0  202 10 0  204 10 0  206 10 0  208 10 0  210 10 0  212 10 0  214 10 0  216 10 0  218 10 0  220 10 0  222 10 0  224 10 0  226 10 0  228 10 0  230 10 0  232 10 0  234 10 0  236 10 0  238 10 0  240 10 0  242 10 0  244 10 0  246 10 0  248 10 0  250 10 0  252 10 0  254 10 0  256 10 0  258 10 0  260 10 0  262 10 0  264 10 0  266 10 0  268 10 0  270 10 0  272 10 0  274 10 0  276 10 0  278 10 0  280 10 0  282 10 0  284 10 0  286 10 0  288 10 0  290 10 0  292 10 0  294 10 0  296 10 0  298 10 0  300 10 0  1 1 0  3 1 0  5 1 0  7 1 0  9 1 0  11 1 0  13 1 0  15 1 0  17 1 0  19 1 0  21 1 0  23 1 0  25 1 0  27 1 0  29 1 0  31 1 0  33 1 0  35 1 0  37 1 0  39 1 0  41 1 0  43 1 0  45 1 0  47 1 0  49 1 0  51 1 0  53 1 0  55 1 0  57 1 0  59 1 0  61 1 0  63 1 0  65 1 0  67 1 0  69 1 0  71 1 0  73 1 0  75 1 0  77 1 0  79 1 0  81 1 0  83 1 0  85 1 0  87 1 0  89 1 0  91 1 0  93 1 0  95 1 0  97 1 0  99 1 0  101 1 0  103 1 0  105 1 0  107 1 0  109 1 0  111 1 0  113 1 0  115 1 0  117 1 0  119 1 0  121 1 0  123 1 0  125 1 0  127 1 0  129 1 0  131 1 0  133 1 0  135 1 0  137 1 0  139 1 0  141 1 0  143 1 0  145 1 0  147 1 0  149 1 0  151 1 0  153 1 0  155 1 0  157 1 0  159 1 0  161 1 0  163 1 0  165 1 0  167 1 0  169 1 0  171 1 0  173 1 0  175 1 0  177 1 0  179 1 0  181 1 0  183 1 0  185 1 0  187 1 0  189 1 0  191 1 0  193 1 0  195 1 0  197 1 0  199 1 0  201 1 0  203 1 0  205 1 0  207 1 0  209 1 0  211 1 0  213 1 0  215 1 0  217 1 0  219 1 0  221 1 0  223 1 0  225 1 0  227 1 0  229 1 0  231 1 0  233 1 0  235 1 0  237 1 0  239 1 0  241 1 0  243 1 0  245 1 0  247 1 0  249 1 0  251 1 0  253 1 0  255 1 0  257 1 0  259 1 0  261 1 0  263 1 0  265 1 0  267 1 0  269 1 0  271 1 0  273 1 0  275 1 0  277 1 0  279 1 0  281 1 0  283 1 0  285 1 0  287 1 0  289 1 0  291 1 0  293 1 0  295 1 0  297 1 0  299 1 0  1 3 0  3 3 0  5 3 0  7 3 0  9 3 0  11 3 0  13 3 0  15 3 0  17 3 0  19 3 0  21 3 0  23 3 0  25 3 0  27 3 0  29 3 0  31 3 0  33 3 0  35 3 0  37 3 0  39 3 0  41 3 0  43 3 0  45 3 0  47 3 0  49 3 0  51 3 0  53 3 0  55 3 0  57 3 0  59 3 0  61 3 0  63 3 0  65 3 0  67 3 0  69 3 0  71 3 0  73 3 0  75 3 0  77 3 0  79 3 0  81 3 0  83 3 0  85 3 0  87 3 0  89 3 0  91 3 0  93 3 0  95 3 0  97 3 0  99 3 0  101 3 0  103 3 0  105 3 0  107 3 0  109 3 0  111 3 0  113 3 0  115 3 0  117 3 0  119 3 0  121 3 0  123 3 0  125 3 0
[...]
<PointData  Vectors="flow"> 
<DataArray  type="Float64"  Name="flow"  NumberOfComponents="3" format="ascii">-4.5982694918605841e+02 -7.4586287557586095e-01 0.0000000000000000e+00  -4.5684363250623790e+02 -7.4580264724784295e-01 0.0000000000000000e+00  -4.5236931206468228e+02 -7.4562198861725437e-01 0.0000000000000000e+00  -4.4789643667014553e+02 -7.4532097838609324e-01 0.0000000000000000e+00  -4.4342572806030830e+02 -7.4489974735996156e-01 0.0000000000000000e+00  -4.3895790703032384e+02 -7.4435847872913463e-01 0.0000000000000000e+00  -4.3449369312010361e+02 -7.4369740773015469e-01 0.0000000000000000e+00  -4.3003380430280527e+02 -7.4291682142842308e-01 0.0000000000000000e+00  -4.2557895667423071e+02 -7.4201705840857202e-01 0.0000000000000000e+00  -4.2112986414426928e+02 -7.4099850870810546e-01 0.0000000000000000e+00  -4.1668723813031778e+02 -7.3986161311329801e-01 0.0000000000000000e+00  -4.1225178725258638e+02 -7.3860686318480251e-01 0.0000000000000000e+00  -4.0782421703222383e+02 -7.3723480033050526e-01 0.0000000000000000e+00  -4.0340522959198285e+02 -7.3574601582106436e-01 0.0000000000000000e+00  -3.9899552335998112e+02 -7.3414114991875712e-01 0.0000000000000000e+00  -3.9459579277657105e+02 -7.3242089146656952e-01 0.0000000000000000e+00  -3.9020672800510948e+02 -7.3058597723532559e-01 0.0000000000000000e+00  -3.8582901464609847e+02 -7.2863719137316640e-01 0.0000000000000000e+00  -3.8146333345546668e+02 -7.2657536450389348e-01 0.0000000000000000e+00  -3.7711036006722816e+02 -7.2440137307645780e-01 0.0000000000000000e+00  -3.7277076472076283e+02 -7.2211613883651282e-01 0.0000000000000000e+00  -3.6844521199219503e+02 -7.1972062767171974e-01 0.0000000000000000e+00  -3.6413436053165140e+02 -7.1721584897841439e-01 0.0000000000000000e+00  -3.5983886280500258e+02 -7.1460285460490369e-01 0.0000000000000000e+00  -3.5555936484135395e+02 -7.1188273815601499e-01 0.0000000000000000e+00  -3.5129650598604258e+02 -7.0905663390587459e-01 0.0000000000000000e+00  -3.4705091865944632e+02 -7.0612571568238591e-01 0.0000000000000000e+00  -3.4282322812195014e+02 -7.0309119617911420e-01 0.0000000000000000e+00  -3.3861405224502988e+02 -6.9995432562013293e-01 0.0000000000000000e+00  -3.3442400128852910e+02 -6.9671639077818448e-01 0.0000000000000000e+00  -3.3025367768507300e+02 -6.9337871391454375e-01 0.0000000000000000e+00  -3.2610367583063021e+02 -6.8994265137788613e-01 0.0000000000000000e+00  -3.2197458188236243e+02 -6.8640959293621906e-01 0.0000000000000000e+00  -3.1786697356349453e+02 -6.8278096008403100e-01 0.0000000000000000e+00  -3.1378141997522880e+02 -6.7905820508212289e-01 0.0000000000000000e+00  -3.0971848141626128e+02 -6.7524280971975603e-01 0.0000000000000000e+00  -3.0567870920971200e+02 -6.7133628394521216e-01 0.0000000000000000e+00  -3.0166264553760442e+02 -6.6734016462269008e-01 0.0000000000000000e+00  -2.9767082328316940e+02 -6.6325601432360459e-01 0.0000000000000000e+00  -2.9370376588100339e+02 -6.5908541985890678e-01 0.0000000000000000e+00  -2.8976198717518906e+02 -6.5482999104886130e-01 0.0000000000000000e+00  -2.8584599128545051e+02 -6.5049135934763735e-01 0.0000000000000000e+00  -2.8195627248133519e+02 -6.4607117652808443e-01 0.0000000000000000e+00  -2.7809331506492384e+02 -6.4157111317239668e-01 0.0000000000000000e+00  -2.7425759326136495e+02 -6.3699285746469836e-01 0.0000000000000000e+00  -2.7044957111817104e+02 -6.3233811361033210e-01 0.0000000000000000e+00  -2.6666970241267325e+02 -6.2760860060320245e-01 0.0000000000000000e+00  -2.6291843056791157e+02 -6.2280605069216477e-01 0.0000000000000000e+00  -2.5919618857708633e+02 -6.1793220802900994e-01 0.0000000000000000e+00  -2.5550339893647600e+02 -6.1298882729853377e-01 0.0000000000000000e+00  -2.5184047358672933e+02 -6.0797767216560328e-01 0.0000000000000000e+00  -2.4820781386287084e+02 -6.0290051398106548e-01 0.0000000000000000e+00  -2.4460581045271400e+02 -5.9775913029521655e-01 0.0000000000000000e+00  -2.4103484336372549e+02 -5.9255530349578245e-01 0.0000000000000000e+00  -2.3749528189845381e+02 -5.8729081928883708e-01 0.0000000000000000e+00  -2.3398748463844936e+02 -5.8196746546065636e-01 0.0000000000000000e+00  -2.3051179943648728e+02 -5.7658703032713832e-01 0.0000000000000000e+00  -2.2706856341722192e+02 -5.7115130141425574e-01 0.0000000000000000e+00  -2.2365810298624345e+02 -5.6566206406716024e-01 0.0000000000000000e+00  -2.2028073384729055e+02 -5.6012110002587034e-01 0.0000000000000000e+00  -2.1693676102770559e+02 -5.5453018614148708e-01 0.0000000000000000e+00  -2.1362647891207791e+02 -5.4889109300881789e-01 0.0000000000000000e+00  -2.1035017128379201e+02 -5.4320558361039795e-01 0.0000000000000000e+00  -2.0710811137470063e+02 -5.3747541197402793e-01 0.0000000000000000e+00  -2.0390056192241610e+02 -5.3170232196321832e-01 0.0000000000000000e+00  -2.0072777523566802e+02 -5.2588804588902727e-01 0.0000000000000000e+00  -1.9758999326695886e+02 -5.2003430328265576e-01 0.0000000000000000e+00  -1.9448744769296559e+02 -5.1414279975165955e-01 0.0000000000000000e+00  -1.9142036000225153e+02 -5.0821522561204080e-01 0.0000000000000000e+00  -1.8838894159018176e+02 -5.0225325474177818e-01 0.0000000000000000e+00  -1.8539339386103981e+02 -4.9625854350609572e-01 0.0000000000000000e+00  -1.8243390833705880e+02 -4.9023272942755497e-01 0.0000000000000000e+00  -1.7951066677427207e+02 -4.8417743020988924e-01 0.0000000000000000e+00  -1.7662384128501617e+02 -4.7809424257585337e-01 0.0000000000000000e+00  -1.7377359446688212e+02 -4.7198474122708661e-01 0.0000000000000000e+00  -1.7096007953811909e+02 -4.6585047782947731e-01 0.0000000000000000e+00  -1.6818344047898600e+02 -4.5969297989965396e-01 0.0000000000000000e+00  -1.6544381217923086e+02 -4.5351374995839489e-01 0.0000000000000000e+00  -1.6274132059123949e+02 -4.4731426449077005e-01 0.0000000000000000e+00  -1.6007608288880738e+02 -4.4109597309290011e-01 0.0000000000000000e+00  -1.5744820763131418e+02 -4.3486029752696603e-01 0.0000000000000000e+00  -1.5485779493306308e+02 -4.2860863094496016e-01 0.0000000000000000e+00  -1.5230493663755661e+02 -4.2234233703197477e-01 0.0000000000000000e+00  -1.4978971649666437e+02 -4.1606274922064490e-01 0.0000000000000000e+00  -1.4731221035427183e+02 -4.0977116998208107e-01 0.0000000000000000e+00  -1.4487248633423175e+02 -4.0346887008660692e-01 0.0000000000000000e+00  -1.4247060503259945e+02 -3.9715708794251181e-01 0.0000000000000000e+00  -1.4010661971362754e+02 -3.9083702901211392e-01 0.0000000000000000e+00  -1.3778057650947915e+02 -3.8450986510545748e-01 0.0000000000000000e+00  -1.3549251462350003e+02 -3.7817673397474483e-01 0.0000000000000000e+00  -1.3324246653655268e+02 -3.7183873862402123e-01 0.0000000000000000e+00  -1.3103045821648686e+02 -3.6549694697350921e-01 0.0000000000000000e+00  -1.2885650933033233e+02 -3.5915239134060956e-01 0.0000000000000000e+00  -1.2672063345896794e+02 -3.5280606807385662e-01 0.0000000000000000e+00  -1.2462283831416356e+02 -3.4645893714170728e-01 0.0000000000000000e+00  -1.2256312595765814e+02 -3.4011192187821881e-01 0.0000000000000000e+00  -1.2054149302201043e+02 -3.3376590865277367e-01 0.0000000000000000e+00  -1.1855793093311685e+02 -3.2742174662493967e-01 0.0000000000000000e+00  -1.1661242613399088e+02 -3.2108024755446957e-01 0.0000000000000000e+00  -1.1470496030968543e+02 -3.1474218565876710e-01 0.0000000000000000e+00  -1.1283551061309615e+02 -3.0840829743718995e-01 0.0000000000000000e+00  -1.1100404989135026e+02 -3.0207928161642916e-01 0.0000000000000000e+00  -1.0921054691261233e+02 -2.9575579913026490e-01 0.0000000000000000e+00  -1.0745496659306164e+02 -2.8943847306029513e-01 0.0000000000000000e+00  -1.0573727022369948e+02 -2.8312788868903643e-01 0.0000000000000000e+00  -1.0405741569695240e+02 -2.7682459361981060e-01 0.0000000000000000e+00  -1.0241535773260425e+02 -2.7052909780679796e-01 0.0000000000000000e+00  -1.0081104810308500e+02 -2.6424187375988278e-01 0.0000000000000000e+00  -9.9244435857574459e+01 -2.5796335670837711e-01 0.0000000000000000e+00  -9.7715467545037853e+01 -2.5169394483681995e-01 0.0000000000000000e+00  -9.6224087435687665e+01 -2.4543399950055533e-01 0.0000000000000000e+00  -9.4770237740904577e+01 -2.3918384552164229e-01 0.0000000000000000e+00  -9.3353858831270998e+01 -2.3294377143880829e-01 0.0000000000000000e+00  -9.1974889452660420e+01 -2.2671402981414637e-01 0.0000000000000000e+00  -9.0633266940393568e+01 -2.2049483734770545e-01 0.0000000000000000e+00  -8.9328927431460954e+01 -2.1428637494741162e-01 0.0000000000000000e+00  -8.8061806075346709e+01 -2.0808878741209647e-01 0.0000000000000000e+00  -8.6831837244349259e+01 -2.0190218236140911e-01 0.0000000000000000e+00  -8.5638954745484938e+01 -1.9572662794391127e-01 0.0000000000000000e+00  -8.4483092038026101e+01 -1.8956214792595932e-01 0.0000000000000000e+00  -8.3364182464560898e+01 -1.8340871187174956e-01 0.0000000000000000e+00  -8.2282159510652235e+01 -1.7726621618968141e-01 0.0000000000000000e+00  -8.1236957121875236e+01 -1.7113444747911244e-01 0.0000000000000000e+00  -8.0228510132939391e+01 -1.6501301268326132e-01 0.0000000000000000e+00  -7.9256754912529047e+01 -1.5890120604307603e-01 0.0000000000000000e+00  -7.8321630420664974e+01 -1.5279775664201875e-01 0.0000000000000000e+00  -7.7423080051140573e+01 -1.4670034929926012e-01 0.0000000000000000e+00  -7.6561054965171081e+01 -1.4060471655114781e-01 0.0000000000000000e+00  -7.5735520253977739e+01 -1.3450291776837728e-01 0.0000000000000000e+00  -7.4946466464281229e+01 -1.2838007875861415e-01 0.0000000000000000e+00  -7.4193931287357756e+01 -1.2220821477930204e-01 0.0000000000000000e+00  -7.3478040505827408e+01 -1.1593452844991303e-01 0.0000000000000000e+00  -7.2799085428436285e+01 -1.0945923981040002e-01 0.0000000000000000e+00  -7.2157669462754797e+01 -1.0259358057626372e-01 0.0000000000000000e+00  -7.1554985725884180e+01 -9.4980186210334216e-02 0.0000000000000000e+00  -7.0993343105956882e+01 -8.5942150666934058e-02 0.0000000000000000e+00  -7.0477164058626158e+01 -7.4196538188857408e-02 0.0000000000000000e+00  -7.0014878962992924e+01 -5.7309474517024638e-02 0.0000000000000000e+00  -6.9622537593356270e+01 -3.0655829195182331e-02 0.0000000000000000e+00  -6.9330703684266751e+01 1.4585812278898453e-02 0.0000000000000000e+00  -6.9197924464356049e+01 9.5342879164525551e-02 0.0000000000000000e+00  -6.9336672830548380e+01 2.4462241099738791e-01 0.0000000000000000e+00  -6.9970541903423594e+01 5.2787431853291678e-01 0.0000000000000000e+00  -7.1537857611363307e+01 1.0848272003061112e+00 0.0000000000000000e+00  -7.5059899138516627e+01 2.2097575312825386e+00 0.0000000000000000e+00  -8.2478640576371134e+01 4.7597472102868652e+00 0.0000000000000000e+00  -1.0061317593679298e+02 1.0176946899253366e+01 0.0000000000000000e+00  -1.3868795295347630e+02 2.7339159915475836e+01 0.0000000000000000e+00  -2.1236206146516278e+02 4.1928002725929574e+01 0.0000000000000000e+00  -3.2397755492556030e+02 7.4930990403089965e+01 0.0000000000000000e+00  -3.8682740074554670e+02 6.7056032640932273e+01 0.0000000000000000e+00  -4.5982694918600873e+02 3.7644013867460311e-06 0.0000000000000000e+00  -4.5684363250624449e+02 3.7635556962279311e-06 0.0000000000000000e+00  -4.5236931206466659e+02 3.7611056573506458e-06 0.0000000000000000e+00  -4.4789643667017509e+02 3.7570204241216896e-06 0.0000000000000000e+00  -4.4342572806030171e+02 3.7512868839265172e-06 0.0000000000000000e+00  -4.3895790703030110e+02 3.7439591950069058e-06 0.0000000000000000e+00  -4.3449369312012209e+02 3.7349720573356830e-06 0.0000000000000000e+00  -4.3003380430281118e+02 3.7243899285517075e-06 0.0000000000000000e+00  -4.2557895667421730e+02 3.7122001230332625e-06 0.0000000000000000e+00  -4.2112986414427962e+02 3.6984120376650259e-06 0.0000000000000000e+00  -4.1668723813031943e+02 3.6830588303188489e-06 0.0000000000000000e+00  -4.1225178725258525e+02 3.6661225601718219e-06 0.0000000000000000e+00  -4.0782421703222548e+02 3.6476551126275735e-06 0.0000000000000000e+00  -4.0340522959199842e+02 3.6276459937350574e-06 0.0000000000000000e+00  -3.9899552335996935e+02 3.6061082177501630e-06 0.0000000000000000e+00  -3.9459579277657252e+02 3.5830953091566124e-06 0.0000000000000000e+00  -3.9020672800510891e+02 3.5585775086845316e-06 0.0000000000000000e+00  -3.8582901464609625e+02 3.5326199320991331e-06 0.0000000000000000e+00  -3.8146333345543894e+02 3.5052474089742094e-06 0.0000000000000000e+00  -3.7711036006725772e+02 3.4764324847481473e-06 0.0000000000000000e+00  -3.7277076472076385e+02 3.4462482378114691e-06 0.0000000000000000e+00  -3.6844521199218923e+02 3.4146941834233313e-06 0.0000000000000000e+00  -3.6413436053166561e+02 3.3818244437944117e-06 0.0000000000000000e+00  -3.5983886280498564e+02 3.3476510899689151e-06 0.0000000000000000e+00  -3.5555936484136060e+02 3.3122019438971102e-06 0.0000000000000000e+00  -3.5129650598603308e+02 3.2755167795408401e-06 0.0000000000000000e+00  -3.4705091865943973e+02 3.2376155662627882e-06 0.0000000000000000e+00  -3.4282322812196423e+02 3.1985418695023398e-06 0.0000000000000000e+00  -3.3861405224502352e+02 3.1583239413247781e-06 0.0000000000000000e+00  -3.3442400128853484e+02 3.1170156757190363e-06 0.0000000000000000e+00  -3.3025367768507351e+02 3.0746239907952074e-06 0.0000000000000000e+00  -3.2610367583061833e+02 3.0311945119491343e-06 0.0000000000000000e+00  -3.2197458188237891e+02 2.9867627594826441e-06 0.0000000000000000e+00  -3.1786697356349703e+02 2.9413759168525884e-06 0.0000000000000000e+00  -3.1378141997521669e+02 2.8950748530454194e-06 0.0000000000000000e+00  -3.0971848141626947e+02 2.8478839596277516e-06 0.0000000000000000e+00  -3.0567870920971342e+02 2.7998596922999949e-06 0.0000000000000000e+00  -3.0166264553761090e+02 2.7510138935954128e-06 0.0000000000000000e+00  -2.9767082328317008e+02 2.7014211941622383e-06 0.0000000000000000e+00  -2.9370376588099555e+02 2.6511250456107345e-06 0.0000000000000000e+00  -2.8976198717519173e+02 2.6001369775645501e-06 0.0000000000000000e+00  -2.8584599128544608e+02 2.5485136149813820e-06 0.0000000000000000e+00  -2.8195627248134218e+02 2.4963028674557923e-06 0.0000000000000000e+00  -2.7809331506491679e+02 2.4435387137846101e-06 0.0000000000000000e+00  -2.7425759326136534e+02 2.3902819468187376e-06 0.0000000000000000e+00  -2.7044957111817570e+02 2.3365645325925693e-06 0.0000000000000000e+00  -2.6666970241267541e+02 2.2824240597813605e-06 0.0000000000000000e+00  -2.6291843056790242e+02 2.2279270562845952e-06 0.0000000000000000e+00  -2.5919618857709526e+02 2.1730893432894036e-06 0.0000000000000000e+00  -2.5550339893647308e+02 2.1179610299990053e-06 0.0000000000000000e+00  -2.5184047358673135e+02 2.0626047697443977e-06 0.0000000000000000e+00  -2.4820781386286589e+02 2.0070524750079103e-06 0.0000000000000000e+00  -2.4460581045271314e+02 1.9513606270970137e-06 0.0000000000000000e+00  -2.4103484336372023e+02 1.8955575528251590e-06 0.0000000000000000e+00  -2.3749528189845321e+02 1.8396832462066273e-06 0.0000000000000000e+00  -2.3398748463845865e+02 1.7837965293127146e-06 0.0000000000000000e+00  -2.3051179943648248e+02 1.7279260370004571e-06 0.0000000000000000e+00  -2.2706856341722445e+02 1.6721383142994576e-06 0.0000000000000000e+00  -2.2365810298624450e+02 1.6164467211558467e-06 0.0000000000000000e+00  -2.2028073384728810e+02 1.5609314691581083e-06 0.0000000000000000e+00  -2.1693676102770507e+02 1.5055892329432219e-06 0.0000000000000000e+00  -2.1362647891208024e+02 1.4504998671336056e-06 0.0000000000000000e+00  -2.1035017128379081e+02 1.3956787493398446e-06 0.0000000000000000e+00  -2.0710811137469696e+02 1.3411852854955967e-06 0.0000000000000000e+00  -2.0390056192242218e+02 1.2870424401440245e-06 0.0000000000000000e+00  -2.0072777523566558e+02 1.2333094866597514e-06 0.0000000000000000e+00  -1.9758999326695292e+02 1.1800057209831873e-06 0.0000000000000000e+00  -1.9448744769297684e+02 1.1271785048825384e-06 0.0000000000000000e+00  -1.9142036000224977e+02 1.0748655965530193e-06 0.0000000000000000e+00  -1.8838894159017340e+02 1.0231015026397965e-06 0.0000000000000000e+00  -1.8539339386104041e+02 9.7193008425099263e-07 0.0000000000000000e+00  -1.8243390833706405e+02 9.2137460770495999e-07 0.0000000000000000e+00  -1.7951066677427693e+02 8.7146661711409784e-07 0.0000000000000000e+00  -1.7662384128500887e+02 8.2226208811891205e-07 0.0000000000000000e+00  -1.7377359446688482e+02 7.7376855826850392e-07 0.0000000000000000e+00  -1.7096007953811934e+02 7.2602370810240008e-07 0.0000000000000000e+00  -1.6818344047898674e+02 6.7907656097149584e-07 0.0000000000000000e+00  -1.6544381217923063e+02 6.3293210910243849e-07 0.0000000000000000e+00  -1.6274132059124048e+02 5.8763614885183461e-07 0.0000000000000000e+00  -1.6007608288880644e+02 5.4320079306401140e-07 0.0000000000000000e+00  -1.5744820763131693e+02 4.9966757767266642e-07 0.0000000000000000e+00  -1.5485779493305969e+02 4.5704715741552264e-07 0.0000000000000000e+00  -1.5230493663755482e+02 4.1537654086656743e-07 0.0000000000000000e+00  -1.4978971649666792e+02 3.7467077366643139e-07 0.0000000000000000e+00  -1.4731221035427021e+02 3.3495899125831230e-07 0.0000000000000000e+00  -1.4487248633423016e+02 2.9626052041258754e-07 0.0000000000000000e+00  -1.4247060503260681e+02 2.5858861565808647e-07 0.0000000000000000e+00  -1.4010661971361904e+02 2.2196456394349189e-07 0.0000000000000000e+00  -1.3778057650948458e+02 1.8641016208035896e-07 0.0000000000000000e+00  -1.3549251462349969e+02 1.5193917775173904e-07 0.0000000000000000e+00  -1.3324246653654765e+02 1.1856925811078019e-07 0.0000000000000000e+00  -1.3103045821648740e+02 8.6307562141505384e-08 0.0000000000000000e+00  -1.2885650933033574e+02 5.5168410970377302e-08 0.0000000000000000e+00  -1.2672063345896838e+02 2.5168921306941463e-08 0.0000000000000000e+00  -1.2462283831416259e+02 -3.6861387068860059e-09 0.0000000000000000e+00  -1.2256312595765817e+02 -3.1385305204703538e-08 0.0000000000000000e+00  -1.2054149302201115e+02 -5.7923034245675705e-08 0.0000000000000000e+00  -1.1855793093311520e+02 -8.3288832606734489e-08 0.0000000000000000e+00  -1.1661242613398967e+02 -1.0748471204718299e-07 0.0000000000000000e+00  -1.1470496030968542e+02 -1.3049733884176119e-07 0.0000000000000000e+00  -1.1283551061309502e+02 -1.5233297211298638e-07 0.0000000000000000e+00  -1.1100404989134705e+02 -1.7298442716792711e-07 0.0000000000000000e+00  -1.0921054691261430e+02 -1.9245170641732689e-07 0.0000000000000000e+00  -1.0745496659305488e+02 -2.1073504084272012e-07 0.0000000000000000e+00  -1.0573727022368621e+02 -2.2783559799125150e-07 0.0000000000000000e+00  -1.0405741569693221e+02 -2.4374251246779786e-07 0.0000000000000000e+00  -1.0241535773256666e+02 -2.5845794788520228e-07 0.0000000000000000e+00  -1.0081104810301085e+02 -2.7197121957787732e-07 0.0000000000000000e+00  -9.9244435857436912e+01 -2.8424224671895379e-07 0.0000000000000000e+00  -9.7715467544776104e+01 -2.9520773478531277e-07 0.0000000000000000e+00  -9.6224087435191748e+01 -3.0473548653759132e-07 0.0000000000000000e+00  -9.4770237739967556e+01 -3.1258079335980708e-07 0.0000000000000000e+00  -9.3353858829491259e+01 -3.1824652600034218e-07 0.0000000000000000e+00  -9.1974889449290799e+01 -3.2080732392983773e-07 0.0000000000000000e+00  -9.0633266934005164e+01 -3.1847787305145587e-07 0.0000000000000000e+00  -8.9328927419363907e+01 -3.0788482249765001e-07 0.0000000000000000e+00  -8.8061806052441071e+01 -2.8261147379030875e-07 0.0000000000000000e+00  -8.6831837200952592e+01 -2.3050241947472586e-07 0.0000000000000000e+00  -8.5638954663280543e+01 -1.2850321518466349e-07 0.0000000000000000e+00  -8.4483091882308486e+01 6.7071352065334310e-08 0.0000000000000000e+00  -8.3364182169593690e+01 4.3897158166171287e-07 0.0000000000000000e+00  -8.2282158951915477e+01 1.1439745736875679e-06 0.0000000000000000e+00  -8.1236956063495654e+01 2.4790712318356425e-06 0.0000000000000000e+00  -8.0228508128102604e+01 5.0068539793722688e-06 0.0000000000000000e+00  -7.9256751114878057e+01 9.7930415664954604e-06 0.0000000000000000e+00  -7.8321623226991022e+01 1.8856354479945045e-05 0.0000000000000000e+00  -7.7423066424569697e+01 3.6020788723845801e-05 0.000000000000