<?xml version="1.0"?>
<VTKFile type="UnstructuredGrid"  version="0.1"  >
<UnstructuredGrid>
<Piece  NumberOfPoints="1656" NumberOfCells="3000">
<Points>
<DataArray  type="Float64"  NumberOfComponents="3"  format="ascii">0 0 0  2 0 0  4 0 0  6 0 0  8 0 0  10 0 0  12 0 0  14 0 0  16 0 0  18 0 0  20 0 0  22 0 0  24 0 0  26 0 0  28 0 0  30 0 0  32 0 0  34 0 0  36 0 0  38 0 0  40 0 0  42 0 0  44 0 0  46 0 0  48 0 0  50 0 0  52 0 0  54 0 0  56 0 0  58 0 0  60 0 0  62 0 0  64 0 0  66 0 0  68 0 0  70 0 0  72 0 0  74 0 0  76 0 0  78 0 0  80 0 0  82 0 0  84 0 0  86 0 0  88 0 0  90 0 0  92 0 0  94 0 0  96 0 0  98 0 0  100 0 0  102 0 0  104 0 0  106 0 0  108 0 0  110 0 0  112 0 0  114 0 0  116 0 0  118 0 0  120 0 0  122 0 0  124 0 0  126 0 0  128 0 0  130 0 0  132 0 0  134 0 0  136 0 0  138 0 0  140 0 0  142 0 0  144 0 0  146 0 0  148 0 0  150 0 0  152 0 0  154 0 0  156 0 0  158 0 0  160 0 0  162 0 0  164 0 0  166 0 0  168 0 0  170 0 0  172 0 0  174 0 0  176 0 0  178 0 0  180 0 0  182 0 0  184 0 0  186 0 0  188 0 0  190 0 0  192 0 0  194 0 0  196 0 0  198 0 0  200 0 0  202 0 0  204 0 0  206 0 0  208 0 0  210 0 0  212 0 0  214 0 0  216 0 0  218 0 0  220 0 0  222 0 0  224 0 0  226 0 0  228 0 0  230 0 0  232 0 0  234 0 0  236 0 0  238 0 0  240 0 0  242 0 0  244 0 0  246 0 0  248 0 0  250 0 0  252 0 0  254 0 0  256 0 0  258 0 0  260 0 0  262 0 0  264 0 0  266 0 0  268 0 0  270 0 0  272 0 0  274 0 0  276 0 0  278 0 0  280 0 0  282 0 0  284 0 0  286 0 0  288 0 0  290 0 0  292 0 0  294 0 0  296 0 0  298 0 0  300 0 0  0 2 0  2 2 0  4 2 0  6 2 0  8 2 0  10 2 0  12 2 0  14 2 0  16 2 0  18 2 0  20 2 0  22 2 0  24 2 0  26 2 0  28 2 0  30 2 0  32 2 0  34 2 0  36 2 0  38 2 0  40 2 0  42 2 0  44 2 0  46 2 0  48 2 0  50 2 0  52 2 0  54 2 0  56 2 0  58 2 0  60 2 0  62 2 0  64 2 0  66 2 0  68 2 0  70 2 0  72 2 0  74 2 0  76 2 0  78 2 0  80 2 0  82 2 0  84 2 0  86 2 0  88 2 0  90 2 0  92 2 0  94 2 0  96 2 0  98 2 0  100 2 0  102 2 0  104 2 0  106 2 0  108 2 0  110 2 0  112 2 0  114 2 0  116 2 0  118 2 0  120 2 0  122 2 0  124 2 0  126 2 0  128 2 0  130 2 0  132 2 0  134 2 0  136 2 0  138 2 0  140 2 0  142 2 0  144 2 0  146 2 0  148 2 0  150 2 0  152 2 0  154 2 0  156 2 0  158 2 0  160 2 0  162 2 0  164 2 0  166 2 0  168 2 0  170 2 0  172 2 0  174 2 0  176 2 0  178 2 0  180 2 0  182 2 0  184 2 0  186 2 0  188 2 0  190 2 0  192 2 0  194 2 0  196 2 0  198 2 0  200 2 0  202 2 0  204 2 0  206 2 0  208 2 0  210 2 0  212 2 0  214 2 0  216 2 0  218 2 0  220 2 0  222 2 0  224 2 0  226 2 0  228 2 0  230 2 0  232 2 0  234 2 0  236 2 0  238 2 0  240 2 0  242 2 0  244 2 0  246 2 0  248 2 0  250 2 0  252 2 0  254 2 0  256 2 0  258 2 0  260 2 0  262 2 0  264 2 0  266 2 0  268 2 0  270 2 0  272 2 0  274 2 0  276 2 0  278 2 0  280 2 0  282 2 0  284 2 0  286 2 0  288 2 0  290 2 0  292 2 0  294 2 0  296 2 0  298 2 0  300 2 0  0 4 0  2 4 0  4 4 0  6 4 0  8 4 0  10 4 0  12 4 0  14 4 0  16 4 0  18 4 0  20 4 0  22 4 0  24 4 0  26 4 0  28 4 0  30 4 0  32 4 0  34 4 0  36 4 0  38 4 0  40 4 0  42 4 0  44 4 0  46 4 0  48 4 0  50 4 0  52 4 0  54 4 0  56 4 0  58 4 0  60 4 0  62 4 0  64 4 0  66 4 0  68 4 0  70 4 0  72 4 0  74 4 0  76 4 0  78 4 0  80 4 0  82 4 0  84 4 0  86 4 0  88 4 0  90 4 0  92 4 0  94 4 0  96 4 0  98 4 0  100 4 0  102 4 0  104 4 0  106 4 0  108 4 0  110 4 0  112 4 0  114 4 0  116 4 0  118 4 0  120 4 0  122 4 0  124 4 0  126 4 0  128 4 0  130 4 0  132 4 0  134 4 0  136 4 0  138 4 0  140 4 0  142 4 0  144 4 0  146 4 0  148 4 0  150 4 0  152 4 0  154 4 0  156 4 0  158 4 0  160 4 0  162 4 0  164 4 0  166 4 0  168 4 0  170 4 0  172 4 0  174 4 0  176 4 0  178 4 0  180 4 0  182 4 0  184 4 0  186 4 0  188 4 0  190 4 0  192 4 0  194 4 0  196 4 0  198 4 0  200 4 0  202 4 0  204 4 0  206 4 0  208 4 0  210 4 0  212 4 0  214 4 0  216 4 0  218 4 0  220 4 0  222 4 0  224 4 0  226 4 0  228 4 0  230 4 0  232 4 0  234 4 0  236 4 0  238 4 0  240 4 0  242 4 0  244 4 0  246 4 0  248 4 0  250 4 0  252 4 0  254 4 0  256 4 0  258 4 0  260 4 0  262 4 0  264 4 0  266 4 0  268 4 0  270 4 0  272 4 0  274 4 0  276 4 0  278 4 0  280 4 0  282 4 0  284 4 0  286 4 0  288 4 0  290 4 0  292 4 0  294 4 0  296 4 0  298 4 0  300 4 0  0 6 0  2 6 0  4 6 0  6 6 0  8 6 0  10 6 0  12 6 0  14 6 0  16 6 0  18 6 0  20 6 0  22 6 0  24 6 0  26 6 0  28 6 0  30 6 0  32 6 0  34 6 0  36 6 0  38 6 0  40 6 0  42 6 0  44 6 0  46 6 0  48 6 0  50 6 0  52 6 0  54 6 0  56 6 0  58 6 0  60 6 0  62 6 0  64 6 0  66 6 0  68 6 0  70 6 0  72 6 0  74 6 0  76 6 0  78 6 0  80 6 0  82 6 0  84 6 0  86 6 0  88 6 0  90 6 0  92 6 0  94 6 0  96 6 0  98 6 0  100 6 0  102 6 0  104 6 0  106 6 0  108 6 0  110 6 0  112 6 0  114 6 0  116 6 0  118 6 0  120 6 0  122 6 0  124 6 0  126 6 0  128 6 0  130 6 0  132 6 0  134 6 0  136 6 0  138 6 0  140 6 0  142 6 0  144 6 0  146 6 0  148 6 0  150 6 0  152 6 0  154 6 0  156 6 0  158 6 0  160 6 0  162 6 0  164 6 0  166 6 0  168 6 0  170 6 0  172 6 0  174 6 0  176 6 0  178 6 0  180 6 0  182 6 0  184 6 0  186 6 0  188 6 0  190 6 0  192 6 0  194 6 0  196 6 0  198 6 0  200 6 0  202 6 0  204 6 0  206 6 0  208 6 0  210 6 0  212 6 0  214 6 0  216 6 0  218 6 0  220 6 0  222 6 0  224 6 0  226 6 0  228 6 0  230 6 0  232 6 0  234 6 0  236 6 0  238 6 0  240 6 0  242 6 0  244 6 0  246 6 0  248 6 0  250 6 0  252 6 0  254 6 0  256 6 0  258 6 0  260 6 0  262 6 0  264 6 0  266 6 0  268 6 0  270 6 0  272 6 0  274 6 0  276 6 0  278 6 0  280 6 0  282 6 0  284 6 0  286 6 0  288 6 0  290 6 0  292 6 0  294 6 0  296 6 0  298 6 0  300 6 0  0 8 0  2 8 0  4 8 0  6 8 0  8 8 0  10 8 0  12 8 0  14 8 0  16 8 0  18 8 0  20 8 0  22 8 0  24 8 0  26 8 0  28 8 0  30 8 0  32 8 0  34 8 0  36 8 0  38 8 0  40 8 0  42 8 0  44 8 0  46 8 0  48 8 0  50 8 0  52 8 0  54 8 0  56 8 0  58 8 0  60 8 0  62 8 0  64 8 0  66 8 0  68 8 0  70 8 0  72 8 0  74 8 0  76 8 0  78 8 0  80 8 0  82 8 0  84 8 0  86 8 0  88 8 0  90 8 0  92 8 0  94 8 0  96 8 0  98 8 0  100 8 0  102 8 0  104 8 0  106 8 0  108 8 0  110 8 0  112 8 0  114 8 0  116 8 0  118 8 0  120 8 0  122 8 0  124 8 0  126 8 0  128 8 0  130 8 0  132 8 0  134 8 0  136 8 0  138 8 0  140 8 0  142 8 0  144 8 0  146 8 0  148 8 0  150 8 0  152 8 0  154 8 0  156 8 0  158 8 0  160 8 0  162 8 0  164 8 0  166 8 0  168 8 0  170 8 0  172 8 0  174 8 0  176 8 0  178 8 0  180 8 0  182 8 0  184 8 0  186 8 0  188 8 0  190 8 0  192 8 0  194 8 0  196 8 0  198 8 0  200 8 0  202 8 0  204 8 0  206 8 0  208 8 0  210 8 0  212 8 0  214 8 0  216 8 0  218 8 0  220 8 0  222 8 0  224 8 0  226 8 0  228 8 0  230 8 0  232 8 0  234 8 0  236 8 0  238 8 0  240 8 0  242 8 0  244 8 0  246 8 0  248 8 0  250 8 0  252 8 0  254 8 0  256 8 0  258 8 0  260 8 0  262 8 0  264 8 0  266 8 0  268 8 0  270 8 0  272 8 0  274 8 0  276 8 0  278 8 0  280 8 0  282 8 0  284 8 0  286 8 0  288 8 0  290 8 0  292 8 0  294 8 0  296 8 0  298 8 0  300 8 0  0 10 0  2 10 0  4 10 0  6 10 0  8 10 0  10 10 0  12 10 0  14 10 0  16 10 0  18 10 0  20 10 0  22 10 0  24 10 0  26 10 0  28 10 0  30 10 0  32 10 0  34 10 0  36 10 0  38 10 0  40 10 0  42 10 0  44 10 0  46 10 0  48 10 0  50 10 0  52 10 0  54 10 0  56 10 0  58 10 0  60 10 0  62 10 0  64 10 0  66 10 0  68 10 0  70 10 0  72 10 0  74 10 0  76 10 0  78 10 0  80 10 0  82 10 0  84 10 0  86 10 0  88 10 0  90 10 0  92 10 0  94 10 0  96 10 0  98 10 0  100 10 0  102 10 0  104 10 0  106 10 0  108 10 0  110 10 0  112 10 0  114 10 0  116 10 0  118 10 0  120 10 0  122 10 0  124 10 0  126 10 0  128 10 0  130 10 0  132 10 0  134 10 0  136 10 0  138 10 0  140 10 0  142 10 0  144 10 0  146 10 0  148 10 0  150 10 0  152 10 0  154 10 0  156 10 0  158 10 0  160 10 0  162 10 0  164 10 0  166 10 0  168 10 0  170 10 0  172 10 0  174 10 0  176 10 0  178 10 0  180 10 0  182 10 0  184 10 0  186 10 0  188 10 0  190 10 0  192 10 0  194 10 0  196 10 0  198 10 0  200 10 0  202 10 0  204 10 0  206 10 0  208 10 0  210 10 0  212 10 0  214 10 0  216 10 0  218 10 0  220 10 0  222 10 0  224 10 0  226 10 0  228 10 0  230 10 0  232 10 0  234 10 0  236 10 0  238 10 0  240 10 0  242 10 0  244 10 0  246 10 0  248 10 0  250 10 0  252 10 0  254 10 0  256 10 0  258 10 0  260 10 0  262 10 0  264 10 0  266 10 0  268 10 0  270 10 0  272 10 0  274 10 0  276 10 0  278 10 0  280 10 0  282 10 0  284 10 0  286 10 0  288 10 0  290 10 0  292 10 0  294 10 0  296 10 0  298 10 0  300 10 0  1 1 0  3 1 0  5 1 0  7 1 0  9 1 0  11 1 0  13 1 0  15 1 0  17 1 0  19 1 0  21 1 0  23 1 0  25 1 0  27 1 0  29 1 0  31 1 0  33 1 0  35 1 0  37 1 0  39 1 0  41 1 0  43 1 0  45 1 0  47 1 0  49 1 0  51 1 0  53 1 0  55 1 0  57 1 0  59 1 0  61 1 0  63 1 0  65 1 0  67 1 0  69 1 0  71 1 0  73 1 0  75 1 0  77 1 0  79 1 0  81 1 0  83 1 0  85 1 0  87 1 0  89 1 0  91 1 0  93 1 0  95 1 0  97 1 0  99 1 0  101 1 0  103 1 0  105 1 0  107 1 0  109 1 0  111 1 0  113 1 0  115 1 0  117 1 0  119 1 0  121 1 0  123 1 0  125 1 0  127 1 0  129 1 0  131 1 0  133 1 0  135 1 0  137 1 0  139 1 0  141 1 0  143 1 0  145 1 0  147 1 0  149 1 0  151 1 0  153 1 0  155 1 0  157 1 0  159 1 0  161 1 0  163 1 0  165 1 0  167 1 0  169 1 0  171 1 0  173 1 0  175 1 0  177 1 0  179 1 0  181 1 0  183 1 0  185 1 0  187 1 0  189 1 0  191 1 0  193 1 0  195 1 0  197 1 0  199 1 0  201 1 0  203 1 0  205 1 0  207 1 0  209 1 0  211 1 0  213 1 0  215 1 0  217 1 0  219 1 0  221 1 0  223 1 0  225 1 0  227 1 0  229 1 0  231 1 0  233 1 0  235 1 0  237 1 0  239 1 0  241 1 0  243 1 0  245 1 0  247 1 0  249 1 0  251 1 0  253 1 0  255 1 0  257 1 0  259 1 0  261 1 0  263 1 0  265 1 0  267 1 0  269 1 0  271 1 0  273 1 0  275 1 0  277 1 0  279 1 0  281 1 0  283 1 0  285 1 0  287 1 0  289 1 0  291 1 0  293 1 0  295 1 0  297 1 0  299 1 0  1 3 0  3 3 0  5 3 0  7 3 0  9 3 0  11 3 0  13 3 0  15 3 0  17 3 0  19 3 0  21 3 0  23 3 0  25 3 0  27 3 0  29 3 0  31 3 0  33 3 0  35 3 0  37 3 0  39 3 0  41 3 0  43 3 0  45 3 0  47 3 0  49 3 0  51 3 0  53 3 0  55 3 0  57 3 0  59 3 0  61 3 0  63 3 0  65 3 0  67 3 0  69 3 0  71 3 0  73 3 0  75 3 0  77 3 0  79 3 0  81 3 0  83 3 0  85 3 0  87 3 0  89 3 0  91 3 0  93 3 0  95 3 0  97 3 0  99 3 0  101 3 0  103 3 0  105 3 0  107 3 0  109 3 0  111 3 0  113 3 0  115 3 0  117 3 0  119 3 0  121 3 0  123 3 0  125 3 0
[...]
<PointData  Vectors="flow"> 
<DataArray  type="Float64"  Name="flow"  NumberOfComponents="3" format="ascii">-4.5915962546500737e+02 -1.0795240713311638e+00 0.0000000000000000e+00  -4.5484192251820616e+02 -1.0793483569664364e+00 0.0000000000000000e+00  -4.4836727759775056e+02 -1.0788213854599762e+00 0.0000000000000000e+00  -4.4189684699929893e+02 -1.0779436712601496e+00 0.0000000000000000e+00  -4.3543273274259195e+02 -1.0767160705597720e+00 0.0000000000000000e+00  -4.2897703068760529e+02 -1.0751397801214655e+00 0.0000000000000000e+00  -4.2253182849686459e+02 -1.0732163353037927e+00 0.0000000000000000e+00  -4.1609920361211641e+02 -1.0709476074533986e+00 0.0000000000000000e+00  -4.0968122124734873e+02 -1.0683358006311467e+00 0.0000000000000000e+00  -4.0327993240252295e+02 -1.0653834483051532e+00 0.0000000000000000e+00  -3.9689737190043780e+02 -1.0620934087508205e+00 0.0000000000000000e+00  -3.9053555645088852e+02 -1.0584688608124573e+00 0.0000000000000000e+00  -3.8419648274401573e+02 -1.0545132980935445e+00 0.0000000000000000e+00  -3.7788212557718907e+02 -1.0502305238705083e+00 0.0000000000000000e+00  -3.7159443601738440e+02 -1.0456246441448531e+00 0.0000000000000000e+00  -3.6533533960270847e+02 -1.0407000615897561e+00 0.0000000000000000e+00  -3.5910673458516135e+02 -1.0354614679629699e+00 0.0000000000000000e+00  -3.5291049021812421e+02 -1.0299138367413230e+00 0.0000000000000000e+00  -3.4674844509038536e+02 -1.0240624148916015e+00 0.0000000000000000e+00  -3.4062240550992135e+02 -1.0179127146009819e+00 0.0000000000000000e+00  -3.3453414393913908e+02 -1.0114705044197585e+00 0.0000000000000000e+00  -3.2848539748443397e+02 -1.0047417999122041e+00 0.0000000000000000e+00  -3.2247786644170026e+02 -9.9773285439796622e-01 0.0000000000000000e+00  -3.1651321290012356e+02 -9.9045014887990956e-01 0.0000000000000000e+00  -3.1059305940590616e+02 -9.8290038200100216e-01 0.0000000000000000e+00  -3.0471898768791044e+02 -9.7509045955435669e-01 0.0000000000000000e+00  -2.9889253744636613e+02 -9.6702748384405091e-01 0.0000000000000000e+00  -2.9311520520663828e+02 -9.5871874281579439e-01 0.0000000000000000e+00  -2.8738844323898496e+02 -9.5017169882327734e-01 0.0000000000000000e+00  -2.8171365854540716e+02 -9.4139397738617503e-01 0.0000000000000000e+00  -2.7609221191506469e+02 -9.3239335580919536e-01 0.0000000000000000e+00  -2.7052541704850370e+02 -9.2317775148036063e-01 0.0000000000000000e+00  -2.6501453975192914e+02 -9.1375521031873574e-01 0.0000000000000000e+00  -2.5956079720174847e+02 -9.0413389479756212e-01 0.0000000000000000e+00  -2.5416535727999690e+02 -8.9432207234543615e-01 0.0000000000000000e+00  -2.4882933798079182e+02 -8.8432810332799239e-01 0.0000000000000000e+00  -2.4355380688808805e+02 -8.7416042925422854e-01 0.0000000000000000e+00  -2.3833978072460701e+02 -8.6382756082473322e-01 0.0000000000000000e+00  -2.3318822497170802e+02 -8.5333806625117159e-01 0.0000000000000000e+00  -2.2810005356014742e+02 -8.4270055937332100e-01 0.0000000000000000e+00  -2.2307612863109813e+02 -8.3192368804652905e-01 0.0000000000000000e+00  -2.1811726036695597e+02 -8.2101612253083078e-01 0.0000000000000000e+00  -2.1322420689107145e+02 -8.0998654407144299e-01 0.0000000000000000e+00  -2.0839767423596493e+02 -7.9884363363099398e-01 0.0000000000000000e+00  -2.0363831637863092e+02 -7.8759606065433119e-01 0.0000000000000000e+00  -1.9894673534218597e+02 -7.7625247224183336e-01 0.0000000000000000e+00  -1.9432348136262920e+02 -7.6482148231689306e-01 0.0000000000000000e+00  -1.8976905311931910e+02 -7.5331166115022907e-01 0.0000000000000000e+00  -1.8528389802798125e+02 -7.4173152505248585e-01 0.0000000000000000e+00  -1.8086841259461454e+02 -7.3008952634024971e-01 0.0000000000000000e+00  -1.7652294282877372e+02 -7.1839404356933501e-01 0.0000000000000000e+00  -1.7224778471472118e+02 -7.0665337212529977e-01 0.0000000000000000e+00  -1.6804318473841886e+02 -6.9487571488540945e-01 0.0000000000000000e+00  -1.6390934046886156e+02 -6.8306917348308360e-01 0.0000000000000000e+00  -1.5984640119171996e+02 -6.7124173965330380e-01 0.0000000000000000e+00  -1.5585446859340917e+02 -6.5940128704833423e-01 0.0000000000000000e+00  -1.5193359749349287e+02 -6.4755556330118003e-01 0.0000000000000000e+00  -1.4808379662361619e+02 -6.3571218246002448e-01 0.0000000000000000e+00  -1.4430502945060684e+02 -6.2387861783597942e-01 0.0000000000000000e+00  -1.4059721504185771e+02 -6.1206219508982695e-01 0.0000000000000000e+00  -1.3696022897064674e+02 -6.0027008577329122e-01 0.0000000000000000e+00  -1.3339390425940434e+02 -5.8850930118943967e-01 0.0000000000000000e+00  -1.2989803235856289e+02 -5.7678668665305965e-01 0.0000000000000000e+00  -1.2647236415890202e+02 -5.6510891606150182e-01 0.0000000000000000e+00  -1.2311661103509159e+02 -5.5348248691922075e-01 0.0000000000000000e+00  -1.1983044591826460e+02 -5.4191371566371538e-01 0.0000000000000000e+00  -1.1661350439537046e+02 -5.3040873340159289e-01 0.0000000000000000e+00  -1.1346538583307569e+02 -5.1897348195900050e-01 0.0000000000000000e+00  -1.1038565452412942e+02 -5.0761371038845526e-01 0.0000000000000000e+00  -1.0737384085384112e+02 -4.9633497174254437e-01 0.0000000000000000e+00  -1.0442944248463598e+02 -4.8514262023598398e-01 0.0000000000000000e+00  -1.0155192555655722e+02 -4.7404180882869085e-01 0.0000000000000000e+00  -9.8740725901569732e+01 -4.6303748700671432e-01 0.0000000000000000e+00  -9.5995250269579628e+01 -4.5213439907101527e-01 0.0000000000000000e+00  -9.3314877564282966e+01 -4.4133708264609872e-01 0.0000000000000000e+00  -9.0698960086673623e+01 -4.3064986754573831e-01 0.0000000000000000e+00  -8.8146824784458630e+01 -4.2007687497017215e-01 0.0000000000000000e+00  -8.5657774505358447e+01 -4.0962201699435136e-01 0.0000000000000000e+00  -8.3231089252568012e+01 -3.9928899637896653e-01 0.0000000000000000e+00  -8.0866027440526423e+01 -3.8908130664640483e-01 0.0000000000000000e+00  -7.8561827149325524e+01 -3.7900223245968290e-01 0.0000000000000000e+00  -7.6317707376089913e+01 -3.6905485024768947e-01 0.0000000000000000e+00  -7.4132869281714932e+01 -3.5924202911466929e-01 0.0000000000000000e+00  -7.2006497431458683e+01 -3.4956643200137905e-01 0.0000000000000000e+00  -6.9937761027895391e+01 -3.4003051705538989e-01 0.0000000000000000e+00  -6.7925815134894862e+01 -3.3063653926253128e-01 0.0000000000000000e+00  -6.5969801891147142e+01 -3.2138655226940227e-01 0.0000000000000000e+00  -6.4068851712151144e+01 -3.1228241043641852e-01 0.0000000000000000e+00  -6.2222084479351544e+01 -3.0332577106367387e-01 0.0000000000000000e+00  -6.0428610715299165e+01 -2.9451809679628282e-01 0.0000000000000000e+00  -5.8687532743836670e+01 -2.8586065823547530e-01 0.0000000000000000e+00  -5.6997945834260420e+01 -2.7735453666582988e-01 0.0000000000000000e+00  -5.5358939328557270e+01 -2.6900062695302979e-01 0.0000000000000000e+00  -5.3769597750851851e+01 -2.6079964058294708e-01 0.0000000000000000e+00  -5.2229001898276437e+01 -2.5275210881154186e-01 0.0000000000000000e+00  -5.0736229912547074e+01 -2.4485838595467690e-01 0.0000000000000000e+00  -4.9290358331570197e+01 -2.3711865274381796e-01 0.0000000000000000e+00  -4.7890463120493635e+01 -2.2953291981620333e-01 0.0000000000000000e+00  -4.6535620681657711e+01 -2.2210103126814668e-01 0.0000000000000000e+00  -4.5224908842996911e+01 -2.1482266827812224e-01 0.0000000000000000e+00  -4.3957407824433893e+01 -2.0769735281414720e-01 0.0000000000000000e+00  -4.2732201181965110e+01 -2.0072445137634382e-01 0.0000000000000000e+00  -4.1548376729072729e+01 -1.9390317879180941e-01 0.0000000000000000e+00  -4.0405027435272189e+01 -1.8723260204720535e-01 0.0000000000000000e+00  -3.9301252301568212e+01 -1.8071164416079694e-01 0.0000000000000000e+00  -3.8236157212668090e+01 -1.7433908804298726e-01 0.0000000000000000e+00  -3.7208855765874688e+01 -1.6811358041079436e-01 0.0000000000000000e+00  -3.6218470076587195e+01 -1.6203363567626561e-01 0.0000000000000000e+00  -3.5264131560407030e+01 -1.5609763983683297e-01 0.0000000000000000e+00  -3.4344981691903214e+01 -1.5030385436056540e-01 0.0000000000000000e+00  -3.3460172740091664e+01 -1.4465042004527351e-01 0.0000000000000000e+00  -3.2608868480766915e+01 -1.3913536082964381e-01 0.0000000000000000e+00  -3.1790244885898346e+01 -1.3375658756628200e-01 0.0000000000000000e+00  -3.1003490790337747e+01 -1.2851190168102136e-01 0.0000000000000000e+00  -3.0247808536236814e+01 -1.2339899869158175e-01 0.0000000000000000e+00  -2.9522414595782209e+01 -1.1841547145060664e-01 0.0000000000000000e+00  -2.8826540173179602e+01 -1.1355881293256662e-01 0.0000000000000000e+00  -2.8159431787509511e+01 -1.0882641815165700e-01 0.0000000000000000e+00  -2.7520351839228947e+01 -1.0421558451019153e-01 0.0000000000000000e+00  -2.6908579165461077e+01 -9.9723509188919340e-02 0.0000000000000000e+00  -2.6323409593367792e+01 -9.5347280979725016e-02 0.0000000000000000e+00  -2.5764156509136818e+01 -9.1083861674127894e-02 0.0000000000000000e+00  -2.5230151475368523e+01 -8.6930047647233971e-02 0.0000000000000000e+00  -2.4720744958679774e+01 -8.2882394072761295e-02 0.0000000000000000e+00  -2.4235307284411324e+01 -7.8937068260262172e-02 0.0000000000000000e+00  -2.3773230039430047e+01 -7.5089568961079212e-02 0.0000000000000000e+00  -2.3333928341383224e+01 -7.1334191646427014e-02 0.0000000000000000e+00  -2.2916844766588596e+01 -6.7663012756540061e-02 0.0000000000000000e+00  -2.2521456436995717e+01 -6.4063962646910486e-02 0.0000000000000000e+00  -2.2147288108100437e+01 -6.0517172326784656e-02 0.0000000000000000e+00  -2.1793936641494781e+01 -5.6988049958105011e-02 0.0000000000000000e+00  -2.1461117061126089e+01 -5.3414161914561289e-02 0.0000000000000000e+00  -2.1148749517423543e+01 -4.9680375393671233e-02 0.0000000000000000e+00  -2.0857123779046592e+01 -4.5571755917979920e-02 0.0000000000000000e+00  -2.0587210682458476e+01 -4.0684293254885553e-02 0.0000000000000000e+00  -2.0341252243602426e+01 -3.4255615515634774e-02 0.0000000000000000e+00  -2.0123880909793957e+01 -2.4843669182024852e-02 0.0000000000000000e+00  -1.9944244546068255e+01 -9.7155180560265942e-03 0.0000000000000000e+00  -1.9820057767453310e+01 1.6319614405106504e-02 0.0000000000000000e+00  -1.9785336647237646e+01 6.3159599842347397e-02 0.0000000000000000e+00  -1.9905510538918797e+01 1.4979565622624175e-01 0.0000000000000000e+00  -2.0306528914925828e+01 3.1325837732801043e-01 0.0000000000000000e+00  -2.1239037463850202e+01 6.2697760029417060e-01 0.0000000000000000e+00  -2.3194642182557210e+01 1.2477259239712217e+00 0.0000000000000000e+00  -2.7319115301983690e+01 2.5056889820732628e+00 0.0000000000000000e+00  -3.5791400898213816e+01 5.3625996143011658e+00 0.0000000000000000e+00  -5.6263555839492220e+01 1.1436700838448530e+01 0.0000000000000000e+00  -9.9087278221109131e+01 3.0690554771598837e+01 0.0000000000000000e+00  -1.8183689385917697e+02 4.7056448293888756e+01 0.0000000000000000e+00  -3.0714647522292921e+02 8.4088282236515226e+01 0.0000000000000000e+00  -3.7771289833354626e+02 7.5249449546574155e+01 0.0000000000000000e+00  -4.5915962546500049e+02 1.0982831290136266e-05 0.0000000000000000e+00  -4.5484192251821065e+02 1.0977470332604767e-05 0.0000000000000000e+00  -4.4836727759774544e+02 1.0961380432594239e-05 0.0000000000000000e+00  -4.4189684699929495e+02 1.0934625044858147e-05 0.0000000000000000e+00  -4.3543273274261026e+02 1.0897234396574406e-05 0.0000000000000000e+00  -4.2897703068759222e+02 1.0849231117779707e-05 0.0000000000000000e+00  -4.2253182849687005e+02 1.0790748109195308e-05 0.0000000000000000e+00  -4.1609920361211874e+02 1.0721859287583402e-05 0.0000000000000000e+00  -4.0968122124734464e+02 1.0642680827806803e-05 0.0000000000000000e+00  -4.0327993240250657e+02 1.0553341403838858e-05 0.0000000000000000e+00  -3.9689737190045167e+02 1.0454014274609945e-05 0.0000000000000000e+00  -3.9053555645088835e+02 1.0344814967991618e-05 0.0000000000000000e+00  -3.8419648274401231e+02 1.0225953524914393e-05 0.0000000000000000e+00  -3.7788212557719942e+02 1.0097625315231937e-05 0.0000000000000000e+00  -3.7159443601738383e+02 9.9600317827724312e-06 0.0000000000000000e+00  -3.6533533960270080e+02 9.8134017283161511e-06 0.0000000000000000e+00  -3.5910673458516527e+02 9.6579608511293547e-06 0.0000000000000000e+00  -3.5291049021812825e+02 9.4939801006975819e-06 0.0000000000000000e+00  -3.4674844509038456e+02 9.3217014273550375e-06 0.0000000000000000e+00  -3.4062240550991282e+02 9.1414165591589431e-06 0.0000000000000000e+00  -3.3453414393914795e+02 8.9534091381289824e-06 0.0000000000000000e+00  -3.2848539748443147e+02 8.7579815250256063e-06 0.0000000000000000e+00  -3.2247786644169776e+02 8.5554221470386665e-06 0.0000000000000000e+00  -3.1651321290011811e+02 8.3460799228688307e-06 0.0000000000000000e+00  -3.1059305940591321e+02 8.1302499938691270e-06 0.0000000000000000e+00  -3.0471898768791380e+02 7.9082833204625018e-06 0.0000000000000000e+00  -2.9889253744635835e+02 7.6805054350352212e-06 0.0000000000000000e+00  -2.9311520520665078e+02 7.4472858202637479e-06 0.0000000000000000e+00  -2.8738844323897831e+02 7.2089694637023222e-06 0.0000000000000000e+00  -2.8171365854540198e+02 6.9659098111828327e-06 0.0000000000000000e+00  -2.7609221191506293e+02 6.7184666567523875e-06 0.0000000000000000e+00  -2.7052541704851251e+02 6.4670060021598644e-06 0.0000000000000000e+00  -2.6501453975193510e+02 6.2119034827727900e-06 0.0000000000000000e+00  -2.5956079720175052e+02 5.9535249233371137e-06 0.0000000000000000e+00  -2.5416535727998746e+02 5.6922401617147990e-06 0.0000000000000000e+00  -2.4882933798078827e+02 5.4284251373261335e-06 0.0000000000000000e+00  -2.4355380688809316e+02 5.1624388302305551e-06 0.0000000000000000e+00  -2.3833978072460980e+02 4.8946635725983884e-06 0.0000000000000000e+00  -2.3318822497170081e+02 4.6254547991240345e-06 0.0000000000000000e+00  -2.2810005356014560e+02 4.3551835763509706e-06 0.0000000000000000e+00  -2.2307612863110336e+02 4.0842195201244320e-06 0.0000000000000000e+00  -2.1811726036694947e+02 3.8129045314064979e-06 0.0000000000000000e+00  -2.1322420689107102e+02 3.5416058336101394e-06 0.0000000000000000e+00  -2.0839767423597340e+02 3.2706596499872592e-06 0.0000000000000000e+00  -2.0363831637863015e+02 3.0004199857170224e-06 0.0000000000000000e+00  -1.9894673534218705e+02 2.7312153291451842e-06 0.0000000000000000e+00  -1.9432348136262652e+02 2.4633731134151310e-06 0.0000000000000000e+00  -1.8976905311931924e+02 2.1972199259200667e-06 0.0000000000000000e+00  -1.8528389802798461e+02 1.9330643857651842e-06 0.0000000000000000e+00  -1.8086841259460735e+02 1.6712164343686223e-06 0.0000000000000000e+00  -1.7652294282877756e+02 1.4119670849805279e-06 0.0000000000000000e+00  -1.7224778471472533e+02 1.1556094812620453e-06 0.0000000000000000e+00  -1.6804318473841377e+02 9.0241728599072018e-07 0.0000000000000000e+00  -1.6390934046885988e+02 6.5266231376380116e-07 0.0000000000000000e+00  -1.5984640119172136e+02 4.0659265718507029e-07 0.0000000000000000e+00  -1.5585446859341144e+02 1.6446232511435418e-07 0.0000000000000000e+00  -1.5193359749349261e+02 -7.3488447327230595e-08 0.0000000000000000e+00  -1.4808379662361631e+02 -3.0704485504378659e-07 0.0000000000000000e+00  -1.4430502945061039e+02 -5.3598406002607509e-07 0.0000000000000000e+00  -1.4059721504185447e+02 -7.6010769255318810e-07 0.0000000000000000e+00  -1.3696022897064768e+02 -9.7921996197113510e-07 0.0000000000000000e+00  -1.3339390425940491e+02 -1.1931450285806380e-06 0.0000000000000000e+00  -1.2989803235856274e+02 -1.4017199001879192e-06 0.0000000000000000e+00  -1.2647236415889988e+02 -1.6047711097847459e-06 0.0000000000000000e+00  -1.2311661103509061e+02 -1.8021699638865770e-06 0.0000000000000000e+00  -1.1983044591826855e+02 -1.9937738969565433e-06 0.0000000000000000e+00  -1.1661350439536712e+02 -2.1794631853504224e-06 0.0000000000000000e+00  -1.1346538583307489e+02 -2.3591277614970298e-06 0.0000000000000000e+00  -1.1038565452413289e+02 -2.5326651493151141e-06 0.0000000000000000e+00  -1.0737384085383850e+02 -2.6999910264693264e-06 0.0000000000000000e+00  -1.0442944248463580e+02 -2.8610222942931877e-06 0.0000000000000000e+00  -1.0155192555655897e+02 -3.0156988641785206e-06 0.0000000000000000e+00  -9.8740725901567558e+01 -3.1639606107243387e-06 0.0000000000000000e+00  -9.5995250269581234e+01 -3.3057659120868278e-06 0.0000000000000000e+00  -9.3314877564283861e+01 -3.4410737997088657e-06 0.0000000000000000e+00  -9.0698960086674049e+01 -3.5698631558494586e-06 0.0000000000000000e+00  -8.8146824784457962e+01 -3.6921149715428308e-06 0.0000000000000000e+00  -8.5657774505358475e+01 -3.8078247538812549e-06 0.0000000000000000e+00  -8.3231089252567386e+01 -3.9169969129308847e-06 0.0000000000000000e+00  -8.0866027440525855e+01 -4.0196422277282150e-06 0.0000000000000000e+00  -7.8561827149327527e+01 -4.1157789129228731e-06 0.0000000000000000e+00  -7.6317707376090269e+01 -4.2054363492401999e-06 0.0000000000000000e+00  -7.4132869281714719e+01 -4.2886522119616108e-06 0.0000000000000000e+00  -7.2006497431456935e+01 -4.3654643893169888e-06 0.0000000000000000e+00  -6.9937761027896300e+01 -4.4359288341388435e-06 0.0000000000000000e+00  -6.7925815134895032e+01 -4.5001008636005961e-06 0.0000000000000000e+00  -6.5969801891145991e+01 -4.5580445816397784e-06 0.0000000000000000e+00  -6.4068851712152309e+01 -4.6098309630267350e-06 0.0000000000000000e+00  -6.2222084479351146e+01 -4.6555334465113378e-06 0.0000000000000000e+00  -6.0428610715297459e+01 -4.6952342238003196e-06 0.0000000000000000e+00  -5.8687532743836584e+01 -4.7290188037590792e-06 0.0000000000000000e+00  -5.6997945834261955e+01 -4.7569776970156568e-06 0.0000000000000000e+00  -5.5358939328558641e+01 -4.7792058095523368e-06 0.0000000000000000e+00  -5.3769597750850878e+01 -4.7958013954914409e-06 0.0000000000000000e+00  -5.2229001898275897e+01 -4.8068673555827391e-06 0.0000000000000000e+00  -5.0736229912547266e+01 -4.8125074879655361e-06 0.0000000000000000e+00  -4.9290358331570054e+01 -4.8128329273322118e-06 0.0000000000000000e+00  -4.7890463120494395e+01 -4.8079544660687640e-06 0.0000000000000000e+00  -4.6535620681658102e+01 -4.7979840710188380e-06 0.0000000000000000e+00  -4.5224908842994694e+01 -4.7830366774828687e-06 0.0000000000000000e+00  -4.3957407824433645e+01 -4.7632312933137218e-06 0.0000000000000000e+00  -4.2732201181963639e+01 -4.7386858038137042e-06 0.0000000000000000e+00  -4.1548376729068423e+01 -4.7095173508327240e-06 0.0000000000000000e+00  -4.0405027435266170e+01 -4.6758448445425566e-06 0.0000000000000000e+00  -3.9301252301557099e+01 -4.6377898108594547e-06 0.0000000000000000e+00  -3.8236157212644315e+01 -4.5954634019771423e-06 0.0000000000000000e+00  -3.7208855765831643e+01 -4.5489776660898499e-06 0.0000000000000000e+00  -3.6218470076505469e+01 -4.4984301960537797e-06 0.0000000000000000e+00  -3.5264131560252409e+01 -4.4438991785430279e-06 0.0000000000000000e+00  -3.4344981691610997e+01 -4.3854259085204636e-06 0.0000000000000000e+00  -3.3460172739536354e+01 -4.3229730256562115e-06 0.0000000000000000e+00  -3.2608868479714786e+01 -4.2563647262461247e-06 0.0000000000000000e+00  -3.1790244883906215e+01 -4.1851629232944113e-06 0.0000000000000000e+00  -3.1003490786563756e+01 -4.1084238064121075e-06 0.0000000000000000e+00  -3.0247808529087827e+01 -4.0242586427798406e-06 0.0000000000000000e+00  -2.9522414582239385e+01 -3.9289811093246194e-06 0.0000000000000000e+00  -2.8826540147524998e+01 -3.8155043990751764e-06 0.0000000000000000e+00  -2.8159431738907628e+01 -3.6703004018158023e-06 0.0000000000000000e+00  -2.7520351747161861e+01 -3.4676399181522608e-06 0.0000000000000000e+00  -2.6908578991053290e+01 -3.1586852260564708e-06 0.0000000000000000e+00  -2.6323409262975325e+01 -2.6508127594166876e-06 0.0000000000000000e+00  -2.5764155883252332e+01 -1.7684705120746112e-06 0.0000000000000000e+00  -2.5230150289718491e+01 -1.7899904196318463e-07 0.0000000000000000e+00  -2.4720742712632600e+01 2.7478681328652632e-06 0.0000000000000000e+00  -2.4235303029588209e+01 8.2061784493620638e-06 0.0000000000000000e+00  -2.3773221979261915e+01 1.8457974219867257e-05 0.0000000000000000e+00  -2.3333913072516012e