<?xml version="1.0"?>
<VTKFile type="UnstructuredGrid"  version="0.1"  >
<UnstructuredGrid>
<Piece  NumberOfPoints="1656" NumberOfCells="3000">
<Points>
<DataArray  type="Float64"  NumberOfComponents="3"  format="ascii">0 0 0  2 0 0  4 0 0  6 0 0  8 0 0  10 0 0  12 0 0  14 0 0  16 0 0  18 0 0  20 0 0  22 0 0  24 0 0  26 0 0  28 0 0  30 0 0  32 0 0  34 0 0  36 0 0  38 0 0  40 0 0  42 0 0  44 0 0  46 0 0  48 0 0  50 0 0  52 0 0  54 0 0  56 0 0  58 0 0  60 0 0  62 0 0  64 0 0  66 0 0  68 0 0  70 0 0  72 0 0  74 0 0  76 0 0  78 0 0  80 0 0  82 0 0  84 0 0  86 0 0  88 0 0  90 0 0  92 0 0  94 0 0  96 0 0  98 0 0  100 0 0  102 0 0  104 0 0  106 0 0  108 0 0  110 0 0  112 0 0  114 0 0  116 0 0  118 0 0  120 0 0  122 0 0  124 0 0  126 0 0  128 0 0  130 0 0  132 0 0  134 0 0  136 0 0  138 0 0  140 0 0  142 0 0  144 0 0  146 0 0  148 0 0  150 0 0  152 0 0  154 0 0  156 0 0  158 0 0  160 0 0  162 0 0  164 0 0  166 0 0  168 0 0  170 0 0  172 0 0  174 0 0  176 0 0  178 0 0  180 0 0  182 0 0  184 0 0  186 0 0  188 0 0  190 0 0  192 0 0  194 0 0  196 0 0  198 0 0  200 0 0  202 0 0  204 0 0  206 0 0  208 0 0  210 0 0  212 0 0  214 0 0  216 0 0  218 0 0  220 0 0  222 0 0  224 0 0  226 0 0  228 0 0  230 0 0  232 0 0  234 0 0  236 0 0  238 0 0  240 0 0  242 0 0  244 0 0  246 0 0  248 0 0  250 0 0  252 0 0  254 0 0  256 0 0  258 0 0  260 0 0  262 0 0  264 0 0  266 0 0  268 0 0  270 0 0  272 0 0  274 0 0  276 0 0  278 0 0  280 0 0  282 0 0  284 0 0  286 0 0  288 0 0  290 0 0  292 0 0  294 0 0  296 0 0  298 0 0  300 0 0  0 2 0  2 2 0  4 2 0  6 2 0  8 2 0  10 2 0  12 2 0  14 2 0  16 2 0  18 2 0  20 2 0  22 2 0  24 2 0  26 2 0  28 2 0  30 2 0  32 2 0  34 2 0  36 2 0  38 2 0  40 2 0  42 2 0  44 2 0  46 2 0  48 2 0  50 2 0  52 2 0  54 2 0  56 2 0  58 2 0  60 2 0  62 2 0  64 2 0  66 2 0  68 2 0  70 2 0  72 2 0  74 2 0  76 2 0  78 2 0  80 2 0  82 2 0  84 2 0  86 2 0  88 2 0  90 2 0  92 2 0  94 2 0  96 2 0  98 2 0  100 2 0  102 2 0  104 2 0  106 2 0  108 2 0  110 2 0  112 2 0  114 2 0  116 2 0  118 2 0  120 2 0  122 2 0  124 2 0  126 2 0  128 2 0  130 2 0  132 2 0  134 2 0  136 2 0  138 2 0  140 2 0  142 2 0  144 2 0  146 2 0  148 2 0  150 2 0  152 2 0  154 2 0  156 2 0  158 2 0  160 2 0  162 2 0  164 2 0  166 2 0  168 2 0  170 2 0  172 2 0  174 2 0  176 2 0  178 2 0  180 2 0  182 2 0  184 2 0  186 2 0  188 2 0  190 2 0  192 2 0  194 2 0  196 2 0  198 2 0  200 2 0  202 2 0  204 2 0  206 2 0  208 2 0  210 2 0  212 2 0  214 2 0  216 2 0  218 2 0  220 2 0  222 2 0  224 2 0  226 2 0  228 2 0  230 2 0  232 2 0  234 2 0  236 2 0  238 2 0  240 2 0  242 2 0  244 2 0  246 2 0  248 2 0  250 2 0  252 2 0  254 2 0  256 2 0  258 2 0  260 2 0  262 2 0  264 2 0  266 2 0  268 2 0  270 2 0  272 2 0  274 2 0  276 2 0  278 2 0  280 2 0  282 2 0  284 2 0  286 2 0  288 2 0  290 2 0  292 2 0  294 2 0  296 2 0  298 2 0  300 2 0  0 4 0  2 4 0  4 4 0  6 4 0  8 4 0  10 4 0  12 4 0  14 4 0  16 4 0  18 4 0  20 4 0  22 4 0  24 4 0  26 4 0  28 4 0  30 4 0  32 4 0  34 4 0  36 4 0  38 4 0  40 4 0  42 4 0  44 4 0  46 4 0  48 4 0  50 4 0  52 4 0  54 4 0  56 4 0  58 4 0  60 4 0  62 4 0  64 4 0  66 4 0  68 4 0  70 4 0  72 4 0  74 4 0  76 4 0  78 4 0  80 4 0  82 4 0  84 4 0  86 4 0  88 4 0  90 4 0  92 4 0  94 4 0  96 4 0  98 4 0  100 4 0  102 4 0  104 4 0  106 4 0  108 4 0  110 4 0  112 4 0  114 4 0  116 4 0  118 4 0  120 4 0  122 4 0  124 4 0  126 4 0  128 4 0  130 4 0  132 4 0  134 4 0  136 4 0  138 4 0  140 4 0  142 4 0  144 4 0  146 4 0  148 4 0  150 4 0  152 4 0  154 4 0  156 4 0  158 4 0  160 4 0  162 4 0  164 4 0  166 4 0  168 4 0  170 4 0  172 4 0  174 4 0  176 4 0  178 4 0  180 4 0  182 4 0  184 4 0  186 4 0  188 4 0  190 4 0  192 4 0  194 4 0  196 4 0  198 4 0  200 4 0  202 4 0  204 4 0  206 4 0  208 4 0  210 4 0  212 4 0  214 4 0  216 4 0  218 4 0  220 4 0  222 4 0  224 4 0  226 4 0  228 4 0  230 4 0  232 4 0  234 4 0  236 4 0  238 4 0  240 4 0  242 4 0  244 4 0  246 4 0  248 4 0  250 4 0  252 4 0  254 4 0  256 4 0  258 4 0  260 4 0  262 4 0  264 4 0  266 4 0  268 4 0  270 4 0  272 4 0  274 4 0  276 4 0  278 4 0  280 4 0  282 4 0  284 4 0  286 4 0  288 4 0  290 4 0  292 4 0  294 4 0  296 4 0  298 4 0  300 4 0  0 6 0  2 6 0  4 6 0  6 6 0  8 6 0  10 6 0  12 6 0  14 6 0  16 6 0  18 6 0  20 6 0  22 6 0  24 6 0  26 6 0  28 6 0  30 6 0  32 6 0  34 6 0  36 6 0  38 6 0  40 6 0  42 6 0  44 6 0  46 6 0  48 6 0  50 6 0  52 6 0  54 6 0  56 6 0  58 6 0  60 6 0  62 6 0  64 6 0  66 6 0  68 6 0  70 6 0  72 6 0  74 6 0  76 6 0  78 6 0  80 6 0  82 6 0  84 6 0  86 6 0  88 6 0  90 6 0  92 6 0  94 6 0  96 6 0  98 6 0  100 6 0  102 6 0  104 6 0  106 6 0  108 6 0  110 6 0  112 6 0  114 6 0  116 6 0  118 6 0  120 6 0  122 6 0  124 6 0  126 6 0  128 6 0  130 6 0  132 6 0  134 6 0  136 6 0  138 6 0  140 6 0  142 6 0  144 6 0  146 6 0  148 6 0  150 6 0  152 6 0  154 6 0  156 6 0  158 6 0  160 6 0  162 6 0  164 6 0  166 6 0  168 6 0  170 6 0  172 6 0  174 6 0  176 6 0  178 6 0  180 6 0  182 6 0  184 6 0  186 6 0  188 6 0  190 6 0  192 6 0  194 6 0  196 6 0  198 6 0  200 6 0  202 6 0  204 6 0  206 6 0  208 6 0  210 6 0  212 6 0  214 6 0  216 6 0  218 6 0  220 6 0  222 6 0  224 6 0  226 6 0  228 6 0  230 6 0  232 6 0  234 6 0  236 6 0  238 6 0  240 6 0  242 6 0  244 6 0  246 6 0  248 6 0  250 6 0  252 6 0  254 6 0  256 6 0  258 6 0  260 6 0  262 6 0  264 6 0  266 6 0  268 6 0  270 6 0  272 6 0  274 6 0  276 6 0  278 6 0  280 6 0  282 6 0  284 6 0  286 6 0  288 6 0  290 6 0  292 6 0  294 6 0  296 6 0  298 6 0  300 6 0  0 8 0  2 8 0  4 8 0  6 8 0  8 8 0  10 8 0  12 8 0  14 8 0  16 8 0  18 8 0  20 8 0  22 8 0  24 8 0  26 8 0  28 8 0  30 8 0  32 8 0  34 8 0  36 8 0  38 8 0  40 8 0  42 8 0  44 8 0  46 8 0  48 8 0  50 8 0  52 8 0  54 8 0  56 8 0  58 8 0  60 8 0  62 8 0  64 8 0  66 8 0  68 8 0  70 8 0  72 8 0  74 8 0  76 8 0  78 8 0  80 8 0  82 8 0  84 8 0  86 8 0  88 8 0  90 8 0  92 8 0  94 8 0  96 8 0  98 8 0  100 8 0  102 8 0  104 8 0  106 8 0  108 8 0  110 8 0  112 8 0  114 8 0  116 8 0  118 8 0  120 8 0  122 8 0  124 8 0  126 8 0  128 8 0  130 8 0  132 8 0  134 8 0  136 8 0  138 8 0  140 8 0  142 8 0  144 8 0  146 8 0  148 8 0  150 8 0  152 8 0  154 8 0  156 8 0  158 8 0  160 8 0  162 8 0  164 8 0  166 8 0  168 8 0  170 8 0  172 8 0  174 8 0  176 8 0  178 8 0  180 8 0  182 8 0  184 8 0  186 8 0  188 8 0  190 8 0  192 8 0  194 8 0  196 8 0  198 8 0  200 8 0  202 8 0  204 8 0  206 8 0  208 8 0  210 8 0  212 8 0  214 8 0  216 8 0  218 8 0  220 8 0  222 8 0  224 8 0  226 8 0  228 8 0  230 8 0  232 8 0  234 8 0  236 8 0  238 8 0  240 8 0  242 8 0  244 8 0  246 8 0  248 8 0  250 8 0  252 8 0  254 8 0  256 8 0  258 8 0  260 8 0  262 8 0  264 8 0  266 8 0  268 8 0  270 8 0  272 8 0  274 8 0  276 8 0  278 8 0  280 8 0  282 8 0  284 8 0  286 8 0  288 8 0  290 8 0  292 8 0  294 8 0  296 8 0  298 8 0  300 8 0  0 10 0  2 10 0  4 10 0  6 10 0  8 10 0  10 10 0  12 10 0  14 10 0  16 10 0  18 10 0  20 10 0  22 10 0  24 10 0  26 10 0  28 10 0  30 10 0  32 10 0  34 10 0  36 10 0  38 10 0  40 10 0  42 10 0  44 10 0  46 10 0  48 10 0  50 10 0  52 10 0  54 10 0  56 10 0  58 10 0  60 10 0  62 10 0  64 10 0  66 10 0  68 10 0  70 10 0  72 10 0  74 10 0  76 10 0  78 10 0  80 10 0  82 10 0  84 10 0  86 10 0  88 10 0  90 10 0  92 10 0  94 10 0  96 10 0  98 10 0  100 10 0  102 10 0  104 10 0  106 10 0  108 10 0  110 10 0  112 10 0  114 10 0  116 10 0  118 10 0  120 10 0  122 10 0  124 10 0  126 10 0  128 10 0  130 10 0  132 10 0  134 10 0  136 10 0  138 10 0  140 10 0  142 10 0  144 10 0  146 10 0  148 10 0  150 10 0  152 10 0  154 10 0  156 10 0  158 10 0  160 10 0  162 10 0  164 10 0  166 10 0  168 10 0  170 10 0  172 10 0  174 10 0  176 10 0  178 10 0  180 10 0  182 10 0  184 10 0  186 10 0  188 10 0  190 10 0  192 10 0  194 10 0  196 10 0  198 10 0  200 10 0  202 10 0  204 10 0  206 10 0  208 10 0  210 10 0  212 10 0  214 10 0  216 10 0  218 10 0  220 10 0  222 10 0  224 10 0  226 10 0  228 10 0  230 10 0  232 10 0  234 10 0  236 10 0  238 10 0  240 10 0  242 10 0  244 10 0  246 10 0  248 10 0  250 10 0  252 10 0  254 10 0  256 10 0  258 10 0  260 10 0  262 10 0  264 10 0  266 10 0  268 10 0  270 10 0  272 10 0  274 10 0  276 10 0  278 10 0  280 10 0  282 10 0  284 10 0  286 10 0  288 10 0  290 10 0  292 10 0  294 10 0  296 10 0  298 10 0  300 10 0  1 1 0  3 1 0  5 1 0  7 1 0  9 1 0  11 1 0  13 1 0  15 1 0  17 1 0  19 1 0  21 1 0  23 1 0  25 1 0  27 1 0  29 1 0  31 1 0  33 1 0  35 1 0  37 1 0  39 1 0  41 1 0  43 1 0  45 1 0  47 1 0  49 1 0  51 1 0  53 1 0  55 1 0  57 1 0  59 1 0  61 1 0  63 1 0  65 1 0  67 1 0  69 1 0  71 1 0  73 1 0  75 1 0  77 1 0  79 1 0  81 1 0  83 1 0  85 1 0  87 1 0  89 1 0  91 1 0  93 1 0  95 1 0  97 1 0  99 1 0  101 1 0  103 1 0  105 1 0  107 1 0  109 1 0  111 1 0  113 1 0  115 1 0  117 1 0  119 1 0  121 1 0  123 1 0  125 1 0  127 1 0  129 1 0  131 1 0  133 1 0  135 1 0  137 1 0  139 1 0  141 1 0  143 1 0  145 1 0  147 1 0  149 1 0  151 1 0  153 1 0  155 1 0  157 1 0  159 1 0  161 1 0  163 1 0  165 1 0  167 1 0  169 1 0  171 1 0  173 1 0  175 1 0  177 1 0  179 1 0  181 1 0  183 1 0  185 1 0  187 1 0  189 1 0  191 1 0  193 1 0  195 1 0  197 1 0  199 1 0  201 1 0  203 1 0  205 1 0  207 1 0  209 1 0  211 1 0  213 1 0  215 1 0  217 1 0  219 1 0  221 1 0  223 1 0  225 1 0  227 1 0  229 1 0  231 1 0  233 1 0  235 1 0  237 1 0  239 1 0  241 1 0  243 1 0  245 1 0  247 1 0  249 1 0  251 1 0  253 1 0  255 1 0  257 1 0  259 1 0  261 1 0  263 1 0  265 1 0  267 1 0  269 1 0  271 1 0  273 1 0  275 1 0  277 1 0  279 1 0  281 1 0  283 1 0  285 1 0  287 1 0  289 1 0  291 1 0  293 1 0  295 1 0  297 1 0  299 1 0  1 3 0  3 3 0  5 3 0  7 3 0  9 3 0  11 3 0  13 3 0  15 3 0  17 3 0  19 3 0  21 3 0  23 3 0  25 3 0  27 3 0  29 3 0  31 3 0  33 3 0  35 3 0  37 3 0  39 3 0  41 3 0  43 3 0  45 3 0  47 3 0  49 3 0  51 3 0  53 3 0  55 3 0  57 3 0  59 3 0  61 3 0  63 3 0  65 3 0  67 3 0  69 3 0  71 3 0  73 3 0  75 3 0  77 3 0  79 3 0  81 3 0  83 3 0  85 3 0  87 3 0  89 3 0  91 3 0  93 3 0  95 3 0  97 3 0  99 3 0  101 3 0  103 3 0  105 3 0  107 3 0  109 3 0  111 3 0  113 3 0  115 3 0  117 3 0  119 3 0  121 3 0  123 3 0  125 3 0
[...]
<PointData  Vectors="flow"> 
<DataArray  type="Float64"  Name="flow"  NumberOfComponents="3" format="ascii">-4.5954434261710094e+02 -8.8716593980680325e-01 0.0000000000000000e+00  -4.5599589936375907e+02 -8.8706743444679315e-01 0.0000000000000000e+00  -4.5067430501827459e+02 -8.8677198332383034e-01 0.0000000000000000e+00  -4.4535507373394319e+02 -8.8627978080735259e-01 0.0000000000000000e+00  -4.4003938509777288e+02 -8.8559115066615379e-01 0.0000000000000000e+00  -4.3472841636700258e+02 -8.8470654566661722e-01 0.0000000000000000e+00  -4.2942334169669937e+02 -8.8362654701062804e-01 0.0000000000000000e+00  -4.2412533137074570e+02 -8.8235186377874708e-01 0.0000000000000000e+00  -4.1883555103737501e+02 -8.8088333203000979e-01 0.0000000000000000e+00  -4.1355516094983869e+02 -8.7922191384281312e-01 0.0000000000000000e+00  -4.0828531521331917e+02 -8.7736869640020232e-01 0.0000000000000000e+00  -4.0302716103880584e+02 -8.7532489043731299e-01 0.0000000000000000e+00  -3.9778183800456793e+02 -8.7309182918738493e-01 0.0000000000000000e+00  -3.9255047732668334e+02 -8.7067096674320132e-01 0.0000000000000000e+00  -3.8733420113861052e+02 -8.6806387626443904e-01 0.0000000000000000e+00  -3.8213412178110627e+02 -8.6527224850713425e-01 0.0000000000000000e+00  -3.7695134110346703e+02 -8.6229788976267374e-01 0.0000000000000000e+00  -3.7178694977610769e+02 -8.5914271964143396e-01 0.0000000000000000e+00  -3.6664202661596113e+02 -8.5580876941971706e-01 0.0000000000000000e+00  -3.6151763792519017e+02 -8.5229817923360807e-01 0.0000000000000000e+00  -3.5641483684366142e+02 -8.4861319593779860e-01 0.0000000000000000e+00  -3.5133466271631335e+02 -8.4475617068120634e-01 0.0000000000000000e+00  -3.4627814047579739e+02 -8.4072955612805056e-01 0.0000000000000000e+00  -3.4124628004086765e+02 -8.3653590378491338e-01 0.0000000000000000e+00  -3.3624007573193069e+02 -8.3217786133474558e-01 0.0000000000000000e+00  -3.3126050570304415e+02 -8.2765816943957826e-01 0.0000000000000000e+00  -3.2630853139242447e+02 -8.2297965900840186e-01 0.0000000000000000e+00  -3.2138509699083124e+02 -8.1814524789272425e-01 0.0000000000000000e+00  -3.1649112892883988e+02 -8.1315793783061119e-01 0.0000000000000000e+00  -3.1162753538353263e+02 -8.0802081117155633e-01 0.0000000000000000e+00  -3.0679520580497433e+02 -8.0273702750830656e-01 0.0000000000000000e+00  -3.0199501046289271e+02 -7.9730982025676023e-01 0.0000000000000000e+00  -2.9722780001394597e+02 -7.9174249316110423e-01 0.0000000000000000e+00  -2.9249440509013129e+02 -7.8603841697130983e-01 0.0000000000000000e+00  -2.8779563590830503e+02 -7.8020102547003312e-01 0.0000000000000000e+00  -2.8313228190178046e+02 -7.7423381233400135e-01 0.0000000000000000e+00  -2.7850511137351378e+02 -7.6814032686643863e-01 0.0000000000000000e+00  -2.7391487117163194e+02 -7.6192417079934671e-01 0.0000000000000000e+00  -2.6936228638759701e+02 -7.5558899418028780e-01 0.0000000000000000e+00  -2.6484806007674251e+02 -7.4913849181945469e-01 0.0000000000000000e+00  -2.6037287300184721e+02 -7.4257639933124964e-01 0.0000000000000000e+00  -2.5593738339952893e+02 -7.3590648925727453e-01 0.0000000000000000e+00  -2.5154222676976542e+02 -7.2913256742269550e-01 0.0000000000000000e+00  -2.4718801568857901e+02 -7.2225846890614032e-01 0.0000000000000000e+00  -2.4287533964384886e+02 -7.1528805414390395e-01 0.0000000000000000e+00  -2.3860476489435342e+02 -7.0822520522553178e-01 0.0000000000000000e+00  -2.3437683435199335e+02 -7.0107382184613887e-01 0.0000000000000000e+00  -2.3019206748721007e+02 -6.9383781765758501e-01 0.0000000000000000e+00  -2.2605096025743549e+02 -6.8652111620055134e-01 0.0000000000000000e+00  -2.2195398505844497e+02 -6.7912764728395125e-01 0.0000000000000000e+00  -2.1790159069886295e+02 -6.7166134302556657e-01 0.0000000000000000e+00  -2.1389420239691506e+02 -6.6412613427230893e-01 0.0000000000000000e+00  -2.0993222180014124e+02 -6.5652594661831654e-01 0.0000000000000000e+00  -2.0601602702711082e+02 -6.4886469693786109e-01 0.0000000000000000e+00  -2.0214597273133077e+02 -6.4114628960050923e-01 0.0000000000000000e+00  -1.9832239018705727e+02 -6.3337461288622088e-01 0.0000000000000000e+00  -1.9454558739651623e+02 -6.2555353539022041e-01 0.0000000000000000e+00  -1.9081584921838248e+02 -6.1768690255241532e-01 0.0000000000000000e+00  -1.8713343751725267e+02 -6.0977853321380482e-01 0.0000000000000000e+00  -1.8349859133362276e+02 -6.0183221613755888e-01 0.0000000000000000e+00  -1.7991152707401531e+02 -5.9385170676004506e-01 0.0000000000000000e+00  -1.7637243872095925e+02 -5.8584072391183761e-01 0.0000000000000000e+00  -1.7288149806238053e+02 -5.7780294657265374e-01 0.0000000000000000e+00  -1.6943885493985360e+02 -5.6974201080035314e-01 0.0000000000000000e+00  -1.6604463751544338e+02 -5.6166150663431391e-01 0.0000000000000000e+00  -1.6269895255662431e+02 -5.5356497523102233e-01 0.0000000000000000e+00  -1.5940188573865055e+02 -5.4545590577414904e-01 0.0000000000000000e+00  -1.5615350196411839e+02 -5.3733773294513376e-01 0.0000000000000000e+00  -1.5295384569900995e+02 -5.2921383394263599e-01 0.0000000000000000e+00  -1.4980294132487242e+02 -5.2108752604141673e-01 0.0000000000000000e+00  -1.4670079350637872e+02 -5.1296206392762977e-01 0.0000000000000000e+00  -1.4364738757402250e+02 -5.0484063733981432e-01 0.0000000000000000e+00  -1.4064268992103831e+02 -4.9672636864823816e-01 0.0000000000000000e+00  -1.3768664841434824e+02 -4.8862231063800166e-01 0.0000000000000000e+00  -1.3477919281860386e+02 -4.8053144432755601e-01 0.0000000000000000e+00  -1.3192023523308893e+02 -4.7245667693877463e-01 0.0000000000000000e+00  -1.2910967054062721e+02 -4.6440083980884617e-01 0.0000000000000000e+00  -1.2634737686800825e+02 -4.5636668668980079e-01 0.0000000000000000e+00  -1.2363321605734237e+02 -4.4835689185179850e-01 0.0000000000000000e+00  -1.2096703414774387e+02 -4.4037404847163697e-01 0.0000000000000000e+00  -1.1834866186672332e+02 -4.3242066704110899e-01 0.0000000000000000e+00  -1.1577791513061051e+02 -4.2449917394620701e-01 0.0000000000000000e+00  -1.1325459555361260e+02 -4.1661191003309067e-01 0.0000000000000000e+00  -1.1077849096456279e+02 -4.0876112938676212e-01 0.0000000000000000e+00  -1.0834937593112087e+02 -4.0094899818236807e-01 0.0000000000000000e+00  -1.0596701229055373e+02 -3.9317759359208182e-01 0.0000000000000000e+00  -1.0363114968656274e+02 -3.8544890283870126e-01 0.0000000000000000e+00  -1.0134152611161443e+02 -3.7776482234617498e-01 0.0000000000000000e+00  -9.9097868454104656e+01 -3.7012715695266524e-01 0.0000000000000000e+00  -9.6899893049778470e+01 -3.6253761928696754e-01 0.0000000000000000e+00  -9.4747306236808711e+01 -3.5499782917804074e-01 0.0000000000000000e+00  -9.2639804913980200e+01 -3.4750931321334239e-01 0.0000000000000000e+00  -9.0577077101344443e+01 -3.4007350434387584e-01 0.0000000000000000e+00  -8.8558802502813137e+01 -3.3269174163272835e-01 0.0000000000000000e+00  -8.6584653070085153e+01 -3.2536527006142762e-01 0.0000000000000000e+00  -8.4654293567373202e+01 -3.1809524047327153e-01 0.0000000000000000e+00  -8.2767382136398112e+01 -3.1088270954066632e-01 0.0000000000000000e+00  -8.0923570861001920e+01 -3.0372863989855703e-01 0.0000000000000000e+00  -7.9122506331001247e+01 -2.9663390029212378e-01 0.0000000000000000e+00  -7.7363830204585668e+01 -2.8959926587451634e-01 0.0000000000000000e+00  -7.5647179768893409e+01 -2.8262541856630996e-01 0.0000000000000000e+00  -7.3972188498142785e+01 -2.7571294748351910e-01 0.0000000000000000e+00  -7.2338486608868521e+01 -2.6886234947613369e-01 0.0000000000000000e+00  -7.0745701611775360e+01 -2.6207402972620442e-01 0.0000000000000000e+00  -6.9193458859734946e+01 -2.5534830241431711e-01 0.0000000000000000e+00  -6.7681382091428389e+01 -2.4868539152440933e-01 0.0000000000000000e+00  -6.6209093970211939e+01 -2.4208543162088683e-01 0.0000000000000000e+00  -6.4776216617738342e+01 -2.3554846881318514e-01 0.0000000000000000e+00  -6.3382372141950491e+01 -2.2907446168522266e-01 0.0000000000000000e+00  -6.2027183158926533e+01 -2.2266328235281799e-01 0.0000000000000000e+00  -6.0710273308333015e+01 -2.1631471757111903e-01 0.0000000000000000e+00  -5.9431267761974951e+01 -2.1002846988176888e-01 0.0000000000000000e+00  -5.8189793725180962e+01 -2.0380415876426733e-01 0.0000000000000000e+00  -5.6985480930735619e+01 -1.9764132186304206e-01 0.0000000000000000e+00  -5.5817962125161174e+01 -1.9153941607158759e-01 0.0000000000000000e+00  -5.4686873547379903e+01 -1.8549781853079417e-01 0.0000000000000000e+00  -5.3591855400075616e+01 -1.7951582723290524e-01 0.0000000000000000e+00  -5.2532552314678796e+01 -1.7359266089734313e-01 0.0000000000000000e+00  -5.1508613812164171e+01 -1.6772745745057369e-01 0.0000000000000000e+00  -5.0519694763838132e+01 -1.6191926977575333e-01 0.0000000000000000e+00  -4.9565455860586624e+01 -1.5616705617206345e-01 0.0000000000000000e+00  -4.8645564106774415e+01 -1.5046966091001285e-01 0.0000000000000000e+00  -4.7759693369707989e+01 -1.4482577582052097e-01 0.0000000000000000e+00  -4.6907525043566288e+01 -1.3923386603850829e-01 0.0000000000000000e+00  -4.6088748939522006e+01 -1.3369202772561736e-01 0.0000000000000000e+00  -4.5303064614031477e+01 -1.2819771692589679e-01 0.0000000000000000e+00  -4.4550183536967140e+01 -1.2274723428866806e-01 0.0000000000000000e+00  -4.3829832860793061e+01 -1.1733474725945485e-01 0.0000000000000000e+00  -4.3141762232843121e+01 -1.1195043612965618e-01 0.0000000000000000e+00  -4.2485756382711102e+01 -1.0657698026571569e-01 0.0000000000000000e+00  -4.1861658660344766e+01 -1.0118290006485278e-01 0.0000000000000000e+00  -4.1269415329918623e+01 -9.5709942155684818e-02 0.0000000000000000e+00  -4.0709159197019574e+01 -9.0049178776930083e-02 0.0000000000000000e+00  -4.0181367773034566e+01 -8.3995720546976682e-02 0.0000000000000000e+00  -3.9687162720405823e+01 -7.7162886589172447e-02 0.0000000000000000e+00  -3.9228877182404290e+01 -6.8819456379831750e-02 0.0000000000000000e+00  -3.8811131766245978e+01 -5.7580771245871964e-02 0.0000000000000000e+00  -3.8442877282149645e+01 -4.0821183977474904e-02 0.0000000000000000e+00  -3.8141289096023527e+01 -1.3552301129473275e-02 0.0000000000000000e+00  -3.7939201828291338e+01 3.3739064965995172e-02 0.0000000000000000e+00  -3.7899634415814120e+01 1.1930692189544062e-01 0.0000000000000000e+00  -3.8143765791792831e+01 2.7874459322016559e-01 0.0000000000000000e+00  -3.8912614334567174e+01 5.8263077409801889e-01 0.0000000000000000e+00  -4.0678776651233193e+01 1.1816462166041442e+00 0.0000000000000000e+00  -4.4543536329247054e+01 2.3931382470568239e+00 0.0000000000000000e+00  -5.2601103517907490e+01 5.1414075569104378e+00 0.0000000000000000e+00  -7.2205497833843609e+01 1.0981710352222372e+01 0.0000000000000000e+00  -1.1330496739227466e+02 2.9488407709435133e+01 0.0000000000000000e+00  -1.9278794609422340e+02 4.5219765652211883e+01 0.0000000000000000e+00  -3.1318250107466179e+02 8.0810752350570070e+01 0.0000000000000000e+00  -3.8097791262887841e+02 7.2317283151827340e+01 0.0000000000000000e+00  -4.5954434261707752e+02 6.1568226074265612e-06 0.0000000000000000e+00  -4.5599589936374144e+02 6.1548158107929714e-06 0.0000000000000000e+00  -4.5067430501828755e+02 6.1487395961372068e-06 0.0000000000000000e+00  -4.4535507373396240e+02 6.1386219190827640e-06 0.0000000000000000e+00  -4.4003938509776066e+02 6.1244571918476960e-06 0.0000000000000000e+00  -4.3472841636699513e+02 6.1063162256104492e-06 0.0000000000000000e+00  -4.2942334169669027e+02 6.0841530348366761e-06 0.0000000000000000e+00  -4.2412533137075491e+02 6.0580417904125360e-06 0.0000000000000000e+00  -4.1883555103738991e+02 6.0279518644058520e-06 0.0000000000000000e+00  -4.1355516094984063e+02 5.9939737829395955e-06 0.0000000000000000e+00  -4.0828531521333088e+02 5.9561405963557529e-06 0.0000000000000000e+00  -4.0302716103878936e+02 5.9144648535707894e-06 0.0000000000000000e+00  -3.9778183800456338e+02 5.8690305854193367e-06 0.0000000000000000e+00  -3.9255047732668936e+02 5.8198699725970234e-06 0.0000000000000000e+00  -3.8733420113859160e+02 5.7670272759259145e-06 0.0000000000000000e+00  -3.8213412178112998e+02 5.7105762443717897e-06 0.0000000000000000e+00  -3.7695134110346510e+02 5.6505758874803228e-06 0.0000000000000000e+00  -3.7178694977609030e+02 5.5871002897500459e-06 0.0000000000000000e+00  -3.6664202661597091e+02 5.5202155878416780e-06 0.0000000000000000e+00  -3.6151763792517676e+02 5.4499934092727502e-06 0.0000000000000000e+00  -3.5641483684366131e+02 5.3765218590559125e-06 0.0000000000000000e+00  -3.5133466271633500e+02 5.2998599337388500e-06 0.0000000000000000e+00  -3.4627814047578704e+02 5.2201250993606631e-06 0.0000000000000000e+00  -3.4124628004088606e+02 5.1373783972255162e-06 0.0000000000000000e+00  -3.3624007573191062e+02 5.0517179407371928e-06 0.0000000000000000e+00  -3.3126050570303335e+02 4.9632556379824298e-06 0.0000000000000000e+00  -3.2630853139243425e+02 4.8720604892575391e-06 0.0000000000000000e+00  -3.2138509699083738e+02 4.7782546721647085e-06 0.0000000000000000e+00  -3.1649112892883807e+02 4.6819166648289178e-06 0.0000000000000000e+00  -3.1162753538352422e+02 4.5831781420084620e-06 0.0000000000000000e+00  -3.0679520580498536e+02 4.4821308343871098e-06 0.0000000000000000e+00  -3.0199501046289134e+02 4.3788783828806935e-06 0.0000000000000000e+00  -2.9722780001395671e+02 4.2735350734518661e-06 0.0000000000000000e+00  -2.9249440509012027e+02 4.1662174215897480e-06 0.0000000000000000e+00  -2.8779563590830071e+02 4.0570422325809953e-06 0.0000000000000000e+00  -2.8313228190179547e+02 3.9461062423034485e-06 0.0000000000000000e+00  -2.7850511137350173e+02 3.8335600584413149e-06 0.0000000000000000e+00  -2.7391487117163246e+02 3.7194928906870860e-06 0.0000000000000000e+00  -2.6936228638759462e+02 3.6040172197717271e-06 0.0000000000000000e+00  -2.6484806007674808e+02 3.4872694271657993e-06 0.0000000000000000e+00  -2.6037287300185284e+02 3.3693679703911809e-06 0.0000000000000000e+00  -2.5593738339951315e+02 3.2504309116020247e-06 0.0000000000000000e+00  -2.5154222676976531e+02 3.1305781834471443e-06 0.0000000000000000e+00  -2.4718801568858677e+02 3.0099332084745917e-06 0.0000000000000000e+00  -2.4287533964385491e+02 2.8886017495303511e-06 0.0000000000000000e+00  -2.3860476489434811e+02 2.7667306098661264e-06 0.0000000000000000e+00  -2.3437683435200023e+02 2.6444202722684314e-06 0.0000000000000000e+00  -2.3019206748721049e+02 2.5218067020352917e-06 0.0000000000000000e+00  -2.2605096025742498e+02 2.3989850428356344e-06 0.0000000000000000e+00  -2.2195398505844685e+02 2.2761035348015422e-06 0.0000000000000000e+00  -2.1790159069885885e+02 2.1532624169701007e-06 0.0000000000000000e+00  -2.1389420239692345e+02 2.0305761286504157e-06 0.0000000000000000e+00  -2.0993222180014490e+02 1.9081714761024733e-06 0.0000000000000000e+00  -2.0601602702710056e+02 1.7861509573652002e-06 0.0000000000000000e+00  -2.0214597273133398e+02 1.6646342266848619e-06 0.0000000000000000e+00  -1.9832239018706480e+02 1.5437315546967547e-06 0.0000000000000000e+00  -1.9454558739650895e+02 1.4235515250378107e-06 0.0000000000000000e+00  -1.9081584921837995e+02 1.3042137754184157e-06 0.0000000000000000e+00  -1.8713343751726148e+02 1.1858098878262992e-06 0.0000000000000000e+00  -1.8349859133362179e+02 1.0684432068058337e-06 0.0000000000000000e+00  -1.7991152707401270e+02 9.5222495305782827e-07 0.0000000000000000e+00  -1.7637243872096292e+02 8.3724695899825182e-07 0.0000000000000000e+00  -1.7288149806238263e+02 7.2361228375286705e-07 0.0000000000000000e+00  -1.6943885493984388e+02 6.1141789723426390e-07 0.0000000000000000e+00  -1.6604463751544503e+02 5.0075325636774178e-07 0.0000000000000000e+00  -1.6269895255663033e+02 3.9170831944670839e-07 0.0000000000000000e+00  -1.5940188573864953e+02 2.8437234528443984e-07 0.0000000000000000e+00  -1.5615350196411799e+02 1.7882284842256167e-07 0.0000000000000000e+00  -1.5295384569901145e+02 7.5154927362225712e-08 0.0000000000000000e+00  -1.4980294132486907e+02 -2.6553370439941222e-08 0.0000000000000000e+00  -1.4670079350637980e+02 -1.2624093838088227e-07 0.0000000000000000e+00  -1.4364738757402353e+02 -2.2381638969055606e-07 0.0000000000000000e+00  -1.4064268992103797e+02 -3.1922379043550443e-07 0.0000000000000000e+00  -1.3768664841434196e+02 -4.1238231015713468e-07 0.0000000000000000e+00  -1.3477919281860338e+02 -5.0323613325615875e-07 0.0000000000000000e+00  -1.3192023523309226e+02 -5.9171968246725134e-07 0.0000000000000000e+00  -1.2910967054063084e+02 -6.7777551180921006e-07 0.0000000000000000e+00  -1.2634737686801049e+02 -7.6135738280850652e-07 0.0000000000000000e+00  -1.2363321605734276e+02 -8.4239168586439785e-07 0.0000000000000000e+00  -1.2096703414774240e+02 -9.2084914102908234e-07 0.0000000000000000e+00  -1.1834866186671704e+02 -9.9667306691266090e-07 0.0000000000000000e+00  -1.1577791513061680e+02 -1.0698307798123726e-06 0.0000000000000000e+00  -1.1325459555361284e+02 -1.1402768021689662e-06 0.0000000000000000e+00  -1.1077849096456055e+02 -1.2079694998061595e-06 0.0000000000000000e+00  -1.0834937593112312e+02 -1.2728844503409526e-06 0.0000000000000000e+00  -1.0596701229055169e+02 -1.3349842441870458e-06 0.0000000000000000e+00  -1.0363114968656154e+02 -1.3942469018676837e-06 0.0000000000000000e+00  -1.0134152611161595e+02 -1.4506469115365021e-06 0.0000000000000000e+00  -9.9097868454105523e+01 -1.5041713184203148e-06 0.0000000000000000e+00  -9.6899893049779138e+01 -1.5547907036582060e-06 0.0000000000000000e+00  -9.4747306236806594e+01 -1.6024979902373084e-06 0.0000000000000000e+00  -9.2639804913980583e+01 -1.6472782387700655e-06 0.0000000000000000e+00  -9.0577077101346418e+01 -1.6891257519355182e-06 0.0000000000000000e+00  -8.8558802502811204e+01 -1.7280319453444760e-06 0.0000000000000000e+00  -8.6584653070082652e+01 -1.7639947051055767e-06 0.0000000000000000e+00  -8.4654293567374907e+01 -1.7970155242238612e-06 0.0000000000000000e+00  -8.2767382136397785e+01 -1.8270981284381115e-06 0.0000000000000000e+00  -8.0923570861004407e+01 -1.8542443984476699e-06 0.0000000000000000e+00  -7.9122506331000082e+01 -1.8784684156374389e-06 0.0000000000000000e+00  -7.7363830204583209e+01 -1.8997741265123611e-06 0.0000000000000000e+00  -7.5647179768893992e+01 -1.9181825417468414e-06 0.0000000000000000e+00  -7.3972188498141378e+01 -1.9337071596094856e-06 0.0000000000000000e+00  -7.2338486608865750e+01 -1.9463647955005012e-06 0.0000000000000000e+00  -7.0745701611767828e+01 -1.9561722291697000e-06 0.0000000000000000e+00  -6.9193458859723250e+01 -1.9631548959593517e-06 0.0000000000000000e+00  -6.7681382091406732e+01 -1.9673327702346877e-06 0.0000000000000000e+00  -6.6209093970168908e+01 -1.9687172252461889e-06 0.0000000000000000e+00  -6.4776216617662712e+01 -1.9673264781539647e-06 0.0000000000000000e+00  -6.3382372141802115e+01 -1.9631408823079157e-06 0.0000000000000000e+00  -6.2027183158643282e+01 -1.9561234795908990e-06 0.0000000000000000e+00  -6.0710273307799490e+01 -1.9461571971681438e-06 0.0000000000000000e+00  -5.9431267760962143e+01 -1.9329983153175462e-06 0.0000000000000000e+00  -5.8189793723263413e+01 -1.9161497561644517e-06 0.0000000000000000e+00  -5.6985480927102941e+01 -1.8946358680001297e-06 0.0000000000000000e+00  -5.5817962118280107e+01 -1.8665691831601603e-06 0.0000000000000000e+00  -5.4686873534349687e+01 -1.8283427840751197e-06 0.0000000000000000e+00  -5.3591855375391475e+01 -1.7730700297175850e-06 0.0000000000000000e+00  -5.2532552267915079e+01 -1.6876803498102602e-06 0.0000000000000000e+00  -5.1508613723579593e+01 -1.5473662146702496e-06 0.0000000000000000e+00  -5.0519694596033155e+01 -1.3050835331067089e-06 0.0000000000000000e+00  -4.9565455542715327e+01 -8.7168216852554790e-07 0.0000000000000000e+00  -4.8645563504636570e+01 -7.8231918536961425e-08 0.0000000000000000e+00  -4.7759692229078162e+01 1.3953181714869802e-06 0.0000000000000000e+00  -4.6907522882880883e+01 4.1552883929056215e-06 0.0000000000000000e+00  -4.6088744846557269e+01 9.3502684456045213e-06 0.0000000000000000e+00  -4.5303056860769637e+01 1.9156074285448934e-05 0.0000000000000000e+00  -4.4550168850035206e+01 3.7694394