<?xml version="1.0"?>
<VTKFile type="UnstructuredGrid"  version="0.1"  >
<UnstructuredGrid>
<Piece  NumberOfPoints="1656" NumberOfCells="3000">
<Points>
<DataArray  type="Float64"  NumberOfComponents="3"  format="ascii">0 0 0  2 0 0  4 0 0  6 0 0  8 0 0  10 0 0  12 0 0  14 0 0  16 0 0  18 0 0  20 0 0  22 0 0  24 0 0  26 0 0  28 0 0  30 0 0  32 0 0  34 0 0  36 0 0  38 0 0  40 0 0  42 0 0  44 0 0  46 0 0  48 0 0  50 0 0  52 0 0  54 0 0  56 0 0  58 0 0  60 0 0  62 0 0  64 0 0  66 0 0  68 0 0  70 0 0  72 0 0  74 0 0  76 0 0  78 0 0  80 0 0  82 0 0  84 0 0  86 0 0  88 0 0  90 0 0  92 0 0  94 0 0  96 0 0  98 0 0  100 0 0  102 0 0  104 0 0  106 0 0  108 0 0  110 0 0  112 0 0  114 0 0  116 0 0  118 0 0  120 0 0  122 0 0  124 0 0  126 0 0  128 0 0  130 0 0  132 0 0  134 0 0  136 0 0  138 0 0  140 0 0  142 0 0  144 0 0  146 0 0  148 0 0  150 0 0  152 0 0  154 0 0  156 0 0  158 0 0  160 0 0  162 0 0  164 0 0  166 0 0  168 0 0  170 0 0  172 0 0  174 0 0  176 0 0  178 0 0  180 0 0  182 0 0  184 0 0  186 0 0  188 0 0  190 0 0  192 0 0  194 0 0  196 0 0  198 0 0  200 0 0  202 0 0  204 0 0  206 0 0  208 0 0  210 0 0  212 0 0  214 0 0  216 0 0  218 0 0  220 0 0  222 0 0  224 0 0  226 0 0  228 0 0  230 0 0  232 0 0  234 0 0  236 0 0  238 0 0  240 0 0  242 0 0  244 0 0  246 0 0  248 0 0  250 0 0  252 0 0  254 0 0  256 0 0  258 0 0  260 0 0  262 0 0  264 0 0  266 0 0  268 0 0  270 0 0  272 0 0  274 0 0  276 0 0  278 0 0  280 0 0  282 0 0  284 0 0  286 0 0  288 0 0  290 0 0  292 0 0  294 0 0  296 0 0  298 0 0  300 0 0  0 2 0  2 2 0  4 2 0  6 2 0  8 2 0  10 2 0  12 2 0  14 2 0  16 2 0  18 2 0  20 2 0  22 2 0  24 2 0  26 2 0  28 2 0  30 2 0  32 2 0  34 2 0  36 2 0  38 2 0  40 2 0  42 2 0  44 2 0  46 2 0  48 2 0  50 2 0  52 2 0  54 2 0  56 2 0  58 2 0  60 2 0  62 2 0  64 2 0  66 2 0  68 2 0  70 2 0  72 2 0  74 2 0  76 2 0  78 2 0  80 2 0  82 2 0  84 2 0  86 2 0  88 2 0  90 2 0  92 2 0  94 2 0  96 2 0  98 2 0  100 2 0  102 2 0  104 2 0  106 2 0  108 2 0  110 2 0  112 2 0  114 2 0  116 2 0  118 2 0  120 2 0  122 2 0  124 2 0  126 2 0  128 2 0  130 2 0  132 2 0  134 2 0  136 2 0  138 2 0  140 2 0  142 2 0  144 2 0  146 2 0  148 2 0  150 2 0  152 2 0  154 2 0  156 2 0  158 2 0  160 2 0  162 2 0  164 2 0  166 2 0  168 2 0  170 2 0  172 2 0  174 2 0  176 2 0  178 2 0  180 2 0  182 2 0  184 2 0  186 2 0  188 2 0  190 2 0  192 2 0  194 2 0  196 2 0  198 2 0  200 2 0  202 2 0  204 2 0  206 2 0  208 2 0  210 2 0  212 2 0  214 2 0  216 2 0  218 2 0  220 2 0  222 2 0  224 2 0  226 2 0  228 2 0  230 2 0  232 2 0  234 2 0  236 2 0  238 2 0  240 2 0  242 2 0  244 2 0  246 2 0  248 2 0  250 2 0  252 2 0  254 2 0  256 2 0  258 2 0  260 2 0  262 2 0  264 2 0  266 2 0  268 2 0  270 2 0  272 2 0  274 2 0  276 2 0  278 2 0  280 2 0  282 2 0  284 2 0  286 2 0  288 2 0  290 2 0  292 2 0  294 2 0  296 2 0  298 2 0  300 2 0  0 4 0  2 4 0  4 4 0  6 4 0  8 4 0  10 4 0  12 4 0  14 4 0  16 4 0  18 4 0  20 4 0  22 4 0  24 4 0  26 4 0  28 4 0  30 4 0  32 4 0  34 4 0  36 4 0  38 4 0  40 4 0  42 4 0  44 4 0  46 4 0  48 4 0  50 4 0  52 4 0  54 4 0  56 4 0  58 4 0  60 4 0  62 4 0  64 4 0  66 4 0  68 4 0  70 4 0  72 4 0  74 4 0  76 4 0  78 4 0  80 4 0  82 4 0  84 4 0  86 4 0  88 4 0  90 4 0  92 4 0  94 4 0  96 4 0  98 4 0  100 4 0  102 4 0  104 4 0  106 4 0  108 4 0  110 4 0  112 4 0  114 4 0  116 4 0  118 4 0  120 4 0  122 4 0  124 4 0  126 4 0  128 4 0  130 4 0  132 4 0  134 4 0  136 4 0  138 4 0  140 4 0  142 4 0  144 4 0  146 4 0  148 4 0  150 4 0  152 4 0  154 4 0  156 4 0  158 4 0  160 4 0  162 4 0  164 4 0  166 4 0  168 4 0  170 4 0  172 4 0  174 4 0  176 4 0  178 4 0  180 4 0  182 4 0  184 4 0  186 4 0  188 4 0  190 4 0  192 4 0  194 4 0  196 4 0  198 4 0  200 4 0  202 4 0  204 4 0  206 4 0  208 4 0  210 4 0  212 4 0  214 4 0  216 4 0  218 4 0  220 4 0  222 4 0  224 4 0  226 4 0  228 4 0  230 4 0  232 4 0  234 4 0  236 4 0  238 4 0  240 4 0  242 4 0  244 4 0  246 4 0  248 4 0  250 4 0  252 4 0  254 4 0  256 4 0  258 4 0  260 4 0  262 4 0  264 4 0  266 4 0  268 4 0  270 4 0  272 4 0  274 4 0  276 4 0  278 4 0  280 4 0  282 4 0  284 4 0  286 4 0  288 4 0  290 4 0  292 4 0  294 4 0  296 4 0  298 4 0  300 4 0  0 6 0  2 6 0  4 6 0  6 6 0  8 6 0  10 6 0  12 6 0  14 6 0  16 6 0  18 6 0  20 6 0  22 6 0  24 6 0  26 6 0  28 6 0  30 6 0  32 6 0  34 6 0  36 6 0  38 6 0  40 6 0  42 6 0  44 6 0  46 6 0  48 6 0  50 6 0  52 6 0  54 6 0  56 6 0  58 6 0  60 6 0  62 6 0  64 6 0  66 6 0  68 6 0  70 6 0  72 6 0  74 6 0  76 6 0  78 6 0  80 6 0  82 6 0  84 6 0  86 6 0  88 6 0  90 6 0  92 6 0  94 6 0  96 6 0  98 6 0  100 6 0  102 6 0  104 6 0  106 6 0  108 6 0  110 6 0  112 6 0  114 6 0  116 6 0  118 6 0  120 6 0  122 6 0  124 6 0  126 6 0  128 6 0  130 6 0  132 6 0  134 6 0  136 6 0  138 6 0  140 6 0  142 6 0  144 6 0  146 6 0  148 6 0  150 6 0  152 6 0  154 6 0  156 6 0  158 6 0  160 6 0  162 6 0  164 6 0  166 6 0  168 6 0  170 6 0  172 6 0  174 6 0  176 6 0  178 6 0  180 6 0  182 6 0  184 6 0  186 6 0  188 6 0  190 6 0  192 6 0  194 6 0  196 6 0  198 6 0  200 6 0  202 6 0  204 6 0  206 6 0  208 6 0  210 6 0  212 6 0  214 6 0  216 6 0  218 6 0  220 6 0  222 6 0  224 6 0  226 6 0  228 6 0  230 6 0  232 6 0  234 6 0  236 6 0  238 6 0  240 6 0  242 6 0  244 6 0  246 6 0  248 6 0  250 6 0  252 6 0  254 6 0  256 6 0  258 6 0  260 6 0  262 6 0  264 6 0  266 6 0  268 6 0  270 6 0  272 6 0  274 6 0  276 6 0  278 6 0  280 6 0  282 6 0  284 6 0  286 6 0  288 6 0  290 6 0  292 6 0  294 6 0  296 6 0  298 6 0  300 6 0  0 8 0  2 8 0  4 8 0  6 8 0  8 8 0  10 8 0  12 8 0  14 8 0  16 8 0  18 8 0  20 8 0  22 8 0  24 8 0  26 8 0  28 8 0  30 8 0  32 8 0  34 8 0  36 8 0  38 8 0  40 8 0  42 8 0  44 8 0  46 8 0  48 8 0  50 8 0  52 8 0  54 8 0  56 8 0  58 8 0  60 8 0  62 8 0  64 8 0  66 8 0  68 8 0  70 8 0  72 8 0  74 8 0  76 8 0  78 8 0  80 8 0  82 8 0  84 8 0  86 8 0  88 8 0  90 8 0  92 8 0  94 8 0  96 8 0  98 8 0  100 8 0  102 8 0  104 8 0  106 8 0  108 8 0  110 8 0  112 8 0  114 8 0  116 8 0  118 8 0  120 8 0  122 8 0  124 8 0  126 8 0  128 8 0  130 8 0  132 8 0  134 8 0  136 8 0  138 8 0  140 8 0  142 8 0  144 8 0  146 8 0  148 8 0  150 8 0  152 8 0  154 8 0  156 8 0  158 8 0  160 8 0  162 8 0  164 8 0  166 8 0  168 8 0  170 8 0  172 8 0  174 8 0  176 8 0  178 8 0  180 8 0  182 8 0  184 8 0  186 8 0  188 8 0  190 8 0  192 8 0  194 8 0  196 8 0  198 8 0  200 8 0  202 8 0  204 8 0  206 8 0  208 8 0  210 8 0  212 8 0  214 8 0  216 8 0  218 8 0  220 8 0  222 8 0  224 8 0  226 8 0  228 8 0  230 8 0  232 8 0  234 8 0  236 8 0  238 8 0  240 8 0  242 8 0  244 8 0  246 8 0  248 8 0  250 8 0  252 8 0  254 8 0  256 8 0  258 8 0  260 8 0  262 8 0  264 8 0  266 8 0  268 8 0  270 8 0  272 8 0  274 8 0  276 8 0  278 8 0  280 8 0  282 8 0  284 8 0  286 8 0  288 8 0  290 8 0  292 8 0  294 8 0  296 8 0  298 8 0  300 8 0  0 10 0  2 10 0  4 10 0  6 10 0  8 10 0  10 10 0  12 10 0  14 10 0  16 10 0  18 10 0  20 10 0  22 10 0  24 10 0  26 10 0  28 10 0  30 10 0  32 10 0  34 10 0  36 10 0  38 10 0  40 10 0  42 10 0  44 10 0  46 10 0  48 10 0  50 10 0  52 10 0  54 10 0  56 10 0  58 10 0  60 10 0  62 10 0  64 10 0  66 10 0  68 10 0  70 10 0  72 10 0  74 10 0  76 10 0  78 10 0  80 10 0  82 10 0  84 10 0  86 10 0  88 10 0  90 10 0  92 10 0  94 10 0  96 10 0  98 10 0  100 10 0  102 10 0  104 10 0  106 10 0  108 10 0  110 10 0  112 10 0  114 10 0  116 10 0  118 10 0  120 10 0  122 10 0  124 10 0  126 10 0  128 10 0  130 10 0  132 10 0  134 10 0  136 10 0  138 10 0  140 10 0  142 10 0  144 10 0  146 10 0  148 10 0  150 10 0  152 10 0  154 10 0  156 10 0  158 10 0  160 10 0  162 10 0  164 10 0  166 10 0  168 10 0  170 10 0  172 10 0  174 10 0  176 10 0  178 10 0  180 10 0  182 10 0  184 10 0  186 10 0  188 10 0  190 10 0  192 10 0  194 10 0  196 10 0  198 10 0  200 10 0  202 10 0  204 10 0  206 10 0  208 10 0  210 10 0  212 10 0  214 10 0  216 10 0  218 10 0  220 10 0  222 10 0  224 10 0  226 10 0  228 10 0  230 10 0  232 10 0  234 10 0  236 10 0  238 10 0  240 10 0  242 10 0  244 10 0  246 10 0  248 10 0  250 10 0  252 10 0  254 10 0  256 10 0  258 10 0  260 10 0  262 10 0  264 10 0  266 10 0  268 10 0  270 10 0  272 10 0  274 10 0  276 10 0  278 10 0  280 10 0  282 10 0  284 10 0  286 10 0  288 10 0  290 10 0  292 10 0  294 10 0  296 10 0  298 10 0  300 10 0  1 1 0  3 1 0  5 1 0  7 1 0  9 1 0  11 1 0  13 1 0  15 1 0  17 1 0  19 1 0  21 1 0  23 1 0  25 1 0  27 1 0  29 1 0  31 1 0  33 1 0  35 1 0  37 1 0  39 1 0  41 1 0  43 1 0  45 1 0  47 1 0  49 1 0  51 1 0  53 1 0  55 1 0  57 1 0  59 1 0  61 1 0  63 1 0  65 1 0  67 1 0  69 1 0  71 1 0  73 1 0  75 1 0  77 1 0  79 1 0  81 1 0  83 1 0  85 1 0  87 1 0  89 1 0  91 1 0  93 1 0  95 1 0  97 1 0  99 1 0  101 1 0  103 1 0  105 1 0  107 1 0  109 1 0  111 1 0  113 1 0  115 1 0  117 1 0  119 1 0  121 1 0  123 1 0  125 1 0  127 1 0  129 1 0  131 1 0  133 1 0  135 1 0  137 1 0  139 1 0  141 1 0  143 1 0  145 1 0  147 1 0  149 1 0  151 1 0  153 1 0  155 1 0  157 1 0  159 1 0  161 1 0  163 1 0  165 1 0  167 1 0  169 1 0  171 1 0  173 1 0  175 1 0  177 1 0  179 1 0  181 1 0  183 1 0  185 1 0  187 1 0  189 1 0  191 1 0  193 1 0  195 1 0  197 1 0  199 1 0  201 1 0  203 1 0  205 1 0  207 1 0  209 1 0  211 1 0  213 1 0  215 1 0  217 1 0  219 1 0  221 1 0  223 1 0  225 1 0  227 1 0  229 1 0  231 1 0  233 1 0  235 1 0  237 1 0  239 1 0  241 1 0  243 1 0  245 1 0  247 1 0  249 1 0  251 1 0  253 1 0  255 1 0  257 1 0  259 1 0  261 1 0  263 1 0  265 1 0  267 1 0  269 1 0  271 1 0  273 1 0  275 1 0  277 1 0  279 1 0  281 1 0  283 1 0  285 1 0  287 1 0  289 1 0  291 1 0  293 1 0  295 1 0  297 1 0  299 1 0  1 3 0  3 3 0  5 3 0  7 3 0  9 3 0  11 3 0  13 3 0  15 3 0  17 3 0  19 3 0  21 3 0  23 3 0  25 3 0  27 3 0  29 3 0  31 3 0  33 3 0  35 3 0  37 3 0  39 3 0  41 3 0  43 3 0  45 3 0  47 3 0  49 3 0  51 3 0  53 3 0  55 3 0  57 3 0  59 3 0  61 3 0  63 3 0  65 3 0  67 3 0  69 3 0  71 3 0  73 3 0  75 3 0  77 3 0  79 3 0  81 3 0  83 3 0  85 3 0  87 3 0  89 3 0  91 3 0  93 3 0  95 3 0  97 3 0  99 3 0  101 3 0  103 3 0  105 3 0  107 3 0  109 3 0  111 3 0  113 3 0  115 3 0  117 3 0  119 3 0  121 3 0  123 3 0  125 3 0
[...]
<PointData  Vectors="flow"> 
<DataArray  type="Float64"  Name="flow"  NumberOfComponents="3" format="ascii">-4.5942469401527535e+02 -9.4699012071621047e-01 0.0000000000000000e+00  -4.5563700071805812e+02 -9.4687076230661482e-01 0.0000000000000000e+00  -4.4995675790829756e+02 -9.4651277683650481e-01 0.0000000000000000e+00  -4.4427937822326260e+02 -9.4591643363888167e-01 0.0000000000000000e+00  -4.3860629053409883e+02 -9.4508218084728812e-01 0.0000000000000000e+00  -4.3293892048645762e+02 -9.4401064537957269e-01 0.0000000000000000e+00  -4.2727868943174531e+02 -9.4270263163539458e-01 0.0000000000000000e+00  -4.2162701336364256e+02 -9.4115912090416343e-01 0.0000000000000000e+00  -4.1598530186188862e+02 -9.3938126977097558e-01 0.0000000000000000e+00  -4.1035495704376422e+02 -9.3737040895533386e-01 0.0000000000000000e+00  -4.0473737252547153e+02 -9.3512804117756310e-01 0.0000000000000000e+00  -3.9913393239398033e+02 -9.3265583983625433e-01 0.0000000000000000e+00  -3.9354601019126505e+02 -9.2995564629674021e-01 0.0000000000000000e+00  -3.8797496791161626e+02 -9.2702946801361541e-01 0.0000000000000000e+00  -3.8242215501370924e+02 -9.2387947580371743e-01 0.0000000000000000e+00  -3.7688890744862363e+02 -9.2050800101407337e-01 0.0000000000000000e+00  -3.7137654670444766e+02 -9.1691753287348032e-01 0.0000000000000000e+00  -3.6588637886960419e+02 -9.1311071506185226e-01 0.0000000000000000e+00  -3.6041969371492814e+02 -9.0909034252275700e-01 0.0000000000000000e+00  -3.5497776379660746e+02 -9.0485935816495133e-01 0.0000000000000000e+00  -3.4956184358031379e+02 -9.0042084876847039e-01 0.0000000000000000e+00  -3.4417316858781629e+02 -8.9577804159482755e-01 0.0000000000000000e+00  -3.3881295456713468e+02 -8.9093430012559272e-01 0.0000000000000000e+00  -3.3348239668715991e+02 -8.8589312007494303e-01 0.0000000000000000e+00  -3.2818266875739209e+02 -8.8065812500025142e-01 0.0000000000000000e+00  -3.2291492247402095e+02 -8.7523306182996707e-01 0.0000000000000000e+00  -3.1768028669288168e+02 -8.6962179650012339e-01 0.0000000000000000e+00  -3.1247986673028731e+02 -8.6382830895697760e-01 0.0000000000000000e+00  -3.0731474369220791e+02 -8.5785668871763310e-01 0.0000000000000000e+00  -3.0218597383273254e+02 -8.5171112965526174e-01 0.0000000000000000e+00  -2.9709458794213549e+02 -8.4539592513469497e-01 0.0000000000000000e+00  -2.9204159076558147e+02 -8.3891546284392593e-01 0.0000000000000000e+00  -2.8702796045252103e+02 -8.3227421964336712e-01 0.0000000000000000e+00  -2.8205464803750704e+02 -8.2547675630228212e-01 0.0000000000000000e+00  -2.7712257695285717e+02 -8.1852771207777986e-01 0.0000000000000000e+00  -2.7223264257353952e+02 -8.1143179951455169e-01 0.0000000000000000e+00  -2.6738571179449991e+02 -8.0419379871019658e-01 0.0000000000000000e+00  -2.6258262264083629e+02 -7.9681855206285368e-01 0.0000000000000000e+00  -2.5782418391112577e+02 -7.8931095871414880e-01 0.0000000000000000e+00  -2.5311117485363360e+02 -7.8167596886912416e-01 0.0000000000000000e+00  -2.4844434487626205e+02 -7.7391857837732259e-01 0.0000000000000000e+00  -2.4382441328971143e+02 -7.6604382311711228e-01 0.0000000000000000e+00  -2.3925206908402936e+02 -7.5805677333069554e-01 0.0000000000000000e+00  -2.3472797073876694e+02 -7.4996252825830001e-01 0.0000000000000000e+00  -2.3025274606635543e+02 -7.4176621033508594e-01 0.0000000000000000e+00  -2.2582699208882948e+02 -7.3347295982810223e-01 0.0000000000000000e+00  -2.2145127494760811e+02 -7.2508792933530908e-01 0.0000000000000000e+00  -2.1712612984603467e+02 -7.1661627823478347e-01 0.0000000000000000e+00  -2.1285206102479890e+02 -7.0806316735500008e-01 0.0000000000000000e+00  -2.0862954176943032e+02 -6.9943375357286341e-01 0.0000000000000000e+00  -2.0445901444992936e+02 -6.9073318447959398e-01 0.0000000000000000e+00  -2.0034089059202910e+02 -6.8196659326048437e-01 0.0000000000000000e+00  -1.9627555097954738e+02 -6.7313909336590372e-01 0.0000000000000000e+00  -1.9226334578753040e+02 -6.6425577359925003e-01 0.0000000000000000e+00  -1.8830459474568190e+02 -6.5532169299951559e-01 0.0000000000000000e+00  -1.8439958733143644e+02 -6.4634187597876669e-01 0.0000000000000000e+00  -1.8054858299219910e+02 -6.3732130752043681e-01 0.0000000000000000e+00  -1.7675181139613949e+02 -6.2826492846460513e-01 0.0000000000000000e+00  -1.7300947271088245e+02 -6.1917763089672451e-01 0.0000000000000000e+00  -1.6932173790949832e+02 -6.1006425366657924e-01 0.0000000000000000e+00  -1.6568874910301747e+02 -6.0092957804415492e-01 0.0000000000000000e+00  -1.6211061989884550e+02 -5.9177832345897774e-01 0.0000000000000000e+00  -1.5858743578419833e+02 -5.8261514332289766e-01 0.0000000000000000e+00  -1.5511925453406690e+02 -5.7344462114467443e-01 0.0000000000000000e+00  -1.5170610664261758e+02 -5.6427126653959925e-01 0.0000000000000000e+00  -1.4834799577741333e+02 -5.5509951159986659e-01 0.0000000000000000e+00  -1.4504489925557237e+02 -5.4593370727177648e-01 0.0000000000000000e+00  -1.4179676854111850e+02 -5.3677811988162205e-01 0.0000000000000000e+00  -1.3860352976250886e+02 -5.2763692785707028e-01 0.0000000000000000e+00  -1.3546508424963116e+02 -5.1851421858091740e-01 0.0000000000000000e+00  -1.3238130908931427e+02 -5.0941398529731963e-01 0.0000000000000000e+00  -1.2935205769851723e+02 -5.0034012435788944e-01 0.0000000000000000e+00  -1.2637716041425247e+02 -4.9129643240941673e-01 0.0000000000000000e+00  -1.2345642509941447e+02 -4.8228660383804761e-01 0.0000000000000000e+00  -1.2058963776356737e+02 -4.7331422838559489e-01 0.0000000000000000e+00  -1.1777656319780957e+02 -4.6438278887279028e-01 0.0000000000000000e+00  -1.1501694562274170e+02 -4.5549565903299044e-01 0.0000000000000000e+00  -1.1231050934884541e+02 -4.4665610160035119e-01 0.0000000000000000e+00  -1.0965695944806006e+02 -4.3786726646072061e-01 0.0000000000000000e+00  -1.0705598243594227e+02 -4.2913218898910033e-01 0.0000000000000000e+00  -1.0450724696332868e+02 -4.2045378852230930e-01 0.0000000000000000e+00  -1.0201040451673860e+02 -4.1183486700617455e-01 0.0000000000000000e+00  -9.9565090126538848e+01 -4.0327810773170158e-01 0.0000000000000000e+00  -9.7170923082049285e+01 -3.9478607428292017e-01 0.0000000000000000e+00  -9.4827507652750242e+01 -3.8636120958305475e-01 0.0000000000000000e+00  -9.2534433814678067e+01 -3.7800583508783592e-01 0.0000000000000000e+00  -9.0291277981207955e+01 -3.6972215015633469e-01 0.0000000000000000e+00  -8.8097603737396412e+01 -3.6151223148873435e-01 0.0000000000000000e+00  -8.5952962577064511e+01 -3.5337803274995544e-01 0.0000000000000000e+00  -8.3856894641807429e+01 -3.4532138431072384e-01 0.0000000000000000e+00  -8.1808929461179787e+01 -3.3734399313999175e-01 0.0000000000000000e+00  -7.9808586693269348e+01 -3.2944744278239735e-01 0.0000000000000000e+00  -7.7855376864898759e+01 -3.2163319347325103e-01 0.0000000000000000e+00  -7.5948802110730881e+01 -3.1390258238933044e-01 0.0000000000000000e+00  -7.4088356910588828e+01 -3.0625682402349169e-01 0.0000000000000000e+00  -7.2273528824234205e+01 -2.9869701063992427e-01 0.0000000000000000e+00  -7.0503799223006283e+01 -2.9122411286654448e-01 0.0000000000000000e+00  -6.8778644017582863e+01 -2.8383898039404476e-01 0.0000000000000000e+00  -6.7097534381262761e+01 -2.7654234276332273e-01 0.0000000000000000e+00  -6.5459937468163702e+01 -2.6933481027672057e-01 0.0000000000000000e+00  -6.3865317125726179e+01 -2.6221687500793567e-01 0.0000000000000000e+00  -6.2313134600903375e+01 -2.5518891184910031e-01 0.0000000000000000e+00  -6.0802849239565710e+01 -2.4825117975787725e-01 0.0000000000000000e+00  -5.9333919178481523e+01 -2.4140382298429297e-01 0.0000000000000000e+00  -5.7905802029456481e+01 -2.3464687244662036e-01 0.0000000000000000e+00  -5.6517955555050889e+01 -2.2798024715684773e-01 0.0000000000000000e+00  -5.5169838335446535e+01 -2.2140375575364143e-01 0.0000000000000000e+00  -5.3860910426008651e+01 -2.1491709807729786e-01 0.0000000000000000e+00  -5.2590634005103411e+01 -2.0851986681154172e-01 0.0000000000000000e+00  -5.1358474011725932e+01 -2.0221154923958223e-01 0.0000000000000000e+00  -5.0163898772642085e+01 -1.9599152897851896e-01 0.0000000000000000e+00  -4.9006380618605434e+01 -1.8985908783186378e-01 0.0000000000000000e+00  -4.7885396489407071e+01 -1.8381340759647383e-01 0.0000000000000000e+00  -4.6800428527479639e+01 -1.7785357194804075e-01 0.0000000000000000e+00  -4.5750964659944003e+01 -1.7197856816125626e-01 0.0000000000000000e+00  -4.4736499169176724e+01 -1.6618728875927991e-01 0.0000000000000000e+00  -4.3756533252257995e+01 -1.6047853271362617e-01 0.0000000000000000e+00  -4.2810575570338585e+01 -1.5485100594184922e-01 0.0000000000000000e+00  -4.1898142790201518e+01 -1.4930332032272858e-01 0.0000000000000000e+00  -4.1018760122354514e+01 -1.4383398993677307e-01 0.0000000000000000e+00  -4.0171961864378169e+01 -1.3844142193447234e-01 0.0000000000000000e+00  -3.9357291966016646e+01 -1.3312389727402907e-01 0.0000000000000000e+00  -3.8574304647643473e+01 -1.2787953217239786e-01 0.0000000000000000e+00  -3.7822565132059367e+01 -1.2270620304882628e-01 0.0000000000000000e+00  -3.7101650603463625e+01 -1.1760140223023269e-01 0.0000000000000000e+00  -3.6411151609393542e+01 -1.1256196251091222e-01 0.0000000000000000e+00  -3.5750674314533498e+01 -1.0758353321839087e-01 0.0000000000000000e+00  -3.5119844381120473e+01 -1.0265958557135946e-01 0.0000000000000000e+00  -3.4518313943751899e+01 -9.7779526374816184e-02 0.0000000000000000e+00  -3.3945774459122482e+01 -9.2925122397948978e-02 0.0000000000000000e+00  -3.3401980698275196e+01 -8.8063724752372535e-02 0.0000000000000000e+00  -3.2886795860831775e+01 -8.3135430768880025e-02 0.0000000000000000e+00  -3.2400276719102294e+01 -7.8028759537613873e-02 0.0000000000000000e+00  -3.1942834622525609e+01 -7.2534560758179725e-02 0.0000000000000000e+00  -3.1515540294725675e+01 -6.6258659790068883e-02 0.0000000000000000e+00  -3.1120701282987525e+01 -5.8456215354172038e-02 0.0000000000000000e+00  -3.0762957122483485e+01 -4.7717323719004986e-02 0.0000000000000000e+00  -3.0451358492857949e+01 -3.1369004254403463e-02 0.0000000000000000e+00  -3.0203331026520026e+01 -4.3334490522703656e-03 0.0000000000000000e+00  -3.0052242677891989e+01 4.3072586603118412e-02 0.0000000000000000e+00  -3.0062188153387304e+01 1.2942905926871681e-01 0.0000000000000000e+00  -3.0356464442586713e+01 2.9096471615048058e-01 0.0000000000000000e+00  -3.1180353136381939e+01 5.9951852332822064e-01 0.0000000000000000e+00  -3.3014857894585759e+01 1.2084632414948118e+00 0.0000000000000000e+00  -3.6980920853489287e+01 2.4408183106120589e+00 0.0000000000000000e+00  -4.5210181941784910e+01 5.2374170812938967e+00 0.0000000000000000e+00  -6.5188262416485586e+01 1.1181334781110637e+01 0.0000000000000000e+00  -1.0704152443443303e+02 3.0018328735008495e+01 0.0000000000000000e+00  -1.8796108334206886e+02 4.6030271114100636e+01 0.0000000000000000e+00  -3.1052135420426691e+02 8.2257699409627861e+01 0.0000000000000000e+00  -3.7953733684281480e+02 7.3611875340096049e+01 0.0000000000000000e+00  -4.5942469401528058e+02 7.4602690897763467e-06 0.0000000000000000e+00  -4.5563700071805442e+02 7.4574382451342222e-06 0.0000000000000000e+00  -4.4995675790831029e+02 7.4490338093389871e-06 0.0000000000000000e+00  -4.4427937822326010e+02 7.4350163145772949e-06 0.0000000000000000e+00  -4.3860629053409912e+02 7.4154320269502288e-06 0.0000000000000000e+00  -4.3293892048646410e+02 7.3902939689615030e-06 0.0000000000000000e+00  -4.2727868943173161e+02 7.3596334840751282e-06 0.0000000000000000e+00  -4.2162701336365546e+02 7.3234843360654386e-06 0.0000000000000000e+00  -4.1598530186188492e+02 7.2818889154136301e-06 0.0000000000000000e+00  -4.1035495704375938e+02 7.2349315755328225e-06 0.0000000000000000e+00  -4.0473737252546545e+02 7.1826302556203151e-06 0.0000000000000000e+00  -3.9913393239399335e+02 7.1250989471239847e-06 0.0000000000000000e+00  -3.9354601019126159e+02 7.0623494452139671e-06 0.0000000000000000e+00  -3.8797496791160916e+02 6.9945121639048022e-06 0.0000000000000000e+00  -3.8242215501371163e+02 6.9216484988965550e-06 0.0000000000000000e+00  -3.7688890744861806e+02 6.8438419594255475e-06 0.0000000000000000e+00  -3.7137654670447137e+02 6.7612266730619590e-06 0.0000000000000000e+00  -3.6588637886957815e+02 6.6738654471356450e-06 0.0000000000000000e+00  -3.6041969371492223e+02 6.5819096275591433e-06 0.0000000000000000e+00  -3.5497776379662264e+02 6.4854349062131931e-06 0.0000000000000000e+00  -3.4956184358031152e+02 6.3845804215894492e-06 0.0000000000000000e+00  -3.4417316858781305e+02 6.2794564327077470e-06 0.0000000000000000e+00  -3.3881295456713832e+02 6.1702084300850515e-06 0.0000000000000000e+00  -3.3348239668716371e+02 6.0569632451212775e-06 0.0000000000000000e+00  -3.2818266875739255e+02 5.9398672720954745e-06 0.0000000000000000e+00  -3.2291492247402294e+02 5.8190425461014293e-06 0.0000000000000000e+00  -3.1768028669288373e+02 5.6946643545627627e-06 0.0000000000000000e+00  -3.1247986673028066e+02 5.5668600333072377e-06 0.0000000000000000e+00  -3.0731474369222207e+02 5.4357873018395876e-06 0.0000000000000000e+00  -3.0218597383272407e+02 5.3016051702307539e-06 0.0000000000000000e+00  -2.9709458794212907e+02 5.1644842859310534e-06 0.0000000000000000e+00  -2.9204159076558562e+02 5.0245705177993558e-06 0.0000000000000000e+00  -2.8702796045252842e+02 4.8820302588002948e-06 0.0000000000000000e+00  -2.8205464803749902e+02 4.7370468653234537e-06 0.0000000000000000e+00  -2.7712257695285979e+02 4.5897743431872522e-06 0.0000000000000000e+00  -2.7223264257354072e+02 4.4403860671022566e-06 0.0000000000000000e+00  -2.6738571179449167e+02 4.2890496855965353e-06 0.0000000000000000e+00  -2.6258262264084772e+02 4.1359441766319228e-06 0.0000000000000000e+00  -2.5782418391112481e+02 3.9812335447613486e-06 0.0000000000000000e+00  -2.5311117485362649e+02 3.8251026255270566e-06 0.0000000000000000e+00  -2.4844434487626864e+02 3.6677162555680519e-06 0.0000000000000000e+00  -2.4382441328971291e+02 3.5092646424133231e-06 0.0000000000000000e+00  -2.3925206908402592e+02 3.3498993152978965e-06 0.0000000000000000e+00  -2.3472797073876382e+02 3.1898155693015717e-06 0.0000000000000000e+00  -2.3025274606635199e+02 3.0291777165349464e-06 0.0000000000000000e+00  -2.2582699208883551e+02 2.8681458035978735e-06 0.0000000000000000e+00  -2.2145127494760538e+02 2.7069021229837908e-06 0.0000000000000000e+00  -2.1712612984603982e+02 2.5456159568317915e-06 0.0000000000000000e+00  -2.1285206102480177e+02 2.3844491192925292e-06 0.0000000000000000e+00  -2.0862954176942262e+02 2.2235740013336113e-06 0.0000000000000000e+00  -2.0445901444992742e+02 2.0631572157428817e-06 0.0000000000000000e+00  -2.0034089059203495e+02 1.9033526216074705e-06 0.0000000000000000e+00  -1.9627555097954547e+02 1.7443182764068310e-06 0.0000000000000000e+00  -1.9226334578753153e+02 1.5862124497710154e-06 0.0000000000000000e+00  -1.8830459474567883e+02 1.4291895826733096e-06 0.0000000000000000e+00  -1.8439958733143905e+02 1.2733968782593622e-06 0.0000000000000000e+00  -1.8054858299220049e+02 1.1189858358881161e-06 0.0000000000000000e+00  -1.7675181139613926e+02 9.6610125758713905e-07 0.0000000000000000e+00  -1.7300947271088012e+02 8.1487875481915025e-07 0.0000000000000000e+00  -1.6932173790949716e+02 6.6545795150899000e-07 0.0000000000000000e+00  -1.6568874910302742e+02 5.1796501327383992e-07 0.0000000000000000e+00  -1.6211061989883865e+02 3.7253403379999348e-07 0.0000000000000000e+00  -1.5858743578419464e+02 2.2929853760288339e-07 0.0000000000000000e+00  -1.5511925453406951e+02 8.8364246218996162e-08 0.0000000000000000e+00  -1.5170610664261852e+02 -5.0146698675996695e-08 0.0000000000000000e+00  -1.4834799577741376e+02 -1.8612108117886994e-07 0.0000000000000000e+00  -1.4504489925557237e+02 -3.1944974572164019e-07 0.0000000000000000e+00  -1.4179676854111506e+02 -4.5003164681937214e-07 0.0000000000000000e+00  -1.3860352976251045e+02 -5.7776564384014455e-07 0.0000000000000000e+00  -1.3546508424963011e+02 -7.0255966319338774e-07 0.0000000000000000e+00  -1.3238130908931709e+02 -8.2432792222116713e-07 0.0000000000000000e+00  -1.2935205769851964e+02 -9.4298289400024067e-07 0.0000000000000000e+00  -1.2637716041425084e+02 -1.0584356101485671e-06 0.0000000000000000e+00  -1.2345642509941278e+02 -1.1706197721647333e-06 0.0000000000000000e+00  -1.2058963776357191e+02 -1.2794622060102484e-06 0.0000000000000000e+00  -1.1777656319780822e+02 -1.3848942398342059e-06 0.0000000000000000e+00  -1.1501694562273948e+02 -1.4868570727907559e-06 0.0000000000000000e+00  -1.1231050934884810e+02 -1.5852929524269801e-06 0.0000000000000000e+00  -1.0965695944805974e+02 -1.6801526094604769e-06 0.0000000000000000e+00  -1.0705598243593849e+02 -1.7713860466553980e-06 0.0000000000000000e+00  -1.0450724696332985e+02 -1.8589492871910367e-06 0.0000000000000000e+00  -1.0201040451673859e+02 -1.9428034808801034e-06 0.0000000000000000e+00  -9.9565090126538152e+01 -2.0229173372224298e-06 0.0000000000000000e+00  -9.7170923082050450e+01 -2.0992605201945845e-06 0.0000000000000000e+00  -9.4827507652750242e+01 -2.1718056268724278e-06 0.0000000000000000e+00  -9.2534433814675367e+01 -2.2405353814233597e-06 0.0000000000000000e+00  -9.0291277981208793e+01 -2.3054317879706572e-06 0.0000000000000000e+00  -8.8097603737399893e+01 -2.3664859386843752e-06 0.0000000000000000e+00  -8.5952962577063502e+01 -2.4236840513355860e-06 0.0000000000000000e+00  -8.3856894641804772e+01 -2.4770286665633499e-06 0.0000000000000000e+00  -8.1808929461179289e+01 -2.5265139132581047e-06 0.0000000000000000e+00  -7.9808586693271764e+01 -2.5721465160372793e-06 0.0000000000000000e+00  -7.7855376864899810e+01 -2.6139340249113344e-06 0.0000000000000000e+00  -7.5948802110731194e+01 -2.6518855025978749e-06 0.0000000000000000e+00  -7.4088356910588431e+01 -2.6860179217411664e-06 0.0000000000000000e+00  -7.2273528824233580e+01 -2.7163469164217666e-06 0.0000000000000000e+00  -7.0503799223007348e+01 -2.7429003612295281e-06 0.0000000000000000e+00  -6.8778644017584497e+01 -2.7656972155981423e-06 0.0000000000000000e+00  -6.7097534381260544e+01 -2.7847668800255611e-06 0.0000000000000000e+00  -6.5459937468163403e+01 -2.8001399797334128e-06 0.0000000000000000e+00  -6.3865317125724445e+01 -2.8118531457835808e-06 0.0000000000000000e+00  -6.2313134600901762e+01 -2.8199389467999112e-06 0.0000000000000000e+00  -6.0802849239561240e+01 -2.8244414278575116e-06 0.0000000000000000e+00  -5.9333919178476322e+01 -2.8253964878039458e-06 0.0000000000000000e+00  -5.7905802029445056e+01 -2.8228487942433543e-06 0.0000000000000000e+00  -5.6517955555027008e+01 -2.8168379884630717e-06 0.0000000000000000e+00  -5.5169838335405259e+01 -2.8073992224263747e-06 0.0000000000000000e+00  -5.3860910425929383e+01 -2.7945688402250930e-06 0.0000000000000000e+00  -5.2590634004951653e+01 -2.7783535185739462e-06 0.0000000000000000e+00  -5.1358474011438787e+01 -2.7587299210512844e-06 0.0000000000000000e+00  -5.0163898772098001e+01 -2.7356017890405701e-06 0.0000000000000000e+00  -4.9006380617575985e+01 -2.7087418159182957e-06 0.0000000000000000e+00  -4.7885396487456639e+01 -2.6776667665958912e-06 0.0000000000000000e+00  -4.6800428523784795e+01 -2.6413967080282521e-06 0.0000000000000000e+00  -4.5750964652942791e+01 -2.5980336917257254e-06 0.0000000000000000e+00  -4.4736499155918061e+01 -2.5439273024964994e-06 0.0000000000000000e+00  -4.3756533227140480e+01 -2.4720890522161303e-06 0.0000000000000000e+00  -4.2810575522757205e+01 -2.3692382525442601e-06 0.0000000000000000e+00  -4.1898142700064142e+01 -2.2101457323009365e-06 0.0000000000000000e+00  -4.1018759951607954e+01 -1.9469631364818434e-06 0.0000000000000000e+00  -4.0171961540931136e+01 -1.4889915531424218e-06 0.0000000000000000e+00  -3.9357291353308064e+01 -6.6434635483924919e-07 0.0000000000000000e+00  -3.8574303486979950e+01 8.5263073041710664e-07 0.0000000000000000e+00  -3.7822562933395382e+01 3.6789141350586407e-06 0.0000000000000000e+00  -3.7101646438509036e+01 8.9833048942459693e-06 0.0000000000000000e+00  -3.6411143719670015e+01 1.8979944520543300e-05 0.0000000000000000e+00  -3.5750659368920914e+01 3.78