<?xml version="1.0"?>
<VTKFile type="UnstructuredGrid"  version="0.1"  >
<UnstructuredGrid>
<Piece  NumberOfPoints="1656" NumberOfCells="3000">
<Points>
<DataArray  type="Float64"  NumberOfComponents="3"  format="ascii">0 0 0  2 0 0  4 0 0  6 0 0  8 0 0  10 0 0  12 0 0  14 0 0  16 0 0  18 0 0  20 0 0  22 0 0  24 0 0  26 0 0  28 0 0  30 0 0  32 0 0  34 0 0  36 0 0  38 0 0  40 0 0  42 0 0  44 0 0  46 0 0  48 0 0  50 0 0  52 0 0  54 0 0  56 0 0  58 0 0  60 0 0  62 0 0  64 0 0  66 0 0  68 0 0  70 0 0  72 0 0  74 0 0  76 0 0  78 0 0  80 0 0  82 0 0  84 0 0  86 0 0  88 0 0  90 0 0  92 0 0  94 0 0  96 0 0  98 0 0  100 0 0  102 0 0  104 0 0  106 0 0  108 0 0  110 0 0  112 0 0  114 0 0  116 0 0  118 0 0  120 0 0  122 0 0  124 0 0  126 0 0  128 0 0  130 0 0  132 0 0  134 0 0  136 0 0  138 0 0  140 0 0  142 0 0  144 0 0  146 0 0  148 0 0  150 0 0  152 0 0  154 0 0  156 0 0  158 0 0  160 0 0  162 0 0  164 0 0  166 0 0  168 0 0  170 0 0  172 0 0  174 0 0  176 0 0  178 0 0  180 0 0  182 0 0  184 0 0  186 0 0  188 0 0  190 0 0  192 0 0  194 0 0  196 0 0  198 0 0  200 0 0  202 0 0  204 0 0  206 0 0  208 0 0  210 0 0  212 0 0  214 0 0  216 0 0  218 0 0  220 0 0  222 0 0  224 0 0  226 0 0  228 0 0  230 0 0  232 0 0  234 0 0  236 0 0  238 0 0  240 0 0  242 0 0  244 0 0  246 0 0  248 0 0  250 0 0  252 0 0  254 0 0  256 0 0  258 0 0  260 0 0  262 0 0  264 0 0  266 0 0  268 0 0  270 0 0  272 0 0  274 0 0  276 0 0  278 0 0  280 0 0  282 0 0  284 0 0  286 0 0  288 0 0  290 0 0  292 0 0  294 0 0  296 0 0  298 0 0  300 0 0  0 2 0  2 2 0  4 2 0  6 2 0  8 2 0  10 2 0  12 2 0  14 2 0  16 2 0  18 2 0  20 2 0  22 2 0  24 2 0  26 2 0  28 2 0  30 2 0  32 2 0  34 2 0  36 2 0  38 2 0  40 2 0  42 2 0  44 2 0  46 2 0  48 2 0  50 2 0  52 2 0  54 2 0  56 2 0  58 2 0  60 2 0  62 2 0  64 2 0  66 2 0  68 2 0  70 2 0  72 2 0  74 2 0  76 2 0  78 2 0  80 2 0  82 2 0  84 2 0  86 2 0  88 2 0  90 2 0  92 2 0  94 2 0  96 2 0  98 2 0  100 2 0  102 2 0  104 2 0  106 2 0  108 2 0  110 2 0  112 2 0  114 2 0  116 2 0  118 2 0  120 2 0  122 2 0  124 2 0  126 2 0  128 2 0  130 2 0  132 2 0  134 2 0  136 2 0  138 2 0  140 2 0  142 2 0  144 2 0  146 2 0  148 2 0  150 2 0  152 2 0  154 2 0  156 2 0  158 2 0  160 2 0  162 2 0  164 2 0  166 2 0  168 2 0  170 2 0  172 2 0  174 2 0  176 2 0  178 2 0  180 2 0  182 2 0  184 2 0  186 2 0  188 2 0  190 2 0  192 2 0  194 2 0  196 2 0  198 2 0  200 2 0  202 2 0  204 2 0  206 2 0  208 2 0  210 2 0  212 2 0  214 2 0  216 2 0  218 2 0  220 2 0  222 2 0  224 2 0  226 2 0  228 2 0  230 2 0  232 2 0  234 2 0  236 2 0  238 2 0  240 2 0  242 2 0  244 2 0  246 2 0  248 2 0  250 2 0  252 2 0  254 2 0  256 2 0  258 2 0  260 2 0  262 2 0  264 2 0  266 2 0  268 2 0  270 2 0  272 2 0  274 2 0  276 2 0  278 2 0  280 2 0  282 2 0  284 2 0  286 2 0  288 2 0  290 2 0  292 2 0  294 2 0  296 2 0  298 2 0  300 2 0  0 4 0  2 4 0  4 4 0  6 4 0  8 4 0  10 4 0  12 4 0  14 4 0  16 4 0  18 4 0  20 4 0  22 4 0  24 4 0  26 4 0  28 4 0  30 4 0  32 4 0  34 4 0  36 4 0  38 4 0  40 4 0  42 4 0  44 4 0  46 4 0  48 4 0  50 4 0  52 4 0  54 4 0  56 4 0  58 4 0  60 4 0  62 4 0  64 4 0  66 4 0  68 4 0  70 4 0  72 4 0  74 4 0  76 4 0  78 4 0  80 4 0  82 4 0  84 4 0  86 4 0  88 4 0  90 4 0  92 4 0  94 4 0  96 4 0  98 4 0  100 4 0  102 4 0  104 4 0  106 4 0  108 4 0  110 4 0  112 4 0  114 4 0  116 4 0  118 4 0  120 4 0  122 4 0  124 4 0  126 4 0  128 4 0  130 4 0  132 4 0  134 4 0  136 4 0  138 4 0  140 4 0  142 4 0  144 4 0  146 4 0  148 4 0  150 4 0  152 4 0  154 4 0  156 4 0  158 4 0  160 4 0  162 4 0  164 4 0  166 4 0  168 4 0  170 4 0  172 4 0  174 4 0  176 4 0  178 4 0  180 4 0  182 4 0  184 4 0  186 4 0  188 4 0  190 4 0  192 4 0  194 4 0  196 4 0  198 4 0  200 4 0  202 4 0  204 4 0  206 4 0  208 4 0  210 4 0  212 4 0  214 4 0  216 4 0  218 4 0  220 4 0  222 4 0  224 4 0  226 4 0  228 4 0  230 4 0  232 4 0  234 4 0  236 4 0  238 4 0  240 4 0  242 4 0  244 4 0  246 4 0  248 4 0  250 4 0  252 4 0  254 4 0  256 4 0  258 4 0  260 4 0  262 4 0  264 4 0  266 4 0  268 4 0  270 4 0  272 4 0  274 4 0  276 4 0  278 4 0  280 4 0  282 4 0  284 4 0  286 4 0  288 4 0  290 4 0  292 4 0  294 4 0  296 4 0  298 4 0  300 4 0  0 6 0  2 6 0  4 6 0  6 6 0  8 6 0  10 6 0  12 6 0  14 6 0  16 6 0  18 6 0  20 6 0  22 6 0  24 6 0  26 6 0  28 6 0  30 6 0  32 6 0  34 6 0  36 6 0  38 6 0  40 6 0  42 6 0  44 6 0  46 6 0  48 6 0  50 6 0  52 6 0  54 6 0  56 6 0  58 6 0  60 6 0  62 6 0  64 6 0  66 6 0  68 6 0  70 6 0  72 6 0  74 6 0  76 6 0  78 6 0  80 6 0  82 6 0  84 6 0  86 6 0  88 6 0  90 6 0  92 6 0  94 6 0  96 6 0  98 6 0  100 6 0  102 6 0  104 6 0  106 6 0  108 6 0  110 6 0  112 6 0  114 6 0  116 6 0  118 6 0  120 6 0  122 6 0  124 6 0  126 6 0  128 6 0  130 6 0  132 6 0  134 6 0  136 6 0  138 6 0  140 6 0  142 6 0  144 6 0  146 6 0  148 6 0  150 6 0  152 6 0  154 6 0  156 6 0  158 6 0  160 6 0  162 6 0  164 6 0  166 6 0  168 6 0  170 6 0  172 6 0  174 6 0  176 6 0  178 6 0  180 6 0  182 6 0  184 6 0  186 6 0  188 6 0  190 6 0  192 6 0  194 6 0  196 6 0  198 6 0  200 6 0  202 6 0  204 6 0  206 6 0  208 6 0  210 6 0  212 6 0  214 6 0  216 6 0  218 6 0  220 6 0  222 6 0  224 6 0  226 6 0  228 6 0  230 6 0  232 6 0  234 6 0  236 6 0  238 6 0  240 6 0  242 6 0  244 6 0  246 6 0  248 6 0  250 6 0  252 6 0  254 6 0  256 6 0  258 6 0  260 6 0  262 6 0  264 6 0  266 6 0  268 6 0  270 6 0  272 6 0  274 6 0  276 6 0  278 6 0  280 6 0  282 6 0  284 6 0  286 6 0  288 6 0  290 6 0  292 6 0  294 6 0  296 6 0  298 6 0  300 6 0  0 8 0  2 8 0  4 8 0  6 8 0  8 8 0  10 8 0  12 8 0  14 8 0  16 8 0  18 8 0  20 8 0  22 8 0  24 8 0  26 8 0  28 8 0  30 8 0  32 8 0  34 8 0  36 8 0  38 8 0  40 8 0  42 8 0  44 8 0  46 8 0  48 8 0  50 8 0  52 8 0  54 8 0  56 8 0  58 8 0  60 8 0  62 8 0  64 8 0  66 8 0  68 8 0  70 8 0  72 8 0  74 8 0  76 8 0  78 8 0  80 8 0  82 8 0  84 8 0  86 8 0  88 8 0  90 8 0  92 8 0  94 8 0  96 8 0  98 8 0  100 8 0  102 8 0  104 8 0  106 8 0  108 8 0  110 8 0  112 8 0  114 8 0  116 8 0  118 8 0  120 8 0  122 8 0  124 8 0  126 8 0  128 8 0  130 8 0  132 8 0  134 8 0  136 8 0  138 8 0  140 8 0  142 8 0  144 8 0  146 8 0  148 8 0  150 8 0  152 8 0  154 8 0  156 8 0  158 8 0  160 8 0  162 8 0  164 8 0  166 8 0  168 8 0  170 8 0  172 8 0  174 8 0  176 8 0  178 8 0  180 8 0  182 8 0  184 8 0  186 8 0  188 8 0  190 8 0  192 8 0  194 8 0  196 8 0  198 8 0  200 8 0  202 8 0  204 8 0  206 8 0  208 8 0  210 8 0  212 8 0  214 8 0  216 8 0  218 8 0  220 8 0  222 8 0  224 8 0  226 8 0  228 8 0  230 8 0  232 8 0  234 8 0  236 8 0  238 8 0  240 8 0  242 8 0  244 8 0  246 8 0  248 8 0  250 8 0  252 8 0  254 8 0  256 8 0  258 8 0  260 8 0  262 8 0  264 8 0  266 8 0  268 8 0  270 8 0  272 8 0  274 8 0  276 8 0  278 8 0  280 8 0  282 8 0  284 8 0  286 8 0  288 8 0  290 8 0  292 8 0  294 8 0  296 8 0  298 8 0  300 8 0  0 10 0  2 10 0  4 10 0  6 10 0  8 10 0  10 10 0  12 10 0  14 10 0  16 10 0  18 10 0  20 10 0  22 10 0  24 10 0  26 10 0  28 10 0  30 10 0  32 10 0  34 10 0  36 10 0  38 10 0  40 10 0  42 10 0  44 10 0  46 10 0  48 10 0  50 10 0  52 10 0  54 10 0  56 10 0  58 10 0  60 10 0  62 10 0  64 10 0  66 10 0  68 10 0  70 10 0  72 10 0  74 10 0  76 10 0  78 10 0  80 10 0  82 10 0  84 10 0  86 10 0  88 10 0  90 10 0  92 10 0  94 10 0  96 10 0  98 10 0  100 10 0  102 10 0  104 10 0  106 10 0  108 10 0  110 10 0  112 10 0  114 10 0  116 10 0  118 10 0  120 10 0  122 10 0  124 10 0  126 10 0  128 10 0  130 10 0  132 10 0  134 10 0  136 10 0  138 10 0  140 10 0  142 10 0  144 10 0  146 10 0  148 10 0  150 10 0  152 10 0  154 10 0  156 10 0  158 10 0  160 10 0  162 10 0  164 10 0  166 10 0  168 10 0  170 10 0  172 10 0  174 10 0  176 10 0  178 10 0  180 10 0  182 10 0  184 10 0  186 10 0  188 10 0  190 10 0  192 10 0  194 10 0  196 10 0  198 10 0  200 10 0  202 10 0  204 10 0  206 10 0  208 10 0  210 10 0  212 10 0  214 10 0  216 10 0  218 10 0  220 10 0  222 10 0  224 10 0  226 10 0  228 10 0  230 10 0  232 10 0  234 10 0  236 10 0  238 10 0  240 10 0  242 10 0  244 10 0  246 10 0  248 10 0  250 10 0  252 10 0  254 10 0  256 10 0  258 10 0  260 10 0  262 10 0  264 10 0  266 10 0  268 10 0  270 10 0  272 10 0  274 10 0  276 10 0  278 10 0  280 10 0  282 10 0  284 10 0  286 10 0  288 10 0  290 10 0  292 10 0  294 10 0  296 10 0  298 10 0  300 10 0  1 1 0  3 1 0  5 1 0  7 1 0  9 1 0  11 1 0  13 1 0  15 1 0  17 1 0  19 1 0  21 1 0  23 1 0  25 1 0  27 1 0  29 1 0  31 1 0  33 1 0  35 1 0  37 1 0  39 1 0  41 1 0  43 1 0  45 1 0  47 1 0  49 1 0  51 1 0  53 1 0  55 1 0  57 1 0  59 1 0  61 1 0  63 1 0  65 1 0  67 1 0  69 1 0  71 1 0  73 1 0  75 1 0  77 1 0  79 1 0  81 1 0  83 1 0  85 1 0  87 1 0  89 1 0  91 1 0  93 1 0  95 1 0  97 1 0  99 1 0  101 1 0  103 1 0  105 1 0  107 1 0  109 1 0  111 1 0  113 1 0  115 1 0  117 1 0  119 1 0  121 1 0  123 1 0  125 1 0  127 1 0  129 1 0  131 1 0  133 1 0  135 1 0  137 1 0  139 1 0  141 1 0  143 1 0  145 1 0  147 1 0  149 1 0  151 1 0  153 1 0  155 1 0  157 1 0  159 1 0  161 1 0  163 1 0  165 1 0  167 1 0  169 1 0  171 1 0  173 1 0  175 1 0  177 1 0  179 1 0  181 1 0  183 1 0  185 1 0  187 1 0  189 1 0  191 1 0  193 1 0  195 1 0  197 1 0  199 1 0  201 1 0  203 1 0  205 1 0  207 1 0  209 1 0  211 1 0  213 1 0  215 1 0  217 1 0  219 1 0  221 1 0  223 1 0  225 1 0  227 1 0  229 1 0  231 1 0  233 1 0  235 1 0  237 1 0  239 1 0  241 1 0  243 1 0  245 1 0  247 1 0  249 1 0  251 1 0  253 1 0  255 1 0  257 1 0  259 1 0  261 1 0  263 1 0  265 1 0  267 1 0  269 1 0  271 1 0  273 1 0  275 1 0  277 1 0  279 1 0  281 1 0  283 1 0  285 1 0  287 1 0  289 1 0  291 1 0  293 1 0  295 1 0  297 1 0  299 1 0  1 3 0  3 3 0  5 3 0  7 3 0  9 3 0  11 3 0  13 3 0  15 3 0  17 3 0  19 3 0  21 3 0  23 3 0  25 3 0  27 3 0  29 3 0  31 3 0  33 3 0  35 3 0  37 3 0  39 3 0  41 3 0  43 3 0  45 3 0  47 3 0  49 3 0  51 3 0  53 3 0  55 3 0  57 3 0  59 3 0  61 3 0  63 3 0  65 3 0  67 3 0  69 3 0  71 3 0  73 3 0  75 3 0  77 3 0  79 3 0  81 3 0  83 3 0  85 3 0  87 3 0  89 3 0  91 3 0  93 3 0  95 3 0  97 3 0  99 3 0  101 3 0  103 3 0  105 3 0  107 3 0  109 3 0  111 3 0  113 3 0  115 3 0  117 3 0  119 3 0  121 3 0  123 3 0  125 3 0
[...]
<PointData  Vectors="flow"> 
<DataArray  type="Float64"  Name="flow"  NumberOfComponents="3" format="ascii">-4.5735660140390269e+02 -1.9810306501766188e+00 0.0000000000000000e+00  -4.4943497346001470e+02 -1.9799161951226454e+00 0.0000000000000000e+00  -4.3756463541215129e+02 -1.9765770245304599e+00 0.0000000000000000e+00  -4.2572097533673627e+02 -1.9710256924804317e+00 0.0000000000000000e+00  -4.1391720690417065e+02 -1.9632830233865741e+00 0.0000000000000000e+00  -4.0216639440123407e+02 -1.9533779646775371e+00 0.0000000000000000e+00  -3.9048140458368937e+02 -1.9413473826945196e+00 0.0000000000000000e+00  -3.7887485991630928e+02 -1.9272358046951674e+00 0.0000000000000000e+00  -3.6735909351774831e+02 -1.9110951090352346e+00 0.0000000000000000e+00  -3.5594610610869154e+02 -1.8929841676377361e+00 0.0000000000000000e+00  -3.4464752523900404e+02 -1.8729684443316645e+00 0.0000000000000000e+00  -3.3347456704565150e+02 -1.8511195536016078e+00 0.0000000000000000e+00  -3.2243800076536183e+02 -1.8275147842377513e+00 0.0000000000000000e+00  -3.1154811619708966e+02 -1.8022365929717550e+00 0.0000000000000000e+00  -3.0081469427930506e+02 -1.7753720733136831e+00 0.0000000000000000e+00  -2.9024698091500488e+02 -1.7470124048420468e+00 0.0000000000000000e+00  -2.7985366414595717e+02 -1.7172522881623209e+00 0.0000000000000000e+00  -2.6964285474520170e+02 -1.6861893711948701e+00 0.0000000000000000e+00  -2.5962207026530132e+02 -1.6539236716937271e+00 0.0000000000000000e+00  -2.4979822254874330e+02 -1.6205570012739106e+00 0.0000000000000000e+00  -2.4017760867705763e+02 -1.5861923957707131e+00 0.0000000000000000e+00  -2.3076590530681267e+02 -1.5509335565026869e+00 0.0000000000000000e+00  -2.2156816631384217e+02 -1.5148843067930740e+00 0.0000000000000000e+00  -2.1258882364248606e+02 -1.4781480675978047e+00 0.0000000000000000e+00  -2.0383169123418179e+02 -1.4408273558507603e+00 0.0000000000000000e+00  -1.9529997188945578e+02 -1.4030233086901978e+00 0.0000000000000000e+00  -1.8699626689993656e+02 -1.3648352362313529e+00 0.0000000000000000e+00  -1.7892258827181081e+02 -1.3263602052531356e+00 0.0000000000000000e+00  -1.7108037334982447e+02 -1.2876926555296859e+00 0.0000000000000000e+00  -1.6347050164083518e+02 -1.2489240504544667e+00 0.0000000000000000e+00  -1.5609331362877845e+02 -1.2101425627428588e+00 0.0000000000000000e+00  -1.4894863136793384e+02 -1.1714327960282600e+00 0.0000000000000000e+00  -1.4203578063884518e+02 -1.1328755423460810e+00 0.0000000000000000e+00  -1.3535361445100625e+02 -1.0945475757056227e+00 0.0000000000000000e+00  -1.2890053767814442e+02 -1.0565214809194217e+00 0.0000000000000000e+00  -1.2267453261570080e+02 -1.0188655172454815e+00 0.0000000000000000e+00  -1.1667318525547049e+02 -9.8164351554639495e-01 0.0000000000000000e+00  -1.1089371207938652e+02 -9.4491480789029847e-01 0.0000000000000000e+00  -1.0533298718270342e+02 -9.0873418795199123e-01 0.0000000000000000e+00  -9.9987569546422066e+01 -8.7315190064839243e-01 0.0000000000000000e+00  -9.4853730289069034e+01 -8.3821365912578583e-01 0.0000000000000000e+00  -8.9927479739435626e+01 -8.0396068721992076e-01 0.0000000000000000e+00  -8.5204594183403216e+01 -7.7042978534717887e-01 0.0000000000000000e+00  -8.0680642150500518e+01 -7.3765341778220184e-01 0.0000000000000000e+00  -7.6351010118180994e+01 -7.0565981919009391e-01 0.0000000000000000e+00  -7.2210927524466271e+01 -6.7447311838067459e-01 0.0000000000000000e+00  -6.8255490992229312e+01 -6.4411347706968314e-01 0.0000000000000000e+00  -6.4479687680744348e+01 -6.1459724175164387e-01 0.0000000000000000e+00  -6.0878417692363392e+01 -5.8593710655652331e-01 0.0000000000000000e+00  -5.7446515473890400e+01 -5.5814228523296960e-01 0.0000000000000000e+00  -5.4178770163606785e+01 -5.3121869038523328e-01 0.0000000000000000e+00  -5.1069944845703873e+01 -5.0516911822484745e-01 0.0000000000000000e+00  -4.8114794684045464e+01 -4.7999343715710496e-01 0.0000000000000000e+00  -4.5308083916797628e+01 -4.5568877871274993e-01 0.0000000000000000e+00  -4.2644601702402269e+01 -4.3224972933502476e-01 0.0000000000000000e+00  -4.0119176815515416e+01 -4.0966852177487190e-01 0.0000000000000000e+00  -3.7726691199079738e+01 -3.8793522483225545e-01 0.0000000000000000e+00  -3.5462092385503020e+01 -3.6703793045377003e-01 0.0000000000000000e+00  -3.3320404805957438e+01 -3.4696293714652504e-01 0.0000000000000000e+00  -3.1296740012215469e+01 -3.2769492894922209e-01 0.0000000000000000e+00  -2.9386305840114051e+01 -3.0921714916727333e-01 0.0000000000000000e+00  -2.7584414547779055e+01 -2.9151156830584374e-01 0.0000000000000000e+00  -2.5886489965129890e+01 -2.7455904565983963e-01 0.0000000000000000e+00  -2.4288073693955326e+01 -2.5833948414892333e-01 0.0000000000000000e+00  -2.2784830400083756e+01 -2.4283197807820392e-01 0.0000000000000000e+00  -2.1372552240840879e+01 -2.2801495359292678e-01 0.0000000000000000e+00  -2.0047162472165120e+01 -2.1386630165668138e-01 0.0000000000000000e+00  -1.8804718280473018e+01 -2.0036350348512758e-01 0.0000000000000000e+00  -1.7641412884677777e+01 -1.8748374839126117e-01 0.0000000000000000e+00  -1.6553576953684257e+01 -1.7520404412621135e-01 0.0000000000000000e+00  -1.5537679384267772e+01 -1.6350131975998752e-01 0.0000000000000000e+00  -1.4590327483542971e+01 -1.5235252129259458e-01 0.0000000000000000e+00  -1.3708266599240602e+01 -1.4173470013135059e-01 0.0000000000000000e+00  -1.2888379239831860e+01 -1.3162509469335218e-01 0.0000000000000000e+00  -1.2127683725144596e+01 -1.2200120534061007e-01 0.0000000000000000e+00  -1.1423332406575883e+01 -1.1284086295034482e-01 0.0000000000000000e+00  -1.0772609494353928e+01 -1.0412229136259313e-01 0.0000000000000000e+00  -1.0172928527551040e+01 -9.5824164052987659e-02 0.0000000000000000e+00  -9.6218295207282498e+00 -8.7925655295544428e-02 0.0000000000000000e+00  -9.1169758192543409e+00 -8.0406486143261333e-02 0.0000000000000000e+00  -8.6561506934752490e+00 -7.3246965539052050e-02 0.0000000000000000e+00  -8.2372537000640271e+00 -6.6428026851679756e-02 0.0000000000000000e+00  -7.8582968370737802e+00 -5.9931260142096869e-02 0.0000000000000000e+00  -7.5174005174378973e+00 -5.3738940447464738e-02 0.0000000000000000e+00  -7.2127893839821802e+00 -4.7834052366722127e-02 0.0000000000000000e+00  -6.9427879873946168e+00 -4.2200311189864927e-02 0.0000000000000000e+00  -6.7058163470713996e+00 -3.6822180832474870e-02 0.0000000000000000e+00  -6.5003854133731744e+00 -3.1684888798402241e-02 0.0000000000000000e+00  -6.3250924485157007e+00 -2.6774438361691459e-02 0.0000000000000000e+00  -6.1786163421596800e+00 -2.2077618173448756e-02 0.0000000000000000e+00  -6.0597128767281871e+00 -1.7582009434321776e-02 0.0000000000000000e+00  -5.9672099565860561e+00 -1.3275990782712584e-02 0.0000000000000000e+00  -5.9000028144402332e+00 -9.1487410114316908e-03 0.0000000000000000e+00  -5.8570492077111940e+00 -5.1902397064064716e-03 0.0000000000000000e+00  -5.8373646171395439e+00 -1.3912658709018674e-03 0.0000000000000000e+00  -5.8400174595351313e+00 2.2566054110551830e-03 0.0000000000000000e+00  -5.8641243263659675e+00 5.7610082474434891e-03 0.0000000000000000e+00  -5.9088452598083041e+00 9.1287931506842876e-03 0.0000000000000000e+00  -5.9733790778741156e+00 1.2366036192568968e-02 0.0000000000000000e+00  -6.0569587604154371e+00 1.5478050146412597e-02 0.0000000000000000e+00  -6.1588469080165948e+00 1.8469397645516056e-02 0.0000000000000000e+00  -6.2783312861341329e+00 2.1343906446052247e-02 0.0000000000000000e+00  -6.4147204672222582e+00 2.4104686843286580e-02 0.0000000000000000e+00  -6.5673395840682076e+00 2.6754151334796722e-02 0.0000000000000000e+00  -6.7355262080563874e+00 2.9294036609575184e-02 0.0000000000000000e+00  -6.9186263666049461e+00 3.1725427960628702e-02 0.0000000000000000e+00  -7.1159907145463279e+00 3.4048786205462651e-02 0.0000000000000000e+00  -7.3269708747539521e+00 3.6263977187752552e-02 0.0000000000000000e+00  -7.5509159637767622e+00 3.8370303963912632e-02 0.0000000000000000e+00  -7.7871693186628423e+00 4.0366541696852533e-02 0.0000000000000000e+00  -8.0350654415072658e+00 4.2250975355368217e-02 0.0000000000000000e+00  -8.2939271784654558e+00 4.4021440215006702e-02 0.0000000000000000e+00  -8.5630631500916987e+00 4.5675365196083048e-02 0.0000000000000000e+00  -8.8417654498636971e+00 4.7209819043516454e-02 0.0000000000000000e+00  -9.1293076275561589e+00 4.8621559338879315e-02 0.0000000000000000e+00  -9.4249429738839563e+00 4.9907084357244585e-02 0.0000000000000000e+00  -9.7279031224671009e+00 5.1062687853637198e-02 0.0000000000000000e+00  -1.0037396984906882e+01 5.2084516958204576e-02 0.0000000000000000e+00  -1.0352610034747675e+01 5.2968633719362647e-02 0.0000000000000000e+00  -1.0672703956962318e+01 5.3711081372602568e-02 0.0000000000000000e+00  -1.0996816682088607e+01 5.4307957624972959e-02 0.0000000000000000e+00  -1.1324062830281658e+01 5.4755499524444695e-02 0.0000000000000000e+00  -1.1653534603551348e+01 5.5050188781917933e-02 0.0000000000000000e+00  -1.1984303190916332e+01 5.5188894756521341e-02 0.0000000000000000e+00  -1.2315420803357249e+01 5.5169087961721652e-02 0.0000000000000000e+00  -1.2645923556517587e+01 5.4989186853067556e-02 0.0000000000000000e+00  -1.2974835613087922e+01 5.4649157141954632e-02 0.0000000000000000e+00  -1.3301175367151519e+01 5.4151590092437779e-02 0.0000000000000000e+00  -1.3623965157242992e+01 5.3503689321457659e-02 0.0000000000000000e+00  -1.3942247332916699e+01 5.2720980421689476e-02 0.0000000000000000e+00  -1.4255112037890505e+01 5.1834286814456162e-02 0.0000000000000000e+00  -1.4561746885870635e+01 5.0902896852866725e-02 0.0000000000000000e+00  -1.4861527830038550e+01 5.0039465914571035e-02 0.0000000000000000e+00  -1.5154187827327771e+01 4.9457162922347225e-02 0.0000000000000000e+00  -1.5440132724448045e+01 4.9558995720146035e-02 0.0000000000000000e+00  -1.5721036104820373e+01 5.1107174345141518e-02 0.0000000000000000e+00  -1.6000963696543593e+01 5.5544577659567926e-02 0.0000000000000000e+00  -1.6288504246804795e+01 6.5606266111271183e-02 0.0000000000000000e+00  -1.6600828201116666e+01 8.6487125627059472e-02 0.0000000000000000e+00  -1.6971432794090283e+01 1.2809264643342419e-01 0.0000000000000000e+00  -1.7465271003888130e+01 2.0942854830830568e-01 0.0000000000000000e+00  -1.8207889337765259e+01 3.6755455354860145e-01 0.0000000000000000e+00  -1.9449672834590345e+01 6.7596156725206025e-01 0.0000000000000000e+00  -2.1682235735312744e+01 1.2915637205599104e+00 0.0000000000000000e+00  -2.6052100651243784e+01 2.5448633061148498e+00 0.0000000000000000e+00  -3.4740141259936159e+01 5.3986049966497403e+00 0.0000000000000000e+00  -5.5406794196338566e+01 1.1472738624624858e+01 0.0000000000000000e+00  -9.8415820887388080e+01 3.0741367169155890e+01 0.0000000000000000e+00  -1.8136446039467904e+02 4.7118456965285240e+01 0.0000000000000000e+00  -3.0689799385760551e+02 8.4187961080972315e+01 0.0000000000000000e+00  -3.7759836547323295e+02 7.5336571693001119e+01 0.0000000000000000e+00  -4.5735660140390667e+02 6.9669846623032883e-05 0.0000000000000000e+00  -4.4943497346001641e+02 6.9538708167030751e-05 0.0000000000000000e+00  -4.3756463541215697e+02 6.9146210881802003e-05 0.0000000000000000e+00  -4.2572097533674179e+02 6.8495160032116601e-05 0.0000000000000000e+00  -4.1391720690417418e+02 6.7590146827232117e-05 0.0000000000000000e+00  -4.0216639440122884e+02 6.6437574192675111e-05 0.0000000000000000e+00  -3.9048140458368300e+02 6.5045495186271678e-05 0.0000000000000000e+00  -3.7887485991630797e+02 6.3423596203357767e-05 0.0000000000000000e+00  -3.6735909351776155e+02 6.1583063584527884e-05 0.0000000000000000e+00  -3.5594610610869597e+02 5.9536450108374191e-05 0.0000000000000000e+00  -3.4464752523899108e+02 5.7297569308483802e-05 0.0000000000000000e+00  -3.3347456704565309e+02 5.4881310005089435e-05 0.0000000000000000e+00  -3.2243800076536172e+02 5.2303500840954481e-05 0.0000000000000000e+00  -3.1154811619708909e+02 4.9580748503857978e-05 0.0000000000000000e+00  -3.0081469427930506e+02 4.6730279474284509e-05 0.0000000000000000e+00  -2.9024698091500642e+02 4.3769766941288201e-05 0.0000000000000000e+00  -2.7985366414595387e+02 4.0717140791556998e-05 0.0000000000000000e+00  -2.6964285474520477e+02 3.7590458484888514e-05 0.0000000000000000e+00  -2.5962207026530194e+02 3.4407728115380825e-05 0.0000000000000000e+00  -2.4979822254874063e+02 3.1186769196801166e-05 0.0000000000000000e+00  -2.4017760867705800e+02 2.7945043257419678e-05 0.0000000000000000e+00  -2.3076590530681514e+02 2.4699537056174748e-05 0.0000000000000000e+00  -2.2156816631384086e+02 2.1466650725560812e-05 0.0000000000000000e+00  -2.1258882364248433e+02 1.8262068072146497e-05 0.0000000000000000e+00  -2.0383169123418375e+02 1.5100661154730172e-05 0.0000000000000000e+00  -1.9529997188945660e+02 1.1996403908559639e-05 0.0000000000000000e+00  -1.8699626689993352e+02 8.9623194218179854e-06 0.0000000000000000e+00  -1.7892258827181348e+02 6.0103917090253165e-06 0.0000000000000000e+00  -1.7108037334982643e+02 3.1515494133639106e-06 0.0000000000000000e+00  -1.6347050164083396e+02 3.9560553521106286e-07 0.0000000000000000e+00  -1.5609331362877785e+02 -2.2487315814365140e-06 0.0000000000000000e+00  -1.4894863136793373e+02 -4.7738852417308186e-06 0.0000000000000000e+00  -1.4203578063884470e+02 -7.1734066252829281e-06 0.0000000000000000e+00  -1.3535361445100767e+02 -9.4419477196137187e-06 0.0000000000000000e+00  -1.2890053767814388e+02 -1.1575250746742875e-05 0.0000000000000000e+00  -1.2267453261570071e+02 -1.3570103082362345e-05 0.0000000000000000e+00  -1.1667318525547172e+02 -1.5424305485009237e-05 0.0000000000000000e+00  -1.1089371207938447e+02 -1.7136628238636470e-05 0.0000000000000000e+00  -1.0533298718270504e+02 -1.8706750113417642e-05 0.0000000000000000e+00  -9.9987569546420602e+01 -2.0135201693055543e-05 0.0000000000000000e+00  -9.4853730289070100e+01 -2.1423317763801899e-05 0.0000000000000000e+00  -8.9927479739435555e+01 -2.2573160658238722e-05 0.0000000000000000e+00  -8.5204594183402236e+01 -2.3587460981736171e-05 0.0000000000000000e+00  -8.0680642150501086e+01 -2.4469552150068332e-05 0.0000000000000000e+00  -7.6351010118180994e+01 -2.5223305178685896e-05 0.0000000000000000e+00  -7.2210927524467010e+01 -2.5853062774509625e-05 0.0000000000000000e+00  -6.8255490992228005e+01 -2.6363570836805862e-05 0.0000000000000000e+00  -6.4479687680744789e+01 -2.6759926950962459e-05 0.0000000000000000e+00  -6.0878417692364337e+01 -2.7047506497601775e-05 0.0000000000000000e+00  -5.7446515473889171e+01 -2.7231914212684851e-05 0.0000000000000000e+00  -5.4178770163606416e+01 -2.7318927654196275e-05 0.0000000000000000e+00  -5.1069944845705052e+01 -2.7314442045545123e-05 0.0000000000000000e+00  -4.8114794684045286e+01 -2.7224427885775421e-05 0.0000000000000000e+00  -4.5308083916796939e+01 -2.7054879741722347e-05 0.0000000000000000e+00  -4.2644601702402937e+01 -2.6811782205860167e-05 0.0000000000000000e+00  -4.0119176815515409e+01 -2.6501067423713903e-05 0.0000000000000000e+00  -3.7726691199079447e+01 -2.6128581959094428e-05 0.0000000000000000e+00  -3.5462092385502793e+01 -2.5700060762337278e-05 0.0000000000000000e+00  -3.3320404805957580e+01 -2.5221096833335653e-05 0.0000000000000000e+00  -3.1296740012215921e+01 -2.4697123040413135e-05 0.0000000000000000e+00  -2.9386305840113845e+01 -2.4133385447969079e-05 0.0000000000000000e+00  -2.7584414547779073e+01 -2.3534935952557341e-05 0.0000000000000000e+00  -2.5886489965129861e+01 -2.2906613944466033e-05 0.0000000000000000e+00  -2.4288073693955351e+01 -2.2253036412161692e-05 0.0000000000000000e+00  -2.2784830400083500e+01 -2.1578593590942603e-05 0.0000000000000000e+00  -2.1372552240840438e+01 -2.0887441294882687e-05 0.0000000000000000e+00  -2.0047162472165528e+01 -2.0183498656854974e-05 0.0000000000000000e+00  -1.8804718280473171e+01 -1.9470449957677236e-05 0.0000000000000000e+00  -1.7641412884677834e+01 -1.8751740681897940e-05 0.0000000000000000e+00  -1.6553576953684285e+01 -1.8030587757165470e-05 0.0000000000000000e+00  -1.5537679384267975e+01 -1.7309977523193565e-05 0.0000000000000000e+00  -1.4590327483543021e+01 -1.6592674640865629e-05 0.0000000000000000e+00  -1.3708266599240563e+01 -1.5881228785339116e-05 0.0000000000000000e+00  -1.2888379239831522e+01 -1.5177981470287459e-05 0.0000000000000000e+00  -1.2127683725144381e+01 -1.4485074514829587e-05 0.0000000000000000e+00  -1.1423332406576247e+01 -1.3804458776972817e-05 0.0000000000000000e+00  -1.0772609494353986e+01 -1.3137904918135199e-05 0.0000000000000000e+00  -1.0172928527551148e+01 -1.2487011193564214e-05 0.0000000000000000e+00  -9.6218295207284807e+00 -1.1853213650994447e-05 0.0000000000000000e+00  -9.1169758192539199e+00 -1.1237796564215104e-05 0.0000000000000000e+00  -8.6561506934752135e+00 -1.0641901517432956e-05 0.0000000000000000e+00  -8.2372537000647306e+00 -1.0066536196690345e-05 0.0000000000000000e+00  -7.8582968370737332e+00 -9.5125830007504538e-06 0.0000000000000000e+00  -7.5174005174371841e+00 -8.9808104781740523e-06 0.0000000000000000e+00  -7.2127893839821793e+00 -8.4718779533846302e-06 0.0000000000000000e+00  -6.9427879873948237e+00 -7.9863461654683700e-06 0.0000000000000000e+00  -6.7058163470714982e+00 -7.5246819206209647e-06 0.0000000000000000e+00  -6.5003854133733352e+00 -7.0872656558859180e-06 0.0000000000000000e+00  -6.3250924485152318e+00 -6.6743966329399208e-06 0.0000000000000000e+00  -6.1786163421594482e+00 -6.2862994829522030e-06 0.0000000000000000e+00  -6.0597128767285113e+00 -5.9231267111820122e-06 0.0000000000000000e+00  -5.9672099565862231e+00 -5.5849632208954153e-06 0.0000000000000000e+00  -5.9000028144402608e+00 -5.2718277787770170e-06 0.0000000000000000e+00  -5.8570492077113459e+00 -4.9836781712217227e-06 0.0000000000000000e+00  -5.8373646171396629e+00 -4.7204102115462605e-06 0.0000000000000000e+00  -5.8400174595344803e+00 -4.4818581439886845e-06 0.0000000000000000e+00  -5.8641243263659808e+00 -4.2677971160674511e-06 0.0000000000000000e+00  -5.9088452598087464e+00 -4.0779417429020405e-06 0.0000000000000000e+00  -5.9733790778740117e+00 -3.9119432182793198e-06 0.0000000000000000e+00  -6.0569587604142070e+00 -3.7693898192425753e-06 0.0000000000000000e+00  -6.1588469080156774e+00 -3.6498050770077494e-06 0.0000000000000000e+00  -6.2783312861327207e+00 -3.5526445110963312e-06 0.0000000000000000e+00  -6.4147204672190030e+00 -3.4772929144882743e-06 0.0000000000000000e+00  -6.5673395840614210e+00 -3.4230610400190883e-06 0.0000000000000000e+00  -6.7355262080444831e+00 -3.3891830641508541e-06 0.0000000000000000e+00  -6.9186263665819876e+00 -3.3748119139080593e-06 0.0000000000000000e+00  -7.1159907145033525e+00 -3.3790132856252534e-06 0.0000000000000000e+00  -7.3269708746730400e+00 -3.4007592583575507e-06 0.0000000000000000e+00  -7.5509159636221694e+00 -3.4389163187627188e-06 0.0000000000000000e+00  -7.7871693183706894e+00 -3.4922245908598641e-06 0.0000000000000000e+00  -8.0350654409534670e+00 -3.5592646133336613e-06 0.0000000000000000e+00  -8.2939271774161405e+00 -3.6383899496417880e-06 0.0000000000000000e+00  -8.5630631481039039e+00 -3.7276023900474534e-06 0.0000000000000000e+00  -8.8417654460975132e+00 -3.8243221721388036e-06 0.0000000000000000e+00  -9.1293076204212387e+00 -3.9249394302874427e-06 0.0000000000000000e+00  -9.4249429603669306e+00 -4.0239764560025463e-06 0.0000000000000000e+00  -9.7279030968589293e+00 -4.1124898354600444e-06 0.0000000000000000e+00  -1.0037396936391268e+01 -4.1750374505520740e-06 0.0000000000000000e+00  -1.0352609942832807e+01 -4.1839396274602639e-06 0.0000000000000000e+00  -1.0672703782827487e+01 -4.0883901961413470e-06 0.0000000000000000e+00  -1.0996816352185412e+01 -3.7938212624077848e-06 0.0000000000000000e+00  -1.1324062205271311e+01 -3.1228068705156014e-06 0.0000000000000000e+00  -1.1653533419451774e+01 -1.7409762984797255e-06 0.0000000000000000e+00  -1.1984300947605702e+01 9.8335474137608625e-07 0.0000000000000000e+00  -1.2315416553342905e+01 6.2451206581150134e-06 0.0000000000000000e+00  -1.2645915504745114e+01 1.6306357887623314e-05 0.0000000000000000e+00  -1.2974820358774650e+01 3.54507719721