<?xml version="1.0"?>
<VTKFile type="UnstructuredGrid"  version="0.1"  >
<UnstructuredGrid>
<Piece  NumberOfPoints="1656" NumberOfCells="3000">
<Points>
<DataArray  type="Float64"  NumberOfComponents="3"  format="ascii">0 0 0  2 0 0  4 0 0  6 0 0  8 0 0  10 0 0  12 0 0  14 0 0  16 0 0  18 0 0  20 0 0  22 0 0  24 0 0  26 0 0  28 0 0  30 0 0  32 0 0  34 0 0  36 0 0  38 0 0  40 0 0  42 0 0  44 0 0  46 0 0  48 0 0  50 0 0  52 0 0  54 0 0  56 0 0  58 0 0  60 0 0  62 0 0  64 0 0  66 0 0  68 0 0  70 0 0  72 0 0  74 0 0  76 0 0  78 0 0  80 0 0  82 0 0  84 0 0  86 0 0  88 0 0  90 0 0  92 0 0  94 0 0  96 0 0  98 0 0  100 0 0  102 0 0  104 0 0  106 0 0  108 0 0  110 0 0  112 0 0  114 0 0  116 0 0  118 0 0  120 0 0  122 0 0  124 0 0  126 0 0  128 0 0  130 0 0  132 0 0  134 0 0  136 0 0  138 0 0  140 0 0  142 0 0  144 0 0  146 0 0  148 0 0  150 0 0  152 0 0  154 0 0  156 0 0  158 0 0  160 0 0  162 0 0  164 0 0  166 0 0  168 0 0  170 0 0  172 0 0  174 0 0  176 0 0  178 0 0  180 0 0  182 0 0  184 0 0  186 0 0  188 0 0  190 0 0  192 0 0  194 0 0  196 0 0  198 0 0  200 0 0  202 0 0  204 0 0  206 0 0  208 0 0  210 0 0  212 0 0  214 0 0  216 0 0  218 0 0  220 0 0  222 0 0  224 0 0  226 0 0  228 0 0  230 0 0  232 0 0  234 0 0  236 0 0  238 0 0  240 0 0  242 0 0  244 0 0  246 0 0  248 0 0  250 0 0  252 0 0  254 0 0  256 0 0  258 0 0  260 0 0  262 0 0  264 0 0  266 0 0  268 0 0  270 0 0  272 0 0  274 0 0  276 0 0  278 0 0  280 0 0  282 0 0  284 0 0  286 0 0  288 0 0  290 0 0  292 0 0  294 0 0  296 0 0  298 0 0  300 0 0  0 2 0  2 2 0  4 2 0  6 2 0  8 2 0  10 2 0  12 2 0  14 2 0  16 2 0  18 2 0  20 2 0  22 2 0  24 2 0  26 2 0  28 2 0  30 2 0  32 2 0  34 2 0  36 2 0  38 2 0  40 2 0  42 2 0  44 2 0  46 2 0  48 2 0  50 2 0  52 2 0  54 2 0  56 2 0  58 2 0  60 2 0  62 2 0  64 2 0  66 2 0  68 2 0  70 2 0  72 2 0  74 2 0  76 2 0  78 2 0  80 2 0  82 2 0  84 2 0  86 2 0  88 2 0  90 2 0  92 2 0  94 2 0  96 2 0  98 2 0  100 2 0  102 2 0  104 2 0  106 2 0  108 2 0  110 2 0  112 2 0  114 2 0  116 2 0  118 2 0  120 2 0  122 2 0  124 2 0  126 2 0  128 2 0  130 2 0  132 2 0  134 2 0  136 2 0  138 2 0  140 2 0  142 2 0  144 2 0  146 2 0  148 2 0  150 2 0  152 2 0  154 2 0  156 2 0  158 2 0  160 2 0  162 2 0  164 2 0  166 2 0  168 2 0  170 2 0  172 2 0  174 2 0  176 2 0  178 2 0  180 2 0  182 2 0  184 2 0  186 2 0  188 2 0  190 2 0  192 2 0  194 2 0  196 2 0  198 2 0  200 2 0  202 2 0  204 2 0  206 2 0  208 2 0  210 2 0  212 2 0  214 2 0  216 2 0  218 2 0  220 2 0  222 2 0  224 2 0  226 2 0  228 2 0  230 2 0  232 2 0  234 2 0  236 2 0  238 2 0  240 2 0  242 2 0  244 2 0  246 2 0  248 2 0  250 2 0  252 2 0  254 2 0  256 2 0  258 2 0  260 2 0  262 2 0  264 2 0  266 2 0  268 2 0  270 2 0  272 2 0  274 2 0  276 2 0  278 2 0  280 2 0  282 2 0  284 2 0  286 2 0  288 2 0  290 2 0  292 2 0  294 2 0  296 2 0  298 2 0  300 2 0  0 4 0  2 4 0  4 4 0  6 4 0  8 4 0  10 4 0  12 4 0  14 4 0  16 4 0  18 4 0  20 4 0  22 4 0  24 4 0  26 4 0  28 4 0  30 4 0  32 4 0  34 4 0  36 4 0  38 4 0  40 4 0  42 4 0  44 4 0  46 4 0  48 4 0  50 4 0  52 4 0  54 4 0  56 4 0  58 4 0  60 4 0  62 4 0  64 4 0  66 4 0  68 4 0  70 4 0  72 4 0  74 4 0  76 4 0  78 4 0  80 4 0  82 4 0  84 4 0  86 4 0  88 4 0  90 4 0  92 4 0  94 4 0  96 4 0  98 4 0  100 4 0  102 4 0  104 4 0  106 4 0  108 4 0  110 4 0  112 4 0  114 4 0  116 4 0  118 4 0  120 4 0  122 4 0  124 4 0  126 4 0  128 4 0  130 4 0  132 4 0  134 4 0  136 4 0  138 4 0  140 4 0  142 4 0  144 4 0  146 4 0  148 4 0  150 4 0  152 4 0  154 4 0  156 4 0  158 4 0  160 4 0  162 4 0  164 4 0  166 4 0  168 4 0  170 4 0  172 4 0  174 4 0  176 4 0  178 4 0  180 4 0  182 4 0  184 4 0  186 4 0  188 4 0  190 4 0  192 4 0  194 4 0  196 4 0  198 4 0  200 4 0  202 4 0  204 4 0  206 4 0  208 4 0  210 4 0  212 4 0  214 4 0  216 4 0  218 4 0  220 4 0  222 4 0  224 4 0  226 4 0  228 4 0  230 4 0  232 4 0  234 4 0  236 4 0  238 4 0  240 4 0  242 4 0  244 4 0  246 4 0  248 4 0  250 4 0  252 4 0  254 4 0  256 4 0  258 4 0  260 4 0  262 4 0  264 4 0  266 4 0  268 4 0  270 4 0  272 4 0  274 4 0  276 4 0  278 4 0  280 4 0  282 4 0  284 4 0  286 4 0  288 4 0  290 4 0  292 4 0  294 4 0  296 4 0  298 4 0  300 4 0  0 6 0  2 6 0  4 6 0  6 6 0  8 6 0  10 6 0  12 6 0  14 6 0  16 6 0  18 6 0  20 6 0  22 6 0  24 6 0  26 6 0  28 6 0  30 6 0  32 6 0  34 6 0  36 6 0  38 6 0  40 6 0  42 6 0  44 6 0  46 6 0  48 6 0  50 6 0  52 6 0  54 6 0  56 6 0  58 6 0  60 6 0  62 6 0  64 6 0  66 6 0  68 6 0  70 6 0  72 6 0  74 6 0  76 6 0  78 6 0  80 6 0  82 6 0  84 6 0  86 6 0  88 6 0  90 6 0  92 6 0  94 6 0  96 6 0  98 6 0  100 6 0  102 6 0  104 6 0  106 6 0  108 6 0  110 6 0  112 6 0  114 6 0  116 6 0  118 6 0  120 6 0  122 6 0  124 6 0  126 6 0  128 6 0  130 6 0  132 6 0  134 6 0  136 6 0  138 6 0  140 6 0  142 6 0  144 6 0  146 6 0  148 6 0  150 6 0  152 6 0  154 6 0  156 6 0  158 6 0  160 6 0  162 6 0  164 6 0  166 6 0  168 6 0  170 6 0  172 6 0  174 6 0  176 6 0  178 6 0  180 6 0  182 6 0  184 6 0  186 6 0  188 6 0  190 6 0  192 6 0  194 6 0  196 6 0  198 6 0  200 6 0  202 6 0  204 6 0  206 6 0  208 6 0  210 6 0  212 6 0  214 6 0  216 6 0  218 6 0  220 6 0  222 6 0  224 6 0  226 6 0  228 6 0  230 6 0  232 6 0  234 6 0  236 6 0  238 6 0  240 6 0  242 6 0  244 6 0  246 6 0  248 6 0  250 6 0  252 6 0  254 6 0  256 6 0  258 6 0  260 6 0  262 6 0  264 6 0  266 6 0  268 6 0  270 6 0  272 6 0  274 6 0  276 6 0  278 6 0  280 6 0  282 6 0  284 6 0  286 6 0  288 6 0  290 6 0  292 6 0  294 6 0  296 6 0  298 6 0  300 6 0  0 8 0  2 8 0  4 8 0  6 8 0  8 8 0  10 8 0  12 8 0  14 8 0  16 8 0  18 8 0  20 8 0  22 8 0  24 8 0  26 8 0  28 8 0  30 8 0  32 8 0  34 8 0  36 8 0  38 8 0  40 8 0  42 8 0  44 8 0  46 8 0  48 8 0  50 8 0  52 8 0  54 8 0  56 8 0  58 8 0  60 8 0  62 8 0  64 8 0  66 8 0  68 8 0  70 8 0  72 8 0  74 8 0  76 8 0  78 8 0  80 8 0  82 8 0  84 8 0  86 8 0  88 8 0  90 8 0  92 8 0  94 8 0  96 8 0  98 8 0  100 8 0  102 8 0  104 8 0  106 8 0  108 8 0  110 8 0  112 8 0  114 8 0  116 8 0  118 8 0  120 8 0  122 8 0  124 8 0  126 8 0  128 8 0  130 8 0  132 8 0  134 8 0  136 8 0  138 8 0  140 8 0  142 8 0  144 8 0  146 8 0  148 8 0  150 8 0  152 8 0  154 8 0  156 8 0  158 8 0  160 8 0  162 8 0  164 8 0  166 8 0  168 8 0  170 8 0  172 8 0  174 8 0  176 8 0  178 8 0  180 8 0  182 8 0  184 8 0  186 8 0  188 8 0  190 8 0  192 8 0  194 8 0  196 8 0  198 8 0  200 8 0  202 8 0  204 8 0  206 8 0  208 8 0  210 8 0  212 8 0  214 8 0  216 8 0  218 8 0  220 8 0  222 8 0  224 8 0  226 8 0  228 8 0  230 8 0  232 8 0  234 8 0  236 8 0  238 8 0  240 8 0  242 8 0  244 8 0  246 8 0  248 8 0  250 8 0  252 8 0  254 8 0  256 8 0  258 8 0  260 8 0  262 8 0  264 8 0  266 8 0  268 8 0  270 8 0  272 8 0  274 8 0  276 8 0  278 8 0  280 8 0  282 8 0  284 8 0  286 8 0  288 8 0  290 8 0  292 8 0  294 8 0  296 8 0  298 8 0  300 8 0  0 10 0  2 10 0  4 10 0  6 10 0  8 10 0  10 10 0  12 10 0  14 10 0  16 10 0  18 10 0  20 10 0  22 10 0  24 10 0  26 10 0  28 10 0  30 10 0  32 10 0  34 10 0  36 10 0  38 10 0  40 10 0  42 10 0  44 10 0  46 10 0  48 10 0  50 10 0  52 10 0  54 10 0  56 10 0  58 10 0  60 10 0  62 10 0  64 10 0  66 10 0  68 10 0  70 10 0  72 10 0  74 10 0  76 10 0  78 10 0  80 10 0  82 10 0  84 10 0  86 10 0  88 10 0  90 10 0  92 10 0  94 10 0  96 10 0  98 10 0  100 10 0  102 10 0  104 10 0  106 10 0  108 10 0  110 10 0  112 10 0  114 10 0  116 10 0  118 10 0  120 10 0  122 10 0  124 10 0  126 10 0  128 10 0  130 10 0  132 10 0  134 10 0  136 10 0  138 10 0  140 10 0  142 10 0  144 10 0  146 10 0  148 10 0  150 10 0  152 10 0  154 10 0  156 10 0  158 10 0  160 10 0  162 10 0  164 10 0  166 10 0  168 10 0  170 10 0  172 10 0  174 10 0  176 10 0  178 10 0  180 10 0  182 10 0  184 10 0  186 10 0  188 10 0  190 10 0  192 10 0  194 10 0  196 10 0  198 10 0  200 10 0  202 10 0  204 10 0  206 10 0  208 10 0  210 10 0  212 10 0  214 10 0  216 10 0  218 10 0  220 10 0  222 10 0  224 10 0  226 10 0  228 10 0  230 10 0  232 10 0  234 10 0  236 10 0  238 10 0  240 10 0  242 10 0  244 10 0  246 10 0  248 10 0  250 10 0  252 10 0  254 10 0  256 10 0  258 10 0  260 10 0  262 10 0  264 10 0  266 10 0  268 10 0  270 10 0  272 10 0  274 10 0  276 10 0  278 10 0  280 10 0  282 10 0  284 10 0  286 10 0  288 10 0  290 10 0  292 10 0  294 10 0  296 10 0  298 10 0  300 10 0  1 1 0  3 1 0  5 1 0  7 1 0  9 1 0  11 1 0  13 1 0  15 1 0  17 1 0  19 1 0  21 1 0  23 1 0  25 1 0  27 1 0  29 1 0  31 1 0  33 1 0  35 1 0  37 1 0  39 1 0  41 1 0  43 1 0  45 1 0  47 1 0  49 1 0  51 1 0  53 1 0  55 1 0  57 1 0  59 1 0  61 1 0  63 1 0  65 1 0  67 1 0  69 1 0  71 1 0  73 1 0  75 1 0  77 1 0  79 1 0  81 1 0  83 1 0  85 1 0  87 1 0  89 1 0  91 1 0  93 1 0  95 1 0  97 1 0  99 1 0  101 1 0  103 1 0  105 1 0  107 1 0  109 1 0  111 1 0  113 1 0  115 1 0  117 1 0  119 1 0  121 1 0  123 1 0  125 1 0  127 1 0  129 1 0  131 1 0  133 1 0  135 1 0  137 1 0  139 1 0  141 1 0  143 1 0  145 1 0  147 1 0  149 1 0  151 1 0  153 1 0  155 1 0  157 1 0  159 1 0  161 1 0  163 1 0  165 1 0  167 1 0  169 1 0  171 1 0  173 1 0  175 1 0  177 1 0  179 1 0  181 1 0  183 1 0  185 1 0  187 1 0  189 1 0  191 1 0  193 1 0  195 1 0  197 1 0  199 1 0  201 1 0  203 1 0  205 1 0  207 1 0  209 1 0  211 1 0  213 1 0  215 1 0  217 1 0  219 1 0  221 1 0  223 1 0  225 1 0  227 1 0  229 1 0  231 1 0  233 1 0  235 1 0  237 1 0  239 1 0  241 1 0  243 1 0  245 1 0  247 1 0  249 1 0  251 1 0  253 1 0  255 1 0  257 1 0  259 1 0  261 1 0  263 1 0  265 1 0  267 1 0  269 1 0  271 1 0  273 1 0  275 1 0  277 1 0  279 1 0  281 1 0  283 1 0  285 1 0  287 1 0  289 1 0  291 1 0  293 1 0  295 1 0  297 1 0  299 1 0  1 3 0  3 3 0  5 3 0  7 3 0  9 3 0  11 3 0  13 3 0  15 3 0  17 3 0  19 3 0  21 3 0  23 3 0  25 3 0  27 3 0  29 3 0  31 3 0  33 3 0  35 3 0  37 3 0  39 3 0  41 3 0  43 3 0  45 3 0  47 3 0  49 3 0  51 3 0  53 3 0  55 3 0  57 3 0  59 3 0  61 3 0  63 3 0  65 3 0  67 3 0  69 3 0  71 3 0  73 3 0  75 3 0  77 3 0  79 3 0  81 3 0  83 3 0  85 3 0  87 3 0  89 3 0  91 3 0  93 3 0  95 3 0  97 3 0  99 3 0  101 3 0  103 3 0  105 3 0  107 3 0  109 3 0  111 3 0  113 3 0  115 3 0  117 3 0  119 3 0  121 3 0  123 3 0  125 3 0
[...]
<PointData  Vectors="flow"> 
<DataArray  type="Float64"  Name="flow"  NumberOfComponents="3" format="ascii">-4.5975574832218967e+02 -7.8146326048208847e-01 0.0000000000000000e+00  -4.5663004839473706e+02 -7.8139486066260222e-01 0.0000000000000000e+00  -4.5194224188336574e+02 -7.8118969488312606e-01 0.0000000000000000e+00  -4.4725607641306601e+02 -7.8084786426428443e-01 0.0000000000000000e+00  -4.4257237149479653e+02 -7.8036953691076127e-01 0.0000000000000000e+00  -4.3789194542901078e+02 -7.7975494809701384e-01 0.0000000000000000e+00  -4.3321561490395936e+02 -7.7900439984956926e-01 0.0000000000000000e+00  -4.2854419459556300e+02 -7.7811826095633041e-01 0.0000000000000000e+00  -4.2387849676904636e+02 -7.7709696619955282e-01 0.0000000000000000e+00  -4.1921933088303655e+02 -7.7594101618836586e-01 0.0000000000000000e+00  -4.1456750319598598e+02 -7.7465097694991758e-01 0.0000000000000000e+00  -4.0992381637617314e+02 -7.7322747923158197e-01 0.0000000000000000e+00  -4.0528906911423638e+02 -7.7167121794844995e-01 0.0000000000000000e+00  -4.0066405574055386e+02 -7.6998295164121544e-01 0.0000000000000000e+00  -3.9604956584559767e+02 -7.6816350154487401e-01 0.0000000000000000e+00  -3.9144638390549983e+02 -7.6621375113458290e-01 0.0000000000000000e+00  -3.8685528891221384e+02 -7.6413464489014782e-01 0.0000000000000000e+00  -3.8227705400865847e+02 -7.6192718783592328e-01 0.0000000000000000e+00  -3.7771244612962948e+02 -7.5959244427792938e-01 0.0000000000000000e+00  -3.7316222564816360e+02 -7.5713153703673219e-01 0.0000000000000000e+00  -3.6862714602845466e+02 -7.5454564608752395e-01 0.0000000000000000e+00  -3.6410795348468207e+02 -7.5183600787788007e-01 0.0000000000000000e+00  -3.5960538664717870e+02 -7.4900391390182186e-01 0.0000000000000000e+00  -3.5512017623521177e+02 -7.4605070947706043e-01 0.0000000000000000e+00  -3.5065304473728781e+02 -7.4297779271169540e-01 0.0000000000000000e+00  -3.4620470609896512e+02 -7.3978661295047432e-01 0.0000000000000000e+00  -3.4177586541881618e+02 -7.3647866965242592e-01 0.0000000000000000e+00  -3.3736721865220977e+02 -7.3305551094507582e-01 0.0000000000000000e+00  -3.3297945232379419e+02 -7.2951873211120688e-01 0.0000000000000000e+00  -3.2861324324851768e+02 -7.2586997421586497e-01 0.0000000000000000e+00  -3.2426925826149437e+02 -7.2211092261974452e-01 0.0000000000000000e+00  -3.1994815395713033e+02 -7.1824330533337988e-01 0.0000000000000000e+00  -3.1565057643754130e+02 -7.1426889155478257e-01 0.0000000000000000e+00  -3.1137716107046464e+02 -7.1018949000492770e-01 0.0000000000000000e+00  -3.0712853225698450e+02 -7.0600694732733560e-01 0.0000000000000000e+00  -3.0290530320908181e+02 -7.0172314634446509e-01 0.0000000000000000e+00  -2.9870807573740092e+02 -6.9734000443770883e-01 0.0000000000000000e+00  -2.9453744004917439e+02 -6.9285947181659657e-01 0.0000000000000000e+00  -2.9039397455660310e+02 -6.8828352975482487e-01 0.0000000000000000e+00  -2.8627824569574682e+02 -6.8361418875820446e-01 0.0000000000000000e+00  -2.8219080775607091e+02 -6.7885348697334746e-01 0.0000000000000000e+00  -2.7813220272089461e+02 -6.7400348810501154e-01 0.0000000000000000e+00  -2.7410296011840387e+02 -6.6906627981059597e-01 0.0000000000000000e+00  -2.7010359688411677e+02 -6.6404397187779218e-01 0.0000000000000000e+00  -2.6613461723395994e+02 -6.5893869409260297e-01 0.0000000000000000e+00  -2.6219651254865340e+02 -6.5375259479431069e-01 0.0000000000000000e+00  -2.5828976126933367e+02 -6.4848783864198134e-01 0.0000000000000000e+00  -2.5441482880416891e+02 -6.4314660503549415e-01 0.0000000000000000e+00  -2.5057216744650449e+02 -6.3773108597812977e-01 0.0000000000000000e+00  -2.4676221630398499e+02 -6.3224348443323142e-01 0.0000000000000000e+00  -2.4298540123914032e+02 -6.2668601222478193e-01 0.0000000000000000e+00  -2.3924213482115573e+02 -6.2106088842700047e-01 0.0000000000000000e+00  -2.3553281628890858e+02 -6.1537033716692280e-01 0.0000000000000000e+00  -2.3185783152519414e+02 -6.0961658603548274e-01 0.0000000000000000e+00  -2.2821755304215799e+02 -6.0380186412314663e-01 0.0000000000000000e+00  -2.2461233997785220e+02 -5.9792840017720139e-01 0.0000000000000000e+00  -2.2104253810377722e+02 -5.9199842069753628e-01 0.0000000000000000e+00  -2.1750847984357893e+02 -5.8601414821212805e-01 0.0000000000000000e+00  -2.1401048430250722e+02 -5.7997779947527395e-01 0.0000000000000000e+00  -2.1054885730762095e+02 -5.7389158353522918e-01 0.0000000000000000e+00  -2.0712389145892757e+02 -5.6775770013203508e-01 0.0000000000000000e+00  -2.0373586619091512e+02 -5.6157833782494482e-01 0.0000000000000000e+00  -2.0038504784454165e+02 -5.5535567232648575e-01 0.0000000000000000e+00  -1.9707168974966200e+02 -5.4909186475545146e-01 0.0000000000000000e+00  -1.9379603231751517e+02 -5.4278905997119842e-01 0.0000000000000000e+00  -1.9055830314326818e+02 -5.3644938492444560e-01 0.0000000000000000e+00  -1.8735871711837052e+02 -5.3007494702767399e-01 0.0000000000000000e+00  -1.8419747655274770e+02 -5.2366783254700400e-01 0.0000000000000000e+00  -1.8107477130610954e+02 -5.1723010503931843e-01 0.0000000000000000e+00  -1.7799077892903247e+02 -5.1076380382598219e-01 0.0000000000000000e+00  -1.7494566481271289e+02 -5.0427094247680559e-01 0.0000000000000000e+00  -1.7193958234791421e+02 -4.9775350743096564e-01 0.0000000000000000e+00  -1.6897267309238845e+02 -4.9121345639932801e-01 0.0000000000000000e+00  -1.6604506694678182e+02 -4.8465271716112418e-01 0.0000000000000000e+00  -1.6315688233884106e+02 -4.7807318608155369e-01 0.0000000000000000e+00  -1.6030822641550918e+02 -4.7147672691451775e-01 0.0000000000000000e+00  -1.5749919524275506e+02 -4.6486516939317701e-01 0.0000000000000000e+00  -1.5472987401289754e+02 -4.5824030816569916e-01 0.0000000000000000e+00  -1.5200033725915040e+02 -4.5160390149185631e-01 0.0000000000000000e+00  -1.4931064907716893e+02 -4.4495767015062077e-01 0.0000000000000000e+00  -1.4666086335315873e+02 -4.3830329636331156e-01 0.0000000000000000e+00  -1.4405102399855627e+02 -4.3164242271745368e-01 0.0000000000000000e+00  -1.4148116519075066e+02 -4.2497665117504047e-01 0.0000000000000000e+00  -1.3895131161966282e+02 -4.1830754212681615e-01 0.0000000000000000e+00  -1.3646147873996654e+02 -4.1163661348250591e-01 0.0000000000000000e+00  -1.3401167302854000e+02 -4.0496533984631655e-01 0.0000000000000000e+00  -1.3160189224688344e+02 -3.9829515163242279e-01 0.0000000000000000e+00  -1.2923212570825993e+02 -3.9162743441240117e-01 0.0000000000000000e+00  -1.2690235454926560e+02 -3.8496352809012968e-01 0.0000000000000000e+00  -1.2461255200543255e+02 -3.7830472635527934e-01 0.0000000000000000e+00  -1.2236268369059201e+02 -3.7165227600987538e-01 0.0000000000000000e+00  -1.2015270787985784e+02 -3.6500737642914238e-01 0.0000000000000000e+00  -1.1798257579562986e+02 -3.5837117907773208e-01 0.0000000000000000e+00  -1.1585223189654779e+02 -3.5174478702551532e-01 0.0000000000000000e+00  -1.1376161416900410e+02 -3.4512925456786797e-01 0.0000000000000000e+00  -1.1171065442088783e+02 -3.3852558686810558e-01 0.0000000000000000e+00  -1.0969927857725563e+02 -3.3193473967089110e-01 0.0000000000000000e+00  -1.0772740697766636e+02 -3.2535761903586113e-01 0.0000000000000000e+00  -1.0579495467480191e+02 -3.1879508116481409e-01 0.0000000000000000e+00  -1.0390183173417273e+02 -3.1224793225779535e-01 0.0000000000000000e+00  -1.0204794353440856e+02 -3.0571692838260317e-01 0.0000000000000000e+00  -1.0023319106806136e+02 -2.9920277549499463e-01 0.0000000000000000e+00  -9.8457471242435119e+01 -2.9270612939876073e-01 0.0000000000000000e+00  -9.6720677180228378e+01 -2.8622759582139723e-01 0.0000000000000000e+00  -9.5022698519677164e+01 -2.7976773055350562e-01 0.0000000000000000e+00  -9.3363421713849135e+01 -2.7332703953959170e-01 0.0000000000000000e+00  -9.1742730328882871e+01 -2.6690597917873099e-01 0.0000000000000000e+00  -9.0160505340783175e+01 -2.6050495647020999e-01 0.0000000000000000e+00  -8.8616625430555132e+01 -2.5412432942137075e-01 0.0000000000000000e+00  -8.7110967277370349e+01 -2.4776440732218855e-01 0.0000000000000000e+00  -8.5643405849501505e+01 -2.4142545115991132e-01 0.0000000000000000e+00  -8.4213814692747533e+01 -2.3510767401836380e-01 0.0000000000000000e+00  -8.2822066216146339e+01 -2.2881124151507953e-01 0.0000000000000000e+00  -8.1468031974814409e+01 -2.2253627220847128e-01 0.0000000000000000e+00  -8.0151582949769193e+01 -2.1628283796915232e-01 0.0000000000000000e+00  -7.8872589824839054e+01 -2.1005096416113100e-01 0.0000000000000000e+00  -7.7630923261068787e+01 -2.0384062947505066e-01 0.0000000000000000e+00  -7.6426454169554447e+01 -1.9765176508312646e-01 0.0000000000000000e+00  -7.5259053984720310e+01 -1.9148425242445938e-01 0.0000000000000000e+00  -7.4128594942277147e+01 -1.8533791837959063e-01 0.0000000000000000e+00  -7.3034950369767856e+01 -1.7921252547078367e-01 0.0000000000000000e+00  -7.1977995005197229e+01 -1.7310775254375901e-01 0.0000000000000000e+00  -7.0957605373223515e+01 -1.6702315749653981e-01 0.0000000000000000e+00  -6.9973660274827381e+01 -1.6095810588134782e-01 0.0000000000000000e+00  -6.9026041496828839e+01 -1.5491163481726464e-01 0.0000000000000000e+00  -6.8114634942723470e+01 -1.4888219441665190e-01 0.0000000000000000e+00  -6.7239332566737318e+01 -1.4286715705370812e-01 0.0000000000000000e+00  -6.6400035834903747e+01 -1.3686188691315559e-01 0.0000000000000000e+00  -6.5596662083937503e+01 -1.3085797656566131e-01 0.0000000000000000e+00  -6.4829156375338229e+01 -1.2483990551040725e-01 0.0000000000000000e+00  -6.4097513764850987e+01 -1.1877870954081154e-01 0.0000000000000000e+00  -6.3401821308346229e+01 -1.1261998717667394e-01 0.0000000000000000e+00  -6.2742337464285185e+01 -1.0626117727099593e-01 0.0000000000000000e+00  -6.2119642357484260e+01 -9.9508505828543231e-02 0.0000000000000000e+00  -6.1534922349336384e+01 -9.1995392548096064e-02 0.0000000000000000e+00  -6.0990509258951484e+01 -8.3027739460345154e-02 0.0000000000000000e+00  -6.0490903095645052e+01 -7.1290292988277867e-02 0.0000000000000000e+00  -6.0044713739396535e+01 -5.4288132527229152e-02 0.0000000000000000e+00  -5.9668362628284001e+01 -2.7280376707454618e-02 0.0000000000000000e+00  -5.9393149566773076e+01 1.8774921295682354e-02 0.0000000000000000e+00  -5.9279058820286508e+01 1.0122817614745636e-01 0.0000000000000000e+00  -5.9441349618407500e+01 2.5391110996366478e-01 0.0000000000000000e+00  -6.0109180419601543e+01 5.4390898018396938e-01 0.0000000000000000e+00  -6.1731811834973300e+01 1.1144422449061659e+00 0.0000000000000000e+00  -6.5356034634425257e+01 2.2671424809416836e+00 0.0000000000000000e+00  -7.2972356988302863e+01 4.8805186093188411e+00 0.0000000000000000e+00  -9.1570375078530148e+01 1.0432775276135184e+01 0.0000000000000000e+00  -1.3060522130165441e+02 2.8023722945709601e+01 0.0000000000000000e+00  -2.0612772539262340e+02 4.2976935131005106e+01 0.0000000000000000e+00  -3.2053898758644556e+02 7.6804923086209314e+01 0.0000000000000000e+00  -3.8496356536890477e+02 6.8732900811737380e+01 0.0000000000000000e+00  -4.5975574832215023e+02 4.2751448470773219e-06 0.0000000000000000e+00  -4.5663004839472563e+02 4.2740884246253134e-06 0.0000000000000000e+00  -4.5194224188336221e+02 4.2709185915383880e-06 0.0000000000000000e+00  -4.4725607641308346e+02 4.2656709954489838e-06 0.0000000000000000e+00  -4.4257237149481489e+02 4.2583176998260302e-06 0.0000000000000000e+00  -4.3789194542900918e+02 4.2488644388244409e-06 0.0000000000000000e+00  -4.3321561490395413e+02 4.2373390309553358e-06 0.0000000000000000e+00  -4.2854419459556942e+02 4.2237394405136093e-06 0.0000000000000000e+00  -4.2387849676904852e+02 4.2081046945350198e-06 0.0000000000000000e+00  -4.1921933088303047e+02 4.1904182907062940e-06 0.0000000000000000e+00  -4.1456750319599900e+02 4.1706997110503756e-06 0.0000000000000000e+00  -4.0992381637614329e+02 4.1489792471193302e-06 0.0000000000000000e+00  -4.0528906911425696e+02 4.1252819462224220e-06 0.0000000000000000e+00  -4.0066405574057393e+02 4.0996098660970290e-06 0.0000000000000000e+00  -3.9604956584558920e+02 4.0720102646766515e-06 0.0000000000000000e+00  -3.9144638390549869e+02 4.0425033040726432e-06 0.0000000000000000e+00  -3.8685528891218900e+02 4.0110812393492044e-06 0.0000000000000000e+00  -3.8227705400865472e+02 3.9778370637246271e-06 0.0000000000000000e+00  -3.7771244612963278e+02 3.9427399714769480e-06 0.0000000000000000e+00  -3.7316222564819293e+02 3.9058663291087288e-06 0.0000000000000000e+00  -3.6862714602842914e+02 3.8672149924495866e-06 0.0000000000000000e+00  -3.6410795348469230e+02 3.8268501343124598e-06 0.0000000000000000e+00  -3.5960538664717529e+02 3.7848030634127553e-06 0.0000000000000000e+00  -3.5512017623522161e+02 3.7411189039090477e-06 0.0000000000000000e+00  -3.5065304473728668e+02 3.6958262900120369e-06 0.0000000000000000e+00  -3.4620470609894949e+02 3.6489560567157530e-06 0.0000000000000000e+00  -3.4177586541881089e+02 3.6005790905529876e-06 0.0000000000000000e+00  -3.3736721865221512e+02 3.5507221542746388e-06 0.0000000000000000e+00  -3.3297945232380710e+02 3.4994373637021865e-06 0.0000000000000000e+00  -3.2861324324852683e+02 3.4467549809802648e-06 0.0000000000000000e+00  -3.2426925826148664e+02 3.3927588675942617e-06 0.0000000000000000e+00  -3.1994815395712556e+02 3.3374688773473656e-06 0.0000000000000000e+00  -3.1565057643753130e+02 3.2809455308373611e-06 0.0000000000000000e+00  -3.1137716107047896e+02 3.2232350574911041e-06 0.0000000000000000e+00  -3.0712853225698933e+02 3.1643910324084552e-06 0.0000000000000000e+00  -3.0290530320908204e+02 3.1044750469740803e-06 0.0000000000000000e+00  -2.9870807573739546e+02 3.0435278231258771e-06 0.0000000000000000e+00  -2.9453744004917445e+02 2.9816081869020945e-06 0.0000000000000000e+00  -2.9039397455660190e+02 2.9187663536680453e-06 0.0000000000000000e+00  -2.8627824569574545e+02 2.8550793045324719e-06 0.0000000000000000e+00  -2.8219080775608006e+02 2.7905847515910883e-06 0.0000000000000000e+00  -2.7813220272087784e+02 2.7253407324817753e-06 0.0000000000000000e+00  -2.7410296011840302e+02 2.6594139924443525e-06 0.0000000000000000e+00  -2.7010359688412404e+02 2.5928493611906089e-06 0.0000000000000000e+00  -2.6613461723396097e+02 2.5257120998501773e-06 0.0000000000000000e+00  -2.6219651254865465e+02 2.4580580982931260e-06 0.0000000000000000e+00  -2.5828976126932173e+02 2.3899533524556645e-06 0.0000000000000000e+00  -2.5441482880417357e+02 2.3214476572557026e-06 0.0000000000000000e+00  -2.5057216744650543e+02 2.2526036916855205e-06 0.0000000000000000e+00  -2.4676221630397927e+02 2.1834764085104690e-06 0.0000000000000000e+00  -2.4298540123914466e+02 2.1141288260665268e-06 0.0000000000000000e+00  -2.3924213482116156e+02 2.0446153382968328e-06 0.0000000000000000e+00  -2.3553281628890562e+02 1.9750086175557654e-06 0.0000000000000000e+00  -2.3185783152519718e+02 1.9053454447170308e-06 0.0000000000000000e+00  -2.2821755304215972e+02 1.8356910060209696e-06 0.0000000000000000e+00  -2.2461233997784578e+02 1.7661087870727194e-06 0.0000000000000000e+00  -2.2104253810377540e+02 1.6966531050229282e-06 0.0000000000000000e+00  -2.1750847984359345e+02 1.6273698749429786e-06 0.0000000000000000e+00  -2.1401048430250117e+02 1.5583379099102487e-06 0.0000000000000000e+00  -2.1054885730761148e+02 1.4895967464815769e-06 0.0000000000000000e+00  -2.0712389145893309e+02 1.4211909536552530e-06 0.0000000000000000e+00  -2.0373586619091429e+02 1.3532000178841533e-06 0.0000000000000000e+00  -2.0038504784454304e+02 1.2856611938301721e-06 0.0000000000000000e+00  -1.9707168974966493e+02 1.2186297981226192e-06 0.0000000000000000e+00  -1.9379603231751420e+02 1.1521588115881489e-06 0.0000000000000000e+00  -1.9055830314325695e+02 1.0863020473004491e-06 0.0000000000000000e+00  -1.8735871711838300e+02 1.0211041500416415e-06 0.0000000000000000e+00  -1.8419747655274688e+02 9.5661034413955028e-07 0.0000000000000000e+00  -1.8107477130611142e+02 8.9288159258746551e-07 0.0000000000000000e+00  -1.7799077892902272e+02 8.2995510137379179e-07 0.0000000000000000e+00  -1.7494566481271355e+02 7.6787709326143090e-07 0.0000000000000000e+00  -1.7193958234792780e+02 7.0669517331678588e-07 0.0000000000000000e+00  -1.6897267309238455e+02 6.4644840509181308e-07 0.0000000000000000e+00  -1.6604506694677832e+02 5.8718486725278737e-07 0.0000000000000000e+00  -1.6315688233883893e+02 5.2894257082036314e-07 0.0000000000000000e+00  -1.6030822641551552e+02 4.7175583154803371e-07 0.0000000000000000e+00  -1.5749919524275430e+02 4.1567286151078704e-07 0.0000000000000000e+00  -1.5472987401289654e+02 3.6072299583308271e-07 0.0000000000000000e+00  -1.5200033725915111e+02 3.0694731490477537e-07 0.0000000000000000e+00  -1.4931064907716424e+02 2.5437870408904803e-07 0.0000000000000000e+00  -1.4666086335316061e+02 2.0304657943002678e-07 0.0000000000000000e+00  -1.4405102399856113e+02 1.5297945088304299e-07 0.0000000000000000e+00  -1.4148116519074725e+02 1.0421864521272152e-07 0.0000000000000000e+00  -1.3895131161966120e+02 5.6778654984334927e-08 0.0000000000000000e+00  -1.3646147873997032e+02 1.0695832822942359e-08 0.0000000000000000e+00  -1.3401167302853807e+02 -3.4006849847944053e-08 0.0000000000000000e+00  -1.3160189224687707e+02 -7.7305261568459809e-08 0.0000000000000000e+00  -1.2923212570826422e+02 -1.1917845422326958e-07 0.0000000000000000e+00  -1.2690235454926929e+02 -1.5960479565283770e-07 0.0000000000000000e+00  -1.2461255200543087e+02 -1.9856871559786281e-07 0.0000000000000000e+00  -1.2236268369059361e+02 -2.3605061994445989e-07 0.0000000000000000e+00  -1.2015270787985536e+02 -2.7203633849981010e-07 0.0000000000000000e+00  -1.1798257579563028e+02 -3.0651046260074593e-07 0.0000000000000000e+00  -1.1585223189654833e+02 -3.3945450910282052e-07 0.0000000000000000e+00  -1.1376161416900644e+02 -3.7087001216142794e-07 0.0000000000000000e+00  -1.1171065442088860e+02 -4.0073737230395155e-07 0.0000000000000000e+00  -1.0969927857725467e+02 -4.2905217604720398e-07 0.0000000000000000e+00  -1.0772740697765909e+02 -4.5580705038113115e-07 0.0000000000000000e+00  -1.0579495467480240e+02 -4.8099819107979403e-07 0.0000000000000000e+00  -1.0390183173417371e+02 -5.0462818050794411e-07 0.0000000000000000e+00  -1.0204794353440893e+02 -5.2668798423515626e-07 0.0000000000000000e+00  -1.0023319106806328e+02 -5.4717749387728242e-07 0.0000000000000000e+00  -9.8457471242429435e+01 -5.6610427258050249e-07 0.0000000000000000e+00  -9.6720677180222637e+01 -5.8346581856197480e-07 0.0000000000000000e+00  -9.5022698519665269e+01 -5.9926122419938740e-07 0.0000000000000000e+00  -9.3363421713829084e+01 -6.1349481587757618e-07 0.0000000000000000e+00  -9.1742730328846434e+01 -6.2616747542292228e-07 0.0000000000000000e+00  -9.0160505340704887e+01 -6.3726079659514007e-07 0.0000000000000000e+00  -8.8616625430414004e+01 -6.4674672221337179e-07 0.0000000000000000e+00  -8.7110967277103086e+01 -6.5456928306616250e-07 0.0000000000000000e+00  -8.5643405848994064e+01 -6.6059247204173340e-07 0.0000000000000000e+00  -8.4213814691783384e+01 -6.6456410013454670e-07 0.0000000000000000e+00  -8.2822066214322817e+01 -6.6598702977661711e-07 0.0000000000000000e+00  -8.1468031971360858e+01 -6.6391422141609925e-07 0.0000000000000000e+00  -8.0151582943225577e+01 -6.5652916091063621e-07 0.0000000000000000e+00  -7.8872589812445057e+01 -6.4036863061948439e-07 0.0000000000000000e+00  -7.7630923237592640e+01 -6.0887433824519495e-07 0.0000000000000000e+00  -7.6426454125079673e+01 -5.4958273766007070e-07 0.0000000000000000e+00  -7.5259053900472622e+01 -4.3887608790518209e-07 0.0000000000000000e+00  -7.4128594782694705e+01 -2.3200038769072783e-07 0.0000000000000000e+00  -7.3034950067477055e+01 1.5585121154061492e-07 0.0000000000000000e+00  -7.1977994432581625e+01 8.8534583136202626e-07 0.0000000000000000e+00  -7.0957604288542200e+01 2.2608497587782538e-06 0.0000000000000000e+00  -6.9973658220165788e+01 4.8589373370809454e-06 0.0000000000000000e+00  -6.9026037604775880e+01 9.7718096901673004e-06 0.0000000000000000e+00  -6.8114627570183686e+01 1.9068406747271597e-05 0.0000000000000000e+00  -6.7239318601278669e+01 3.6667845356143661e-05 0.00