<?xml version="1.0"?>
<VTKFile type="UnstructuredGrid"  version="0.1"  >
<UnstructuredGrid>
<Piece  NumberOfPoints="1656" NumberOfCells="3000">
<Points>
<DataArray  type="Float64"  NumberOfComponents="3"  format="ascii">0 0 0  2 0 0  4 0 0  6 0 0  8 0 0  10 0 0  12 0 0  14 0 0  16 0 0  18 0 0  20 0 0  22 0 0  24 0 0  26 0 0  28 0 0  30 0 0  32 0 0  34 0 0  36 0 0  38 0 0  40 0 0  42 0 0  44 0 0  46 0 0  48 0 0  50 0 0  52 0 0  54 0 0  56 0 0  58 0 0  60 0 0  62 0 0  64 0 0  66 0 0  68 0 0  70 0 0  72 0 0  74 0 0  76 0 0  78 0 0  80 0 0  82 0 0  84 0 0  86 0 0  88 0 0  90 0 0  92 0 0  94 0 0  96 0 0  98 0 0  100 0 0  102 0 0  104 0 0  106 0 0  108 0 0  110 0 0  112 0 0  114 0 0  116 0 0  118 0 0  120 0 0  122 0 0  124 0 0  126 0 0  128 0 0  130 0 0  132 0 0  134 0 0  136 0 0  138 0 0  140 0 0  142 0 0  144 0 0  146 0 0  148 0 0  150 0 0  152 0 0  154 0 0  156 0 0  158 0 0  160 0 0  162 0 0  164 0 0  166 0 0  168 0 0  170 0 0  172 0 0  174 0 0  176 0 0  178 0 0  180 0 0  182 0 0  184 0 0  186 0 0  188 0 0  190 0 0  192 0 0  194 0 0  196 0 0  198 0 0  200 0 0  202 0 0  204 0 0  206 0 0  208 0 0  210 0 0  212 0 0  214 0 0  216 0 0  218 0 0  220 0 0  222 0 0  224 0 0  226 0 0  228 0 0  230 0 0  232 0 0  234 0 0  236 0 0  238 0 0  240 0 0  242 0 0  244 0 0  246 0 0  248 0 0  250 0 0  252 0 0  254 0 0  256 0 0  258 0 0  260 0 0  262 0 0  264 0 0  266 0 0  268 0 0  270 0 0  272 0 0  274 0 0  276 0 0  278 0 0  280 0 0  282 0 0  284 0 0  286 0 0  288 0 0  290 0 0  292 0 0  294 0 0  296 0 0  298 0 0  300 0 0  0 2 0  2 2 0  4 2 0  6 2 0  8 2 0  10 2 0  12 2 0  14 2 0  16 2 0  18 2 0  20 2 0  22 2 0  24 2 0  26 2 0  28 2 0  30 2 0  32 2 0  34 2 0  36 2 0  38 2 0  40 2 0  42 2 0  44 2 0  46 2 0  48 2 0  50 2 0  52 2 0  54 2 0  56 2 0  58 2 0  60 2 0  62 2 0  64 2 0  66 2 0  68 2 0  70 2 0  72 2 0  74 2 0  76 2 0  78 2 0  80 2 0  82 2 0  84 2 0  86 2 0  88 2 0  90 2 0  92 2 0  94 2 0  96 2 0  98 2 0  100 2 0  102 2 0  104 2 0  106 2 0  108 2 0  110 2 0  112 2 0  114 2 0  116 2 0  118 2 0  120 2 0  122 2 0  124 2 0  126 2 0  128 2 0  130 2 0  132 2 0  134 2 0  136 2 0  138 2 0  140 2 0  142 2 0  144 2 0  146 2 0  148 2 0  150 2 0  152 2 0  154 2 0  156 2 0  158 2 0  160 2 0  162 2 0  164 2 0  166 2 0  168 2 0  170 2 0  172 2 0  174 2 0  176 2 0  178 2 0  180 2 0  182 2 0  184 2 0  186 2 0  188 2 0  190 2 0  192 2 0  194 2 0  196 2 0  198 2 0  200 2 0  202 2 0  204 2 0  206 2 0  208 2 0  210 2 0  212 2 0  214 2 0  216 2 0  218 2 0  220 2 0  222 2 0  224 2 0  226 2 0  228 2 0  230 2 0  232 2 0  234 2 0  236 2 0  238 2 0  240 2 0  242 2 0  244 2 0  246 2 0  248 2 0  250 2 0  252 2 0  254 2 0  256 2 0  258 2 0  260 2 0  262 2 0  264 2 0  266 2 0  268 2 0  270 2 0  272 2 0  274 2 0  276 2 0  278 2 0  280 2 0  282 2 0  284 2 0  286 2 0  288 2 0  290 2 0  292 2 0  294 2 0  296 2 0  298 2 0  300 2 0  0 4 0  2 4 0  4 4 0  6 4 0  8 4 0  10 4 0  12 4 0  14 4 0  16 4 0  18 4 0  20 4 0  22 4 0  24 4 0  26 4 0  28 4 0  30 4 0  32 4 0  34 4 0  36 4 0  38 4 0  40 4 0  42 4 0  44 4 0  46 4 0  48 4 0  50 4 0  52 4 0  54 4 0  56 4 0  58 4 0  60 4 0  62 4 0  64 4 0  66 4 0  68 4 0  70 4 0  72 4 0  74 4 0  76 4 0  78 4 0  80 4 0  82 4 0  84 4 0  86 4 0  88 4 0  90 4 0  92 4 0  94 4 0  96 4 0  98 4 0  100 4 0  102 4 0  104 4 0  106 4 0  108 4 0  110 4 0  112 4 0  114 4 0  116 4 0  118 4 0  120 4 0  122 4 0  124 4 0  126 4 0  128 4 0  130 4 0  132 4 0  134 4 0  136 4 0  138 4 0  140 4 0  142 4 0  144 4 0  146 4 0  148 4 0  150 4 0  152 4 0  154 4 0  156 4 0  158 4 0  160 4 0  162 4 0  164 4 0  166 4 0  168 4 0  170 4 0  172 4 0  174 4 0  176 4 0  178 4 0  180 4 0  182 4 0  184 4 0  186 4 0  188 4 0  190 4 0  192 4 0  194 4 0  196 4 0  198 4 0  200 4 0  202 4 0  204 4 0  206 4 0  208 4 0  210 4 0  212 4 0  214 4 0  216 4 0  218 4 0  220 4 0  222 4 0  224 4 0  226 4 0  228 4 0  230 4 0  232 4 0  234 4 0  236 4 0  238 4 0  240 4 0  242 4 0  244 4 0  246 4 0  248 4 0  250 4 0  252 4 0  254 4 0  256 4 0  258 4 0  260 4 0  262 4 0  264 4 0  266 4 0  268 4 0  270 4 0  272 4 0  274 4 0  276 4 0  278 4 0  280 4 0  282 4 0  284 4 0  286 4 0  288 4 0  290 4 0  292 4 0  294 4 0  296 4 0  298 4 0  300 4 0  0 6 0  2 6 0  4 6 0  6 6 0  8 6 0  10 6 0  12 6 0  14 6 0  16 6 0  18 6 0  20 6 0  22 6 0  24 6 0  26 6 0  28 6 0  30 6 0  32 6 0  34 6 0  36 6 0  38 6 0  40 6 0  42 6 0  44 6 0  46 6 0  48 6 0  50 6 0  52 6 0  54 6 0  56 6 0  58 6 0  60 6 0  62 6 0  64 6 0  66 6 0  68 6 0  70 6 0  72 6 0  74 6 0  76 6 0  78 6 0  80 6 0  82 6 0  84 6 0  86 6 0  88 6 0  90 6 0  92 6 0  94 6 0  96 6 0  98 6 0  100 6 0  102 6 0  104 6 0  106 6 0  108 6 0  110 6 0  112 6 0  114 6 0  116 6 0  118 6 0  120 6 0  122 6 0  124 6 0  126 6 0  128 6 0  130 6 0  132 6 0  134 6 0  136 6 0  138 6 0  140 6 0  142 6 0  144 6 0  146 6 0  148 6 0  150 6 0  152 6 0  154 6 0  156 6 0  158 6 0  160 6 0  162 6 0  164 6 0  166 6 0  168 6 0  170 6 0  172 6 0  174 6 0  176 6 0  178 6 0  180 6 0  182 6 0  184 6 0  186 6 0  188 6 0  190 6 0  192 6 0  194 6 0  196 6 0  198 6 0  200 6 0  202 6 0  204 6 0  206 6 0  208 6 0  210 6 0  212 6 0  214 6 0  216 6 0  218 6 0  220 6 0  222 6 0  224 6 0  226 6 0  228 6 0  230 6 0  232 6 0  234 6 0  236 6 0  238 6 0  240 6 0  242 6 0  244 6 0  246 6 0  248 6 0  250 6 0  252 6 0  254 6 0  256 6 0  258 6 0  260 6 0  262 6 0  264 6 0  266 6 0  268 6 0  270 6 0  272 6 0  274 6 0  276 6 0  278 6 0  280 6 0  282 6 0  284 6 0  286 6 0  288 6 0  290 6 0  292 6 0  294 6 0  296 6 0  298 6 0  300 6 0  0 8 0  2 8 0  4 8 0  6 8 0  8 8 0  10 8 0  12 8 0  14 8 0  16 8 0  18 8 0  20 8 0  22 8 0  24 8 0  26 8 0  28 8 0  30 8 0  32 8 0  34 8 0  36 8 0  38 8 0  40 8 0  42 8 0  44 8 0  46 8 0  48 8 0  50 8 0  52 8 0  54 8 0  56 8 0  58 8 0  60 8 0  62 8 0  64 8 0  66 8 0  68 8 0  70 8 0  72 8 0  74 8 0  76 8 0  78 8 0  80 8 0  82 8 0  84 8 0  86 8 0  88 8 0  90 8 0  92 8 0  94 8 0  96 8 0  98 8 0  100 8 0  102 8 0  104 8 0  106 8 0  108 8 0  110 8 0  112 8 0  114 8 0  116 8 0  118 8 0  120 8 0  122 8 0  124 8 0  126 8 0  128 8 0  130 8 0  132 8 0  134 8 0  136 8 0  138 8 0  140 8 0  142 8 0  144 8 0  146 8 0  148 8 0  150 8 0  152 8 0  154 8 0  156 8 0  158 8 0  160 8 0  162 8 0  164 8 0  166 8 0  168 8 0  170 8 0  172 8 0  174 8 0  176 8 0  178 8 0  180 8 0  182 8 0  184 8 0  186 8 0  188 8 0  190 8 0  192 8 0  194 8 0  196 8 0  198 8 0  200 8 0  202 8 0  204 8 0  206 8 0  208 8 0  210 8 0  212 8 0  214 8 0  216 8 0  218 8 0  220 8 0  222 8 0  224 8 0  226 8 0  228 8 0  230 8 0  232 8 0  234 8 0  236 8 0  238 8 0  240 8 0  242 8 0  244 8 0  246 8 0  248 8 0  250 8 0  252 8 0  254 8 0  256 8 0  258 8 0  260 8 0  262 8 0  264 8 0  266 8 0  268 8 0  270 8 0  272 8 0  274 8 0  276 8 0  278 8 0  280 8 0  282 8 0  284 8 0  286 8 0  288 8 0  290 8 0  292 8 0  294 8 0  296 8 0  298 8 0  300 8 0  0 10 0  2 10 0  4 10 0  6 10 0  8 10 0  10 10 0  12 10 0  14 10 0  16 10 0  18 10 0  20 10 0  22 10 0  24 10 0  26 10 0  28 10 0  30 10 0  32 10 0  34 10 0  36 10 0  38 10 0  40 10 0  42 10 0  44 10 0  46 10 0  48 10 0  50 10 0  52 10 0  54 10 0  56 10 0  58 10 0  60 10 0  62 10 0  64 10 0  66 10 0  68 10 0  70 10 0  72 10 0  74 10 0  76 10 0  78 10 0  80 10 0  82 10 0  84 10 0  86 10 0  88 10 0  90 10 0  92 10 0  94 10 0  96 10 0  98 10 0  100 10 0  102 10 0  104 10 0  106 10 0  108 10 0  110 10 0  112 10 0  114 10 0  116 10 0  118 10 0  120 10 0  122 10 0  124 10 0  126 10 0  128 10 0  130 10 0  132 10 0  134 10 0  136 10 0  138 10 0  140 10 0  142 10 0  144 10 0  146 10 0  148 10 0  150 10 0  152 10 0  154 10 0  156 10 0  158 10 0  160 10 0  162 10 0  164 10 0  166 10 0  168 10 0  170 10 0  172 10 0  174 10 0  176 10 0  178 10 0  180 10 0  182 10 0  184 10 0  186 10 0  188 10 0  190 10 0  192 10 0  194 10 0  196 10 0  198 10 0  200 10 0  202 10 0  204 10 0  206 10 0  208 10 0  210 10 0  212 10 0  214 10 0  216 10 0  218 10 0  220 10 0  222 10 0  224 10 0  226 10 0  228 10 0  230 10 0  232 10 0  234 10 0  236 10 0  238 10 0  240 10 0  242 10 0  244 10 0  246 10 0  248 10 0  250 10 0  252 10 0  254 10 0  256 10 0  258 10 0  260 10 0  262 10 0  264 10 0  266 10 0  268 10 0  270 10 0  272 10 0  274 10 0  276 10 0  278 10 0  280 10 0  282 10 0  284 10 0  286 10 0  288 10 0  290 10 0  292 10 0  294 10 0  296 10 0  298 10 0  300 10 0  1 1 0  3 1 0  5 1 0  7 1 0  9 1 0  11 1 0  13 1 0  15 1 0  17 1 0  19 1 0  21 1 0  23 1 0  25 1 0  27 1 0  29 1 0  31 1 0  33 1 0  35 1 0  37 1 0  39 1 0  41 1 0  43 1 0  45 1 0  47 1 0  49 1 0  51 1 0  53 1 0  55 1 0  57 1 0  59 1 0  61 1 0  63 1 0  65 1 0  67 1 0  69 1 0  71 1 0  73 1 0  75 1 0  77 1 0  79 1 0  81 1 0  83 1 0  85 1 0  87 1 0  89 1 0  91 1 0  93 1 0  95 1 0  97 1 0  99 1 0  101 1 0  103 1 0  105 1 0  107 1 0  109 1 0  111 1 0  113 1 0  115 1 0  117 1 0  119 1 0  121 1 0  123 1 0  125 1 0  127 1 0  129 1 0  131 1 0  133 1 0  135 1 0  137 1 0  139 1 0  141 1 0  143 1 0  145 1 0  147 1 0  149 1 0  151 1 0  153 1 0  155 1 0  157 1 0  159 1 0  161 1 0  163 1 0  165 1 0  167 1 0  169 1 0  171 1 0  173 1 0  175 1 0  177 1 0  179 1 0  181 1 0  183 1 0  185 1 0  187 1 0  189 1 0  191 1 0  193 1 0  195 1 0  197 1 0  199 1 0  201 1 0  203 1 0  205 1 0  207 1 0  209 1 0  211 1 0  213 1 0  215 1 0  217 1 0  219 1 0  221 1 0  223 1 0  225 1 0  227 1 0  229 1 0  231 1 0  233 1 0  235 1 0  237 1 0  239 1 0  241 1 0  243 1 0  245 1 0  247 1 0  249 1 0  251 1 0  253 1 0  255 1 0  257 1 0  259 1 0  261 1 0  263 1 0  265 1 0  267 1 0  269 1 0  271 1 0  273 1 0  275 1 0  277 1 0  279 1 0  281 1 0  283 1 0  285 1 0  287 1 0  289 1 0  291 1 0  293 1 0  295 1 0  297 1 0  299 1 0  1 3 0  3 3 0  5 3 0  7 3 0  9 3 0  11 3 0  13 3 0  15 3 0  17 3 0  19 3 0  21 3 0  23 3 0  25 3 0  27 3 0  29 3 0  31 3 0  33 3 0  35 3 0  37 3 0  39 3 0  41 3 0  43 3 0  45 3 0  47 3 0  49 3 0  51 3 0  53 3 0  55 3 0  57 3 0  59 3 0  61 3 0  63 3 0  65 3 0  67 3 0  69 3 0  71 3 0  73 3 0  75 3 0  77 3 0  79 3 0  81 3 0  83 3 0  85 3 0  87 3 0  89 3 0  91 3 0  93 3 0  95 3 0  97 3 0  99 3 0  101 3 0  103 3 0  105 3 0  107 3 0  109 3 0  111 3 0  113 3 0  115 3 0  117 3 0  119 3 0  121 3 0  123 3 0  125 3 0
[...]
<PointData  Vectors="flow"> 
<DataArray  type="Float64"  Name="flow"  NumberOfComponents="3" format="ascii">-4.6003126067915076e+02 -6.4370723200068447e-01 0.0000000000000000e+00  -4.5745652644199544e+02 -6.4366493137964798e-01 0.0000000000000000e+00  -4.5359488483593248e+02 -6.4353804143074078e-01 0.0000000000000000e+00  -4.4973425825019501e+02 -6.4332659731689756e-01 0.0000000000000000e+00  -4.4587515384303799e+02 -6.4303065764641099e-01 0.0000000000000000e+00  -4.4201807835055558e+02 -6.4265030455942485e-01 0.0000000000000000e+00  -4.3816353794659699e+02 -6.4218564317318916e-01 0.0000000000000000e+00  -4.3431203810307818e+02 -6.4163680243433607e-01 0.0000000000000000e+00  -4.3046408345019825e+02 -6.4100393401671529e-01 0.0000000000000000e+00  -4.2662017763816766e+02 -6.4028721289382284e-01 0.0000000000000000e+00  -4.2278082319913398e+02 -6.3948683674813733e-01 0.0000000000000000e+00  -4.1894652140959840e+02 -6.3860302624163690e-01 0.0000000000000000e+00  -4.1511777215449086e+02 -6.3763602473667258e-01 0.0000000000000000e+00  -4.1129507379155172e+02 -6.3658609789559661e-01 0.0000000000000000e+00  -4.0747892301719355e+02 -6.3545353374613456e-01 0.0000000000000000e+00  -4.0366981473328519e+02 -6.3423864242838779e-01 0.0000000000000000e+00  -3.9986824191539586e+02 -6.3294175587469315e-01 0.0000000000000000e+00  -3.9607469548229017e+02 -6.3156322778171659e-01 0.0000000000000000e+00  -3.9228966416695437e+02 -6.3010343301443172e-01 0.0000000000000000e+00  -3.8851363438893702e+02 -6.2856276768355379e-01 0.0000000000000000e+00  -3.8474709012885813e+02 -6.2694164871822611e-01 0.0000000000000000e+00  -3.8099051280374465e+02 -6.2524051368074662e-01 0.0000000000000000e+00  -3.7724438114512481e+02 -6.2345982016047652e-01 0.0000000000000000e+00  -3.7350917107827752e+02 -6.2160004587478423e-01 0.0000000000000000e+00  -3.6978535560384557e+02 -6.1966168802782540e-01 0.0000000000000000e+00  -3.6607340468132395e+02 -6.1764526303219303e-01 0.0000000000000000e+00  -3.6237378511462987e+02 -6.1555130622665366e-01 0.0000000000000000e+00  -3.5868696044007430e+02 -6.1338037149982949e-01 0.0000000000000000e+00  -3.5501339081617914e+02 -6.1113303086001691e-01 0.0000000000000000e+00  -3.5135353291642241e+02 -6.0880987394857455e-01 0.0000000000000000e+00  -3.4770783982374866e+02 -6.0641150777093711e-01 0.0000000000000000e+00  -3.4407676092809766e+02 -6.0393855639352667e-01 0.0000000000000000e+00  -3.4046074182600114e+02 -6.0139166014967760e-01 0.0000000000000000e+00  -3.3686022422313283e+02 -5.9877147554635979e-01 0.0000000000000000e+00  -3.3327564583922577e+02 -5.9607867469324038e-01 0.0000000000000000e+00  -3.2970744031600100e+02 -5.9331394480557387e-01 0.0000000000000000e+00  -3.2615603712747833e+02 -5.9047798783501659e-01 0.0000000000000000e+00  -3.2262186149350032e+02 -5.8757151981983546e-01 0.0000000000000000e+00  -3.1910533429568522e+02 -5.8459527063372851e-01 0.0000000000000000e+00  -3.1560687199674078e+02 -5.8154998341080233e-01 0.0000000000000000e+00  -3.1212688656233649e+02 -5.7843641394400902e-01 0.0000000000000000e+00  -3.0866578538621002e+02 -5.7525533040883325e-01 0.0000000000000000e+00  -3.0522397121815663e+02 -5.7200751247880954e-01 0.0000000000000000e+00  -3.0180184209512583e+02 -5.6869375132557920e-01 0.0000000000000000e+00  -2.9839979127552562e+02 -5.6531484866052384e-01 0.0000000000000000e+00  -2.9501820717634769e+02 -5.6187161642666905e-01 0.0000000000000000e+00  -2.9165747331373359e+02 -5.5836487622502473e-01 0.0000000000000000e+00  -2.8831796824670772e+02 -5.5479545886965043e-01 0.0000000000000000e+00  -2.8500006552360929e+02 -5.5116420360657759e-01 0.0000000000000000e+00  -2.8170413363265686e+02 -5.4747195785907254e-01 0.0000000000000000e+00  -2.7843053595462192e+02 -5.4371957651715019e-01 0.0000000000000000e+00  -2.7517963071969706e+02 -5.3990792160442114e-01 0.0000000000000000e+00  -2.7195177096697540e+02 -5.3603786143356758e-01 0.0000000000000000e+00  -2.6874730450742135e+02 -5.3211027023403767e-01 0.0000000000000000e+00  -2.6556657389011752e+02 -5.2812602767138683e-01 0.0000000000000000e+00  -2.6240991637163148e+02 -5.2408601823134693e-01 0.0000000000000000e+00  -2.5927766388864399e+02 -5.1999113059029756e-01 0.0000000000000000e+00  -2.5617014303391181e+02 -5.1584225731590316e-01 0.0000000000000000e+00  -2.5308767503528742e+02 -5.1164029410796774e-01 0.0000000000000000e+00  -2.5003057573808044e+02 -5.0738613937812249e-01 0.0000000000000000e+00  -2.4699915559061819e+02 -5.0308069368414055e-01 0.0000000000000000e+00  -2.4399371963273973e+02 -4.9872485916399717e-01 0.0000000000000000e+00  -2.4101456748781897e+02 -4.9431953910633120e-01 0.0000000000000000e+00  -2.3806199335765854e+02 -4.8986563739645506e-01 0.0000000000000000e+00  -2.3513628602042809e+02 -4.8536405789998410e-01 0.0000000000000000e+00  -2.3223772883194218e+02 -4.8081570417889363e-01 0.0000000000000000e+00  -2.2936659972968050e+02 -4.7622147866013331e-01 0.0000000000000000e+00  -2.2652317124003912e+02 -4.7158228259815721e-01 0.0000000000000000e+00  -2.2370771048835098e+02 -4.6689901505522546e-01 0.0000000000000000e+00  -2.2092047921196871e+02 -4.6217257286173302e-01 0.0000000000000000e+00  -2.1816173377616371e+02 -4.5740384984776628e-01 0.0000000000000000e+00  -2.1543172519283289e+02 -4.5259373652470991e-01 0.0000000000000000e+00  -2.1273069914203933e+02 -4.4774311962410862e-01 0.0000000000000000e+00  -2.1005889599626619e+02 -4.4285288158328451e-01 0.0000000000000000e+00  -2.0741655084722572e+02 -4.3792390012217375e-01 0.0000000000000000e+00  -2.0480389353561554e+02 -4.3295704785343397e-01 0.0000000000000000e+00  -2.0222114868298308e+02 -4.2795319179446273e-01 0.0000000000000000e+00  -1.9966853572649165e+02 -4.2291319301357033e-01 0.0000000000000000e+00  -1.9714626895587469e+02 -4.1783790615623884e-01 0.0000000000000000e+00  -1.9465455755293721e+02 -4.1272817924090077e-01 0.0000000000000000e+00  -1.9219360563314899e+02 -4.0758485295758029e-01 0.0000000000000000e+00  -1.8976361228972246e+02 -4.0240876062381370e-01 0.0000000000000000e+00  -1.8736477163975383e+02 -3.9720072763862346e-01 0.0000000000000000e+00  -1.8499727287233469e+02 -3.9196157118857633e-01 0.0000000000000000e+00  -1.8266130029895416e+02 -3.8669209992310905e-01 0.0000000000000000e+00  -1.8035703340559022e+02 -3.8139311362136180e-01 0.0000000000000000e+00  -1.7808464690686046e+02 -3.7606540293477464e-01 0.0000000000000000e+00  -1.7584431080183617e+02 -3.7070974906697496e-01 0.0000000000000000e+00  -1.7363619043167867e+02 -3.6532692341946676e-01 0.0000000000000000e+00  -1.7146044653880335e+02 -3.5991768741714675e-01 0.0000000000000000e+00  -1.6931723532764391e+02 -3.5448279227094126e-01 0.0000000000000000e+00  -1.6720670852696310e+02 -3.4902297868022258e-01 0.0000000000000000e+00  -1.6512901345336672e+02 -3.4353897660315169e-01 0.0000000000000000e+00  -1.6308429307624951e+02 -3.3803150509958613e-01 0.0000000000000000e+00  -1.6107268608391144e+02 -3.3250127214061259e-01 0.0000000000000000e+00  -1.5909432695082609e+02 -3.2694897436947923e-01 0.0000000000000000e+00  -1.5714934600585241e+02 -3.2137529696516576e-01 0.0000000000000000e+00  -1.5523786950153379e+02 -3.1578091350746673e-01 0.0000000000000000e+00  -1.5336001968410852e+02 -3.1016648582305845e-01 0.0000000000000000e+00  -1.5151591486439185e+02 -3.0453266389964262e-01 0.0000000000000000e+00  -1.4970566948928726e+02 -2.9888008570925939e-01 0.0000000000000000e+00  -1.4792939421390912e+02 -2.9320937718241052e-01 0.0000000000000000e+00  -1.4618719597418274e+02 -2.8752115211894480e-01 0.0000000000000000e+00  -1.4447917805985088e+02 -2.8181601208909657e-01 0.0000000000000000e+00  -1.4280544018781524e+02 -2.7609454646661558e-01 0.0000000000000000e+00  -1.4116607857569241e+02 -2.7035733231257347e-01 0.0000000000000000e+00  -1.3956118601551447e+02 -2.6460493441791949e-01 0.0000000000000000e+00  -1.3799085194749063e+02 -2.5883790526571288e-01 0.0000000000000000e+00  -1.3645516253363203e+02 -2.5305678507563889e-01 0.0000000000000000e+00  -1.3495420073147824e+02 -2.4726210177586108e-01 0.0000000000000000e+00  -1.3348804636737202e+02 -2.4145437106998174e-01 0.0000000000000000e+00  -1.3205677620965650e+02 -2.3563409648927092e-01 0.0000000000000000e+00  -1.3066046404148673e+02 -2.2980176933082377e-01 0.0000000000000000e+00  -1.2929918073337134e+02 -2.2395786870302764e-01 0.0000000000000000e+00  -1.2797299431543193e+02 -2.1810286140817609e-01 0.0000000000000000e+00  -1.2668197004970673e+02 -2.1223720166683913e-01 0.0000000000000000e+00  -1.2542617050287149e+02 -2.0636133052799643e-01 0.0000000000000000e+00  -1.2420565562045296e+02 -2.0047567459978638e-01 0.0000000000000000e+00  -1.2302048280441537e+02 -1.9458064361140701e-01 0.0000000000000000e+00  -1.2187070699798426e+02 -1.8867662562218163e-01 0.0000000000000000e+00  -1.2075638078490491e+02 -1.8276397774959202e-01 0.0000000000000000e+00  -1.1967755451681737e+02 -1.7684300863206923e-01 0.0000000000000000e+00  -1.1863427649506067e+02 -1.7091394477934929e-01 0.0000000000000000e+00  -1.1762659325640763e+02 -1.6497686694059038e-01 0.0000000000000000e+00  -1.1665455005676802e+02 -1.5903158914476612e-01 0.0000000000000000e+00  -1.1571819173111390e+02 -1.5307742962064913e-01 0.0000000000000000e+00  -1.1481756426721373e+02 -1.4711277637838807e-01 0.0000000000000000e+00  -1.1395271773261894e+02 -1.4113426436444243e-01 0.0000000000000000e+00  -1.1312371176668239e+02 -1.3513521645956897e-01 0.0000000000000000e+00  -1.1233062593238481e+02 -1.2910269011722730e-01 0.0000000000000000e+00  -1.1157357927560456e+02 -1.2301188263994291e-01 0.0000000000000000e+00  -1.1085276732782060e+02 -1.1681553279592814e-01 0.0000000000000000e+00  -1.1016853215580898e+02 -1.1042384255687773e-01 0.0000000000000000e+00  -1.0952149502588095e+02 -1.0366643534207133e-01 0.0000000000000000e+00  -1.0891280773781980e+02 -9.6220262016780550e-02 0.0000000000000000e+00  -1.0834462895344961e+02 -8.7472904978589200e-02 0.0000000000000000e+00  -1.0782102771534066e+02 -7.6263138432568822e-02 0.0000000000000000e+00  -1.0734969885173966e+02 -6.0387473288686266e-02 0.0000000000000000e+00  -1.0694523330577260e+02 -3.5658085360046429e-02 0.0000000000000000e+00  -1.0663536141116970e+02 5.9128370561159519e-03 0.0000000000000000e+00  -1.0647314993152580e+02 7.9653503218602262e-02 0.0000000000000000e+00  -1.0656049320604529e+02 2.1545281874510497e-01 0.0000000000000000e+00  -1.0709990328978583e+02 4.7257758858463650e-01 0.0000000000000000e+00  -1.0848833142244686e+02 9.7755506952666615e-01 0.0000000000000000e+00  -1.1165058889076320e+02 1.9968569733642059e+00 0.0000000000000000e+00  -1.1834516924145930e+02 4.3065736853541567e+00 0.0000000000000000e+00  -1.3474673681350660e+02 9.2125767304523229e+00 0.0000000000000000e+00  -1.6920791834078972e+02 2.4753626443498870e+01 0.0000000000000000e+00  -2.3590756802677743e+02 3.7964540622477728e+01 0.0000000000000000e+00  -3.3696547734601091e+02 6.7848991680395329e+01 0.0000000000000000e+00  -3.9386955713131096e+02 6.0718556378733282e+01 0.0000000000000000e+00  -4.6003126067911603e+02 2.6438443409181773e-06 0.0000000000000000e+00  -4.5745652644198748e+02 2.6434793094486221e-06 0.0000000000000000e+00  -4.5359488483594714e+02 2.6423799093497528e-06 0.0000000000000000e+00  -4.4973425825019922e+02 2.6405518608711040e-06 0.0000000000000000e+00  -4.4587515384303288e+02 2.6379844584067996e-06 0.0000000000000000e+00  -4.4201807835053523e+02 2.6347023273816392e-06 0.0000000000000000e+00  -4.3816353794662132e+02 2.6306610751977915e-06 0.0000000000000000e+00  -4.3431203810306255e+02 2.6259116273838923e-06 0.0000000000000000e+00  -4.3046408345020131e+02 2.6204535281820805e-06 0.0000000000000000e+00  -4.2662017763820944e+02 2.6142677006072903e-06 0.0000000000000000e+00  -4.2278082319911340e+02 2.6073738839630532e-06 0.0000000000000000e+00  -4.1894652140958090e+02 2.5997720768811345e-06 0.0000000000000000e+00  -4.1511777215450189e+02 2.5914792253229381e-06 0.0000000000000000e+00  -4.1129507379157042e+02 2.5824787025985121e-06 0.0000000000000000e+00  -4.0747892301718713e+02 2.5727808765173104e-06 0.0000000000000000e+00  -4.0366981473328713e+02 2.5624056846511465e-06 0.0000000000000000e+00  -3.9986824191538284e+02 2.5513368359877306e-06 0.0000000000000000e+00  -3.9607469548228937e+02 2.5396448180228957e-06 0.0000000000000000e+00  -3.9228966416693140e+02 2.5272666028215840e-06 0.0000000000000000e+00  -3.8851363438896220e+02 2.5142425678366893e-06 0.0000000000000000e+00  -3.8474709012885961e+02 2.5005495651435489e-06 0.0000000000000000e+00  -3.8099051280374431e+02 2.4862542988415470e-06 0.0000000000000000e+00  -3.7724438114511787e+02 2.4713396624072564e-06 0.0000000000000000e+00  -3.7350917107828275e+02 2.4557882604541918e-06 0.0000000000000000e+00  -3.6978535560384961e+02 2.4396662811705159e-06 0.0000000000000000e+00  -3.6607340468131258e+02 2.4229216113340768e-06 0.0000000000000000e+00  -3.6237378511464021e+02 2.4056057070569904e-06 0.0000000000000000e+00  -3.5868696044006560e+02 2.3877231501027332e-06 0.0000000000000000e+00  -3.5501339081618011e+02 2.3693055944389974e-06 0.0000000000000000e+00  -3.5135353291640740e+02 2.3503377837960722e-06 0.0000000000000000e+00  -3.4770783982376048e+02 2.3308442128545005e-06 0.0000000000000000e+00  -3.4407676092810732e+02 2.3108170134852831e-06 0.0000000000000000e+00  -3.4046074182601069e+02 2.2903073461293996e-06 0.0000000000000000e+00  -3.3686022422312249e+02 2.2692975377034756e-06 0.0000000000000000e+00  -3.3327564583921753e+02 2.2478238677523437e-06 0.0000000000000000e+00  -3.2970744031601112e+02 2.2258749419618667e-06 0.0000000000000000e+00  -3.2615603712749424e+02 2.2034983992166706e-06 0.0000000000000000e+00  -3.2262186149349867e+02 2.1806920574219643e-06 0.0000000000000000e+00  -3.1910533429568284e+02 2.1574564555299790e-06 0.0000000000000000e+00  -3.1560687199672907e+02 2.1338388357964475e-06 0.0000000000000000e+00  -3.1212688656234565e+02 2.1098494426777738e-06 0.0000000000000000e+00  -3.0866578538620701e+02 2.0854647762359579e-06 0.0000000000000000e+00  -3.0522397121813958e+02 2.0607517076931979e-06 0.0000000000000000e+00  -3.0180184209514044e+02 2.0357020025432375e-06 0.0000000000000000e+00  -2.9839979127553107e+02 2.0103187550592648e-06 0.0000000000000000e+00  -2.9501820717633706e+02 1.9846463763729627e-06 0.0000000000000000e+00  -2.9165747331374558e+02 1.9586869014868413e-06 0.0000000000000000e+00  -2.8831796824669482e+02 1.9324467332152340e-06 0.0000000000000000e+00  -2.8500006552362515e+02 1.9059851203400783e-06 0.0000000000000000e+00  -2.8170413363264362e+02 1.8792575034742712e-06 0.0000000000000000e+00  -2.7843053595462214e+02 1.8523369136693947e-06 0.0000000000000000e+00  -2.7517963071970860e+02 1.8251703339001474e-06 0.0000000000000000e+00  -2.7195177096696642e+02 1.7978595885590393e-06 0.0000000000000000e+00  -2.6874730450741419e+02 1.7703712948250477e-06 0.0000000000000000e+00  -2.6556657389012736e+02 1.7427291313272611e-06 0.0000000000000000e+00  -2.6240991637162927e+02 1.7149657388197882e-06 0.0000000000000000e+00  -2.5927766388864330e+02 1.6870632585151578e-06 0.0000000000000000e+00  -2.5617014303390869e+02 1.6590797098056527e-06 0.0000000000000000e+00  -2.5308767503528591e+02 1.6310019066433074e-06 0.0000000000000000e+00  -2.5003057573809744e+02 1.6028496393446741e-06 0.0000000000000000e+00  -2.4699915559061478e+02 1.5746551281523251e-06 0.0000000000000000e+00  -2.4399371963272614e+02 1.5464378944458605e-06 0.0000000000000000e+00  -2.4101456748782749e+02 1.5181803764020693e-06 0.0000000000000000e+00  -2.3806199335764970e+02 1.4899346396972558e-06 0.0000000000000000e+00  -2.3513628602043397e+02 1.4617033495275339e-06 0.0000000000000000e+00  -2.3223772883194118e+02 1.4334944612547564e-06 0.0000000000000000e+00  -2.2936659972968229e+02 1.4053337243880506e-06 0.0000000000000000e+00  -2.2652317124004065e+02 1.3772268536556632e-06 0.0000000000000000e+00  -2.2370771048834666e+02 1.3492005841451081e-06 0.0000000000000000e+00  -2.2092047921197252e+02 1.3212781856276200e-06 0.0000000000000000e+00  -2.1816173377616010e+02 1.2934410337056363e-06 0.0000000000000000e+00  -2.1543172519283857e+02 1.2657331171514304e-06 0.0000000000000000e+00  -2.1273069914204476e+02 1.2381565172352687e-06 0.0000000000000000e+00  -2.1005889599625732e+02 1.2107253063542499e-06 0.0000000000000000e+00  -2.0741655084723217e+02 1.1834552907083974e-06 0.0000000000000000e+00  -2.0480389353561148e+02 1.1563515417697636e-06 0.0000000000000000e+00  -2.0222114868298470e+02 1.1294468825374811e-06 0.0000000000000000e+00  -1.9966853572648489e+02 1.1027406602138222e-06 0.0000000000000000e+00  -1.9714626895588236e+02 1.0762414611359188e-06 0.0000000000000000e+00  -1.9465455755293542e+02 1.0499645920034271e-06 0.0000000000000000e+00  -1.9219360563314294e+02 1.0239303614415098e-06 0.0000000000000000e+00  -1.8976361228972877e+02 9.9813057200222829e-07 0.0000000000000000e+00  -1.8736477163975459e+02 9.7259057692722169e-07 0.0000000000000000e+00  -1.8499727287233281e+02 9.4732382525103097e-07 0.0000000000000000e+00  -1.8266130029895550e+02 9.2233083865236127e-07 0.0000000000000000e+00  -1.8035703340558746e+02 8.9762192844312912e-07 0.0000000000000000e+00  -1.7808464690686267e+02 8.7320773493395278e-07 0.0000000000000000e+00  -1.7584431080184100e+02 8.4910353336957917e-07 0.0000000000000000e+00  -1.7363619043167472e+02 8.2530650906179525e-07 0.0000000000000000e+00  -1.7146044653879284e+02 8.0183493304695323e-07 0.0000000000000000e+00  -1.6931723532764750e+02 7.7868955007124167e-07 0.0000000000000000e+00  -1.6720670852696921e+02 7.5587615188616378e-07 0.0000000000000000e+00  -1.6512901345336579e+02 7.3340680623530878e-07 0.0000000000000000e+00  -1.6308429307625065e+02 7.1127980335117242e-07 0.0000000000000000e+00  -1.6107268608391539e+02 6.8950205699211907e-07 0.0000000000000000e+00  -1.5909432695082160e+02 6.6809254896548635e-07 0.0000000000000000e+00  -1.5714934600585735e+02 6.4704356792738638e-07 0.0000000000000000e+00  -1.5523786950153240e+02 6.2635913703898368e-07 0.0000000000000000e+00  -1.5336001968410585e+02 6.0604882252787376e-07 0.0000000000000000e+00  -1.5151591486439071e+02 5.8611534762468539e-07 0.0000000000000000e+00  -1.4970566948928524e+02 5.6655431410422273e-07 0.0000000000000000e+00  -1.4792939421391492e+02 5.4737751459081628e-07 0.0000000000000000e+00  -1.4618719597417740e+02 5.2857622606423152e-07 0.0000000000000000e+00  -1.4447917805984446e+02 5.1016684960057307e-07 0.0000000000000000e+00  -1.4280544018780435e+02 4.9214369425008438e-07 0.0000000000000000e+00  -1.4116607857567303e+02 4.7451772730465758e-07 0.0000000000000000e+00  -1.3956118601548181e+02 4.5729608825854844e-07 0.0000000000000000e+00  -1.3799085194742057e+02 4.4049943225358135e-07 0.0000000000000000e+00  -1.3645516253350866e+02 4.2415855995950132e-07 0.0000000000000000e+00  -1.3495420073123915e+02 4.0833782303648865e-07 0.0000000000000000e+00  -1.3348804636692353e+02 3.9316323559439663e-07 0.0000000000000000e+00  -1.3205677620880635e+02 3.7887600643111773e-07 0.0000000000000000e+00  -1.3066046403987653e+02 3.6591867892013476e-07 0.0000000000000000e+00  -1.2929918073032076e+02 3.5514441297637557e-07 0.0000000000000000e+00  -1.2797299430964539e+02 3.4818322182258013e-07 0.0000000000000000e+00  -1.2668197003874960e+02 3.4808795510930789e-07 0.0000000000000000e+00  -1.2542617048212303e+02 3.6069698532357460e-07 0.0000000000000000e+00  -1.2420565558113883e+02 3.9702377179622475e-07 0.0000000000000000e+00  -1.2302048272994710e+02 4.7797120744548001e-07 0.0000000000000000e+00  -1.2187070685693682e+02 6.4310633955155466e-07 0.0000000000000000e+00  -1.2075638051772006e+02 9.6740218949013545e-07 0.0000000000000000e+00  -1.1967755401071058e+02 1.5928815140353798e-06 0.0000000000000000e+00  -1.1863427553638390e+02 2.7885647644589986e-06 0.0000000000000000e+00  -1.1762659144045905e+02 5.0640433059517177e-06 0.0000000000000000e+00  -1.1665454661695519e+02 9.3846076884975046e-06 0.0000000000000000e+00  -1.1571818521535951e+02 1.7578727904087713e-05 0.0000000000000000e+00  -1.1481755192492257e+02 3.3109936430971663e-05 0.0000000000000000e+00  -1.139526943535