<?xml version="1.0"?>
<VTKFile type="UnstructuredGrid"  version="0.1"  >
<UnstructuredGrid>
<Piece  NumberOfPoints="1656" NumberOfCells="3000">
<Points>
<DataArray  type="Float64"  NumberOfComponents="3"  format="ascii">0 0 0  2 0 0  4 0 0  6 0 0  8 0 0  10 0 0  12 0 0  14 0 0  16 0 0  18 0 0  20 0 0  22 0 0  24 0 0  26 0 0  28 0 0  30 0 0  32 0 0  34 0 0  36 0 0  38 0 0  40 0 0  42 0 0  44 0 0  46 0 0  48 0 0  50 0 0  52 0 0  54 0 0  56 0 0  58 0 0  60 0 0  62 0 0  64 0 0  66 0 0  68 0 0  70 0 0  72 0 0  74 0 0  76 0 0  78 0 0  80 0 0  82 0 0  84 0 0  86 0 0  88 0 0  90 0 0  92 0 0  94 0 0  96 0 0  98 0 0  100 0 0  102 0 0  104 0 0  106 0 0  108 0 0  110 0 0  112 0 0  114 0 0  116 0 0  118 0 0  120 0 0  122 0 0  124 0 0  126 0 0  128 0 0  130 0 0  132 0 0  134 0 0  136 0 0  138 0 0  140 0 0  142 0 0  144 0 0  146 0 0  148 0 0  150 0 0  152 0 0  154 0 0  156 0 0  158 0 0  160 0 0  162 0 0  164 0 0  166 0 0  168 0 0  170 0 0  172 0 0  174 0 0  176 0 0  178 0 0  180 0 0  182 0 0  184 0 0  186 0 0  188 0 0  190 0 0  192 0 0  194 0 0  196 0 0  198 0 0  200 0 0  202 0 0  204 0 0  206 0 0  208 0 0  210 0 0  212 0 0  214 0 0  216 0 0  218 0 0  220 0 0  222 0 0  224 0 0  226 0 0  228 0 0  230 0 0  232 0 0  234 0 0  236 0 0  238 0 0  240 0 0  242 0 0  244 0 0  246 0 0  248 0 0  250 0 0  252 0 0  254 0 0  256 0 0  258 0 0  260 0 0  262 0 0  264 0 0  266 0 0  268 0 0  270 0 0  272 0 0  274 0 0  276 0 0  278 0 0  280 0 0  282 0 0  284 0 0  286 0 0  288 0 0  290 0 0  292 0 0  294 0 0  296 0 0  298 0 0  300 0 0  0 2 0  2 2 0  4 2 0  6 2 0  8 2 0  10 2 0  12 2 0  14 2 0  16 2 0  18 2 0  20 2 0  22 2 0  24 2 0  26 2 0  28 2 0  30 2 0  32 2 0  34 2 0  36 2 0  38 2 0  40 2 0  42 2 0  44 2 0  46 2 0  48 2 0  50 2 0  52 2 0  54 2 0  56 2 0  58 2 0  60 2 0  62 2 0  64 2 0  66 2 0  68 2 0  70 2 0  72 2 0  74 2 0  76 2 0  78 2 0  80 2 0  82 2 0  84 2 0  86 2 0  88 2 0  90 2 0  92 2 0  94 2 0  96 2 0  98 2 0  100 2 0  102 2 0  104 2 0  106 2 0  108 2 0  110 2 0  112 2 0  114 2 0  116 2 0  118 2 0  120 2 0  122 2 0  124 2 0  126 2 0  128 2 0  130 2 0  132 2 0  134 2 0  136 2 0  138 2 0  140 2 0  142 2 0  144 2 0  146 2 0  148 2 0  150 2 0  152 2 0  154 2 0  156 2 0  158 2 0  160 2 0  162 2 0  164 2 0  166 2 0  168 2 0  170 2 0  172 2 0  174 2 0  176 2 0  178 2 0  180 2 0  182 2 0  184 2 0  186 2 0  188 2 0  190 2 0  192 2 0  194 2 0  196 2 0  198 2 0  200 2 0  202 2 0  204 2 0  206 2 0  208 2 0  210 2 0  212 2 0  214 2 0  216 2 0  218 2 0  220 2 0  222 2 0  224 2 0  226 2 0  228 2 0  230 2 0  232 2 0  234 2 0  236 2 0  238 2 0  240 2 0  242 2 0  244 2 0  246 2 0  248 2 0  250 2 0  252 2 0  254 2 0  256 2 0  258 2 0  260 2 0  262 2 0  264 2 0  266 2 0  268 2 0  270 2 0  272 2 0  274 2 0  276 2 0  278 2 0  280 2 0  282 2 0  284 2 0  286 2 0  288 2 0  290 2 0  292 2 0  294 2 0  296 2 0  298 2 0  300 2 0  0 4 0  2 4 0  4 4 0  6 4 0  8 4 0  10 4 0  12 4 0  14 4 0  16 4 0  18 4 0  20 4 0  22 4 0  24 4 0  26 4 0  28 4 0  30 4 0  32 4 0  34 4 0  36 4 0  38 4 0  40 4 0  42 4 0  44 4 0  46 4 0  48 4 0  50 4 0  52 4 0  54 4 0  56 4 0  58 4 0  60 4 0  62 4 0  64 4 0  66 4 0  68 4 0  70 4 0  72 4 0  74 4 0  76 4 0  78 4 0  80 4 0  82 4 0  84 4 0  86 4 0  88 4 0  90 4 0  92 4 0  94 4 0  96 4 0  98 4 0  100 4 0  102 4 0  104 4 0  106 4 0  108 4 0  110 4 0  112 4 0  114 4 0  116 4 0  118 4 0  120 4 0  122 4 0  124 4 0  126 4 0  128 4 0  130 4 0  132 4 0  134 4 0  136 4 0  138 4 0  140 4 0  142 4 0  144 4 0  146 4 0  148 4 0  150 4 0  152 4 0  154 4 0  156 4 0  158 4 0  160 4 0  162 4 0  164 4 0  166 4 0  168 4 0  170 4 0  172 4 0  174 4 0  176 4 0  178 4 0  180 4 0  182 4 0  184 4 0  186 4 0  188 4 0  190 4 0  192 4 0  194 4 0  196 4 0  198 4 0  200 4 0  202 4 0  204 4 0  206 4 0  208 4 0  210 4 0  212 4 0  214 4 0  216 4 0  218 4 0  220 4 0  222 4 0  224 4 0  226 4 0  228 4 0  230 4 0  232 4 0  234 4 0  236 4 0  238 4 0  240 4 0  242 4 0  244 4 0  246 4 0  248 4 0  250 4 0  252 4 0  254 4 0  256 4 0  258 4 0  260 4 0  262 4 0  264 4 0  266 4 0  268 4 0  270 4 0  272 4 0  274 4 0  276 4 0  278 4 0  280 4 0  282 4 0  284 4 0  286 4 0  288 4 0  290 4 0  292 4 0  294 4 0  296 4 0  298 4 0  300 4 0  0 6 0  2 6 0  4 6 0  6 6 0  8 6 0  10 6 0  12 6 0  14 6 0  16 6 0  18 6 0  20 6 0  22 6 0  24 6 0  26 6 0  28 6 0  30 6 0  32 6 0  34 6 0  36 6 0  38 6 0  40 6 0  42 6 0  44 6 0  46 6 0  48 6 0  50 6 0  52 6 0  54 6 0  56 6 0  58 6 0  60 6 0  62 6 0  64 6 0  66 6 0  68 6 0  70 6 0  72 6 0  74 6 0  76 6 0  78 6 0  80 6 0  82 6 0  84 6 0  86 6 0  88 6 0  90 6 0  92 6 0  94 6 0  96 6 0  98 6 0  100 6 0  102 6 0  104 6 0  106 6 0  108 6 0  110 6 0  112 6 0  114 6 0  116 6 0  118 6 0  120 6 0  122 6 0  124 6 0  126 6 0  128 6 0  130 6 0  132 6 0  134 6 0  136 6 0  138 6 0  140 6 0  142 6 0  144 6 0  146 6 0  148 6 0  150 6 0  152 6 0  154 6 0  156 6 0  158 6 0  160 6 0  162 6 0  164 6 0  166 6 0  168 6 0  170 6 0  172 6 0  174 6 0  176 6 0  178 6 0  180 6 0  182 6 0  184 6 0  186 6 0  188 6 0  190 6 0  192 6 0  194 6 0  196 6 0  198 6 0  200 6 0  202 6 0  204 6 0  206 6 0  208 6 0  210 6 0  212 6 0  214 6 0  216 6 0  218 6 0  220 6 0  222 6 0  224 6 0  226 6 0  228 6 0  230 6 0  232 6 0  234 6 0  236 6 0  238 6 0  240 6 0  242 6 0  244 6 0  246 6 0  248 6 0  250 6 0  252 6 0  254 6 0  256 6 0  258 6 0  260 6 0  262 6 0  264 6 0  266 6 0  268 6 0  270 6 0  272 6 0  274 6 0  276 6 0  278 6 0  280 6 0  282 6 0  284 6 0  286 6 0  288 6 0  290 6 0  292 6 0  294 6 0  296 6 0  298 6 0  300 6 0  0 8 0  2 8 0  4 8 0  6 8 0  8 8 0  10 8 0  12 8 0  14 8 0  16 8 0  18 8 0  20 8 0  22 8 0  24 8 0  26 8 0  28 8 0  30 8 0  32 8 0  34 8 0  36 8 0  38 8 0  40 8 0  42 8 0  44 8 0  46 8 0  48 8 0  50 8 0  52 8 0  54 8 0  56 8 0  58 8 0  60 8 0  62 8 0  64 8 0  66 8 0  68 8 0  70 8 0  72 8 0  74 8 0  76 8 0  78 8 0  80 8 0  82 8 0  84 8 0  86 8 0  88 8 0  90 8 0  92 8 0  94 8 0  96 8 0  98 8 0  100 8 0  102 8 0  104 8 0  106 8 0  108 8 0  110 8 0  112 8 0  114 8 0  116 8 0  118 8 0  120 8 0  122 8 0  124 8 0  126 8 0  128 8 0  130 8 0  132 8 0  134 8 0  136 8 0  138 8 0  140 8 0  142 8 0  144 8 0  146 8 0  148 8 0  150 8 0  152 8 0  154 8 0  156 8 0  158 8 0  160 8 0  162 8 0  164 8 0  166 8 0  168 8 0  170 8 0  172 8 0  174 8 0  176 8 0  178 8 0  180 8 0  182 8 0  184 8 0  186 8 0  188 8 0  190 8 0  192 8 0  194 8 0  196 8 0  198 8 0  200 8 0  202 8 0  204 8 0  206 8 0  208 8 0  210 8 0  212 8 0  214 8 0  216 8 0  218 8 0  220 8 0  222 8 0  224 8 0  226 8 0  228 8 0  230 8 0  232 8 0  234 8 0  236 8 0  238 8 0  240 8 0  242 8 0  244 8 0  246 8 0  248 8 0  250 8 0  252 8 0  254 8 0  256 8 0  258 8 0  260 8 0  262 8 0  264 8 0  266 8 0  268 8 0  270 8 0  272 8 0  274 8 0  276 8 0  278 8 0  280 8 0  282 8 0  284 8 0  286 8 0  288 8 0  290 8 0  292 8 0  294 8 0  296 8 0  298 8 0  300 8 0  0 10 0  2 10 0  4 10 0  6 10 0  8 10 0  10 10 0  12 10 0  14 10 0  16 10 0  18 10 0  20 10 0  22 10 0  24 10 0  26 10 0  28 10 0  30 10 0  32 10 0  34 10 0  36 10 0  38 10 0  40 10 0  42 10 0  44 10 0  46 10 0  48 10 0  50 10 0  52 10 0  54 10 0  56 10 0  58 10 0  60 10 0  62 10 0  64 10 0  66 10 0  68 10 0  70 10 0  72 10 0  74 10 0  76 10 0  78 10 0  80 10 0  82 10 0  84 10 0  86 10 0  88 10 0  90 10 0  92 10 0  94 10 0  96 10 0  98 10 0  100 10 0  102 10 0  104 10 0  106 10 0  108 10 0  110 10 0  112 10 0  114 10 0  116 10 0  118 10 0  120 10 0  122 10 0  124 10 0  126 10 0  128 10 0  130 10 0  132 10 0  134 10 0  136 10 0  138 10 0  140 10 0  142 10 0  144 10 0  146 10 0  148 10 0  150 10 0  152 10 0  154 10 0  156 10 0  158 10 0  160 10 0  162 10 0  164 10 0  166 10 0  168 10 0  170 10 0  172 10 0  174 10 0  176 10 0  178 10 0  180 10 0  182 10 0  184 10 0  186 10 0  188 10 0  190 10 0  192 10 0  194 10 0  196 10 0  198 10 0  200 10 0  202 10 0  204 10 0  206 10 0  208 10 0  210 10 0  212 10 0  214 10 0  216 10 0  218 10 0  220 10 0  222 10 0  224 10 0  226 10 0  228 10 0  230 10 0  232 10 0  234 10 0  236 10 0  238 10 0  240 10 0  242 10 0  244 10 0  246 10 0  248 10 0  250 10 0  252 10 0  254 10 0  256 10 0  258 10 0  260 10 0  262 10 0  264 10 0  266 10 0  268 10 0  270 10 0  272 10 0  274 10 0  276 10 0  278 10 0  280 10 0  282 10 0  284 10 0  286 10 0  288 10 0  290 10 0  292 10 0  294 10 0  296 10 0  298 10 0  300 10 0  1 1 0  3 1 0  5 1 0  7 1 0  9 1 0  11 1 0  13 1 0  15 1 0  17 1 0  19 1 0  21 1 0  23 1 0  25 1 0  27 1 0  29 1 0  31 1 0  33 1 0  35 1 0  37 1 0  39 1 0  41 1 0  43 1 0  45 1 0  47 1 0  49 1 0  51 1 0  53 1 0  55 1 0  57 1 0  59 1 0  61 1 0  63 1 0  65 1 0  67 1 0  69 1 0  71 1 0  73 1 0  75 1 0  77 1 0  79 1 0  81 1 0  83 1 0  85 1 0  87 1 0  89 1 0  91 1 0  93 1 0  95 1 0  97 1 0  99 1 0  101 1 0  103 1 0  105 1 0  107 1 0  109 1 0  111 1 0  113 1 0  115 1 0  117 1 0  119 1 0  121 1 0  123 1 0  125 1 0  127 1 0  129 1 0  131 1 0  133 1 0  135 1 0  137 1 0  139 1 0  141 1 0  143 1 0  145 1 0  147 1 0  149 1 0  151 1 0  153 1 0  155 1 0  157 1 0  159 1 0  161 1 0  163 1 0  165 1 0  167 1 0  169 1 0  171 1 0  173 1 0  175 1 0  177 1 0  179 1 0  181 1 0  183 1 0  185 1 0  187 1 0  189 1 0  191 1 0  193 1 0  195 1 0  197 1 0  199 1 0  201 1 0  203 1 0  205 1 0  207 1 0  209 1 0  211 1 0  213 1 0  215 1 0  217 1 0  219 1 0  221 1 0  223 1 0  225 1 0  227 1 0  229 1 0  231 1 0  233 1 0  235 1 0  237 1 0  239 1 0  241 1 0  243 1 0  245 1 0  247 1 0  249 1 0  251 1 0  253 1 0  255 1 0  257 1 0  259 1 0  261 1 0  263 1 0  265 1 0  267 1 0  269 1 0  271 1 0  273 1 0  275 1 0  277 1 0  279 1 0  281 1 0  283 1 0  285 1 0  287 1 0  289 1 0  291 1 0  293 1 0  295 1 0  297 1 0  299 1 0  1 3 0  3 3 0  5 3 0  7 3 0  9 3 0  11 3 0  13 3 0  15 3 0  17 3 0  19 3 0  21 3 0  23 3 0  25 3 0  27 3 0  29 3 0  31 3 0  33 3 0  35 3 0  37 3 0  39 3 0  41 3 0  43 3 0  45 3 0  47 3 0  49 3 0  51 3 0  53 3 0  55 3 0  57 3 0  59 3 0  61 3 0  63 3 0  65 3 0  67 3 0  69 3 0  71 3 0  73 3 0  75 3 0  77 3 0  79 3 0  81 3 0  83 3 0  85 3 0  87 3 0  89 3 0  91 3 0  93 3 0  95 3 0  97 3 0  99 3 0  101 3 0  103 3 0  105 3 0  107 3 0  109 3 0  111 3 0  113 3 0  115 3 0  117 3 0  119 3 0  121 3 0  123 3 0  125 3 0
[...]
<PointData  Vectors="flow"> 
<DataArray  type="Float64"  Name="flow"  NumberOfComponents="3" format="ascii">-4.5874611352743426e+02 -1.2862793484919637e+00 0.0000000000000000e+00  -4.5360165782676540e+02 -1.2859837520527975e+00 0.0000000000000000e+00  -4.4588818625647474e+02 -1.2850973783339814e+00 0.0000000000000000e+00  -4.3818180216581993e+02 -1.2836214727071051e+00 0.0000000000000000e+00  -4.3048603684795830e+02 -1.2815581075350342e+00 0.0000000000000000e+00  -4.2280440669483727e+02 -1.2789101767612270e+00 0.0000000000000000e+00  -4.1514040828707112e+02 -1.2756813890896870e+00 0.0000000000000000e+00  -4.0749751353366378e+02 -1.2718762585195664e+00 0.0000000000000000e+00  -3.9987916487167752e+02 -1.2675000933447429e+00 0.0000000000000000e+00  -3.9228877053901067e+02 -1.2625589832482351e+00 0.0000000000000000e+00  -3.8472969993081881e+02 -1.2570597840688991e+00 0.0000000000000000e+00  -3.7720527905116779e+02 -1.2510101013898132e+00 0.0000000000000000e+00  -3.6971878607014889e+02 -1.2444182717808294e+00 0.0000000000000000e+00  -3.6227344699764114e+02 -1.2372933427301605e+00 0.0000000000000000e+00  -3.5487243148261524e+02 -1.2296450507820358e+00 0.0000000000000000e+00  -3.4751884874848133e+02 -1.2214837981585707e+00 0.0000000000000000e+00  -3.4021574367303970e+02 -1.2128206278477787e+00 0.0000000000000000e+00  -3.3296609302137773e+02 -1.2036671976483928e+00 0.0000000000000000e+00  -3.2577280184002177e+02 -1.1940357523547320e+00 0.0000000000000000e+00  -3.1863870001964665e+02 -1.1839390953246443e+00 0.0000000000000000e+00  -3.1156653903306687e+02 -1.1733905585883537e+00 0.0000000000000000e+00  -3.0455898885476608e+02 -1.1624039722177562e+00 0.0000000000000000e+00  -2.9761863506758766e+02 -1.1509936325680064e+00 0.0000000000000000e+00  -2.9074797616161391e+02 -1.1391742699786465e+00 0.0000000000000000e+00  -2.8394942102932032e+02 -1.1269610156617613e+00 0.0000000000000000e+00  -2.7722528666084435e+02 -1.1143693681197142e+00 0.0000000000000000e+00  -2.7057779604246156e+02 -1.1014151591108743e+00 0.0000000000000000e+00  -2.6400907626025668e+02 -1.0881145191491104e+00 0.0000000000000000e+00  -2.5752115681112701e+02 -1.0744838429921315e+00 0.0000000000000000e+00  -2.5111596812174980e+02 -1.0605397548024822e+00 0.0000000000000000e+00  -2.4479534027622302e+02 -1.0462990734463364e+00 0.0000000000000000e+00  -2.3856100195187162e+02 -1.0317787778367666e+00 0.0000000000000000e+00  -2.3241457956249337e+02 -1.0169959725215085e+00 0.0000000000000000e+00  -2.2635759660752899e+02 -1.0019678533617120e+00 0.0000000000000000e+00  -2.2039147322497359e+02 -9.8671167395756088e-01 0.0000000000000000e+00  -2.1451752594556933e+02 -9.7124471225498032e-01 0.0000000000000000e+00  -2.0873696764478791e+02 -9.5558423786652513e-01 0.0000000000000000e+00  -2.0305090768908178e+02 -9.3974748009460063e-01 0.0000000000000000e+00  -1.9746035227194193e+02 -9.2375159662248374e-01 0.0000000000000000e+00  -1.9196620493536602e+02 -9.0761364314000081e-01 0.0000000000000000e+00  -1.8656926727092747e+02 -8.9135054362705191e-01 0.0000000000000000e+00  -1.8127023979549389e+02 -8.7497906205776843e-01 0.0000000000000000e+00  -1.7606972299512387e+02 -8.5851577461698425e-01 0.0000000000000000e+00  -1.7096821853085325e+02 -8.4197704343718482e-01 0.0000000000000000e+00  -1.6596613059979870e+02 -8.2537899119282110e-01 0.0000000000000000e+00  -1.6106376744435573e+02 -8.0873747707356491e-01 0.0000000000000000e+00  -1.5626134300227011e+02 -7.9206807389220701e-01 0.0000000000000000e+00  -1.5155897869018915e+02 -7.7538604654455257e-01 0.0000000000000000e+00  -1.4695670531267189e+02 -7.5870633161694467e-01 0.0000000000000000e+00  -1.4245446508913602e+02 -7.4204351853526540e-01 0.0000000000000000e+00  -1.3805211379040060e+02 -7.2541183190499514e-01 0.0000000000000000e+00  -1.3374942297683847e+02 -7.0882511526141723e-01 0.0000000000000000e+00  -1.2954608232993274e+02 -6.9229681619892847e-01 0.0000000000000000e+00  -1.2544170206900401e+02 -6.7583997286779152e-01 0.0000000000000000e+00  -1.2143581544479377e+02 -6.5946720183435881e-01 0.0000000000000000e+00  -1.1752788130178583e+02 -6.4319068731359563e-01 0.0000000000000000e+00  -1.1371728670104244e+02 -6.2702217177668729e-01 0.0000000000000000e+00  -1.1000334959543977e+02 -6.1097294786062362e-01 0.0000000000000000e+00  -1.0638532154941680e+02 -5.9505385161940050e-01 0.0000000000000000e+00  -1.0286239049529766e+02 -5.7927525708734340e-01 0.0000000000000000e+00  -9.9433683518529449e+01 -5.6364707206706754e-01 0.0000000000000000e+00  -9.6098269664350511e+01 -5.4817873518507976e-01 0.0000000000000000e+00  -9.2855162758575460e+01 -5.3287921414315376e-01 0.0000000000000000e+00  -8.9703324235340972e+01 -5.1775700512494316e-01 0.0000000000000000e+00  -8.6641665965074736e+01 -5.0282013333181874e-01 0.0000000000000000e+00  -8.3669053076005326e+01 -4.8807615456529463e-01 0.0000000000000000e+00  -8.0784306762919385e+01 -4.7353215789767039e-01 0.0000000000000000e+00  -7.7986207077156863e+01 -4.5919476928729996e-01 0.0000000000000000e+00  -7.5273495692041195e+01 -4.4507015609143430e-01 0.0000000000000000e+00  -7.2644878638330965e+01 -4.3116403255087610e-01 0.0000000000000000e+00  -7.0099029004623503e+01 -4.1748166601178888e-01 0.0000000000000000e+00  -6.7634589597785393e+01 -4.0402788398953471e-01 0.0000000000000000e+00  -6.5250175559059841e+01 -3.9080708189256141e-01 0.0000000000000000e+00  -6.2944376931595841e+01 -3.7782323146021313e-01 0.0000000000000000e+00  -6.0715761175650862e+01 -3.6507988978599887e-01 0.0000000000000000e+00  -5.8562875627962001e+01 -3.5258020889527431e-01 0.0000000000000000e+00  -5.6484249902096124e+01 -3.4032694580707423e-01 0.0000000000000000e+00  -5.4478398226992482e+01 -3.2832247309182527e-01 0.0000000000000000e+00  -5.2543821721211074e+01 -3.1656878974472091e-01 0.0000000000000000e+00  -5.0679010600627592e+01 -3.0506753246006973e-01 0.0000000000000000e+00  -4.8882446317824304e+01 -2.9381998714890906e-01 0.0000000000000000e+00  -4.7152603631516243e+01 -2.8282710071446571e-01 0.0000000000000000e+00  -4.5487952604833218e+01 -2.7208949300257712e-01 0.0000000000000000e+00  -4.3886960531459891e+01 -2.6160746887867614e-01 0.0000000000000000e+00  -4.2348093788944993e+01 -2.5138103042677534e-01 0.0000000000000000e+00  -4.0869819618817353e+01 -2.4140988915446004e-01 0.0000000000000000e+00  -3.9450607833293930e+01 -2.3169347822461150e-01 0.0000000000000000e+00  -3.8088932448748032e+01 -2.2223096466065267e-01 0.0000000000000000e+00  -3.6783273246207017e+01 -2.1302126144202491e-01 0.0000000000000000e+00  -3.5532117259501547e+01 -2.0406303952634641e-01 0.0000000000000000e+00  -3.4333960191793047e+01 -1.9535473969523831e-01 0.0000000000000000e+00  -3.3187307761462300e+01 -1.8689458425620439e-01 0.0000000000000000e+00  -3.2090676978508156e+01 -1.7868058849327295e-01 0.0000000000000000e+00  -3.1042597352765213e+01 -1.7071057194109571e-01 0.0000000000000000e+00  -3.0041612035433154e+01 -1.6298216934584775e-01 0.0000000000000000e+00  -2.9086278895495070e+01 -1.5549284138883140e-01 0.0000000000000000e+00  -2.8175171532797712e+01 -1.4823988508915292e-01 0.0000000000000000e+00  -2.7306880229628195e+01 -1.4122044389685406e-01 0.0000000000000000e+00  -2.6480012842736073e+01 -1.3443151744243803e-01 0.0000000000000000e+00  -2.5693195637843061e+01 -1.2786997096029051e-01 0.0000000000000000e+00  -2.4945074068734357e+01 -1.2153254433865651e-01 0.0000000000000000e+00  -2.4234313503102108e+01 -1.1541586081533856e-01 0.0000000000000000e+00  -2.3559599897350964e+01 -1.0951643529351476e-01 0.0000000000000000e+00  -2.2919640422618677e+01 -1.0383068229616915e-01 0.0000000000000000e+00  -2.2313164044239869e+01 -9.8354923514768086e-02 0.0000000000000000e+00  -2.1738922056976698e+01 -9.3085395008748545e-02 0.0000000000000000e+00  -2.1195688578255666e+01 -8.8018254010825164e-02 0.0000000000000000e+00  -2.0682261001702610e+01 -8.3149585352869093e-02 0.0000000000000000e+00  -2.0197460413188601e+01 -7.8475407516997067e-02 0.0000000000000000e+00  -1.9740131971643965e+01 -7.3991678330213959e-02 0.0000000000000000e+00  -1.9309145256822596e+01 -6.9694300272780674e-02 0.0000000000000000e+00  -1.8903394586157226e+01 -6.5579125423296886e-02 0.0000000000000000e+00  -1.8521799302852582e+01 -6.1641960043343540e-02 0.0000000000000000e+00  -1.8163304037359410e+01 -5.7878568739855252e-02 0.0000000000000000e+00  -1.7826878944330133e+01 -5.4284678212228002e-02 0.0000000000000000e+00  -1.7511519917367401e+01 -5.0855980451584244e-02 0.0000000000000000e+00  -1.7216248784059346e+01 -4.7588135217223881e-02 0.0000000000000000e+00  -1.6940113484378148e+01 -4.4476771416794930e-02 0.0000000000000000e+00  -1.6682188236627088e+01 -4.1517486665908682e-02 0.0000000000000000e+00  -1.6441573697356148e+01 -3.8705843679318966e-02 0.0000000000000000e+00  -1.6217397125826913e+01 -3.6037360857918456e-02 0.0000000000000000e+00  -1.6008812571737128e+01 -3.3507492162497821e-02 0.0000000000000000e+00  -1.5815001120271983e+01 -3.1111586852461289e-02 0.0000000000000000e+00  -1.5635171257799710e+01 -2.8844811333446171e-02 0.0000000000000000e+00  -1.5468559476921619e+01 -2.6701999381183887e-02 0.0000000000000000e+00  -1.5314431344735716e+01 -2.4677366872752203e-02 0.0000000000000000e+00  -1.5172083457331354e+01 -2.2763969986145355e-02 0.0000000000000000e+00  -1.5040847080903426e+01 -2.0952677591431965e-02 0.0000000000000000e+00  -1.4920094995047123e+01 -1.9230223437659663e-02 0.0000000000000000e+00  -1.4809254408403769e+01 -1.7575515172462249e-02 0.0000000000000000e+00  -1.4707831383634822e+01 -1.5952641043065530e-02 0.0000000000000000e+00  -1.4615457071870445e+01 -1.4297620220241287e-02 0.0000000000000000e+00  -1.4531975272577220e+01 -1.2493298798373902e-02 0.0000000000000000e+00  -1.4457608303091378e+01 -1.0321780578933954e-02 0.0000000000000000e+00  -1.4393271301121331e+01 -7.3742674838243438e-03 0.0000000000000000e+00  -1.4341167983431799e+01 -2.8800911832144185e-03 0.0000000000000000e+00  -1.4305920855231212e+01 4.6178086315452650e-03 0.0000000000000000e+00  -1.4296717267858535e+01 1.7880193259606016e-02 0.0000000000000000e+00  -1.4331401244874563e+01 4.2150180385886332e-02 0.0000000000000000e+00  -1.4444285924906938e+01 8.7425117756919704e-02 0.0000000000000000e+00  -1.4701417940064928e+01 1.7288708343512676e-01 0.0000000000000000e+00  -1.5229979096210844e+01 3.3593946245043493e-01 0.0000000000000000e+00  -1.6283114974122796e+01 6.5075313611689856e-01 0.0000000000000000e+00  -1.8357383194458848e+01 1.2756878832821952e+00 0.0000000000000000e+00  -2.2610180408235593e+01 2.5442800999710409e+00 0.0000000000000000e+00  -3.1242620621297597e+01 5.4280570550720348e+00 0.0000000000000000e+00  -5.1984912772475042e+01 1.1561744766584138e+01 0.0000000000000000e+00  -9.5294690502248102e+01 3.1009757719578722e+01 0.0000000000000000e+00  -1.7892692141239556e+02 4.7540211436305029e+01 0.0000000000000000e+00  -3.0554554185507504e+02 8.4948792234427671e+01 0.0000000000000000e+00  -3.7685187901500382e+02 7.6018771012432921e+01 0.0000000000000000e+00  -4.5874611352739788e+02 1.8476410258732603e-05 0.0000000000000000e+00  -4.5360165782677058e+02 1.8463424107609358e-05 0.0000000000000000e+00  -4.4588818625647446e+02 1.8424498674024917e-05 0.0000000000000000e+00  -4.3818180216581368e+02 1.8359730138193204e-05 0.0000000000000000e+00  -4.3048603684796512e+02 1.8269277602361116e-05 0.0000000000000000e+00  -4.2280440669482340e+02 1.8153350396420138e-05 0.0000000000000000e+00  -4.1514040828707925e+02 1.8012278098575560e-05 0.0000000000000000e+00  -4.0749751353366963e+02 1.7846352739540639e-05 0.0000000000000000e+00  -3.9987916487168025e+02 1.7656030898060205e-05 0.0000000000000000e+00  -3.9228877053900374e+02 1.7441748494784349e-05 0.0000000000000000e+00  -3.8472969993081807e+02 1.7204041374913007e-05 0.0000000000000000e+00  -3.7720527905116126e+02 1.6943483565399417e-05 0.0000000000000000e+00  -3.6971878607016271e+02 1.6660706867005612e-05 0.0000000000000000e+00  -3.6227344699764006e+02 1.6356389618600736e-05 0.0000000000000000e+00  -3.5487243148261393e+02 1.6031276731536039e-05 0.0000000000000000e+00  -3.4751884874847940e+02 1.5686131494551533e-05 0.0000000000000000e+00  -3.4021574367303680e+02 1.5321775864980777e-05 0.0000000000000000e+00  -3.3296609302138518e+02 1.4939061722447442e-05 0.0000000000000000e+00  -3.2577280184001324e+02 1.4538897139661436e-05 0.0000000000000000e+00  -3.1863870001965842e+02 1.4122211506090934e-05 0.0000000000000000e+00  -3.1156653903306324e+02 1.3689962250592967e-05 0.0000000000000000e+00  -3.0455898885475528e+02 1.3243137374509997e-05 0.0000000000000000e+00  -2.9761863506759119e+02 1.2782756306384684e-05 0.0000000000000000e+00  -2.9074797616161987e+02 1.2309836559928748e-05 0.0000000000000000e+00  -2.8394942102931560e+02 1.1825442056624807e-05 0.0000000000000000e+00  -2.7722528666084531e+02 1.1330634037351394e-05 0.0000000000000000e+00  -2.7057779604246412e+02 1.0826479335207786e-05 0.0000000000000000e+00  -2.6400907626025594e+02 1.0314077712567021e-05 0.0000000000000000e+00  -2.5752115681113020e+02 9.7945027477760744e-06 0.0000000000000000e+00  -2.5111596812174821e+02 9.2688546878465247e-06 0.0000000000000000e+00  -2.4479534027622228e+02 8.7381913927122714e-06 0.0000000000000000e+00  -2.3856100195187400e+02 8.2036080942875936e-06 0.0000000000000000e+00  -2.3241457956249411e+02 7.6661683014910628e-06 0.0000000000000000e+00  -2.2635759660751825e+02 7.1269316801322888e-06 0.0000000000000000e+00  -2.2039147322497323e+02 6.5869330296529860e-06 0.0000000000000000e+00  -2.1451752594557908e+02 6.0471931278114563e-06 0.0000000000000000e+00  -2.0873696764479200e+02 5.5087204668343916e-06 0.0000000000000000e+00  -2.0305090768906874e+02 4.9724810950977171e-06 0.0000000000000000e+00  -1.9746035227194716e+02 4.4394361487799967e-06 0.0000000000000000e+00  -1.9196620493536807e+02 3.9105014892469727e-06 0.0000000000000000e+00  -1.8656926727092309e+02 3.3865773191004250e-06 0.0000000000000000e+00  -1.8127023979549696e+02 2.8685127867694559e-06 0.0000000000000000e+00  -1.7606972299512378e+02 2.3571529006568329e-06 0.0000000000000000e+00  -1.7096821853085379e+02 1.8532648702005020e-06 0.0000000000000000e+00  -1.6596613059980018e+02 1.3576245704939063e-06 0.0000000000000000e+00  -1.6106376744435286e+02 8.7093397330177464e-07 0.0000000000000000e+00  -1.5626134300227440e+02 3.9386655472761974e-07 0.0000000000000000e+00  -1.5155897869018850e+02 -7.2940677432178428e-08 0.0000000000000000e+00  -1.4695670531266720e+02 -5.2889417751477917e-07 0.0000000000000000e+00  -1.4245446508913810e+02 -9.7344061263672738e-07 0.0000000000000000e+00  -1.3805211379040284e+02 -1.4060846698612728e-06 0.0000000000000000e+00  -1.3374942297683637e+02 -1.8263473822623273e-06 0.0000000000000000e+00  -1.2954608232993397e+02 -2.2338140850369584e-06 0.0000000000000000e+00  -1.2544170206900428e+02 -2.6281030358693328e-06 0.0000000000000000e+00  -1.2143581544479369e+02 -3.0088765740618699e-06 0.0000000000000000e+00  -1.1752788130178720e+02 -3.3758466243500597e-06 0.0000000000000000e+00  -1.1371728670104063e+02 -3.7287537091121398e-06 0.0000000000000000e+00  -1.1000334959543710e+02 -4.0673894264892570e-06 0.0000000000000000e+00  -1.0638532154941886e+02 -4.3915889143008515e-06 0.0000000000000000e+00  -1.0286239049529817e+02 -4.7012128495935324e-06 0.0000000000000000e+00  -9.9433683518529108e+01 -4.9961742138169761e-06 0.0000000000000000e+00  -9.6098269664351633e+01 -5.2764151177086291e-06 0.0000000000000000e+00  -9.2855162758574323e+01 -5.5419200903776531e-06 0.0000000000000000e+00  -8.9703324235341952e+01 -5.7927040965407205e-06 0.0000000000000000e+00  -8.6641665965076669e+01 -6.0288183519353776e-06 0.0000000000000000e+00  -8.3669053076002555e+01 -6.2503462031897829e-06 0.0000000000000000e+00  -8.0784306762921361e+01 -6.4573961627597839e-06 0.0000000000000000e+00  -7.7986207077157800e+01 -6.6501167486963096e-06 0.0000000000000000e+00  -7.5273495692039845e+01 -6.8286739699103837e-06 0.0000000000000000e+00  -7.2644878638330312e+01 -6.9932652985108690e-06 0.0000000000000000e+00  -7.0099029004622679e+01 -7.1441089876272809e-06 0.0000000000000000e+00  -6.7634589597786771e+01 -7.2814478795221306e-06 0.0000000000000000e+00  -6.5250175559060509e+01 -7.4055490779549548e-06 0.0000000000000000e+00  -6.2944376931594697e+01 -7.5166897357146858e-06 0.0000000000000000e+00  -6.0715761175651956e+01 -7.6151711741819175e-06 0.0000000000000000e+00  -5.8562875627963329e+01 -7.7013078020600627e-06 0.0000000000000000e+00  -5.6484249902094234e+01 -7.7754289953073912e-06 0.0000000000000000e+00  -5.4478398226992972e+01 -7.8378752268643629e-06 0.0000000000000000e+00  -5.2543821721210044e+01 -7.8889998883270528e-06 0.0000000000000000e+00  -5.0679010600629098e+01 -7.9291611038009216e-06 0.0000000000000000e+00  -4.8882446317823707e+01 -7.9587286816191886e-06 0.0000000000000000e+00  -4.7152603631516058e+01 -7.9780753291342510e-06 0.0000000000000000e+00  -4.5487952604833460e+01 -7.9875787956181501e-06 0.0000000000000000e+00  -4.3886960531459223e+01 -7.9876203517807190e-06 0.0000000000000000e+00  -4.2348093788945455e+01 -7.9785800984996848e-06 0.0000000000000000e+00  -4.0869819618815995e+01 -7.9608412210535380e-06 0.0000000000000000e+00  -3.9450607833294626e+01 -7.9347872612842872e-06 0.0000000000000000e+00  -3.8088932448748537e+01 -7.9007954202638081e-06 0.0000000000000000e+00  -3.6783273246207116e+01 -7.8592393035616167e-06 0.0000000000000000e+00  -3.5532117259501298e+01 -7.8104917382987920e-06 0.0000000000000000e+00  -3.4333960191793018e+01 -7.7549168460660012e-06 0.0000000000000000e+00  -3.3187307761462371e+01 -7.6928725879165856e-06 0.0000000000000000e+00  -3.2090676978507773e+01 -7.6247106416365647e-06 0.0000000000000000e+00  -3.1042597352766318e+01 -7.5507760679049779e-06 0.0000000000000000e+00  -3.0041612035433833e+01 -7.4714030794117190e-06 0.0000000000000000e+00  -2.9086278895494267e+01 -7.3869148338649387e-06 0.0000000000000000e+00  -2.8175171532797336e+01 -7.2976278127286100e-06 0.0000000000000000e+00  -2.7306880229628106e+01 -7.2038476228384251e-06 0.0000000000000000e+00  -2.6480012842735757e+01 -7.1058684265885783e-06 0.0000000000000000e+00  -2.5693195637842820e+01 -7.0039720540328054e-06 0.0000000000000000e+00  -2.4945074068732971e+01 -6.8984308776864423e-06 0.0000000000000000e+00  -2.4234313503099290e+01 -6.7895037491386423e-06 0.0000000000000000e+00  -2.3559599897347628e+01 -6.6774379909506545e-06 0.0000000000000000e+00  -2.2919640422613021e+01 -6.5624692364770973e-06 0.0000000000000000e+00  -2.2313164044227264e+01 -6.4448174158273164e-06 0.0000000000000000e+00  -2.1738922056952887e+01 -6.3246890449979575e-06 0.0000000000000000e+00  -2.1195688578212451e+01 -6.2022727930871773e-06 0.0000000000000000e+00  -2.0682261001621100e+01 -6.0777376856033260e-06 0.0000000000000000e+00  -2.0197460413032530e+01 -5.9512146733518508e-06 0.0000000000000000e+00  -1.9740131971349140e+01 -5.8227878955150852e-06 0.0000000000000000e+00  -1.9309145256262706e+01 -5.6924571576791447e-06 0.0000000000000000e+00  -1.8903394585095455e+01 -5.5600680721774946e-06 0.0000000000000000e+00  -1.8521799300842467e+01 -5.4251918140164590e-06 0.0000000000000000e+00  -1.8163304033551377e+01 -5.2868851792680587e-06 0.0000000000000000e+00  -1.7826878937115676e+01 -5.1432368535791807e-06 0.0000000000000000e+00  -1.7511519903699863e+01 -4.9905171596775129e-06 0.0000000000000000e+00  -1.7216248758169325e+01 -4.8215573204666549e-06 0.0000000000000000e+00  -1.6940113435329483e+01 -4.6226793604225334e-06 0.0000000000000000e+00  -1.6682188143708355e+01 -4.3678834226704244e-06 0.0000000000000000e+00  -1.6441573521329342e+01 -4.0078366112921577e-06 0.0000000000000000e+00  -1.6217396792358645e+01 -3.4490130680801631e-06 0.0000000000000000e+00  -1.6008811940009934e+01 -2.5141628469398497e-06 0.0000000000000000e+00  -1.5814999923518528e+01 -8.6744830201443612e-07 0.0000000000000000e+00  -1.5635168990646745e+01 2.1274072201245410e-06 0.0000000000000000e+00  -1.5468555181987954e+01 7.6758230738395041e-06 0.0000000000000000e+00  -1.5314423208340761e+01 1.8061404309242700e-05 0.0000000000000000e+00  -1.5172068043