<?xml version="1.0"?>
<VTKFile type="UnstructuredGrid"  version="0.1"  >
<UnstructuredGrid>
<Piece  NumberOfPoints="1656" NumberOfCells="3000">
<Points>
<DataArray  type="Float64"  NumberOfComponents="3"  format="ascii">0 0 0  2 0 0  4 0 0  6 0 0  8 0 0  10 0 0  12 0 0  14 0 0  16 0 0  18 0 0  20 0 0  22 0 0  24 0 0  26 0 0  28 0 0  30 0 0  32 0 0  34 0 0  36 0 0  38 0 0  40 0 0  42 0 0  44 0 0  46 0 0  48 0 0  50 0 0  52 0 0  54 0 0  56 0 0  58 0 0  60 0 0  62 0 0  64 0 0  66 0 0  68 0 0  70 0 0  72 0 0  74 0 0  76 0 0  78 0 0  80 0 0  82 0 0  84 0 0  86 0 0  88 0 0  90 0 0  92 0 0  94 0 0  96 0 0  98 0 0  100 0 0  102 0 0  104 0 0  106 0 0  108 0 0  110 0 0  112 0 0  114 0 0  116 0 0  118 0 0  120 0 0  122 0 0  124 0 0  126 0 0  128 0 0  130 0 0  132 0 0  134 0 0  136 0 0  138 0 0  140 0 0  142 0 0  144 0 0  146 0 0  148 0 0  150 0 0  152 0 0  154 0 0  156 0 0  158 0 0  160 0 0  162 0 0  164 0 0  166 0 0  168 0 0  170 0 0  172 0 0  174 0 0  176 0 0  178 0 0  180 0 0  182 0 0  184 0 0  186 0 0  188 0 0  190 0 0  192 0 0  194 0 0  196 0 0  198 0 0  200 0 0  202 0 0  204 0 0  206 0 0  208 0 0  210 0 0  212 0 0  214 0 0  216 0 0  218 0 0  220 0 0  222 0 0  224 0 0  226 0 0  228 0 0  230 0 0  232 0 0  234 0 0  236 0 0  238 0 0  240 0 0  242 0 0  244 0 0  246 0 0  248 0 0  250 0 0  252 0 0  254 0 0  256 0 0  258 0 0  260 0 0  262 0 0  264 0 0  266 0 0  268 0 0  270 0 0  272 0 0  274 0 0  276 0 0  278 0 0  280 0 0  282 0 0  284 0 0  286 0 0  288 0 0  290 0 0  292 0 0  294 0 0  296 0 0  298 0 0  300 0 0  0 2 0  2 2 0  4 2 0  6 2 0  8 2 0  10 2 0  12 2 0  14 2 0  16 2 0  18 2 0  20 2 0  22 2 0  24 2 0  26 2 0  28 2 0  30 2 0  32 2 0  34 2 0  36 2 0  38 2 0  40 2 0  42 2 0  44 2 0  46 2 0  48 2 0  50 2 0  52 2 0  54 2 0  56 2 0  58 2 0  60 2 0  62 2 0  64 2 0  66 2 0  68 2 0  70 2 0  72 2 0  74 2 0  76 2 0  78 2 0  80 2 0  82 2 0  84 2 0  86 2 0  88 2 0  90 2 0  92 2 0  94 2 0  96 2 0  98 2 0  100 2 0  102 2 0  104 2 0  106 2 0  108 2 0  110 2 0  112 2 0  114 2 0  116 2 0  118 2 0  120 2 0  122 2 0  124 2 0  126 2 0  128 2 0  130 2 0  132 2 0  134 2 0  136 2 0  138 2 0  140 2 0  142 2 0  144 2 0  146 2 0  148 2 0  150 2 0  152 2 0  154 2 0  156 2 0  158 2 0  160 2 0  162 2 0  164 2 0  166 2 0  168 2 0  170 2 0  172 2 0  174 2 0  176 2 0  178 2 0  180 2 0  182 2 0  184 2 0  186 2 0  188 2 0  190 2 0  192 2 0  194 2 0  196 2 0  198 2 0  200 2 0  202 2 0  204 2 0  206 2 0  208 2 0  210 2 0  212 2 0  214 2 0  216 2 0  218 2 0  220 2 0  222 2 0  224 2 0  226 2 0  228 2 0  230 2 0  232 2 0  234 2 0  236 2 0  238 2 0  240 2 0  242 2 0  244 2 0  246 2 0  248 2 0  250 2 0  252 2 0  254 2 0  256 2 0  258 2 0  260 2 0  262 2 0  264 2 0  266 2 0  268 2 0  270 2 0  272 2 0  274 2 0  276 2 0  278 2 0  280 2 0  282 2 0  284 2 0  286 2 0  288 2 0  290 2 0  292 2 0  294 2 0  296 2 0  298 2 0  300 2 0  0 4 0  2 4 0  4 4 0  6 4 0  8 4 0  10 4 0  12 4 0  14 4 0  16 4 0  18 4 0  20 4 0  22 4 0  24 4 0  26 4 0  28 4 0  30 4 0  32 4 0  34 4 0  36 4 0  38 4 0  40 4 0  42 4 0  44 4 0  46 4 0  48 4 0  50 4 0  52 4 0  54 4 0  56 4 0  58 4 0  60 4 0  62 4 0  64 4 0  66 4 0  68 4 0  70 4 0  72 4 0  74 4 0  76 4 0  78 4 0  80 4 0  82 4 0  84 4 0  86 4 0  88 4 0  90 4 0  92 4 0  94 4 0  96 4 0  98 4 0  100 4 0  102 4 0  104 4 0  106 4 0  108 4 0  110 4 0  112 4 0  114 4 0  116 4 0  118 4 0  120 4 0  122 4 0  124 4 0  126 4 0  128 4 0  130 4 0  132 4 0  134 4 0  136 4 0  138 4 0  140 4 0  142 4 0  144 4 0  146 4 0  148 4 0  150 4 0  152 4 0  154 4 0  156 4 0  158 4 0  160 4 0  162 4 0  164 4 0  166 4 0  168 4 0  170 4 0  172 4 0  174 4 0  176 4 0  178 4 0  180 4 0  182 4 0  184 4 0  186 4 0  188 4 0  190 4 0  192 4 0  194 4 0  196 4 0  198 4 0  200 4 0  202 4 0  204 4 0  206 4 0  208 4 0  210 4 0  212 4 0  214 4 0  216 4 0  218 4 0  220 4 0  222 4 0  224 4 0  226 4 0  228 4 0  230 4 0  232 4 0  234 4 0  236 4 0  238 4 0  240 4 0  242 4 0  244 4 0  246 4 0  248 4 0  250 4 0  252 4 0  254 4 0  256 4 0  258 4 0  260 4 0  262 4 0  264 4 0  266 4 0  268 4 0  270 4 0  272 4 0  274 4 0  276 4 0  278 4 0  280 4 0  282 4 0  284 4 0  286 4 0  288 4 0  290 4 0  292 4 0  294 4 0  296 4 0  298 4 0  300 4 0  0 6 0  2 6 0  4 6 0  6 6 0  8 6 0  10 6 0  12 6 0  14 6 0  16 6 0  18 6 0  20 6 0  22 6 0  24 6 0  26 6 0  28 6 0  30 6 0  32 6 0  34 6 0  36 6 0  38 6 0  40 6 0  42 6 0  44 6 0  46 6 0  48 6 0  50 6 0  52 6 0  54 6 0  56 6 0  58 6 0  60 6 0  62 6 0  64 6 0  66 6 0  68 6 0  70 6 0  72 6 0  74 6 0  76 6 0  78 6 0  80 6 0  82 6 0  84 6 0  86 6 0  88 6 0  90 6 0  92 6 0  94 6 0  96 6 0  98 6 0  100 6 0  102 6 0  104 6 0  106 6 0  108 6 0  110 6 0  112 6 0  114 6 0  116 6 0  118 6 0  120 6 0  122 6 0  124 6 0  126 6 0  128 6 0  130 6 0  132 6 0  134 6 0  136 6 0  138 6 0  140 6 0  142 6 0  144 6 0  146 6 0  148 6 0  150 6 0  152 6 0  154 6 0  156 6 0  158 6 0  160 6 0  162 6 0  164 6 0  166 6 0  168 6 0  170 6 0  172 6 0  174 6 0  176 6 0  178 6 0  180 6 0  182 6 0  184 6 0  186 6 0  188 6 0  190 6 0  192 6 0  194 6 0  196 6 0  198 6 0  200 6 0  202 6 0  204 6 0  206 6 0  208 6 0  210 6 0  212 6 0  214 6 0  216 6 0  218 6 0  220 6 0  222 6 0  224 6 0  226 6 0  228 6 0  230 6 0  232 6 0  234 6 0  236 6 0  238 6 0  240 6 0  242 6 0  244 6 0  246 6 0  248 6 0  250 6 0  252 6 0  254 6 0  256 6 0  258 6 0  260 6 0  262 6 0  264 6 0  266 6 0  268 6 0  270 6 0  272 6 0  274 6 0  276 6 0  278 6 0  280 6 0  282 6 0  284 6 0  286 6 0  288 6 0  290 6 0  292 6 0  294 6 0  296 6 0  298 6 0  300 6 0  0 8 0  2 8 0  4 8 0  6 8 0  8 8 0  10 8 0  12 8 0  14 8 0  16 8 0  18 8 0  20 8 0  22 8 0  24 8 0  26 8 0  28 8 0  30 8 0  32 8 0  34 8 0  36 8 0  38 8 0  40 8 0  42 8 0  44 8 0  46 8 0  48 8 0  50 8 0  52 8 0  54 8 0  56 8 0  58 8 0  60 8 0  62 8 0  64 8 0  66 8 0  68 8 0  70 8 0  72 8 0  74 8 0  76 8 0  78 8 0  80 8 0  82 8 0  84 8 0  86 8 0  88 8 0  90 8 0  92 8 0  94 8 0  96 8 0  98 8 0  100 8 0  102 8 0  104 8 0  106 8 0  108 8 0  110 8 0  112 8 0  114 8 0  116 8 0  118 8 0  120 8 0  122 8 0  124 8 0  126 8 0  128 8 0  130 8 0  132 8 0  134 8 0  136 8 0  138 8 0  140 8 0  142 8 0  144 8 0  146 8 0  148 8 0  150 8 0  152 8 0  154 8 0  156 8 0  158 8 0  160 8 0  162 8 0  164 8 0  166 8 0  168 8 0  170 8 0  172 8 0  174 8 0  176 8 0  178 8 0  180 8 0  182 8 0  184 8 0  186 8 0  188 8 0  190 8 0  192 8 0  194 8 0  196 8 0  198 8 0  200 8 0  202 8 0  204 8 0  206 8 0  208 8 0  210 8 0  212 8 0  214 8 0  216 8 0  218 8 0  220 8 0  222 8 0  224 8 0  226 8 0  228 8 0  230 8 0  232 8 0  234 8 0  236 8 0  238 8 0  240 8 0  242 8 0  244 8 0  246 8 0  248 8 0  250 8 0  252 8 0  254 8 0  256 8 0  258 8 0  260 8 0  262 8 0  264 8 0  266 8 0  268 8 0  270 8 0  272 8 0  274 8 0  276 8 0  278 8 0  280 8 0  282 8 0  284 8 0  286 8 0  288 8 0  290 8 0  292 8 0  294 8 0  296 8 0  298 8 0  300 8 0  0 10 0  2 10 0  4 10 0  6 10 0  8 10 0  10 10 0  12 10 0  14 10 0  16 10 0  18 10 0  20 10 0  22 10 0  24 10 0  26 10 0  28 10 0  30 10 0  32 10 0  34 10 0  36 10 0  38 10 0  40 10 0  42 10 0  44 10 0  46 10 0  48 10 0  50 10 0  52 10 0  54 10 0  56 10 0  58 10 0  60 10 0  62 10 0  64 10 0  66 10 0  68 10 0  70 10 0  72 10 0  74 10 0  76 10 0  78 10 0  80 10 0  82 10 0  84 10 0  86 10 0  88 10 0  90 10 0  92 10 0  94 10 0  96 10 0  98 10 0  100 10 0  102 10 0  104 10 0  106 10 0  108 10 0  110 10 0  112 10 0  114 10 0  116 10 0  118 10 0  120 10 0  122 10 0  124 10 0  126 10 0  128 10 0  130 10 0  132 10 0  134 10 0  136 10 0  138 10 0  140 10 0  142 10 0  144 10 0  146 10 0  148 10 0  150 10 0  152 10 0  154 10 0  156 10 0  158 10 0  160 10 0  162 10 0  164 10 0  166 10 0  168 10 0  170 10 0  172 10 0  174 10 0  176 10 0  178 10 0  180 10 0  182 10 0  184 10 0  186 10 0  188 10 0  190 10 0  192 10 0  194 10 0  196 10 0  198 10 0  200 10 0  202 10 0  204 10 0  206 10 0  208 10 0  210 10 0  212 10 0  214 10 0  216 10 0  218 10 0  220 10 0  222 10 0  224 10 0  226 10 0  228 10 0  230 10 0  232 10 0  234 10 0  236 10 0  238 10 0  240 10 0  242 10 0  244 10 0  246 10 0  248 10 0  250 10 0  252 10 0  254 10 0  256 10 0  258 10 0  260 10 0  262 10 0  264 10 0  266 10 0  268 10 0  270 10 0  272 10 0  274 10 0  276 10 0  278 10 0  280 10 0  282 10 0  284 10 0  286 10 0  288 10 0  290 10 0  292 10 0  294 10 0  296 10 0  298 10 0  300 10 0  1 1 0  3 1 0  5 1 0  7 1 0  9 1 0  11 1 0  13 1 0  15 1 0  17 1 0  19 1 0  21 1 0  23 1 0  25 1 0  27 1 0  29 1 0  31 1 0  33 1 0  35 1 0  37 1 0  39 1 0  41 1 0  43 1 0  45 1 0  47 1 0  49 1 0  51 1 0  53 1 0  55 1 0  57 1 0  59 1 0  61 1 0  63 1 0  65 1 0  67 1 0  69 1 0  71 1 0  73 1 0  75 1 0  77 1 0  79 1 0  81 1 0  83 1 0  85 1 0  87 1 0  89 1 0  91 1 0  93 1 0  95 1 0  97 1 0  99 1 0  101 1 0  103 1 0  105 1 0  107 1 0  109 1 0  111 1 0  113 1 0  115 1 0  117 1 0  119 1 0  121 1 0  123 1 0  125 1 0  127 1 0  129 1 0  131 1 0  133 1 0  135 1 0  137 1 0  139 1 0  141 1 0  143 1 0  145 1 0  147 1 0  149 1 0  151 1 0  153 1 0  155 1 0  157 1 0  159 1 0  161 1 0  163 1 0  165 1 0  167 1 0  169 1 0  171 1 0  173 1 0  175 1 0  177 1 0  179 1 0  181 1 0  183 1 0  185 1 0  187 1 0  189 1 0  191 1 0  193 1 0  195 1 0  197 1 0  199 1 0  201 1 0  203 1 0  205 1 0  207 1 0  209 1 0  211 1 0  213 1 0  215 1 0  217 1 0  219 1 0  221 1 0  223 1 0  225 1 0  227 1 0  229 1 0  231 1 0  233 1 0  235 1 0  237 1 0  239 1 0  241 1 0  243 1 0  245 1 0  247 1 0  249 1 0  251 1 0  253 1 0  255 1 0  257 1 0  259 1 0  261 1 0  263 1 0  265 1 0  267 1 0  269 1 0  271 1 0  273 1 0  275 1 0  277 1 0  279 1 0  281 1 0  283 1 0  285 1 0  287 1 0  289 1 0  291 1 0  293 1 0  295 1 0  297 1 0  299 1 0  1 3 0  3 3 0  5 3 0  7 3 0  9 3 0  11 3 0  13 3 0  15 3 0  17 3 0  19 3 0  21 3 0  23 3 0  25 3 0  27 3 0  29 3 0  31 3 0  33 3 0  35 3 0  37 3 0  39 3 0  41 3 0  43 3 0  45 3 0  47 3 0  49 3 0  51 3 0  53 3 0  55 3 0  57 3 0  59 3 0  61 3 0  63 3 0  65 3 0  67 3 0  69 3 0  71 3 0  73 3 0  75 3 0  77 3 0  79 3 0  81 3 0  83 3 0  85 3 0  87 3 0  89 3 0  91 3 0  93 3 0  95 3 0  97 3 0  99 3 0  101 3 0  103 3 0  105 3 0  107 3 0  109 3 0  111 3 0  113 3 0  115 3 0  117 3 0  119 3 0  121 3 0  123 3 0  125 3 0
[...]
<PointData  Vectors="flow"> 
<DataArray  type="Float64"  Name="flow"  NumberOfComponents="3" format="ascii">-4.5980419809537960e+02 -7.5723840649645147e-01 0.0000000000000000e+00  -4.5677538489176976e+02 -7.5717567652677475e-01 0.0000000000000000e+00  -4.5223284685045826e+02 -7.5698751520628060e-01 0.0000000000000000e+00  -4.4769181385904642e+02 -7.5667400791657191e-01 0.0000000000000000e+00  -4.4315303758931714e+02 -7.5623529664615718e-01 0.0000000000000000e+00  -4.3861726869055917e+02 -7.5567158016783353e-01 0.0000000000000000e+00  -4.3408525644974418e+02 -7.5498311381717564e-01 0.0000000000000000e+00  -4.2955774845345138e+02 -7.5417020906509280e-01 0.0000000000000000e+00  -4.2503549025112437e+02 -7.5323323343299253e-01 0.0000000000000000e+00  -4.2051922502024559e+02 -7.5217260998187918e-01 0.0000000000000000e+00  -4.1600969323365371e+02 -7.5098881715298504e-01 0.0000000000000000e+00  -4.1150763232920360e+02 -7.4968238816150068e-01 0.0000000000000000e+00  -4.0701377638241104e+02 -7.4825391049415413e-01 0.0000000000000000e+00  -4.0252885578182992e+02 -7.4670402549416426e-01 0.0000000000000000e+00  -3.9805359690802055e+02 -7.4503342781811976e-01 0.0000000000000000e+00  -3.9358872181593938e+02 -7.4324286458409594e-01 0.0000000000000000e+00  -3.8913494792133781e+02 -7.4133313491206110e-01 0.0000000000000000e+00  -3.8469298769128449e+02 -7.3930508918593840e-01 0.0000000000000000e+00  -3.8026354833932010e+02 -7.3715962815603275e-01 0.0000000000000000e+00  -3.7584733152487348e+02 -7.3489770229690143e-01 0.0000000000000000e+00  -3.7144503305822019e+02 -7.3252031075361201e-01 0.0000000000000000e+00  -3.6705734261026646e+02 -7.3002850069081160e-01 0.0000000000000000e+00  -3.6268494342808509e+02 -7.2742336615501058e-01 0.0000000000000000e+00  -3.5832851205594511e+02 -7.2470604709525266e-01 0.0000000000000000e+00  -3.5398871806258342e+02 -7.2187772869452227e-01 0.0000000000000000e+00  -3.4966622377442974e+02 -7.1893963980984787e-01 0.0000000000000000e+00  -3.4536168401546951e+02 -7.1589305220230415e-01 0.0000000000000000e+00  -3.4107574585365955e+02 -7.1273927928301828e-01 0.0000000000000000e+00  -3.3680904835425190e+02 -7.0947967507560872e-01 0.0000000000000000e+00  -3.3256222234009738e+02 -7.0611563289529833e-01 0.0000000000000000e+00  -3.2833589015927168e+02 -7.0264858414125109e-01 0.0000000000000000e+00  -3.2413066546034264e+02 -6.9907999710308899e-01 0.0000000000000000e+00  -3.1994715297484549e+02 -6.9541137565458944e-01 0.0000000000000000e+00  -3.1578594830791087e+02 -6.9164425789324391e-01 0.0000000000000000e+00  -3.1164763773683592e+02 -6.8778021478103724e-01 0.0000000000000000e+00  -3.0753279801753763e+02 -6.8382084906896334e-01 0.0000000000000000e+00  -3.0344199619965121e+02 -6.7976779328133441e-01 0.0000000000000000e+00  -2.9937578944950332e+02 -6.7562270898683796e-01 0.0000000000000000e+00  -2.9533472488226414e+02 -6.7138728496272726e-01 0.0000000000000000e+00  -2.9131933940218892e+02 -6.6706323581014293e-01 0.0000000000000000e+00  -2.8733015955198800e+02 -6.6265230058038282e-01 0.0000000000000000e+00  -2.8336770137075524e+02 -6.5815624124014804e-01 0.0000000000000000e+00  -2.7943247026119371e+02 -6.5357684106722402e-01 0.0000000000000000e+00  -2.7552496086552731e+02 -6.4891590347441241e-01 0.0000000000000000e+00  -2.7164565695083650e+02 -6.4417524992425501e-01 0.0000000000000000e+00  -2.6779503130319574e+02 -6.3935671898494695e-01 0.0000000000000000e+00  -2.6397354563143813e+02 -6.3446216441293224e-01 0.0000000000000000e+00  -2.6018165047980159e+02 -6.2949345371471610e-01 0.0000000000000000e+00  -2.5641978515017394e+02 -6.2445246664890552e-01 0.0000000000000000e+00  -2.5268837763344754e+02 -6.1934109359097145e-01 0.0000000000000000e+00  -2.4898784455029352e+02 -6.1416123400303224e-01 0.0000000000000000e+00  -2.4531859110128474e+02 -6.0891479500590195e-01 0.0000000000000000e+00  -2.4168101102625835e+02 -6.0360368948066212e-01 0.0000000000000000e+00  -2.3807548657315215e+02 -5.9822983496582349e-01 0.0000000000000000e+00  -2.3450238847598192e+02 -5.9279515173425734e-01 0.0000000000000000e+00  -2.3096207594214434e+02 -5.8730156145545442e-01 0.0000000000000000e+00  -2.2745489664893239e+02 -5.8175098566981076e-01 0.0000000000000000e+00  -2.2398118674921298e+02 -5.7614534410881868e-01 0.0000000000000000e+00  -2.2054127088626322e+02 -5.7048655339963328e-01 0.0000000000000000e+00  -2.1713546221748931e+02 -5.6477652533777489e-01 0.0000000000000000e+00  -2.1376406244728838e+02 -5.5901716559672132e-01 0.0000000000000000e+00  -2.1042736186865937e+02 -5.5321037211460433e-01 0.0000000000000000e+00  -2.0712563941363808e+02 -5.4735803375799330e-01 0.0000000000000000e+00  -2.0385916271235666e+02 -5.4146202878589023e-01 0.0000000000000000e+00  -2.0062818816077896e+02 -5.3552422347413253e-01 0.0000000000000000e+00  -1.9743296099667003e+02 -5.2954647075542605e-01 0.0000000000000000e+00  -1.9427371538406322e+02 -5.2353060876616053e-01 0.0000000000000000e+00  -1.9115067450588029e+02 -5.1747845961687389e-01 0.0000000000000000e+00  -1.8806405066443122e+02 -5.1139182785804538e-01 0.0000000000000000e+00  -1.8501404538995121e+02 -5.0527249944359387e-01 0.0000000000000000e+00  -1.8200084955685045e+02 -4.9912224024888452e-01 0.0000000000000000e+00  -1.7902464350740809e+02 -4.9294279492623749e-01 0.0000000000000000e+00  -1.7608559718295010e+02 -4.8673588563532211e-01 0.0000000000000000e+00  -1.7318387026224192e+02 -4.8050321093704013e-01 0.0000000000000000e+00  -1.7031961230681210e+02 -4.7424644453128650e-01 0.0000000000000000e+00  -1.6749296291321792e+02 -4.6796723423799463e-01 0.0000000000000000e+00  -1.6470405187191895e+02 -4.6166720080557744e-01 0.0000000000000000e+00  -1.6195299933248657e+02 -4.5534793694598769e-01 0.0000000000000000e+00  -1.5923991597522129e+02 -4.4901100627594348e-01 0.0000000000000000e+00  -1.5656490318863990e+02 -4.4265794232050415e-01 0.0000000000000000e+00  -1.5392805325283388e+02 -4.3629024754137957e-01 0.0000000000000000e+00  -1.5132944952836800e+02 -4.2990939256974081e-01 0.0000000000000000e+00  -1.4876916665059773e+02 -4.2351681508156036e-01 0.0000000000000000e+00  -1.4624727072898852e+02 -4.1711391918986823e-01 0.0000000000000000e+00  -1.4376381955151058e+02 -4.1070207458076635e-01 0.0000000000000000e+00  -1.4131886279346412e+02 -4.0428261567583279e-01 0.0000000000000000e+00  -1.3891244223088879e+02 -3.9785684102482199e-01 0.0000000000000000e+00  -1.3654459195809059e+02 -3.9142601260916771e-01 0.0000000000000000e+00  -1.3421533860902829e+02 -3.8499135515404592e-01 0.0000000000000000e+00  -1.3192470158245607e+02 -3.7855405557922472e-01 0.0000000000000000e+00  -1.2967269327046006e+02 -3.7211526243826465e-01 0.0000000000000000e+00  -1.2745931929013123e+02 -3.6567608545364627e-01 0.0000000000000000e+00  -1.2528457871819015e+02 -3.5923759499059493e-01 0.0000000000000000e+00  -1.2314846432823055e+02 -3.5280082166076526e-01 0.0000000000000000e+00  -1.2105096283040653e+02 -3.4636675594356053e-01 0.0000000000000000e+00  -1.1899205511320611e+02 -3.3993634788613236e-01 0.0000000000000000e+00  -1.1697171648714854e+02 -3.3351050674212679e-01 0.0000000000000000e+00  -1.1498991693006479e+02 -3.2709010076999467e-01 0.0000000000000000e+00  -1.1304662133373853e+02 -3.2067595703078094e-01 0.0000000000000000e+00  -1.1114178975170087e+02 -3.1426886122682851e-01 0.0000000000000000e+00  -1.0927537764776974e+02 -3.0786955752543643e-01 0.0000000000000000e+00  -1.0744733614523113e+02 -3.0147874859614060e-01 0.0000000000000000e+00  -1.0565761227632646e+02 -2.9509709546071994e-01 0.0000000000000000e+00  -1.0390614923178433e+02 -2.8872521758814979e-01 0.0000000000000000e+00  -1.0219288661016924e+02 -2.8236369292081404e-01 0.0000000000000000e+00  -1.0051776066678565e+02 -2.7601305794354175e-01 0.0000000000000000e+00  -9.8880704561839792e+01 -2.6967380788179307e-01 0.0000000000000000e+00  -9.7281648607704994e+01 -2.6334639682115979e-01 0.0000000000000000e+00  -9.5720520514931067e+01 -2.5703123793698479e-01 0.0000000000000000e+00  -9.4197245636866441e+01 -2.5072870378214818e-01 0.0000000000000000e+00  -9.2711747212553234e+01 -2.4443912654741101e-01 0.0000000000000000e+00  -9.1263946607764808e+01 -2.3816279837433832e-01 0.0000000000000000e+00  -8.9853763553949150e+01 -2.3189997165550158e-01 0.0000000000000000e+00  -8.8481116384988482e+01 -2.2565085938751869e-01 0.0000000000000000e+00  -8.7145922271618929e+01 -2.1941563536480960e-01 0.0000000000000000e+00  -8.5848097453685000e+01 -2.1319443425654178e-01 0.0000000000000000e+00  -8.4587557470688537e+01 -2.0698735134608853e-01 0.0000000000000000e+00  -8.3364217391465530e+01 -2.0079444154432688e-01 0.0000000000000000e+00  -8.2177992045132214e+01 -1.9461571709977077e-01 0.0000000000000000e+00  -8.1028796257412310e+01 -1.8845114268864660e-01 0.0000000000000000e+00  -7.9916545100174332e+01 -1.8230062565016453e-01 0.0000000000000000e+00  -7.8841154169486146e+01 -1.7616399684584336e-01 0.0000000000000000e+00  -7.7802539921113436e+01 -1.7004097381822042e-01 0.0000000000000000e+00  -7.6800620118651068e+01 -1.6393109040607567e-01 0.0000000000000000e+00  -7.5835314498799306e+01 -1.5783356267632603e-01 0.0000000000000000e+00  -7.4906545852173636e+01 -1.5174703437792186e-01 0.0000000000000000e+00  -7.4014241895360627e+01 -1.4566909394335983e-01 0.0000000000000000e+00  -7.3158338646265634e+01 -1.3959535885542027e-01 0.0000000000000000e+00  -7.2338786651650565e+01 -1.3351774048923262e-01 0.0000000000000000e+00  -7.1555562622242917e+01 -1.2742115636412391e-01 0.0000000000000000e+00  -7.0808691316171149e+01 -1.2127730139532758e-01 0.0000000000000000e+00  -7.0098286841504432e+01 -1.1503284762490806e-01 0.0000000000000000e+00  -6.9424630752740541e+01 -1.0858708823956742e-01 0.0000000000000000e+00  -6.8788319865770248e+01 -1.0174957897865204e-01 0.0000000000000000e+00  -6.8190546211568247e+01 -9.4159861524149444e-02 0.0000000000000000e+00  -6.7633627528784444e+01 -8.5135249871691146e-02 0.0000000000000000e+00  -6.7122013457205924e+01 -7.3381934242993857e-02 0.0000000000000000e+00  -6.6664195830118317e+01 -5.6445491352628829e-02 0.0000000000000000e+00  -6.6276350526009438e+01 -2.9661819039199150e-02 0.0000000000000000e+00  -6.5989290035390241e+01 1.5864755067552947e-02 0.0000000000000000e+00  -6.5862046327021119e+01 9.7204094495140086e-02 0.0000000000000000e+00  -6.6008031334118172e+01 2.4764094183375146e-01 0.0000000000000000e+00  -6.6652712924161861e+01 5.3317589017021438e-01 0.0000000000000000e+00  -6.8238099696416697e+01 1.0947133573757979e+00 0.0000000000000000e+00  -7.1794061710735917e+01 2.2290064767716133e+00 0.0000000000000000e+00  -7.9278915851410090e+01 4.8003520137255506e+00 0.0000000000000000e+00  -9.7569166406850087e+01 1.0263040650376421e+01 0.0000000000000000e+00  -1.3596693425147089e+02 2.7569627384260993e+01 0.0000000000000000e+00  -2.1026320607226654e+02 4.2281172024984862e+01 0.0000000000000000e+00  -3.2281990040300423e+02 7.5561954739419065e+01 0.0000000000000000e+00  -3.8619986712208021e+02 6.7620648348823053e+01 0.0000000000000000e+00  -4.5980419809532191e+02 3.9207466129195802e-06 0.0000000000000000e+00  -4.5677538489177994e+02 3.9198368699030929e-06 0.0000000000000000e+00  -4.5223284685046480e+02 3.9171837557891501e-06 0.0000000000000000e+00  -4.4769181385904238e+02 3.9127312699712127e-06 0.0000000000000000e+00  -4.4315303758932390e+02 3.9065420079465502e-06 0.0000000000000000e+00  -4.3861726869054343e+02 3.8985576843921657e-06 0.0000000000000000e+00  -4.3408525644974327e+02 3.8888133525738785e-06 0.0000000000000000e+00  -4.2955774845345803e+02 3.8773455833717119e-06 0.0000000000000000e+00  -4.2503549025112824e+02 3.8641006909853100e-06 0.0000000000000000e+00  -4.2051922502025116e+02 3.8491500664223360e-06 0.0000000000000000e+00  -4.1600969323363944e+02 3.8324785671113823e-06 0.0000000000000000e+00  -4.1150763232920707e+02 3.8141295327543667e-06 0.0000000000000000e+00  -4.0701377638240541e+02 3.7940879815037857e-06 0.0000000000000000e+00  -4.0252885578183952e+02 3.7723902237473718e-06 0.0000000000000000e+00  -3.9805359690803891e+02 3.7490219583934183e-06 0.0000000000000000e+00  -3.9358872181592216e+02 3.7240535187850519e-06 0.0000000000000000e+00  -3.8913494792132332e+02 3.6974808505835828e-06 0.0000000000000000e+00  -3.8469298769129784e+02 3.6693202950799889e-06 0.0000000000000000e+00  -3.8026354833931913e+02 3.6396219617949182e-06 0.0000000000000000e+00  -3.7584733152487718e+02 3.6083961419384912e-06 0.0000000000000000e+00  -3.7144503305820700e+02 3.5756618434980546e-06 0.0000000000000000e+00  -3.6705734261027789e+02 3.5414920641360406e-06 0.0000000000000000e+00  -3.6268494342808816e+02 3.5058734112494152e-06 0.0000000000000000e+00  -3.5832851205594756e+02 3.4688307238221097e-06 0.0000000000000000e+00  -3.5398871806258558e+02 3.4304084139017976e-06 0.0000000000000000e+00  -3.4966622377442530e+02 3.3906664193877076e-06 0.0000000000000000e+00  -3.4536168401546553e+02 3.3496212315237303e-06 0.0000000000000000e+00  -3.4107574585366933e+02 3.3072925968521222e-06 0.0000000000000000e+00  -3.3680904835425662e+02 3.2637561939151456e-06 0.0000000000000000e+00  -3.3256222234007595e+02 3.2190316856779297e-06 0.0000000000000000e+00  -3.2833589015928084e+02 3.1731529598032177e-06 0.0000000000000000e+00  -3.2413066546034213e+02 3.1261607120451638e-06 0.0000000000000000e+00  -3.1994715297484834e+02 3.0780861726910612e-06 0.0000000000000000e+00  -3.1578594830790797e+02 3.0289770527046148e-06 0.0000000000000000e+00  -3.1164763773683114e+02 2.9789041538943348e-06 0.0000000000000000e+00  -3.0753279801755616e+02 2.9278676857209165e-06 0.0000000000000000e+00  -3.0344199619963018e+02 2.8759542501604877e-06 0.0000000000000000e+00  -2.9937578944951366e+02 2.8231731913986706e-06 0.0000000000000000e+00  -2.9533472488226738e+02 2.7695866665058708e-06 0.0000000000000000e+00  -2.9131933940219028e+02 2.7152358300562841e-06 0.0000000000000000e+00  -2.8733015955199517e+02 2.6601755633881397e-06 0.0000000000000000e+00  -2.8336770137073836e+02 2.6044412742864860e-06 0.0000000000000000e+00  -2.7943247026119070e+02 2.5480925243372438e-06 0.0000000000000000e+00  -2.7552496086554987e+02 2.4911571075473403e-06 0.0000000000000000e+00  -2.7164565695082547e+02 2.4336940619123329e-06 0.0000000000000000e+00  -2.6779503130319813e+02 2.3757664876461399e-06 0.0000000000000000e+00  -2.6397354563143205e+02 2.3174092330164006e-06 0.0000000000000000e+00  -2.6018165047980398e+02 2.2586589609267928e-06 0.0000000000000000e+00  -2.5641978515017445e+02 2.1995952115866171e-06 0.0000000000000000e+00  -2.5268837763344658e+02 2.1402174615812636e-06 0.0000000000000000e+00  -2.4898784455029738e+02 2.0806229386157854e-06 0.0000000000000000e+00  -2.4531859110127999e+02 2.0208420794793153e-06 0.0000000000000000e+00  -2.4168101102625118e+02 1.9609232757763379e-06 0.0000000000000000e+00  -2.3807548657316343e+02 1.9009080503176563e-06 0.0000000000000000e+00  -2.3450238847598155e+02 1.8408494415523471e-06 0.0000000000000000e+00  -2.3096207594214175e+02 1.7807967689242107e-06 0.0000000000000000e+00  -2.2745489664892921e+02 1.7208050478685386e-06 0.0000000000000000e+00  -2.2398118674921676e+02 1.6609039063713541e-06 0.0000000000000000e+00  -2.2054127088627001e+02 1.6011528597654927e-06 0.0000000000000000e+00  -2.1713546221748317e+02 1.5416073809192358e-06 0.0000000000000000e+00  -2.1376406244729156e+02 1.4822928497310856e-06 0.0000000000000000e+00  -2.1042736186866125e+02 1.4232604659761738e-06 0.0000000000000000e+00  -2.0712563941363601e+02 1.3645540167966151e-06 0.0000000000000000e+00  -2.0385916271235715e+02 1.3062342218954189e-06 0.0000000000000000e+00  -2.0062818816077967e+02 1.2483202303061657e-06 0.0000000000000000e+00  -1.9743296099666100e+02 1.1908838053265224e-06 0.0000000000000000e+00  -1.9427371538407081e+02 1.1339410125252053e-06 0.0000000000000000e+00  -1.9115067450588353e+02 1.0775382032619903e-06 0.0000000000000000e+00  -1.8806405066442861e+02 1.0217331965181419e-06 0.0000000000000000e+00  -1.8501404538995419e+02 9.6654696642682635e-07 0.0000000000000000e+00  -1.8200084955684912e+02 9.1201899843280324e-07 0.0000000000000000e+00  -1.7902464350740439e+02 8.5820313189070207e-07 0.0000000000000000e+00  -1.7608559718295331e+02 8.0512457717588145e-07 0.0000000000000000e+00  -1.7318387026223661e+02 7.5281438404894315e-07 0.0000000000000000e+00  -1.7031961230681117e+02 7.0132166591227342e-07 0.0000000000000000e+00  -1.6749296291322554e+02 6.5067306357861327e-07 0.0000000000000000e+00  -1.6470405187191804e+02 6.0089575352638099e-07 0.0000000000000000e+00  -1.6195299933248020e+02 5.5202958266378596e-07 0.0000000000000000e+00  -1.5923991597522280e+02 5.0410810441015033e-07 0.0000000000000000e+00  -1.5656490318864033e+02 4.5715346343402530e-07 0.0000000000000000e+00  -1.5392805325283274e+02 4.1119480262134999e-07 0.0000000000000000e+00  -1.5132944952837758e+02 3.6626153705275868e-07 0.0000000000000000e+00  -1.4876916665058789e+02 3.2238282207224998e-07 0.0000000000000000e+00  -1.4624727072899182e+02 2.7957849601830906e-07 0.0000000000000000e+00  -1.4376381955151365e+02 2.3787482541115954e-07 0.0000000000000000e+00  -1.4131886279345761e+02 1.9729833472274250e-07 0.0000000000000000e+00  -1.3891244223089211e+02 1.5785995632777418e-07 0.0000000000000000e+00  -1.3654459195809045e+02 1.1958180342866145e-07 0.0000000000000000e+00  -1.3421533860902645e+02 8.2496467181707532e-08 0.0000000000000000e+00  -1.3192470158245831e+02 4.6602135254681409e-08 0.0000000000000000e+00  -1.2967269327045958e+02 1.1920088050236752e-08 0.0000000000000000e+00  -1.2745931929013278e+02 -2.1529659107341357e-08 0.0000000000000000e+00  -1.2528457871818921e+02 -5.3735902543460773e-08 0.0000000000000000e+00  -1.2314846432823006e+02 -8.4688000946472839e-08 0.0000000000000000e+00  -1.2105096283040560e+02 -1.1438097369743020e-07 0.0000000000000000e+00  -1.1899205511320935e+02 -1.4279783742652320e-07 0.0000000000000000e+00  -1.1697171648714924e+02 -1.6993146814390478e-07 0.0000000000000000e+00  -1.1498991693005915e+02 -1.9577327649257773e-07 0.0000000000000000e+00  -1.1304662133373735e+02 -2.2032399495848119e-07 0.0000000000000000e+00  -1.1114178975170213e+02 -2.4357951814858161e-07 0.0000000000000000e+00  -1.0927537764776898e+02 -2.6553581862604274e-07 0.0000000000000000e+00  -1.0744733614523159e+02 -2.8619172937494757e-07 0.0000000000000000e+00  -1.0565761227632190e+02 -3.0554738243832728e-07 0.0000000000000000e+00  -1.0390614923178015e+02 -3.2359967703015803e-07 0.0000000000000000e+00  -1.0219288661015919e+02 -3.4035572415522690e-07 0.0000000000000000e+00  -1.0051776066676433e+02 -3.5580633455781386e-07 0.0000000000000000e+00  -9.8880704561799888e+01 -3.6994769040461974e-07 0.0000000000000000e+00  -9.7281648607630842e+01 -3.8276526710915922e-07 0.0000000000000000e+00  -9.5720520514792995e+01 -3.9422990334767068e-07 0.0000000000000000e+00  -9.4197245636603668e+01 -4.0428204673497692e-07 0.0000000000000000e+00  -9.2711747212053979e+01 -4.1278475662113992e-07 0.0000000000000000e+00  -9.1263946606815026e+01 -4.1948912893301825e-07 0.0000000000000000e+00  -8.9853763552154561e+01 -4.2389909072116100e-07 0.0000000000000000e+00  -8.8481116381593125e+01 -4.2508517759067443e-07 0.0000000000000000e+00  -8.7145922265178228e+01 -4.2124266977284776e-07 0.0000000000000000e+00  -8.5848097441488960e+01 -4.0897842768666977e-07 0.0000000000000000e+00  -8.4587557447589489e+01 -3.8181917133179765e-07 0.0000000000000000e+00  -8.3364217347704937e+01 -3.2751067762244080e-07 0.0000000000000000e+00  -8.2177991962239673e+01 -2.2280262965786171e-07 0.0000000000000000e+00  -8.1028796100392327e+01 -2.3655280786160050e-08 0.0000000000000000e+00  -7.9916544802742010e+01 3.5337455969575055e-07 0.0000000000000000e+00  -7.8841153606072140e+01 1.0663787198961480e-06 0.0000000000000000e+00  -7.7802538853870772e+01 2.4148340510278641e-06 0.0000000000000000e+00  -7.6800618097027836e+01 4.9660415036218737e-06 0.0000000000000000e+00  -7.5835310669340188e+01 9.7946415391235705e-06 0.0000000000000000e+00  -7.4906538598240076e+01 1.8936274558379856e-05 0.0000000000000000e+00  -7.4014228154621165e+01 3.6246978467047564e-05 0.00000000