<?xml version="1.0"?>
<VTKFile type="UnstructuredGrid"  version="0.1"  >
<UnstructuredGrid>
<Piece  NumberOfPoints="1656" NumberOfCells="3000">
<Points>
<DataArray  type="Float64"  NumberOfComponents="3"  format="ascii">0 0 0  2 0 0  4 0 0  6 0 0  8 0 0  10 0 0  12 0 0  14 0 0  16 0 0  18 0 0  20 0 0  22 0 0  24 0 0  26 0 0  28 0 0  30 0 0  32 0 0  34 0 0  36 0 0  38 0 0  40 0 0  42 0 0  44 0 0  46 0 0  48 0 0  50 0 0  52 0 0  54 0 0  56 0 0  58 0 0  60 0 0  62 0 0  64 0 0  66 0 0  68 0 0  70 0 0  72 0 0  74 0 0  76 0 0  78 0 0  80 0 0  82 0 0  84 0 0  86 0 0  88 0 0  90 0 0  92 0 0  94 0 0  96 0 0  98 0 0  100 0 0  102 0 0  104 0 0  106 0 0  108 0 0  110 0 0  112 0 0  114 0 0  116 0 0  118 0 0  120 0 0  122 0 0  124 0 0  126 0 0  128 0 0  130 0 0  132 0 0  134 0 0  136 0 0  138 0 0  140 0 0  142 0 0  144 0 0  146 0 0  148 0 0  150 0 0  152 0 0  154 0 0  156 0 0  158 0 0  160 0 0  162 0 0  164 0 0  166 0 0  168 0 0  170 0 0  172 0 0  174 0 0  176 0 0  178 0 0  180 0 0  182 0 0  184 0 0  186 0 0  188 0 0  190 0 0  192 0 0  194 0 0  196 0 0  198 0 0  200 0 0  202 0 0  204 0 0  206 0 0  208 0 0  210 0 0  212 0 0  214 0 0  216 0 0  218 0 0  220 0 0  222 0 0  224 0 0  226 0 0  228 0 0  230 0 0  232 0 0  234 0 0  236 0 0  238 0 0  240 0 0  242 0 0  244 0 0  246 0 0  248 0 0  250 0 0  252 0 0  254 0 0  256 0 0  258 0 0  260 0 0  262 0 0  264 0 0  266 0 0  268 0 0  270 0 0  272 0 0  274 0 0  276 0 0  278 0 0  280 0 0  282 0 0  284 0 0  286 0 0  288 0 0  290 0 0  292 0 0  294 0 0  296 0 0  298 0 0  300 0 0  0 2 0  2 2 0  4 2 0  6 2 0  8 2 0  10 2 0  12 2 0  14 2 0  16 2 0  18 2 0  20 2 0  22 2 0  24 2 0  26 2 0  28 2 0  30 2 0  32 2 0  34 2 0  36 2 0  38 2 0  40 2 0  42 2 0  44 2 0  46 2 0  48 2 0  50 2 0  52 2 0  54 2 0  56 2 0  58 2 0  60 2 0  62 2 0  64 2 0  66 2 0  68 2 0  70 2 0  72 2 0  74 2 0  76 2 0  78 2 0  80 2 0  82 2 0  84 2 0  86 2 0  88 2 0  90 2 0  92 2 0  94 2 0  96 2 0  98 2 0  100 2 0  102 2 0  104 2 0  106 2 0  108 2 0  110 2 0  112 2 0  114 2 0  116 2 0  118 2 0  120 2 0  122 2 0  124 2 0  126 2 0  128 2 0  130 2 0  132 2 0  134 2 0  136 2 0  138 2 0  140 2 0  142 2 0  144 2 0  146 2 0  148 2 0  150 2 0  152 2 0  154 2 0  156 2 0  158 2 0  160 2 0  162 2 0  164 2 0  166 2 0  168 2 0  170 2 0  172 2 0  174 2 0  176 2 0  178 2 0  180 2 0  182 2 0  184 2 0  186 2 0  188 2 0  190 2 0  192 2 0  194 2 0  196 2 0  198 2 0  200 2 0  202 2 0  204 2 0  206 2 0  208 2 0  210 2 0  212 2 0  214 2 0  216 2 0  218 2 0  220 2 0  222 2 0  224 2 0  226 2 0  228 2 0  230 2 0  232 2 0  234 2 0  236 2 0  238 2 0  240 2 0  242 2 0  244 2 0  246 2 0  248 2 0  250 2 0  252 2 0  254 2 0  256 2 0  258 2 0  260 2 0  262 2 0  264 2 0  266 2 0  268 2 0  270 2 0  272 2 0  274 2 0  276 2 0  278 2 0  280 2 0  282 2 0  284 2 0  286 2 0  288 2 0  290 2 0  292 2 0  294 2 0  296 2 0  298 2 0  300 2 0  0 4 0  2 4 0  4 4 0  6 4 0  8 4 0  10 4 0  12 4 0  14 4 0  16 4 0  18 4 0  20 4 0  22 4 0  24 4 0  26 4 0  28 4 0  30 4 0  32 4 0  34 4 0  36 4 0  38 4 0  40 4 0  42 4 0  44 4 0  46 4 0  48 4 0  50 4 0  52 4 0  54 4 0  56 4 0  58 4 0  60 4 0  62 4 0  64 4 0  66 4 0  68 4 0  70 4 0  72 4 0  74 4 0  76 4 0  78 4 0  80 4 0  82 4 0  84 4 0  86 4 0  88 4 0  90 4 0  92 4 0  94 4 0  96 4 0  98 4 0  100 4 0  102 4 0  104 4 0  106 4 0  108 4 0  110 4 0  112 4 0  114 4 0  116 4 0  118 4 0  120 4 0  122 4 0  124 4 0  126 4 0  128 4 0  130 4 0  132 4 0  134 4 0  136 4 0  138 4 0  140 4 0  142 4 0  144 4 0  146 4 0  148 4 0  150 4 0  152 4 0  154 4 0  156 4 0  158 4 0  160 4 0  162 4 0  164 4 0  166 4 0  168 4 0  170 4 0  172 4 0  174 4 0  176 4 0  178 4 0  180 4 0  182 4 0  184 4 0  186 4 0  188 4 0  190 4 0  192 4 0  194 4 0  196 4 0  198 4 0  200 4 0  202 4 0  204 4 0  206 4 0  208 4 0  210 4 0  212 4 0  214 4 0  216 4 0  218 4 0  220 4 0  222 4 0  224 4 0  226 4 0  228 4 0  230 4 0  232 4 0  234 4 0  236 4 0  238 4 0  240 4 0  242 4 0  244 4 0  246 4 0  248 4 0  250 4 0  252 4 0  254 4 0  256 4 0  258 4 0  260 4 0  262 4 0  264 4 0  266 4 0  268 4 0  270 4 0  272 4 0  274 4 0  276 4 0  278 4 0  280 4 0  282 4 0  284 4 0  286 4 0  288 4 0  290 4 0  292 4 0  294 4 0  296 4 0  298 4 0  300 4 0  0 6 0  2 6 0  4 6 0  6 6 0  8 6 0  10 6 0  12 6 0  14 6 0  16 6 0  18 6 0  20 6 0  22 6 0  24 6 0  26 6 0  28 6 0  30 6 0  32 6 0  34 6 0  36 6 0  38 6 0  40 6 0  42 6 0  44 6 0  46 6 0  48 6 0  50 6 0  52 6 0  54 6 0  56 6 0  58 6 0  60 6 0  62 6 0  64 6 0  66 6 0  68 6 0  70 6 0  72 6 0  74 6 0  76 6 0  78 6 0  80 6 0  82 6 0  84 6 0  86 6 0  88 6 0  90 6 0  92 6 0  94 6 0  96 6 0  98 6 0  100 6 0  102 6 0  104 6 0  106 6 0  108 6 0  110 6 0  112 6 0  114 6 0  116 6 0  118 6 0  120 6 0  122 6 0  124 6 0  126 6 0  128 6 0  130 6 0  132 6 0  134 6 0  136 6 0  138 6 0  140 6 0  142 6 0  144 6 0  146 6 0  148 6 0  150 6 0  152 6 0  154 6 0  156 6 0  158 6 0  160 6 0  162 6 0  164 6 0  166 6 0  168 6 0  170 6 0  172 6 0  174 6 0  176 6 0  178 6 0  180 6 0  182 6 0  184 6 0  186 6 0  188 6 0  190 6 0  192 6 0  194 6 0  196 6 0  198 6 0  200 6 0  202 6 0  204 6 0  206 6 0  208 6 0  210 6 0  212 6 0  214 6 0  216 6 0  218 6 0  220 6 0  222 6 0  224 6 0  226 6 0  228 6 0  230 6 0  232 6 0  234 6 0  236 6 0  238 6 0  240 6 0  242 6 0  244 6 0  246 6 0  248 6 0  250 6 0  252 6 0  254 6 0  256 6 0  258 6 0  260 6 0  262 6 0  264 6 0  266 6 0  268 6 0  270 6 0  272 6 0  274 6 0  276 6 0  278 6 0  280 6 0  282 6 0  284 6 0  286 6 0  288 6 0  290 6 0  292 6 0  294 6 0  296 6 0  298 6 0  300 6 0  0 8 0  2 8 0  4 8 0  6 8 0  8 8 0  10 8 0  12 8 0  14 8 0  16 8 0  18 8 0  20 8 0  22 8 0  24 8 0  26 8 0  28 8 0  30 8 0  32 8 0  34 8 0  36 8 0  38 8 0  40 8 0  42 8 0  44 8 0  46 8 0  48 8 0  50 8 0  52 8 0  54 8 0  56 8 0  58 8 0  60 8 0  62 8 0  64 8 0  66 8 0  68 8 0  70 8 0  72 8 0  74 8 0  76 8 0  78 8 0  80 8 0  82 8 0  84 8 0  86 8 0  88 8 0  90 8 0  92 8 0  94 8 0  96 8 0  98 8 0  100 8 0  102 8 0  104 8 0  106 8 0  108 8 0  110 8 0  112 8 0  114 8 0  116 8 0  118 8 0  120 8 0  122 8 0  124 8 0  126 8 0  128 8 0  130 8 0  132 8 0  134 8 0  136 8 0  138 8 0  140 8 0  142 8 0  144 8 0  146 8 0  148 8 0  150 8 0  152 8 0  154 8 0  156 8 0  158 8 0  160 8 0  162 8 0  164 8 0  166 8 0  168 8 0  170 8 0  172 8 0  174 8 0  176 8 0  178 8 0  180 8 0  182 8 0  184 8 0  186 8 0  188 8 0  190 8 0  192 8 0  194 8 0  196 8 0  198 8 0  200 8 0  202 8 0  204 8 0  206 8 0  208 8 0  210 8 0  212 8 0  214 8 0  216 8 0  218 8 0  220 8 0  222 8 0  224 8 0  226 8 0  228 8 0  230 8 0  232 8 0  234 8 0  236 8 0  238 8 0  240 8 0  242 8 0  244 8 0  246 8 0  248 8 0  250 8 0  252 8 0  254 8 0  256 8 0  258 8 0  260 8 0  262 8 0  264 8 0  266 8 0  268 8 0  270 8 0  272 8 0  274 8 0  276 8 0  278 8 0  280 8 0  282 8 0  284 8 0  286 8 0  288 8 0  290 8 0  292 8 0  294 8 0  296 8 0  298 8 0  300 8 0  0 10 0  2 10 0  4 10 0  6 10 0  8 10 0  10 10 0  12 10 0  14 10 0  16 10 0  18 10 0  20 10 0  22 10 0  24 10 0  26 10 0  28 10 0  30 10 0  32 10 0  34 10 0  36 10 0  38 10 0  40 10 0  42 10 0  44 10 0  46 10 0  48 10 0  50 10 0  52 10 0  54 10 0  56 10 0  58 10 0  60 10 0  62 10 0  64 10 0  66 10 0  68 10 0  70 10 0  72 10 0  74 10 0  76 10 0  78 10 0  80 10 0  82 10 0  84 10 0  86 10 0  88 10 0  90 10 0  92 10 0  94 10 0  96 10 0  98 10 0  100 10 0  102 10 0  104 10 0  106 10 0  108 10 0  110 10 0  112 10 0  114 10 0  116 10 0  118 10 0  120 10 0  122 10 0  124 10 0  126 10 0  128 10 0  130 10 0  132 10 0  134 10 0  136 10 0  138 10 0  140 10 0  142 10 0  144 10 0  146 10 0  148 10 0  150 10 0  152 10 0  154 10 0  156 10 0  158 10 0  160 10 0  162 10 0  164 10 0  166 10 0  168 10 0  170 10 0  172 10 0  174 10 0  176 10 0  178 10 0  180 10 0  182 10 0  184 10 0  186 10 0  188 10 0  190 10 0  192 10 0  194 10 0  196 10 0  198 10 0  200 10 0  202 10 0  204 10 0  206 10 0  208 10 0  210 10 0  212 10 0  214 10 0  216 10 0  218 10 0  220 10 0  222 10 0  224 10 0  226 10 0  228 10 0  230 10 0  232 10 0  234 10 0  236 10 0  238 10 0  240 10 0  242 10 0  244 10 0  246 10 0  248 10 0  250 10 0  252 10 0  254 10 0  256 10 0  258 10 0  260 10 0  262 10 0  264 10 0  266 10 0  268 10 0  270 10 0  272 10 0  274 10 0  276 10 0  278 10 0  280 10 0  282 10 0  284 10 0  286 10 0  288 10 0  290 10 0  292 10 0  294 10 0  296 10 0  298 10 0  300 10 0  1 1 0  3 1 0  5 1 0  7 1 0  9 1 0  11 1 0  13 1 0  15 1 0  17 1 0  19 1 0  21 1 0  23 1 0  25 1 0  27 1 0  29 1 0  31 1 0  33 1 0  35 1 0  37 1 0  39 1 0  41 1 0  43 1 0  45 1 0  47 1 0  49 1 0  51 1 0  53 1 0  55 1 0  57 1 0  59 1 0  61 1 0  63 1 0  65 1 0  67 1 0  69 1 0  71 1 0  73 1 0  75 1 0  77 1 0  79 1 0  81 1 0  83 1 0  85 1 0  87 1 0  89 1 0  91 1 0  93 1 0  95 1 0  97 1 0  99 1 0  101 1 0  103 1 0  105 1 0  107 1 0  109 1 0  111 1 0  113 1 0  115 1 0  117 1 0  119 1 0  121 1 0  123 1 0  125 1 0  127 1 0  129 1 0  131 1 0  133 1 0  135 1 0  137 1 0  139 1 0  141 1 0  143 1 0  145 1 0  147 1 0  149 1 0  151 1 0  153 1 0  155 1 0  157 1 0  159 1 0  161 1 0  163 1 0  165 1 0  167 1 0  169 1 0  171 1 0  173 1 0  175 1 0  177 1 0  179 1 0  181 1 0  183 1 0  185 1 0  187 1 0  189 1 0  191 1 0  193 1 0  195 1 0  197 1 0  199 1 0  201 1 0  203 1 0  205 1 0  207 1 0  209 1 0  211 1 0  213 1 0  215 1 0  217 1 0  219 1 0  221 1 0  223 1 0  225 1 0  227 1 0  229 1 0  231 1 0  233 1 0  235 1 0  237 1 0  239 1 0  241 1 0  243 1 0  245 1 0  247 1 0  249 1 0  251 1 0  253 1 0  255 1 0  257 1 0  259 1 0  261 1 0  263 1 0  265 1 0  267 1 0  269 1 0  271 1 0  273 1 0  275 1 0  277 1 0  279 1 0  281 1 0  283 1 0  285 1 0  287 1 0  289 1 0  291 1 0  293 1 0  295 1 0  297 1 0  299 1 0  1 3 0  3 3 0  5 3 0  7 3 0  9 3 0  11 3 0  13 3 0  15 3 0  17 3 0  19 3 0  21 3 0  23 3 0  25 3 0  27 3 0  29 3 0  31 3 0  33 3 0  35 3 0  37 3 0  39 3 0  41 3 0  43 3 0  45 3 0  47 3 0  49 3 0  51 3 0  53 3 0  55 3 0  57 3 0  59 3 0  61 3 0  63 3 0  65 3 0  67 3 0  69 3 0  71 3 0  73 3 0  75 3 0  77 3 0  79 3 0  81 3 0  83 3 0  85 3 0  87 3 0  89 3 0  91 3 0  93 3 0  95 3 0  97 3 0  99 3 0  101 3 0  103 3 0  105 3 0  107 3 0  109 3 0  111 3 0  113 3 0  115 3 0  117 3 0  119 3 0  121 3 0  123 3 0  125 3 0
[...]
<PointData  Vectors="flow"> 
<DataArray  type="Float64"  Name="flow"  NumberOfComponents="3" format="ascii">-4.5946714569742448e+02 -9.2576432399664188e-01 0.0000000000000000e+00  -4.5576433831684182e+02 -9.2565268065253448e-01 0.0000000000000000e+00  -4.5021134054668232e+02 -9.2531783077307161e-01 0.0000000000000000e+00  -4.4466102089753559e+02 -9.2476001496165439e-01 0.0000000000000000e+00  -4.3911471602512415e+02 -9.2397963380717218e-01 0.0000000000000000e+00  -4.3357375970276109e+02 -9.2297724739673903e-01 0.0000000000000000e+00  -4.2803948186602798e+02 -9.2175357472568753e-01 0.0000000000000000e+00  -4.2251320766217958e+02 -9.2030949285886843e-01 0.0000000000000000e+00  -4.1699625650536484e+02 -9.1864603564995906e-01 0.0000000000000000e+00  -4.1148994113882839e+02 -9.1676439265374909e-01 0.0000000000000000e+00  -4.0599556670548628e+02 -9.1466590759321709e-01 0.0000000000000000e+00  -4.0051442982733153e+02 -9.1235207678512564e-01 0.0000000000000000e+00  -3.9504781769569564e+02 -9.0982454730880979e-01 0.0000000000000000e+00  -3.8959700717261603e+02 -9.0708511484935095e-01 0.0000000000000000e+00  -3.8416326390501428e+02 -9.0413572174485246e-01 0.0000000000000000e+00  -3.7874784145217137e+02 -9.0097845459162174e-01 0.0000000000000000e+00  -3.7335198042824334e+02 -8.9761554158464274e-01 0.0000000000000000e+00  -3.6797690765982480e+02 -8.9404934990535134e-01 0.0000000000000000e+00  -3.6262383536076118e+02 -8.9028238293757200e-01 0.0000000000000000e+00  -3.5729396032401172e+02 -8.8631727729230780e-01 0.0000000000000000e+00  -3.5198846313220076e+02 -8.8215679936680158e-01 0.0000000000000000e+00  -3.4670850738754825e+02 -8.7780384235977327e-01 0.0000000000000000e+00  -3.4145523896200461e+02 -8.7326142275895779e-01 0.0000000000000000e+00  -3.3622978526843525e+02 -8.6853267669012468e-01 0.0000000000000000e+00  -3.3103325455352802e+02 -8.6362085620631712e-01 0.0000000000000000e+00  -3.2586673521367470e+02 -8.5852932553146433e-01 0.0000000000000000e+00  -3.2073129513374408e+02 -8.5326155711317542e-01 0.0000000000000000e+00  -3.1562798105010290e+02 -8.4782112745320370e-01 0.0000000000000000e+00  -3.1055781793835752e+02 -8.4221171311356458e-01 0.0000000000000000e+00  -3.0552180842623568e+02 -8.3643708626089319e-01 0.0000000000000000e+00  -3.0052093223227865e+02 -8.3050111054922071e-01 0.0000000000000000e+00  -2.9555614563107514e+02 -8.2440773644508658e-01 0.0000000000000000e+00  -2.9062838094515052e+02 -8.1816099686954213e-01 0.0000000000000000e+00  -2.8573854606431388e+02 -8.1176500253231887e-01 0.0000000000000000e+00  -2.8088752399265320e+02 -8.0522393738981379e-01 0.0000000000000000e+00  -2.7607617242352092e+02 -7.9854205378666099e-01 0.0000000000000000e+00  -2.7130532334297936e+02 -7.9172366787529469e-01 0.0000000000000000e+00  -2.6657578266201193e+02 -7.8477315456824259e-01 0.0000000000000000e+00  -2.6188832987740318e+02 -7.7769494300591990e-01 0.0000000000000000e+00  -2.5724371776186535e+02 -7.7049351150114509e-01 0.0000000000000000e+00  -2.5264267208346135e+02 -7.6317338267892032e-01 0.0000000000000000e+00  -2.4808589135414772e+02 -7.5573911859206699e-01 0.0000000000000000e+00  -2.4357404660805173e+02 -7.4819531583236798e-01 0.0000000000000000e+00  -2.3910778120892354e+02 -7.4054660068267886e-01 0.0000000000000000e+00  -2.3468771068718343e+02 -7.3279762402447801e-01 0.0000000000000000e+00  -2.3031442260626602e+02 -7.2495305660792131e-01 0.0000000000000000e+00  -2.2598847645829440e+02 -7.1701758419517214e-01 0.0000000000000000e+00  -2.2171040358891514e+02 -7.0899590255448885e-01 0.0000000000000000e+00  -2.1748070715100295e+02 -7.0089271288243082e-01 0.0000000000000000e+00  -2.1329986208725137e+02 -6.9271271676643165e-01 0.0000000000000000e+00  -2.0916831514130016e+02 -6.8446061169612527e-01 0.0000000000000000e+00  -2.0508648489688113e+02 -6.7614108622750135e-01 0.0000000000000000e+00  -2.0105476184522939e+02 -6.6775881540590643e-01 0.0000000000000000e+00  -1.9707350847974135e+02 -6.5931845616647455e-01 0.0000000000000000e+00  -1.9314305941801183e+02 -6.5082464292719755e-01 0.0000000000000000e+00  -1.8926372155058610e+02 -6.4228198310740547e-01 0.0000000000000000e+00  -1.8543577421596530e+02 -6.3369505270659410e-01 0.0000000000000000e+00  -1.8165946940162416e+02 -6.2506839219748511e-01 0.0000000000000000e+00  -1.7793503197017117e+02 -6.1640650220182125e-01 0.0000000000000000e+00  -1.7426265991047001e+02 -6.0771383949295821e-01 0.0000000000000000e+00  -1.7064252461297838e+02 -5.9899481292614265e-01 0.0000000000000000e+00  -1.6707477116870228e+02 -5.9025377962442083e-01 0.0000000000000000e+00  -1.6355951869132051e+02 -5.8149504110095307e-01 0.0000000000000000e+00  -1.6009686066168436e+02 -5.7272283964338655e-01 0.0000000000000000e+00  -1.5668686529412025e+02 -5.6394135468513729e-01 0.0000000000000000e+00  -1.5332957592396014e+02 -5.5515469935686590e-01 0.0000000000000000e+00  -1.5002501141538633e+02 -5.4636691713813679e-01 0.0000000000000000e+00  -1.4677316658913912e+02 -5.3758197863953316e-01 0.0000000000000000e+00  -1.4357401266930083e+02 -5.2880377843136761e-01 0.0000000000000000e+00  -1.4042749774823528e+02 -5.2003613209736066e-01 0.0000000000000000e+00  -1.3733354726933453e+02 -5.1128277336230887e-01 0.0000000000000000e+00  -1.3429206452643538e+02 -5.0254735133833339e-01 0.0000000000000000e+00  -1.3130293117937634e+02 -4.9383342791781387e-01 0.0000000000000000e+00  -1.2836600778489941e+02 -4.8514447527106602e-01 0.0000000000000000e+00  -1.2548113434205780e+02 -4.7648387349451249e-01 0.0000000000000000e+00  -1.2264813085139329e+02 -4.6785490837043708e-01 0.0000000000000000e+00  -1.1986679788714812e+02 -4.5926076929767867e-01 0.0000000000000000e+00  -1.1713691718166527e+02 -4.5070454727060988e-01 0.0000000000000000e+00  -1.1445825222113885e+02 -4.4218923308877578e-01 0.0000000000000000e+00  -1.1183054885216744e+02 -4.3371771563535272e-01 0.0000000000000000e+00  -1.0925353589800289e+02 -4.2529278027477058e-01 0.0000000000000000e+00  -1.0672692578399509e+02 -4.1691710742071142e-01 0.0000000000000000e+00  -1.0425041517125682e+02 -4.0859327123996481e-01 0.0000000000000000e+00  -1.0182368559793699e+02 -4.0032373843253377e-01 0.0000000000000000e+00  -9.9446404127194540e+01 -3.9211086716225740e-01 0.0000000000000000e+00  -9.7118224001172479e+01 -3.8395690614048616e-01 0.0000000000000000e+00  -9.4838785300286204e+01 -3.7586399380716506e-01 0.0000000000000000e+00  -9.2607715606944737e+01 -3.6783415765188227e-01 0.0000000000000000e+00  -9.0424630673080514e+01 -3.5986931360956176e-01 0.0000000000000000e+00  -8.8289135090701180e+01 -3.5197126565621373e-01 0.0000000000000000e+00  -8.6200822964759411e+01 -3.4414170547194323e-01 0.0000000000000000e+00  -8.4159278587690778e+01 -3.3638221221623521e-01 0.0000000000000000e+00  -8.2164077114806446e+01 -3.2869425241806316e-01 0.0000000000000000e+00  -8.0214785240018145e+01 -3.2107918001379304e-01 0.0000000000000000e+00  -7.8310961871087017e+01 -3.1353823648568108e-01 0.0000000000000000e+00  -7.6452158803809994e+01 -3.0607255104526737e-01 0.0000000000000000e+00  -7.4637921394552450e+01 -2.9868314100001003e-01 0.0000000000000000e+00  -7.2867789230378392e+01 -2.9137091220456335e-01 0.0000000000000000e+00  -7.1141296796299486e+01 -2.8413665957311601e-01 0.0000000000000000e+00  -6.9457974138959642e+01 -2.7698106773251996e-01 0.0000000000000000e+00  -6.7817347526239558e+01 -2.6990471174405628e-01 0.0000000000000000e+00  -6.6218940102162676e+01 -2.6290805794285699e-01 0.0000000000000000e+00  -6.4662272536629445e+01 -2.5599146482233071e-01 0.0000000000000000e+00  -6.3146863669359732e+01 -2.4915518407716550e-01 0.0000000000000000e+00  -6.1672231147619812e+01 -2.4239936165452025e-01 0.0000000000000000e+00  -6.0237892057191971e+01 -2.3572403891270136e-01 0.0000000000000000e+00  -5.8843363546123832e+01 -2.2912915389679717e-01 0.0000000000000000e+00  -5.7488163440773349e+01 -2.2261454262083152e-01 0.0000000000000000e+00  -5.6171810853754572e+01 -2.1617994048285810e-01 0.0000000000000000e+00  -5.4893826783318431e+01 -2.0982498368681313e-01 0.0000000000000000e+00  -5.3653734703787933e+01 -2.0354921078399393e-01 0.0000000000000000e+00  -5.2451061146686357e+01 -1.9735206421159307e-01 0.0000000000000000e+00  -5.1285336272242283e+01 -1.9123289188136267e-01 0.0000000000000000e+00  -5.0156094430949665e+01 -1.8519094877989151e-01 0.0000000000000000e+00  -4.9062874715091738e+01 -1.7922539847992758e-01 0.0000000000000000e+00  -4.8005221500249547e+01 -1.7333531450997430e-01 0.0000000000000000e+00  -4.6982684977100313e+01 -1.6751968135262341e-01 0.0000000000000000e+00  -4.5994821674575775e+01 -1.6177739470729760e-01 0.0000000000000000e+00  -4.5041194976489045e+01 -1.5610726029714903e-01 0.0000000000000000e+00  -4.4121375636054175e+01 -1.5050798992268674e-01 0.0000000000000000e+00  -4.3234942296766349e+01 -1.4497819217881783e-01 0.0000000000000000e+00  -4.2381482036174873e+01 -1.3951635311244831e-01 0.0000000000000000e+00  -4.1560590963831295e+01 -1.3412079768591639e-01 0.0000000000000000e+00  -4.0771874933043591e+01 -1.2878961495582614e-01 0.0000000000000000e+00  -4.0014950479643552e+01 -1.2352051440328028e-01 0.0000000000000000e+00  -3.9289446202296482e+01 -1.1831055182433378e-01 0.0000000000000000e+00  -3.8595004990952908e+01 -1.1315560812562273e-01 0.0000000000000000e+00  -3.7931287873905660e+01 -1.0804940000122314e-01 0.0000000000000000e+00  -3.7297980943072105e+01 -1.0298160381818952e-01 0.0000000000000000e+00  -3.6694808122722321e+01 -9.7934299566878519e-02 0.0000000000000000e+00  -3.6121555020071099e+01 -9.2875232387519602e-02 0.0000000000000000e+00  -3.5578113782109490e+01 -8.7745045063862076e-02 0.0000000000000000e+00  -3.5064567761996116e+01 -8.2433087564135948e-02 0.0000000000000000e+00  -3.4581351627328871e+01 -7.6731580130290244e-02 0.0000000000000000e+00  -3.4129554466529626e+01 -7.0248740619321487e-02 0.0000000000000000e+00  -3.3711494039369597e+01 -6.2244057601540240e-02 0.0000000000000000e+00  -3.3331805875471701e+01 -5.1315633420934259e-02 0.0000000000000000e+00  -3.2999510911623986e+01 -3.4805480008621117e-02 0.0000000000000000e+00  -3.2731957326594198e+01 -7.6640937301791588e-03 0.0000000000000000e+00  -3.2562345932055777e+01 3.9737952992186867e-02 0.0000000000000000e+00  -3.2554432525895692e+01 1.2587747493208451e-01 0.0000000000000000e+00  -3.2830845230695374e+01 2.8678214852509426e-01 0.0000000000000000e+00  -3.3635517737989829e+01 5.9389212608154862e-01 0.0000000000000000e+00  -3.5446794130895569e+01 1.1997282101289084e+00 0.0000000000000000e+00  -3.9379395298965100e+01 2.4255146316355161e+00 0.0000000000000000e+00  -4.7553114356632051e+01 5.2068516564650444e+00 0.0000000000000000e+00  -6.7411913564182129e+01 1.1118008919233354e+01 0.0000000000000000e+00  -1.0902576876228184e+02 2.9850485407502404e+01 0.0000000000000000e+00  -1.8948996099888296e+02 4.5773648765386348e+01 0.0000000000000000e+00  -3.1136418575767311e+02 8.1799630855312827e+01 0.0000000000000000e+00  -3.7999347674745235e+02 7.3202050607365294e+01 0.0000000000000000e+00  -4.5946714569743926e+02 6.9780143397241814e-06 0.0000000000000000e+00  -4.5576433831682294e+02 6.9755214535836110e-06 0.0000000000000000e+00  -4.5021134054668340e+02 6.9680165693034075e-06 0.0000000000000000e+00  -4.4466102089754696e+02 6.9554907989018508e-06 0.0000000000000000e+00  -4.3911471602512745e+02 6.9379812686278341e-06 0.0000000000000000e+00  -4.3357375970274796e+02 6.9155179097286929e-06 0.0000000000000000e+00  -4.2803948186602719e+02 6.8880980026836432e-06 0.0000000000000000e+00  -4.2251320766218737e+02 6.8557975854223489e-06 0.0000000000000000e+00  -4.1699625650535734e+02 6.8186078404997451e-06 0.0000000000000000e+00  -4.1148994113884027e+02 6.7766258401367215e-06 0.0000000000000000e+00  -4.0599556670548299e+02 6.7298510941613542e-06 0.0000000000000000e+00  -4.0051442982734528e+02 6.6783824010714077e-06 0.0000000000000000e+00  -3.9504781769569689e+02 6.6222637474300234e-06 0.0000000000000000e+00  -3.8959700717261092e+02 6.5615710425690407e-06 0.0000000000000000e+00  -3.8416326390500257e+02 6.4963311947037220e-06 0.0000000000000000e+00  -3.7874784145219240e+02 6.4267129615721408e-06 0.0000000000000000e+00  -3.7335198042822952e+02 6.3527211290153983e-06 0.0000000000000000e+00  -3.6797690765982247e+02 6.2744888953320554e-06 0.0000000000000000e+00  -3.6262383536076925e+02 6.1920822112762280e-06 0.0000000000000000e+00  -3.5729396032401257e+02 6.1056428520156325e-06 0.0000000000000000e+00  -3.5198846313218849e+02 6.0152174934066870e-06 0.0000000000000000e+00  -3.4670850738754888e+02 5.9209457972865652e-06 0.0000000000000000e+00  -3.4145523896201581e+02 5.8229256671342867e-06 0.0000000000000000e+00  -3.3622978526842047e+02 5.7213049786268440e-06 0.0000000000000000e+00  -3.3103325455353013e+02 5.6161652037702170e-06 0.0000000000000000e+00  -3.2586673521369119e+02 5.5076378505081320e-06 0.0000000000000000e+00  -3.2073129513373237e+02 5.3958651084422557e-06 0.0000000000000000e+00  -3.1562798105010421e+02 5.2809635461592291e-06 0.0000000000000000e+00  -3.1055781793836235e+02 5.1630669502218645e-06 0.0000000000000000e+00  -3.0552180842623352e+02 5.0423227211150073e-06 0.0000000000000000e+00  -3.0052093223228303e+02 4.9188552223490759e-06 0.0000000000000000e+00  -2.9555614563106928e+02 4.7928290574497583e-06 0.0000000000000000e+00  -2.9062838094514638e+02 4.6643575138681013e-06 0.0000000000000000e+00  -2.8573854606432423e+02 4.5336050723064217e-06 0.0000000000000000e+00  -2.8088752399265252e+02 4.4006997539307447e-06 0.0000000000000000e+00  -2.7607617242350824e+02 4.2658263907075056e-06 0.0000000000000000e+00  -2.7130532334299085e+02 4.1290977629000311e-06 0.0000000000000000e+00  -2.6657578266200511e+02 3.9906759255016023e-06 0.0000000000000000e+00  -2.6188832987739562e+02 3.8507159161886325e-06 0.0000000000000000e+00  -2.5724371776187144e+02 3.7093806261483051e-06 0.0000000000000000e+00  -2.5264267208346365e+02 3.5668013322675867e-06 0.0000000000000000e+00  -2.4808589135414780e+02 3.4231504255214891e-06 0.0000000000000000e+00  -2.4357404660805301e+02 3.2785626239767818e-06 0.0000000000000000e+00  -2.3910778120893031e+02 3.1332145608915570e-06 0.0000000000000000e+00  -2.3468771068717905e+02 2.9872433999680599e-06 0.0000000000000000e+00  -2.3031442260626361e+02 2.8408090310210016e-06 0.0000000000000000e+00  -2.2598847645829758e+02 2.6940524656774282e-06 0.0000000000000000e+00  -2.2171040358891395e+02 2.5471361521509226e-06 0.0000000000000000e+00  -2.1748070715100357e+02 2.4001980570254812e-06 0.0000000000000000e+00  -2.1329986208725737e+02 2.2533873237973339e-06 0.0000000000000000e+00  -2.0916831514129467e+02 2.1068638267750576e-06 0.0000000000000000e+00  -2.0508648489688164e+02 1.9607576859080054e-06 0.0000000000000000e+00  -2.0105476184522732e+02 1.8152267606881316e-06 0.0000000000000000e+00  -1.9707350847973987e+02 1.6703836897634237e-06 0.0000000000000000e+00  -1.9314305941802013e+02 1.5263970250227071e-06 0.0000000000000000e+00  -1.8926372155058115e+02 1.3833856855666339e-06 0.0000000000000000e+00  -1.8543577421596277e+02 1.2414899953886563e-06 0.0000000000000000e+00  -1.8165946940162524e+02 1.1008363510270463e-06 0.0000000000000000e+00  -1.7793503197017009e+02 9.6155874080814235e-07 0.0000000000000000e+00  -1.7426265991047222e+02 8.2377163423645207e-07 0.0000000000000000e+00  -1.7064252461297758e+02 6.8760514580480636e-07 0.0000000000000000e+00  -1.6707477116870510e+02 5.5317493789139194e-07 0.0000000000000000e+00  -1.6355951869131903e+02 4.2059523390502470e-07 0.0000000000000000e+00  -1.6009686066168132e+02 2.8998394065402522e-07 0.0000000000000000e+00  -1.5668686529412150e+02 1.6144107753677135e-07 0.0000000000000000e+00  -1.5332957592395923e+02 3.5072845699537862e-08 0.0000000000000000e+00  -1.5002501141537979e+02 -8.9011331452629061e-08 0.0000000000000000e+00  -1.4677316658914629e+02 -2.1072306582300911e-07 0.0000000000000000e+00  -1.4357401266930023e+02 -3.2996836300175063e-07 0.0000000000000000e+00  -1.4042749774823710e+02 -4.4665080400126827e-07 0.0000000000000000e+00  -1.3733354726933663e+02 -5.6069020527734329e-07 0.0000000000000000e+00  -1.3429206452643439e+02 -6.7200531508978485e-07 0.0000000000000000e+00  -1.3130293117937615e+02 -7.8051639131210098e-07 0.0000000000000000e+00  -1.2836600778489895e+02 -8.8614709295032927e-07 0.0000000000000000e+00  -1.2548113434205560e+02 -9.8883158174629602e-07 0.0000000000000000e+00  -1.2264813085139437e+02 -1.0885049178083911e-06 0.0000000000000000e+00  -1.1986679788715163e+02 -1.1851035259151728e-06 0.0000000000000000e+00  -1.1713691718166332e+02 -1.2785680193861374e-06 0.0000000000000000e+00  -1.1445825222114031e+02 -1.3688496045854441e-06 0.0000000000000000e+00  -1.1183054885216630e+02 -1.4558934075604076e-06 0.0000000000000000e+00  -1.0925353589800331e+02 -1.5396598112385938e-06 0.0000000000000000e+00  -1.0672692578399230e+02 -1.6201060441910960e-06 0.0000000000000000e+00  -1.0425041517125612e+02 -1.6971916726739489e-06 0.0000000000000000e+00  -1.0182368559794121e+02 -1.7708897765815968e-06 0.0000000000000000e+00  -9.9446404127194370e+01 -1.8411638219494265e-06 0.0000000000000000e+00  -9.7118224001171356e+01 -1.9079876505101507e-06 0.0000000000000000e+00  -9.4838785300285906e+01 -1.9713482272733018e-06 0.0000000000000000e+00  -9.2607715606945661e+01 -2.0312200366629744e-06 0.0000000000000000e+00  -9.0424630673080145e+01 -2.0875942686412811e-06 0.0000000000000000e+00  -8.8289135090699219e+01 -2.1404609994263318e-06 0.0000000000000000e+00  -8.6200822964760164e+01 -2.1898090217497383e-06 0.0000000000000000e+00  -8.4159278587690721e+01 -2.2356397706760165e-06 0.0000000000000000e+00  -8.2164077114805735e+01 -2.2779494715456407e-06 0.0000000000000000e+00  -8.0214785240017690e+01 -2.3167470799408240e-06 0.0000000000000000e+00  -7.8310961871089319e+01 -2.3520328756239834e-06 0.0000000000000000e+00  -7.6452158803810022e+01 -2.3838232188142385e-06 0.0000000000000000e+00  -7.4637921394551171e+01 -2.4121301916544461e-06 0.0000000000000000e+00  -7.2867789230379955e+01 -2.4369691024817615e-06 0.0000000000000000e+00  -7.1141296796299102e+01 -2.4583636514590059e-06 0.0000000000000000e+00  -6.9457974138959926e+01 -2.4763313085332631e-06 0.0000000000000000e+00  -6.7817347526237768e+01 -2.4909006248673510e-06 0.0000000000000000e+00  -6.6218940102161397e+01 -2.5020991857218492e-06 0.0000000000000000e+00  -6.4662272536624499e+01 -2.5099609632887875e-06 0.0000000000000000e+00  -6.3146863669354310e+01 -2.5145111164690537e-06 0.0000000000000000e+00  -6.1672231147608251e+01 -2.5157858356989009e-06 0.0000000000000000e+00  -6.0237892057170008e+01 -2.5138196600064067e-06 0.0000000000000000e+00  -5.8843363546081697e+01 -2.5086403329922218e-06 0.0000000000000000e+00  -5.7488163440693249e+01 -2.5002675883252333e-06 0.0000000000000000e+00  -5.6171810853604796e+01 -2.4887083543367041e-06 0.0000000000000000e+00  -5.4893826783032019e+01 -2.4739292962432172e-06 0.0000000000000000e+00  -5.3653734703247387e+01 -2.4558255141838534e-06 0.0000000000000000e+00  -5.2451061145663168e+01 -2.4341655962516828e-06 0.0000000000000000e+00  -5.1285336270302317e+01 -2.4084557540777781e-06 0.0000000000000000e+00  -5.0156094427274041e+01 -2.3777202915886622e-06 0.0000000000000000e+00  -4.9062874708129748e+01 -2.3400619154488295e-06 0.0000000000000000e+00  -4.8005221487061142e+01 -2.2918422187298361e-06 0.0000000000000000e+00  -4.6982684952118220e+01 -2.2261051251318293e-06 0.0000000000000000e+00  -4.5994821627251568e+01 -2.1296337282122612e-06 0.0000000000000000e+00  -4.5041194886843073e+01 -1.9773322571533089e-06 0.0000000000000000e+00  -4.4121375466235790e+01 -1.7216066854784588e-06 0.0000000000000000e+00  -4.3234941975079778e+01 -1.2722422044251003e-06 0.0000000000000000e+00  -4.2381481426804683e+01 -4.5828992673910200e-07 0.0000000000000000e+00  -4.1560589809493962e+01 1.0441375755850087e-06 0.0000000000000000e+00  -4.0771872746372274e+01 3.8486551117090839e-06 0.0000000000000000e+00  -4.0014946337423353e+01 9.1176787342756932e-06 0.0000000000000000e+00  -3.9289438355669255e+01 1.9053241772638201e-05 0.0000000000000000e+00  -3.8594990127046970e+01 3.7826