<?xml version="1.0"?>
<VTKFile type="UnstructuredGrid"  version="0.1"  >
<UnstructuredGrid>
<Piece  NumberOfPoints="1656" NumberOfCells="3000">
<Points>
<DataArray  type="Float64"  NumberOfComponents="3"  format="ascii">0 0 0  2 0 0  4 0 0  6 0 0  8 0 0  10 0 0  12 0 0  14 0 0  16 0 0  18 0 0  20 0 0  22 0 0  24 0 0  26 0 0  28 0 0  30 0 0  32 0 0  34 0 0  36 0 0  38 0 0  40 0 0  42 0 0  44 0 0  46 0 0  48 0 0  50 0 0  52 0 0  54 0 0  56 0 0  58 0 0  60 0 0  62 0 0  64 0 0  66 0 0  68 0 0  70 0 0  72 0 0  74 0 0  76 0 0  78 0 0  80 0 0  82 0 0  84 0 0  86 0 0  88 0 0  90 0 0  92 0 0  94 0 0  96 0 0  98 0 0  100 0 0  102 0 0  104 0 0  106 0 0  108 0 0  110 0 0  112 0 0  114 0 0  116 0 0  118 0 0  120 0 0  122 0 0  124 0 0  126 0 0  128 0 0  130 0 0  132 0 0  134 0 0  136 0 0  138 0 0  140 0 0  142 0 0  144 0 0  146 0 0  148 0 0  150 0 0  152 0 0  154 0 0  156 0 0  158 0 0  160 0 0  162 0 0  164 0 0  166 0 0  168 0 0  170 0 0  172 0 0  174 0 0  176 0 0  178 0 0  180 0 0  182 0 0  184 0 0  186 0 0  188 0 0  190 0 0  192 0 0  194 0 0  196 0 0  198 0 0  200 0 0  202 0 0  204 0 0  206 0 0  208 0 0  210 0 0  212 0 0  214 0 0  216 0 0  218 0 0  220 0 0  222 0 0  224 0 0  226 0 0  228 0 0  230 0 0  232 0 0  234 0 0  236 0 0  238 0 0  240 0 0  242 0 0  244 0 0  246 0 0  248 0 0  250 0 0  252 0 0  254 0 0  256 0 0  258 0 0  260 0 0  262 0 0  264 0 0  266 0 0  268 0 0  270 0 0  272 0 0  274 0 0  276 0 0  278 0 0  280 0 0  282 0 0  284 0 0  286 0 0  288 0 0  290 0 0  292 0 0  294 0 0  296 0 0  298 0 0  300 0 0  0 2 0  2 2 0  4 2 0  6 2 0  8 2 0  10 2 0  12 2 0  14 2 0  16 2 0  18 2 0  20 2 0  22 2 0  24 2 0  26 2 0  28 2 0  30 2 0  32 2 0  34 2 0  36 2 0  38 2 0  40 2 0  42 2 0  44 2 0  46 2 0  48 2 0  50 2 0  52 2 0  54 2 0  56 2 0  58 2 0  60 2 0  62 2 0  64 2 0  66 2 0  68 2 0  70 2 0  72 2 0  74 2 0  76 2 0  78 2 0  80 2 0  82 2 0  84 2 0  86 2 0  88 2 0  90 2 0  92 2 0  94 2 0  96 2 0  98 2 0  100 2 0  102 2 0  104 2 0  106 2 0  108 2 0  110 2 0  112 2 0  114 2 0  116 2 0  118 2 0  120 2 0  122 2 0  124 2 0  126 2 0  128 2 0  130 2 0  132 2 0  134 2 0  136 2 0  138 2 0  140 2 0  142 2 0  144 2 0  146 2 0  148 2 0  150 2 0  152 2 0  154 2 0  156 2 0  158 2 0  160 2 0  162 2 0  164 2 0  166 2 0  168 2 0  170 2 0  172 2 0  174 2 0  176 2 0  178 2 0  180 2 0  182 2 0  184 2 0  186 2 0  188 2 0  190 2 0  192 2 0  194 2 0  196 2 0  198 2 0  200 2 0  202 2 0  204 2 0  206 2 0  208 2 0  210 2 0  212 2 0  214 2 0  216 2 0  218 2 0  220 2 0  222 2 0  224 2 0  226 2 0  228 2 0  230 2 0  232 2 0  234 2 0  236 2 0  238 2 0  240 2 0  242 2 0  244 2 0  246 2 0  248 2 0  250 2 0  252 2 0  254 2 0  256 2 0  258 2 0  260 2 0  262 2 0  264 2 0  266 2 0  268 2 0  270 2 0  272 2 0  274 2 0  276 2 0  278 2 0  280 2 0  282 2 0  284 2 0  286 2 0  288 2 0  290 2 0  292 2 0  294 2 0  296 2 0  298 2 0  300 2 0  0 4 0  2 4 0  4 4 0  6 4 0  8 4 0  10 4 0  12 4 0  14 4 0  16 4 0  18 4 0  20 4 0  22 4 0  24 4 0  26 4 0  28 4 0  30 4 0  32 4 0  34 4 0  36 4 0  38 4 0  40 4 0  42 4 0  44 4 0  46 4 0  48 4 0  50 4 0  52 4 0  54 4 0  56 4 0  58 4 0  60 4 0  62 4 0  64 4 0  66 4 0  68 4 0  70 4 0  72 4 0  74 4 0  76 4 0  78 4 0  80 4 0  82 4 0  84 4 0  86 4 0  88 4 0  90 4 0  92 4 0  94 4 0  96 4 0  98 4 0  100 4 0  102 4 0  104 4 0  106 4 0  108 4 0  110 4 0  112 4 0  114 4 0  116 4 0  118 4 0  120 4 0  122 4 0  124 4 0  126 4 0  128 4 0  130 4 0  132 4 0  134 4 0  136 4 0  138 4 0  140 4 0  142 4 0  144 4 0  146 4 0  148 4 0  150 4 0  152 4 0  154 4 0  156 4 0  158 4 0  160 4 0  162 4 0  164 4 0  166 4 0  168 4 0  170 4 0  172 4 0  174 4 0  176 4 0  178 4 0  180 4 0  182 4 0  184 4 0  186 4 0  188 4 0  190 4 0  192 4 0  194 4 0  196 4 0  198 4 0  200 4 0  202 4 0  204 4 0  206 4 0  208 4 0  210 4 0  212 4 0  214 4 0  216 4 0  218 4 0  220 4 0  222 4 0  224 4 0  226 4 0  228 4 0  230 4 0  232 4 0  234 4 0  236 4 0  238 4 0  240 4 0  242 4 0  244 4 0  246 4 0  248 4 0  250 4 0  252 4 0  254 4 0  256 4 0  258 4 0  260 4 0  262 4 0  264 4 0  266 4 0  268 4 0  270 4 0  272 4 0  274 4 0  276 4 0  278 4 0  280 4 0  282 4 0  284 4 0  286 4 0  288 4 0  290 4 0  292 4 0  294 4 0  296 4 0  298 4 0  300 4 0  0 6 0  2 6 0  4 6 0  6 6 0  8 6 0  10 6 0  12 6 0  14 6 0  16 6 0  18 6 0  20 6 0  22 6 0  24 6 0  26 6 0  28 6 0  30 6 0  32 6 0  34 6 0  36 6 0  38 6 0  40 6 0  42 6 0  44 6 0  46 6 0  48 6 0  50 6 0  52 6 0  54 6 0  56 6 0  58 6 0  60 6 0  62 6 0  64 6 0  66 6 0  68 6 0  70 6 0  72 6 0  74 6 0  76 6 0  78 6 0  80 6 0  82 6 0  84 6 0  86 6 0  88 6 0  90 6 0  92 6 0  94 6 0  96 6 0  98 6 0  100 6 0  102 6 0  104 6 0  106 6 0  108 6 0  110 6 0  112 6 0  114 6 0  116 6 0  118 6 0  120 6 0  122 6 0  124 6 0  126 6 0  128 6 0  130 6 0  132 6 0  134 6 0  136 6 0  138 6 0  140 6 0  142 6 0  144 6 0  146 6 0  148 6 0  150 6 0  152 6 0  154 6 0  156 6 0  158 6 0  160 6 0  162 6 0  164 6 0  166 6 0  168 6 0  170 6 0  172 6 0  174 6 0  176 6 0  178 6 0  180 6 0  182 6 0  184 6 0  186 6 0  188 6 0  190 6 0  192 6 0  194 6 0  196 6 0  198 6 0  200 6 0  202 6 0  204 6 0  206 6 0  208 6 0  210 6 0  212 6 0  214 6 0  216 6 0  218 6 0  220 6 0  222 6 0  224 6 0  226 6 0  228 6 0  230 6 0  232 6 0  234 6 0  236 6 0  238 6 0  240 6 0  242 6 0  244 6 0  246 6 0  248 6 0  250 6 0  252 6 0  254 6 0  256 6 0  258 6 0  260 6 0  262 6 0  264 6 0  266 6 0  268 6 0  270 6 0  272 6 0  274 6 0  276 6 0  278 6 0  280 6 0  282 6 0  284 6 0  286 6 0  288 6 0  290 6 0  292 6 0  294 6 0  296 6 0  298 6 0  300 6 0  0 8 0  2 8 0  4 8 0  6 8 0  8 8 0  10 8 0  12 8 0  14 8 0  16 8 0  18 8 0  20 8 0  22 8 0  24 8 0  26 8 0  28 8 0  30 8 0  32 8 0  34 8 0  36 8 0  38 8 0  40 8 0  42 8 0  44 8 0  46 8 0  48 8 0  50 8 0  52 8 0  54 8 0  56 8 0  58 8 0  60 8 0  62 8 0  64 8 0  66 8 0  68 8 0  70 8 0  72 8 0  74 8 0  76 8 0  78 8 0  80 8 0  82 8 0  84 8 0  86 8 0  88 8 0  90 8 0  92 8 0  94 8 0  96 8 0  98 8 0  100 8 0  102 8 0  104 8 0  106 8 0  108 8 0  110 8 0  112 8 0  114 8 0  116 8 0  118 8 0  120 8 0  122 8 0  124 8 0  126 8 0  128 8 0  130 8 0  132 8 0  134 8 0  136 8 0  138 8 0  140 8 0  142 8 0  144 8 0  146 8 0  148 8 0  150 8 0  152 8 0  154 8 0  156 8 0  158 8 0  160 8 0  162 8 0  164 8 0  166 8 0  168 8 0  170 8 0  172 8 0  174 8 0  176 8 0  178 8 0  180 8 0  182 8 0  184 8 0  186 8 0  188 8 0  190 8 0  192 8 0  194 8 0  196 8 0  198 8 0  200 8 0  202 8 0  204 8 0  206 8 0  208 8 0  210 8 0  212 8 0  214 8 0  216 8 0  218 8 0  220 8 0  222 8 0  224 8 0  226 8 0  228 8 0  230 8 0  232 8 0  234 8 0  236 8 0  238 8 0  240 8 0  242 8 0  244 8 0  246 8 0  248 8 0  250 8 0  252 8 0  254 8 0  256 8 0  258 8 0  260 8 0  262 8 0  264 8 0  266 8 0  268 8 0  270 8 0  272 8 0  274 8 0  276 8 0  278 8 0  280 8 0  282 8 0  284 8 0  286 8 0  288 8 0  290 8 0  292 8 0  294 8 0  296 8 0  298 8 0  300 8 0  0 10 0  2 10 0  4 10 0  6 10 0  8 10 0  10 10 0  12 10 0  14 10 0  16 10 0  18 10 0  20 10 0  22 10 0  24 10 0  26 10 0  28 10 0  30 10 0  32 10 0  34 10 0  36 10 0  38 10 0  40 10 0  42 10 0  44 10 0  46 10 0  48 10 0  50 10 0  52 10 0  54 10 0  56 10 0  58 10 0  60 10 0  62 10 0  64 10 0  66 10 0  68 10 0  70 10 0  72 10 0  74 10 0  76 10 0  78 10 0  80 10 0  82 10 0  84 10 0  86 10 0  88 10 0  90 10 0  92 10 0  94 10 0  96 10 0  98 10 0  100 10 0  102 10 0  104 10 0  106 10 0  108 10 0  110 10 0  112 10 0  114 10 0  116 10 0  118 10 0  120 10 0  122 10 0  124 10 0  126 10 0  128 10 0  130 10 0  132 10 0  134 10 0  136 10 0  138 10 0  140 10 0  142 10 0  144 10 0  146 10 0  148 10 0  150 10 0  152 10 0  154 10 0  156 10 0  158 10 0  160 10 0  162 10 0  164 10 0  166 10 0  168 10 0  170 10 0  172 10 0  174 10 0  176 10 0  178 10 0  180 10 0  182 10 0  184 10 0  186 10 0  188 10 0  190 10 0  192 10 0  194 10 0  196 10 0  198 10 0  200 10 0  202 10 0  204 10 0  206 10 0  208 10 0  210 10 0  212 10 0  214 10 0  216 10 0  218 10 0  220 10 0  222 10 0  224 10 0  226 10 0  228 10 0  230 10 0  232 10 0  234 10 0  236 10 0  238 10 0  240 10 0  242 10 0  244 10 0  246 10 0  248 10 0  250 10 0  252 10 0  254 10 0  256 10 0  258 10 0  260 10 0  262 10 0  264 10 0  266 10 0  268 10 0  270 10 0  272 10 0  274 10 0  276 10 0  278 10 0  280 10 0  282 10 0  284 10 0  286 10 0  288 10 0  290 10 0  292 10 0  294 10 0  296 10 0  298 10 0  300 10 0  1 1 0  3 1 0  5 1 0  7 1 0  9 1 0  11 1 0  13 1 0  15 1 0  17 1 0  19 1 0  21 1 0  23 1 0  25 1 0  27 1 0  29 1 0  31 1 0  33 1 0  35 1 0  37 1 0  39 1 0  41 1 0  43 1 0  45 1 0  47 1 0  49 1 0  51 1 0  53 1 0  55 1 0  57 1 0  59 1 0  61 1 0  63 1 0  65 1 0  67 1 0  69 1 0  71 1 0  73 1 0  75 1 0  77 1 0  79 1 0  81 1 0  83 1 0  85 1 0  87 1 0  89 1 0  91 1 0  93 1 0  95 1 0  97 1 0  99 1 0  101 1 0  103 1 0  105 1 0  107 1 0  109 1 0  111 1 0  113 1 0  115 1 0  117 1 0  119 1 0  121 1 0  123 1 0  125 1 0  127 1 0  129 1 0  131 1 0  133 1 0  135 1 0  137 1 0  139 1 0  141 1 0  143 1 0  145 1 0  147 1 0  149 1 0  151 1 0  153 1 0  155 1 0  157 1 0  159 1 0  161 1 0  163 1 0  165 1 0  167 1 0  169 1 0  171 1 0  173 1 0  175 1 0  177 1 0  179 1 0  181 1 0  183 1 0  185 1 0  187 1 0  189 1 0  191 1 0  193 1 0  195 1 0  197 1 0  199 1 0  201 1 0  203 1 0  205 1 0  207 1 0  209 1 0  211 1 0  213 1 0  215 1 0  217 1 0  219 1 0  221 1 0  223 1 0  225 1 0  227 1 0  229 1 0  231 1 0  233 1 0  235 1 0  237 1 0  239 1 0  241 1 0  243 1 0  245 1 0  247 1 0  249 1 0  251 1 0  253 1 0  255 1 0  257 1 0  259 1 0  261 1 0  263 1 0  265 1 0  267 1 0  269 1 0  271 1 0  273 1 0  275 1 0  277 1 0  279 1 0  281 1 0  283 1 0  285 1 0  287 1 0  289 1 0  291 1 0  293 1 0  295 1 0  297 1 0  299 1 0  1 3 0  3 3 0  5 3 0  7 3 0  9 3 0  11 3 0  13 3 0  15 3 0  17 3 0  19 3 0  21 3 0  23 3 0  25 3 0  27 3 0  29 3 0  31 3 0  33 3 0  35 3 0  37 3 0  39 3 0  41 3 0  43 3 0  45 3 0  47 3 0  49 3 0  51 3 0  53 3 0  55 3 0  57 3 0  59 3 0  61 3 0  63 3 0  65 3 0  67 3 0  69 3 0  71 3 0  73 3 0  75 3 0  77 3 0  79 3 0  81 3 0  83 3 0  85 3 0  87 3 0  89 3 0  91 3 0  93 3 0  95 3 0  97 3 0  99 3 0  101 3 0  103 3 0  105 3 0  107 3 0  109 3 0  111 3 0  113 3 0  115 3 0  117 3 0  119 3 0  121 3 0  123 3 0  125 3 0
[...]
<PointData  Vectors="flow"> 
<DataArray  type="Float64"  Name="flow"  NumberOfComponents="3" format="ascii">-4.5893743558165176e+02 -1.1906186722655741e+00 0.0000000000000000e+00  -4.5417548653075380e+02 -1.1903838558329904e+00 0.0000000000000000e+00  -4.4703511460577653e+02 -1.1896796867363642e+00 0.0000000000000000e+00  -4.3990037366649096e+02 -1.1885070048028414e+00 0.0000000000000000e+00  -4.3277407081266495e+02 -1.1868672075178459e+00 0.0000000000000000e+00  -4.2565900309167819e+02 -1.1847622477238819e+00 0.0000000000000000e+00  -4.1855795418018619e+02 -1.1821946289278951e+00 0.0000000000000000e+00  -4.1147369109365320e+02 -1.1791674006080533e+00 0.0000000000000000e+00  -4.0440896092991647e+02 -1.1756841516096730e+00 0.0000000000000000e+00  -3.9736648765392619e+02 -1.1717490029983559e+00 0.0000000000000000e+00  -3.9034896893024018e+02 -1.1673665993922775e+00 0.0000000000000000e+00  -3.8335907300943006e+02 -1.1625420995305262e+00 0.0000000000000000e+00  -3.7639943567459403e+02 -1.1572811657195508e+00 0.0000000000000000e+00  -3.6947265725411353e+02 -1.1515899523296653e+00 0.0000000000000000e+00  -3.6258129970654142e+02 -1.1454750932811950e+00 0.0000000000000000e+00  -3.5572788378309338e+02 -1.1389436886487836e+00 0.0000000000000000e+00  -3.4891488627314612e+02 -1.1320032903788821e+00 0.0000000000000000e+00  -3.4214473733826389e+02 -1.1246618872176397e+00 0.0000000000000000e+00  -3.3541981793868968e+02 -1.1169278887004912e+00 0.0000000000000000e+00  -3.2874245735803026e+02 -1.1088101086107081e+00 0.0000000000000000e+00  -3.2211493082975733e+02 -1.1003177476832511e+00 0.0000000000000000e+00  -3.1553945726964662e+02 -1.0914603753608807e+00 0.0000000000000000e+00  -3.0901819711791620e+02 -1.0822479115889863e+00 0.0000000000000000e+00  -3.0255325029461676e+02 -1.0726906073583788e+00 0.0000000000000000e+00  -2.9614665427101784e+02 -1.0627990253491308e+00 0.0000000000000000e+00  -2.8980038226005593e+02 -1.0525840197300016e+00 0.0000000000000000e+00  -2.8351634152802882e+02 -1.0420567158943093e+00 0.0000000000000000e+00  -2.7729637182968486e+02 -1.0312284896202919e+00 0.0000000000000000e+00  -2.7114224396858413e+02 -1.0201109461180333e+00 0.0000000000000000e+00  -2.6505565848385675e+02 -1.0087158989162894e+00 0.0000000000000000e+00  -2.5903824446463926e+02 -9.9705534842537469e-01 0.0000000000000000e+00  -2.5309155849285847e+02 -9.8514146051605866e-01 0.0000000000000000e+00  -2.4721708371460210e+02 -9.7298654517371941e-01 0.0000000000000000e+00  -2.4141622904051314e+02 -9.6060303480954845e-01 0.0000000000000000e+00  -2.3569032847438882e+02 -9.4800346314611872e-01 0.0000000000000000e+00  -2.3004064056990651e+02 -9.3520044384697787e-01 0.0000000000000000e+00  -2.2446834801424666e+02 -9.2220664936385477e-01 0.0000000000000000e+00  -2.1897455733762558e+02 -9.0903479021625799e-01 0.0000000000000000e+00  -2.1356029874701051e+02 -8.9569759432666651e-01 0.0000000000000000e+00  -2.0822652608242467e+02 -8.8220778684329715e-01 0.0000000000000000e+00  -2.0297411689373615e+02 -8.6857807013865540e-01 0.0000000000000000e+00  -1.9780387263549164e+02 -8.5482110443538284e-01 0.0000000000000000e+00  -1.9271651897739983e+02 -8.4094948874610220e-01 0.0000000000000000e+00  -1.8771270622744572e+02 -8.2697574225244985e-01 0.0000000000000000e+00  -1.8279300986483679e+02 -8.1291228641634239e-01 0.0000000000000000e+00  -1.7795793117930620e+02 -7.9877142738540596e-01 0.0000000000000000e+00  -1.7320789801348272e+02 -7.8456533924446181e-01 0.0000000000000000e+00  -1.6854326560463710e+02 -7.7030604766215571e-01 0.0000000000000000e+00  -1.6396431752195804e+02 -7.5600541431959667e-01 0.0000000000000000e+00  -1.5947126669567132e+02 -7.4167512199194952e-01 0.0000000000000000e+00  -1.5506425653345741e+02 -7.2732666031586168e-01 0.0000000000000000e+00  -1.5074336212054629e+02 -7.1297131210337572e-01 0.0000000000000000e+00  -1.4650859149871388e+02 -6.9862014071942391e-01 0.0000000000000000e+00  -1.4235988702004366e+02 -6.8428397789065698e-01 0.0000000000000000e+00  -1.3829712677095034e+02 -6.6997341236683294e-01 0.0000000000000000e+00  -1.3432012606195866e+02 -6.5569877937784871e-01 0.0000000000000000e+00  -1.3042863897859479e+02 -6.4147015078789982e-01 0.0000000000000000e+00  -1.2662235998898204e+02 -6.2729732610145439e-01 0.0000000000000000e+00  -1.2290092560340521e+02 -6.1318982408149914e-01 0.0000000000000000e+00  -1.1926391608131047e+02 -5.9915687531583317e-01 0.0000000000000000e+00  -1.1571085718120457e+02 -5.8520741537592358e-01 0.0000000000000000e+00  -1.1224122194885825e+02 -5.7135007887124356e-01 0.0000000000000000e+00  -1.0885443253937098e+02 -5.5759319411935593e-01 0.0000000000000000e+00  -1.0554986206862682e+02 -5.4394477867147117e-01 0.0000000000000000e+00  -1.0232683648980179e+02 -5.3041253544861466e-01 0.0000000000000000e+00  -9.9184636490614679e+01 -5.1700384964916768e-01 0.0000000000000000e+00  -9.6122499407128885e+01 -5.0372578635334619e-01 0.0000000000000000e+00  -9.3139621150014776e+01 -4.9058508876244339e-01 0.0000000000000000e+00  -9.0235158139293858e+01 -4.7758817713240559e-01 0.0000000000000000e+00  -8.7408229243671713e+01 -4.6474114830424629e-01 0.0000000000000000e+00  -8.4657917720722637e+01 -4.5204977586648859e-01 0.0000000000000000e+00  -8.1983273154342697e+01 -4.3951951092261993e-01 0.0000000000000000e+00  -7.9383313385977019e+01 -4.2715548339252662e-01 0.0000000000000000e+00  -7.6857026436314641e+01 -4.1496250388586398e-01 0.0000000000000000e+00  -7.4403372414219518e+01 -4.0294506605960201e-01 0.0000000000000000e+00  -7.2021285409996835e+01 -3.9110734952630760e-01 0.0000000000000000e+00  -6.9709675370029714e+01 -3.7945322310666829e-01 0.0000000000000000e+00  -6.7467429950110187e+01 -3.6798624867362606e-01 0.0000000000000000e+00  -6.5293416344959127e+01 -3.5670968528622859e-01 0.0000000000000000e+00  -6.3186483091561556e+01 -3.4562649373765442e-01 0.0000000000000000e+00  -6.1145461844066290e+01 -3.3473934149957768e-01 0.0000000000000000e+00  -5.9169169118271682e+01 -3.2405060791821133e-01 0.0000000000000000e+00  -5.7256408003777231e+01 -3.1356238977151041e-01 0.0000000000000000e+00  -5.5405969842130091e+01 -3.0327650706870080e-01 0.0000000000000000e+00  -5.3616635869389938e+01 -2.9319450909131545e-01 0.0000000000000000e+00  -5.1887178821743788e+01 -2.8331768066575913e-01 0.0000000000000000e+00  -5.0216364502930489e+01 -2.7364704862454836e-01 0.0000000000000000e+00  -4.8602953312429861e+01 -2.6418338842011430e-01 0.0000000000000000e+00  -4.7045701733474004e+01 -2.5492723089899616e-01 0.0000000000000000e+00  -4.5543363780093642e+01 -2.4587886916913049e-01 0.0000000000000000e+00  -4.4094692402609923e+01 -2.3703836559805819e-01 0.0000000000000000e+00  -4.2698440851053036e+01 -2.2840555882956723e-01 0.0000000000000000e+00  -4.1353363996138000e+01 -2.1998007090325031e-01 0.0000000000000000e+00  -4.0058219607618256e+01 -2.1176131435888373e-01 0.0000000000000000e+00  -3.8811769589842157e+01 -2.0374849937181905e-01 0.0000000000000000e+00  -3.7612781174572888e+01 -1.9594064087887106e-01 0.0000000000000000e+00  -3.6460028071168111e+01 -1.8833656565733714e-01 0.0000000000000000e+00  -3.5352291574358546e+01 -1.8093491937560269e-01 0.0000000000000000e+00  -3.4288361629928865e+01 -1.7373417357562437e-01 0.0000000000000000e+00  -3.3267037858737766e+01 -1.6673263257637333e-01 0.0000000000000000e+00  -3.2287130539563613e+01 -1.5992844028677924e-01 0.0000000000000000e+00  -3.1347461551376860e+01 -1.5331958692774827e-01 0.0000000000000000e+00  -3.0446865275650897e+01 -1.4690391561824184e-01 0.0000000000000000e+00  -2.9584189459501605e+01 -1.4067912885215691e-01 0.0000000000000000e+00  -2.8758296040366105e+01 -1.3464279483194103e-01 0.0000000000000000e+00  -2.7968061933109947e+01 -1.2879235366255637e-01 0.0000000000000000e+00  -2.7212379780419926e+01 -1.2312512339421389e-01 0.0000000000000000e+00  -2.6490158667440834e+01 -1.1763830589426830e-01 0.0000000000000000e+00  -2.5800324801571882e+01 -1.1232899257362237e-01 0.0000000000000000e+00  -2.5141822158508131e+01 -1.0719416992345682e-01 0.0000000000000000e+00  -2.4513613095482178e+01 -1.0223072486491994e-01 0.0000000000000000e+00  -2.3914678932834434e+01 -9.7435449934013915e-02 0.0000000000000000e+00  -2.3344020504980790e+01 -9.2805048227932341e-02 0.0000000000000000e+00  -2.2800658682001671e+01 -8.8336138123129210e-02 0.0000000000000000e+00  -2.2283634863076422e+01 -8.4025257687893443e-02 0.0000000000000000e+00  -2.1792011443223316e+01 -7.9868868691148245e-02 0.0000000000000000e+00  -2.1324872255156546e+01 -7.5863360013696479e-02 0.0000000000000000e+00  -2.0881322988637425e+01 -7.2005050043361926e-02 0.0000000000000000e+00  -2.0460491590920988e+01 -6.8290187377852418e-02 0.0000000000000000e+00  -2.0061528654152390e+01 -6.4714948414327012e-02 0.0000000000000000e+00  -1.9683607799877965e+01 -6.1275429255568239e-02 0.0000000000000000e+00  -1.9325926078917139e+01 -5.7967626940175931e-02 0.0000000000000000e+00  -1.8987704420265533e+01 -5.4787400663957958e-02 0.0000000000000000e+00  -1.8668188191971822e+01 -5.1730395227561440e-02 0.0000000000000000e+00  -1.8366647992229105e+01 -4.8791893026275346e-02 0.0000000000000000e+00  -1.8082380893893649e+01 -4.5966530902950373e-02 0.0000000000000000e+00  -1.7814712564377700e+01 -4.3247761048336386e-02 0.0000000000000000e+00  -1.7563001059450947e+01 -4.0626827207674451e-02 0.0000000000000000e+00  -1.7326643802966579e+01 -3.8090822814352047e-02 0.0000000000000000e+00  -1.7105090616042730e+01 -3.5619009982413498e-02 0.0000000000000000e+00  -1.6897868219943462e+01 -3.3175843885916559e-02 0.0000000000000000e+00  -1.6704626488532867e+01 -3.0697755423731356e-02 0.0000000000000000e+00  -1.6525225919917730e+01 -2.8068107546536276e-02 0.0000000000000000e+00  -1.6359903223034696e+01 -2.5069739688813236e-02 0.0000000000000000e+00  -1.6209584973778213e+01 -2.1295023506194780e-02 0.0000000000000000e+00  -1.6076482041763686e+01 -1.5975303848701321e-02 0.0000000000000000e+00  -1.5965217166253421e+01 -7.6571570460652102e-03 0.0000000000000000e+00  -1.5884965900066788e+01 6.4134273821571681e-03 0.0000000000000000e+00  -1.5853538552031965e+01 3.1466841336559304e-02 0.0000000000000000e+00  -1.5905173584686636e+01 7.7476188324008669e-02 0.0000000000000000e+00  -1.6105764502853621e+01 1.6357691568500440e-01 0.0000000000000000e+00  -1.6582188912964966e+01 3.2708110224537823e-01 0.0000000000000000e+00  -1.7586976009451575e+01 6.4197770080086158e-01 0.0000000000000000e+00  -1.9615462106135904e+01 1.2662358467647419e+00 0.0000000000000000e+00  -2.3822172098912105e+01 2.5325657733382769e+00 0.0000000000000000e+00  -3.2402738379546690e+01 5.4100738378465199e+00 0.0000000000000000e+00  -5.3068010746546513e+01 1.1529411409799453e+01 0.0000000000000000e+00  -9.6249348688328951e+01 3.0929751705699140e+01 0.0000000000000000e+00  -1.7965678936554178e+02 4.7419879815542728e+01 0.0000000000000000e+00  -3.0594638106305933e+02 8.4735399808585825e+01 0.0000000000000000e+00  -3.7706629669901383e+02 7.5828113632284968e+01 0.0000000000000000e+00  -4.5893743558162271e+02 1.4677143537884803e-05 0.0000000000000000e+00  -4.5417548653076278e+02 1.4668368957773638e-05 0.0000000000000000e+00  -4.4703511460578119e+02 1.4642121531414989e-05 0.0000000000000000e+00  -4.3990037366651251e+02 1.4598442068890015e-05 0.0000000000000000e+00  -4.3277407081265534e+02 1.4537406949009596e-05 0.0000000000000000e+00  -4.2565900309164601e+02 1.4459161441784945e-05 0.0000000000000000e+00  -4.1855795418018391e+02 1.4363856916916961e-05 0.0000000000000000e+00  -4.1147369109367656e+02 1.4251687501379852e-05 0.0000000000000000e+00  -4.0440896092992620e+02 1.4122875490570102e-05 0.0000000000000000e+00  -3.9736648765391777e+02 1.3977720091880203e-05 0.0000000000000000e+00  -3.9034896893022869e+02 1.3816495092064359e-05 0.0000000000000000e+00  -3.8335907300943478e+02 1.3639533591646567e-05 0.0000000000000000e+00  -3.7639943567459807e+02 1.3447187931746174e-05 0.0000000000000000e+00  -3.6947265725411836e+02 1.3239847657144715e-05 0.0000000000000000e+00  -3.6258129970654107e+02 1.3017940961047955e-05 0.0000000000000000e+00  -3.5572788378307234e+02 1.2781914805113258e-05 0.0000000000000000e+00  -3.4891488627316352e+02 1.2532234677732648e-05 0.0000000000000000e+00  -3.4214473733827151e+02 1.2269398224774424e-05 0.0000000000000000e+00  -3.3541981793868388e+02 1.1993930811931805e-05 0.0000000000000000e+00  -3.2874245735802560e+02 1.1706372416969975e-05 0.0000000000000000e+00  -3.2211493082976455e+02 1.1407288796593532e-05 0.0000000000000000e+00  -3.1553945726964139e+02 1.1097260722542188e-05 0.0000000000000000e+00  -3.0901819711791336e+02 1.0776883457017423e-05 0.0000000000000000e+00  -3.0255325029461733e+02 1.0446756369760149e-05 0.0000000000000000e+00  -2.9614665427101414e+02 1.0107523722439873e-05 0.0000000000000000e+00  -2.8980038226005900e+02 9.7598090007248270e-06 0.0000000000000000e+00  -2.8351634152802808e+02 9.4042826482551005e-06 0.0000000000000000e+00  -2.7729637182968588e+02 9.0415705234727815e-06 0.0000000000000000e+00  -2.7114224396858424e+02 8.6723548568669856e-06 0.0000000000000000e+00  -2.6505565848386306e+02 8.2973008454355271e-06 0.0000000000000000e+00  -2.5903824446464279e+02 7.9170699654043153e-06 0.0000000000000000e+00  -2.5309155849285062e+02 7.5323444298378909e-06 0.0000000000000000e+00  -2.4721708371460349e+02 7.1437981268436299e-06 0.0000000000000000e+00  -2.4141622904051098e+02 6.7520730586977497e-06 0.0000000000000000e+00  -2.3569032847439050e+02 6.3578520282453590e-06 0.0000000000000000e+00  -2.3004064056990563e+02 5.9618019300458070e-06 0.0000000000000000e+00  -2.2446834801425138e+02 5.5645573279650059e-06 0.0000000000000000e+00  -2.1897455733762388e+02 5.1667694311838172e-06 0.0000000000000000e+00  -2.1356029874700931e+02 4.7690717977954731e-06 0.0000000000000000e+00  -2.0822652608242609e+02 4.3720847801638461e-06 0.0000000000000000e+00  -2.0297411689373342e+02 3.9764172994404757e-06 0.0000000000000000e+00  -1.9780387263549713e+02 3.5826593790037089e-06 0.0000000000000000e+00  -1.9271651897740270e+02 3.1913955926246950e-06 0.0000000000000000e+00  -1.8771270622744879e+02 2.8031913471643953e-06 0.0000000000000000e+00  -1.8279300986483250e+02 2.4185896435432995e-06 0.0000000000000000e+00  -1.7795793117930378e+02 2.0381214685524268e-06 0.0000000000000000e+00  -1.7320789801348542e+02 1.6622891124869277e-06 0.0000000000000000e+00  -1.6854326560462837e+02 1.2915849335011567e-06 0.0000000000000000e+00  -1.6396431752196207e+02 9.2646931980030778e-07 0.0000000000000000e+00  -1.5947126669567089e+02 5.6739304807088410e-07 0.0000000000000000e+00  -1.5506425653345937e+02 2.1477653015277436e-07 0.0000000000000000e+00  -1.5074336212054649e+02 -1.3097426193272657e-07 0.0000000000000000e+00  -1.4650859149871258e+02 -4.6949275849686212e-07 0.0000000000000000e+00  -1.4235988702004306e+02 -8.0040845307685263e-07 0.0000000000000000e+00  -1.3829712677095333e+02 -1.1234046351227881e-06 0.0000000000000000e+00  -1.3432012606195713e+02 -1.4381671008632044e-06 0.0000000000000000e+00  -1.3042863897859280e+02 -1.7444173878124097e-06 0.0000000000000000e+00  -1.2662235998898451e+02 -2.0418943186620285e-06 0.0000000000000000e+00  -1.2290092560340548e+02 -2.3303630131876666e-06 0.0000000000000000e+00  -1.1926391608131271e+02 -2.6096134643739126e-06 0.0000000000000000e+00  -1.1571085718120307e+02 -2.8794545609469138e-06 0.0000000000000000e+00  -1.1224122194885608e+02 -3.1397239566450760e-06 0.0000000000000000e+00  -1.0885443253937092e+02 -3.3902798546322414e-06 0.0000000000000000e+00  -1.0554986206862704e+02 -3.6310008268675043e-06 0.0000000000000000e+00  -1.0232683648980385e+02 -3.8617941624795848e-06 0.0000000000000000e+00  -9.9184636490615816e+01 -4.0825818401693692e-06 0.0000000000000000e+00  -9.6122499407125517e+01 -4.2933096164724879e-06 0.0000000000000000e+00  -9.3139621150013738e+01 -4.4939432576149747e-06 0.0000000000000000e+00  -9.0235158139296104e+01 -4.6844666102533065e-06 0.0000000000000000e+00  -8.7408229243671897e+01 -4.8648925242839053e-06 0.0000000000000000e+00  -8.4657917720721784e+01 -5.0352367002783869e-06 0.0000000000000000e+00  -8.1983273154342413e+01 -5.1955413446459504e-06 0.0000000000000000e+00  -7.9383313385978866e+01 -5.3458684895966943e-06 0.0000000000000000e+00  -7.6857026436312793e+01 -5.4862918711000652e-06 0.0000000000000000e+00  -7.4403372414219092e+01 -5.6168966432254278e-06 0.0000000000000000e+00  -7.2021285409998967e+01 -5.7377904133733986e-06 0.0000000000000000e+00  -6.9709675370029387e+01 -5.8490901021652505e-06 0.0000000000000000e+00  -6.7467429950109121e+01 -5.9509276134452464e-06 0.0000000000000000e+00  -6.5293416344959653e+01 -6.0434422608799766e-06 0.0000000000000000e+00  -6.3186483091559495e+01 -6.1267892571785586e-06 0.0000000000000000e+00  -6.1145461844067320e+01 -6.2011336350397131e-06 0.0000000000000000e+00  -5.9169169118271782e+01 -6.2666478122560331e-06 0.0000000000000000e+00  -5.7256408003776649e+01 -6.3235100720467713e-06 0.0000000000000000e+00  -5.5405969842130716e+01 -6.3719137941180787e-06 0.0000000000000000e+00  -5.3616635869390286e+01 -6.4120515123122319e-06 0.0000000000000000e+00  -5.1887178821744648e+01 -6.4441280735416779e-06 0.0000000000000000e+00  -5.0216364502929423e+01 -6.4683469817428289e-06 0.0000000000000000e+00  -4.8602953312430230e+01 -6.4849223268046189e-06 0.0000000000000000e+00  -4.7045701733474580e+01 -6.4940684342433236e-06 0.0000000000000000e+00  -4.5543363780094310e+01 -6.4960042901983339e-06 0.0000000000000000e+00  -4.4094692402610001e+01 -6.4909480515655121e-06 0.0000000000000000e+00  -4.2698440851051728e+01 -6.4791221718085620e-06 0.0000000000000000e+00  -4.1353363996138661e+01 -6.4607498540273173e-06 0.0000000000000000e+00  -4.0058219607618298e+01 -6.4360547473919767e-06 0.0000000000000000e+00  -3.8811769589842370e+01 -6.4052577861176151e-06 0.0000000000000000e+00  -3.7612781174572881e+01 -6.3685811915502025e-06 0.0000000000000000e+00  -3.6460028071168040e+01 -6.3262441118458328e-06 0.0000000000000000e+00  -3.5352291574358432e+01 -6.2784656176146421e-06 0.0000000000000000e+00  -3.4288361629929035e+01 -6.2254622841700045e-06 0.0000000000000000e+00  -3.3267037858736607e+01 -6.1674458879761747e-06 0.0000000000000000e+00  -3.2287130539562469e+01 -6.1046259075678441e-06 0.0000000000000000e+00  -3.1347461551374970e+01 -6.0372086240993040e-06 0.0000000000000000e+00  -3.0446865275647660e+01 -5.9653951282377653e-06 0.0000000000000000e+00  -2.9584189459495612e+01 -5.8893807421519159e-06 0.0000000000000000e+00  -2.8758296040353638e+01 -5.8093577377878009e-06 0.0000000000000000e+00  -2.7968061933087103e+01 -5.7255060098308298e-06 0.0000000000000000e+00  -2.7212379780377329e+01 -5.6379992574301939e-06 0.0000000000000000e+00  -2.6490158667356841e+01 -5.5469929081077109e-06 0.0000000000000000e+00  -2.5800324801416831e+01 -5.4526152730181527e-06 0.0000000000000000e+00  -2.5141822158214005e+01 -5.3549525811573044e-06 0.0000000000000000e+00  -2.4513613094923322e+01 -5.2540110790743408e-06 0.0000000000000000e+00  -2.3914678931774748e+01 -5.1496501154021784e-06 0.0000000000000000e+00  -2.3344020502974303e+01 -5.0414573948465384e-06 0.0000000000000000e+00  -2.2800658678202225e+01 -4.9285138271169632e-06 0.0000000000000000e+00  -2.2283634855876215e+01 -4.8089381755280818e-06 0.0000000000000000e+00  -2.1792011429584015e+01 -4.6790360216991746e-06 0.0000000000000000e+00  -2.1324872229320441e+01 -4.5316883295609328e-06 0.0000000000000000e+00  -2.0881322939693231e+01 -4.3532795276577552e-06 0.0000000000000000e+00  -2.0460491498197666e+01 -4.1179033294498640e-06 0.0000000000000000e+00  -2.0061528478498253e+01 -3.7763718393169551e-06 0.0000000000000000e+00  -1.9683607467122851e+01 -3.2354023356507454e-06 0.0000000000000000e+00  -1.9325925448546485e+01 -2.3181753117840624e-06 0.0000000000000000e+00  -1.8987703226096027e+01 -6.8962503367947966e-07 0.0000000000000000e+00  -1.8668185929744322e+01 2.2850826416140307e-06 0.0000000000000000e+00  -1.8366643706677525e+01 7.8086652875802128e-06 0.0000000000000000e+00  -1.8082372775372132e+01 1.8159620839074889e-05 0.0000000000000000e+00  -1.7814697184696