<?xml version="1.0"?>
<VTKFile type="UnstructuredGrid"  version="0.1"  >
<UnstructuredGrid>
<Piece  NumberOfPoints="1656" NumberOfCells="3000">
<Points>
<DataArray  type="Float64"  NumberOfComponents="3"  format="ascii">0 0 0  2 0 0  4 0 0  6 0 0  8 0 0  10 0 0  12 0 0  14 0 0  16 0 0  18 0 0  20 0 0  22 0 0  24 0 0  26 0 0  28 0 0  30 0 0  32 0 0  34 0 0  36 0 0  38 0 0  40 0 0  42 0 0  44 0 0  46 0 0  48 0 0  50 0 0  52 0 0  54 0 0  56 0 0  58 0 0  60 0 0  62 0 0  64 0 0  66 0 0  68 0 0  70 0 0  72 0 0  74 0 0  76 0 0  78 0 0  80 0 0  82 0 0  84 0 0  86 0 0  88 0 0  90 0 0  92 0 0  94 0 0  96 0 0  98 0 0  100 0 0  102 0 0  104 0 0  106 0 0  108 0 0  110 0 0  112 0 0  114 0 0  116 0 0  118 0 0  120 0 0  122 0 0  124 0 0  126 0 0  128 0 0  130 0 0  132 0 0  134 0 0  136 0 0  138 0 0  140 0 0  142 0 0  144 0 0  146 0 0  148 0 0  150 0 0  152 0 0  154 0 0  156 0 0  158 0 0  160 0 0  162 0 0  164 0 0  166 0 0  168 0 0  170 0 0  172 0 0  174 0 0  176 0 0  178 0 0  180 0 0  182 0 0  184 0 0  186 0 0  188 0 0  190 0 0  192 0 0  194 0 0  196 0 0  198 0 0  200 0 0  202 0 0  204 0 0  206 0 0  208 0 0  210 0 0  212 0 0  214 0 0  216 0 0  218 0 0  220 0 0  222 0 0  224 0 0  226 0 0  228 0 0  230 0 0  232 0 0  234 0 0  236 0 0  238 0 0  240 0 0  242 0 0  244 0 0  246 0 0  248 0 0  250 0 0  252 0 0  254 0 0  256 0 0  258 0 0  260 0 0  262 0 0  264 0 0  266 0 0  268 0 0  270 0 0  272 0 0  274 0 0  276 0 0  278 0 0  280 0 0  282 0 0  284 0 0  286 0 0  288 0 0  290 0 0  292 0 0  294 0 0  296 0 0  298 0 0  300 0 0  0 2 0  2 2 0  4 2 0  6 2 0  8 2 0  10 2 0  12 2 0  14 2 0  16 2 0  18 2 0  20 2 0  22 2 0  24 2 0  26 2 0  28 2 0  30 2 0  32 2 0  34 2 0  36 2 0  38 2 0  40 2 0  42 2 0  44 2 0  46 2 0  48 2 0  50 2 0  52 2 0  54 2 0  56 2 0  58 2 0  60 2 0  62 2 0  64 2 0  66 2 0  68 2 0  70 2 0  72 2 0  74 2 0  76 2 0  78 2 0  80 2 0  82 2 0  84 2 0  86 2 0  88 2 0  90 2 0  92 2 0  94 2 0  96 2 0  98 2 0  100 2 0  102 2 0  104 2 0  106 2 0  108 2 0  110 2 0  112 2 0  114 2 0  116 2 0  118 2 0  120 2 0  122 2 0  124 2 0  126 2 0  128 2 0  130 2 0  132 2 0  134 2 0  136 2 0  138 2 0  140 2 0  142 2 0  144 2 0  146 2 0  148 2 0  150 2 0  152 2 0  154 2 0  156 2 0  158 2 0  160 2 0  162 2 0  164 2 0  166 2 0  168 2 0  170 2 0  172 2 0  174 2 0  176 2 0  178 2 0  180 2 0  182 2 0  184 2 0  186 2 0  188 2 0  190 2 0  192 2 0  194 2 0  196 2 0  198 2 0  200 2 0  202 2 0  204 2 0  206 2 0  208 2 0  210 2 0  212 2 0  214 2 0  216 2 0  218 2 0  220 2 0  222 2 0  224 2 0  226 2 0  228 2 0  230 2 0  232 2 0  234 2 0  236 2 0  238 2 0  240 2 0  242 2 0  244 2 0  246 2 0  248 2 0  250 2 0  252 2 0  254 2 0  256 2 0  258 2 0  260 2 0  262 2 0  264 2 0  266 2 0  268 2 0  270 2 0  272 2 0  274 2 0  276 2 0  278 2 0  280 2 0  282 2 0  284 2 0  286 2 0  288 2 0  290 2 0  292 2 0  294 2 0  296 2 0  298 2 0  300 2 0  0 4 0  2 4 0  4 4 0  6 4 0  8 4 0  10 4 0  12 4 0  14 4 0  16 4 0  18 4 0  20 4 0  22 4 0  24 4 0  26 4 0  28 4 0  30 4 0  32 4 0  34 4 0  36 4 0  38 4 0  40 4 0  42 4 0  44 4 0  46 4 0  48 4 0  50 4 0  52 4 0  54 4 0  56 4 0  58 4 0  60 4 0  62 4 0  64 4 0  66 4 0  68 4 0  70 4 0  72 4 0  74 4 0  76 4 0  78 4 0  80 4 0  82 4 0  84 4 0  86 4 0  88 4 0  90 4 0  92 4 0  94 4 0  96 4 0  98 4 0  100 4 0  102 4 0  104 4 0  106 4 0  108 4 0  110 4 0  112 4 0  114 4 0  116 4 0  118 4 0  120 4 0  122 4 0  124 4 0  126 4 0  128 4 0  130 4 0  132 4 0  134 4 0  136 4 0  138 4 0  140 4 0  142 4 0  144 4 0  146 4 0  148 4 0  150 4 0  152 4 0  154 4 0  156 4 0  158 4 0  160 4 0  162 4 0  164 4 0  166 4 0  168 4 0  170 4 0  172 4 0  174 4 0  176 4 0  178 4 0  180 4 0  182 4 0  184 4 0  186 4 0  188 4 0  190 4 0  192 4 0  194 4 0  196 4 0  198 4 0  200 4 0  202 4 0  204 4 0  206 4 0  208 4 0  210 4 0  212 4 0  214 4 0  216 4 0  218 4 0  220 4 0  222 4 0  224 4 0  226 4 0  228 4 0  230 4 0  232 4 0  234 4 0  236 4 0  238 4 0  240 4 0  242 4 0  244 4 0  246 4 0  248 4 0  250 4 0  252 4 0  254 4 0  256 4 0  258 4 0  260 4 0  262 4 0  264 4 0  266 4 0  268 4 0  270 4 0  272 4 0  274 4 0  276 4 0  278 4 0  280 4 0  282 4 0  284 4 0  286 4 0  288 4 0  290 4 0  292 4 0  294 4 0  296 4 0  298 4 0  300 4 0  0 6 0  2 6 0  4 6 0  6 6 0  8 6 0  10 6 0  12 6 0  14 6 0  16 6 0  18 6 0  20 6 0  22 6 0  24 6 0  26 6 0  28 6 0  30 6 0  32 6 0  34 6 0  36 6 0  38 6 0  40 6 0  42 6 0  44 6 0  46 6 0  48 6 0  50 6 0  52 6 0  54 6 0  56 6 0  58 6 0  60 6 0  62 6 0  64 6 0  66 6 0  68 6 0  70 6 0  72 6 0  74 6 0  76 6 0  78 6 0  80 6 0  82 6 0  84 6 0  86 6 0  88 6 0  90 6 0  92 6 0  94 6 0  96 6 0  98 6 0  100 6 0  102 6 0  104 6 0  106 6 0  108 6 0  110 6 0  112 6 0  114 6 0  116 6 0  118 6 0  120 6 0  122 6 0  124 6 0  126 6 0  128 6 0  130 6 0  132 6 0  134 6 0  136 6 0  138 6 0  140 6 0  142 6 0  144 6 0  146 6 0  148 6 0  150 6 0  152 6 0  154 6 0  156 6 0  158 6 0  160 6 0  162 6 0  164 6 0  166 6 0  168 6 0  170 6 0  172 6 0  174 6 0  176 6 0  178 6 0  180 6 0  182 6 0  184 6 0  186 6 0  188 6 0  190 6 0  192 6 0  194 6 0  196 6 0  198 6 0  200 6 0  202 6 0  204 6 0  206 6 0  208 6 0  210 6 0  212 6 0  214 6 0  216 6 0  218 6 0  220 6 0  222 6 0  224 6 0  226 6 0  228 6 0  230 6 0  232 6 0  234 6 0  236 6 0  238 6 0  240 6 0  242 6 0  244 6 0  246 6 0  248 6 0  250 6 0  252 6 0  254 6 0  256 6 0  258 6 0  260 6 0  262 6 0  264 6 0  266 6 0  268 6 0  270 6 0  272 6 0  274 6 0  276 6 0  278 6 0  280 6 0  282 6 0  284 6 0  286 6 0  288 6 0  290 6 0  292 6 0  294 6 0  296 6 0  298 6 0  300 6 0  0 8 0  2 8 0  4 8 0  6 8 0  8 8 0  10 8 0  12 8 0  14 8 0  16 8 0  18 8 0  20 8 0  22 8 0  24 8 0  26 8 0  28 8 0  30 8 0  32 8 0  34 8 0  36 8 0  38 8 0  40 8 0  42 8 0  44 8 0  46 8 0  48 8 0  50 8 0  52 8 0  54 8 0  56 8 0  58 8 0  60 8 0  62 8 0  64 8 0  66 8 0  68 8 0  70 8 0  72 8 0  74 8 0  76 8 0  78 8 0  80 8 0  82 8 0  84 8 0  86 8 0  88 8 0  90 8 0  92 8 0  94 8 0  96 8 0  98 8 0  100 8 0  102 8 0  104 8 0  106 8 0  108 8 0  110 8 0  112 8 0  114 8 0  116 8 0  118 8 0  120 8 0  122 8 0  124 8 0  126 8 0  128 8 0  130 8 0  132 8 0  134 8 0  136 8 0  138 8 0  140 8 0  142 8 0  144 8 0  146 8 0  148 8 0  150 8 0  152 8 0  154 8 0  156 8 0  158 8 0  160 8 0  162 8 0  164 8 0  166 8 0  168 8 0  170 8 0  172 8 0  174 8 0  176 8 0  178 8 0  180 8 0  182 8 0  184 8 0  186 8 0  188 8 0  190 8 0  192 8 0  194 8 0  196 8 0  198 8 0  200 8 0  202 8 0  204 8 0  206 8 0  208 8 0  210 8 0  212 8 0  214 8 0  216 8 0  218 8 0  220 8 0  222 8 0  224 8 0  226 8 0  228 8 0  230 8 0  232 8 0  234 8 0  236 8 0  238 8 0  240 8 0  242 8 0  244 8 0  246 8 0  248 8 0  250 8 0  252 8 0  254 8 0  256 8 0  258 8 0  260 8 0  262 8 0  264 8 0  266 8 0  268 8 0  270 8 0  272 8 0  274 8 0  276 8 0  278 8 0  280 8 0  282 8 0  284 8 0  286 8 0  288 8 0  290 8 0  292 8 0  294 8 0  296 8 0  298 8 0  300 8 0  0 10 0  2 10 0  4 10 0  6 10 0  8 10 0  10 10 0  12 10 0  14 10 0  16 10 0  18 10 0  20 10 0  22 10 0  24 10 0  26 10 0  28 10 0  30 10 0  32 10 0  34 10 0  36 10 0  38 10 0  40 10 0  42 10 0  44 10 0  46 10 0  48 10 0  50 10 0  52 10 0  54 10 0  56 10 0  58 10 0  60 10 0  62 10 0  64 10 0  66 10 0  68 10 0  70 10 0  72 10 0  74 10 0  76 10 0  78 10 0  80 10 0  82 10 0  84 10 0  86 10 0  88 10 0  90 10 0  92 10 0  94 10 0  96 10 0  98 10 0  100 10 0  102 10 0  104 10 0  106 10 0  108 10 0  110 10 0  112 10 0  114 10 0  116 10 0  118 10 0  120 10 0  122 10 0  124 10 0  126 10 0  128 10 0  130 10 0  132 10 0  134 10 0  136 10 0  138 10 0  140 10 0  142 10 0  144 10 0  146 10 0  148 10 0  150 10 0  152 10 0  154 10 0  156 10 0  158 10 0  160 10 0  162 10 0  164 10 0  166 10 0  168 10 0  170 10 0  172 10 0  174 10 0  176 10 0  178 10 0  180 10 0  182 10 0  184 10 0  186 10 0  188 10 0  190 10 0  192 10 0  194 10 0  196 10 0  198 10 0  200 10 0  202 10 0  204 10 0  206 10 0  208 10 0  210 10 0  212 10 0  214 10 0  216 10 0  218 10 0  220 10 0  222 10 0  224 10 0  226 10 0  228 10 0  230 10 0  232 10 0  234 10 0  236 10 0  238 10 0  240 10 0  242 10 0  244 10 0  246 10 0  248 10 0  250 10 0  252 10 0  254 10 0  256 10 0  258 10 0  260 10 0  262 10 0  264 10 0  266 10 0  268 10 0  270 10 0  272 10 0  274 10 0  276 10 0  278 10 0  280 10 0  282 10 0  284 10 0  286 10 0  288 10 0  290 10 0  292 10 0  294 10 0  296 10 0  298 10 0  300 10 0  1 1 0  3 1 0  5 1 0  7 1 0  9 1 0  11 1 0  13 1 0  15 1 0  17 1 0  19 1 0  21 1 0  23 1 0  25 1 0  27 1 0  29 1 0  31 1 0  33 1 0  35 1 0  37 1 0  39 1 0  41 1 0  43 1 0  45 1 0  47 1 0  49 1 0  51 1 0  53 1 0  55 1 0  57 1 0  59 1 0  61 1 0  63 1 0  65 1 0  67 1 0  69 1 0  71 1 0  73 1 0  75 1 0  77 1 0  79 1 0  81 1 0  83 1 0  85 1 0  87 1 0  89 1 0  91 1 0  93 1 0  95 1 0  97 1 0  99 1 0  101 1 0  103 1 0  105 1 0  107 1 0  109 1 0  111 1 0  113 1 0  115 1 0  117 1 0  119 1 0  121 1 0  123 1 0  125 1 0  127 1 0  129 1 0  131 1 0  133 1 0  135 1 0  137 1 0  139 1 0  141 1 0  143 1 0  145 1 0  147 1 0  149 1 0  151 1 0  153 1 0  155 1 0  157 1 0  159 1 0  161 1 0  163 1 0  165 1 0  167 1 0  169 1 0  171 1 0  173 1 0  175 1 0  177 1 0  179 1 0  181 1 0  183 1 0  185 1 0  187 1 0  189 1 0  191 1 0  193 1 0  195 1 0  197 1 0  199 1 0  201 1 0  203 1 0  205 1 0  207 1 0  209 1 0  211 1 0  213 1 0  215 1 0  217 1 0  219 1 0  221 1 0  223 1 0  225 1 0  227 1 0  229 1 0  231 1 0  233 1 0  235 1 0  237 1 0  239 1 0  241 1 0  243 1 0  245 1 0  247 1 0  249 1 0  251 1 0  253 1 0  255 1 0  257 1 0  259 1 0  261 1 0  263 1 0  265 1 0  267 1 0  269 1 0  271 1 0  273 1 0  275 1 0  277 1 0  279 1 0  281 1 0  283 1 0  285 1 0  287 1 0  289 1 0  291 1 0  293 1 0  295 1 0  297 1 0  299 1 0  1 3 0  3 3 0  5 3 0  7 3 0  9 3 0  11 3 0  13 3 0  15 3 0  17 3 0  19 3 0  21 3 0  23 3 0  25 3 0  27 3 0  29 3 0  31 3 0  33 3 0  35 3 0  37 3 0  39 3 0  41 3 0  43 3 0  45 3 0  47 3 0  49 3 0  51 3 0  53 3 0  55 3 0  57 3 0  59 3 0  61 3 0  63 3 0  65 3 0  67 3 0  69 3 0  71 3 0  73 3 0  75 3 0  77 3 0  79 3 0  81 3 0  83 3 0  85 3 0  87 3 0  89 3 0  91 3 0  93 3 0  95 3 0  97 3 0  99 3 0  101 3 0  103 3 0  105 3 0  107 3 0  109 3 0  111 3 0  113 3 0  115 3 0  117 3 0  119 3 0  121 3 0  123 3 0  125 3 0
[...]
<PointData  Vectors="flow"> 
<DataArray  type="Float64"  Name="flow"  NumberOfComponents="3" format="ascii">-4.5967432823435854e+02 -8.2217324354035604e-01 0.0000000000000000e+00  -4.5638581203418192e+02 -8.2209427437650251e-01 0.0000000000000000e+00  -4.5145389597177621e+02 -8.2185741081106101e-01 0.0000000000000000e+00  -4.4652387444593512e+02 -8.2146278481763002e-01 0.0000000000000000e+00  -4.4159669340686651e+02 -8.2091061587779790e-01 0.0000000000000000e+00  -4.3667329722448864e+02 -8.2020121112840816e-01 0.0000000000000000e+00  -4.3175462816413346e+02 -8.1933496490269053e-01 0.0000000000000000e+00  -4.2684162586447860e+02 -8.1831235846849337e-01 0.0000000000000000e+00  -4.2193522681816501e+02 -8.1713395916055520e-01 0.0000000000000000e+00  -4.1703636385523509e+02 -8.1580042027975463e-01 0.0000000000000000e+00  -4.1214596563086457e+02 -8.1431248018178060e-01 0.0000000000000000e+00  -4.0726495611674204e+02 -8.1267096160299968e-01 0.0000000000000000e+00  -4.0239425409748708e+02 -8.1087677068730168e-01 0.0000000000000000e+00  -3.9753477267235553e+02 -8.0893089628445802e-01 0.0000000000000000e+00  -3.9268741876236686e+02 -8.0683440872357703e-01 0.0000000000000000e+00  -3.8785309262393929e+02 -8.0458845921562228e-01 0.0000000000000000e+00  -3.8303268736917448e+02 -8.0219427781227393e-01 0.0000000000000000e+00  -3.7822708849299363e+02 -7.9965317320981066e-01 0.0000000000000000e+00  -3.7343717340856301e+02 -7.9696653063182010e-01 0.0000000000000000e+00  -3.6866381099002308e+02 -7.9413581089526120e-01 0.0000000000000000e+00  -3.6390786112441572e+02 -7.9116254876721015e-01 0.0000000000000000e+00  -3.5917017427207099e+02 -7.8804835146951469e-01 0.0000000000000000e+00  -3.5445159103692311e+02 -7.8479489708471217e-01 0.0000000000000000e+00  -3.4975294174589419e+02 -7.8140393292306576e-01 0.0000000000000000e+00  -3.4507504603915163e+02 -7.7787727374816285e-01 0.0000000000000000e+00  -3.4041871247060141e+02 -7.7421679995777659e-01 0.0000000000000000e+00  -3.3578473811937454e+02 -7.7042445586416286e-01 0.0000000000000000e+00  -3.3117390821261574e+02 -7.6650224756084140e-01 0.0000000000000000e+00  -3.2658699575985020e+02 -7.6245224112299792e-01 0.0000000000000000e+00  -3.2202476119963285e+02 -7.5827656067199545e-01 0.0000000000000000e+00  -3.1748795205798029e+02 -7.5397738594547159e-01 0.0000000000000000e+00  -3.1297730261971481e+02 -7.4955695068574757e-01 0.0000000000000000e+00  -3.0849353361279162e+02 -7.4501753987967656e-01 0.0000000000000000e+00  -3.0403735190531825e+02 -7.4036148803976665e-01 0.0000000000000000e+00  -2.9960945021637912e+02 -7.3559117680629471e-01 0.0000000000000000e+00  -2.9521050684024954e+02 -7.3070903253557939e-01 0.0000000000000000e+00  -2.9084118538452049e+02 -7.2571752408683332e-01 0.0000000000000000e+00  -2.8650213452223647e+02 -7.2061916046167751e-01 0.0000000000000000e+00  -2.8219398775823242e+02 -7.1541648843098848e-01 0.0000000000000000e+00  -2.7791736320995102e+02 -7.1011209008486476e-01 0.0000000000000000e+00  -2.7367286340263041e+02 -7.0470858035030282e-01 0.0000000000000000e+00  -2.6946107507933920e+02 -6.9920860475566615e-01 0.0000000000000000e+00  -2.6528256902571638e+02 -6.9361483660570311e-01 0.0000000000000000e+00  -2.6113789990952330e+02 -6.8792997486369567e-01 0.0000000000000000e+00  -2.5702760613531609e+02 -6.8215674137682170e-01 0.0000000000000000e+00  -2.5295220971402992e+02 -6.7629787845614786e-01 0.0000000000000000e+00  -2.4891221614767807e+02 -6.7035614639997487e-01 0.0000000000000000e+00  -2.4490811432919045e+02 -6.6433432100995138e-01 0.0000000000000000e+00  -2.4094037645727718e+02 -6.5823519088404381e-01 0.0000000000000000e+00  -2.3700945796649515e+02 -6.5206155516845055e-01 0.0000000000000000e+00  -2.3311579747245889e+02 -6.4581622067882982e-01 0.0000000000000000e+00  -2.2925981673191654e+02 -6.3950199990343748e-01 0.0000000000000000e+00  -2.2544192061803835e+02 -6.3312170794955758e-01 0.0000000000000000e+00  -2.2166249711046615e+02 -6.2667816048197977e-01 0.0000000000000000e+00  -2.1792191730043507e+02 -6.2017417104261985e-01 0.0000000000000000e+00  -2.1422053541033569e+02 -6.1361254869494919e-01 0.0000000000000000e+00  -2.1055868882814821e+02 -6.0699609554936906e-01 0.0000000000000000e+00  -2.0693669815640271e+02 -6.0032760432635257e-01 0.0000000000000000e+00  -2.0335486727517434e+02 -5.9360985613314776e-01 0.0000000000000000e+00  -1.9981348341964440e+02 -5.8684561791763090e-01 0.0000000000000000e+00  -1.9631281727143130e+02 -5.8003764026275284e-01 0.0000000000000000e+00  -1.9285312306386271e+02 -5.7318865505820060e-01 0.0000000000000000e+00  -1.8943463870077318e+02 -5.6630137327979457e-01 0.0000000000000000e+00  -1.8605758588882384e+02 -5.5937848272795043e-01 0.0000000000000000e+00  -1.8272217028286880e+02 -5.5242264592003609e-01 0.0000000000000000e+00  -1.7942858164430598e+02 -5.4543649789748450e-01 0.0000000000000000e+00  -1.7617699401217897e+02 -5.3842264413232555e-01 0.0000000000000000e+00  -1.7296756588654506e+02 -5.3138365857211045e-01 0.0000000000000000e+00  -1.6980044042410748e+02 -5.2432208144077053e-01 0.0000000000000000e+00  -1.6667574564560485e+02 -5.1724041758295558e-01 0.0000000000000000e+00  -1.6359359465482589e+02 -5.1014113426564811e-01 0.0000000000000000e+00  -1.6055408586881683e+02 -5.0302665953392500e-01 0.0000000000000000e+00  -1.5755730325904855e+02 -4.9589938033775705e-01 0.0000000000000000e+00  -1.5460331660314586e+02 -4.8876164075417483e-01 0.0000000000000000e+00  -1.5169218174693387e+02 -4.8161574043032285e-01 0.0000000000000000e+00  -1.4882394087639636e+02 -4.7446393282320021e-01 0.0000000000000000e+00  -1.4599862279916428e+02 -4.6730842370193526e-01 0.0000000000000000e+00  -1.4321624323535721e+02 -4.6015136961969993e-01 0.0000000000000000e+00  -1.4047680511708703e+02 -4.5299487651389536e-01 0.0000000000000000e+00  -1.3778029889663304e+02 -4.4584099822102652e-01 0.0000000000000000e+00  -1.3512670286267348e+02 -4.3869173526945093e-01 0.0000000000000000e+00  -1.3251598346419243e+02 -4.3154903352354557e-01 0.0000000000000000e+00  -1.2994809564185169e+02 -4.2441478309129843e-01 0.0000000000000000e+00  -1.2742298316627212e+02 -4.1729081706185567e-01 0.0000000000000000e+00  -1.2494057898283876e+02 -4.1017891060780598e-01 0.0000000000000000e+00  -1.2250080556283324e+02 -4.0308077983917279e-01 0.0000000000000000e+00  -1.2010357526020067e+02 -3.9599808095938477e-01 0.0000000000000000e+00  -1.1774879067379253e+02 -3.8893240936538964e-01 0.0000000000000000e+00  -1.1543634501454443e+02 -3.8188529884289246e-01 0.0000000000000000e+00  -1.1316612247729429e+02 -3.7485822089437310e-01 0.0000000000000000e+00  -1.1093799861669851e+02 -3.6785258399571757e-01 0.0000000000000000e+00  -1.0875184072699462e+02 -3.6086973307405029e-01 0.0000000000000000e+00  -1.0660750822508803e+02 -3.5391094892450015e-01 0.0000000000000000e+00  -1.0450485303661739e+02 -3.4697744777327644e-01 0.0000000000000000e+00  -1.0244371998459596e+02 -3.4007038089520342e-01 0.0000000000000000e+00  -1.0042394718019725e+02 -3.3319083425301871e-01 0.0000000000000000e+00  -9.8445366415267912e+01 -3.2633982828888008e-01 0.0000000000000000e+00  -9.6507803556286163e+01 -3.1951831768420136e-01 0.0000000000000000e+00  -9.4611078939202486e+01 -3.1272719123786918e-01 0.0000000000000000e+00  -9.2755007764872488e+01 -3.0596727186077211e-01 0.0000000000000000e+00  -9.0939400494668718e+01 -2.9923931646388952e-01 0.0000000000000000e+00  -8.9164063245903236e+01 -2.9254401616436893e-01 0.0000000000000000e+00  -8.7428798186631127e+01 -2.8588199630004540e-01 0.0000000000000000e+00  -8.5733403929444279e+01 -2.7925381669208366e-01 0.0000000000000000e+00  -8.4077675924003145e+01 -2.7265997188492597e-01 0.0000000000000000e+00  -8.2461406847746574e+01 -2.6610089144439103e-01 0.0000000000000000e+00  -8.0884386994565062e+01 -2.5957694036457857e-01 0.0000000000000000e+00  -7.9346404661008236e+01 -2.5308841949064947e-01 0.0000000000000000e+00  -7.7847246529687453e+01 -2.4663556599797462e-01 0.0000000000000000e+00  -7.6386698049516710e+01 -2.4021855396578345e-01 0.0000000000000000e+00  -7.4964543812478937e+01 -2.3383749496195799e-01 0.0000000000000000e+00  -7.3580567926592991e+01 -2.2749243868527080e-01 0.0000000000000000e+00  -7.2234554384801029e+01 -2.2118337360462176e-01 0.0000000000000000e+00  -7.0926287429535705e+01 -2.1491022764238490e-01 0.0000000000000000e+00  -6.9655551912843123e+01 -2.0867286874948227e-01 0.0000000000000000e+00  -6.8422133652072432e+01 -2.0247110535810836e-01 0.0000000000000000e+00  -6.7225819781513039e+01 -1.9630468646308172e-01 0.0000000000000000e+00  -6.6066399100880943e+01 -1.9017330102507579e-01 0.0000000000000000e+00  -6.4943662422732103e+01 -1.8407657592754975e-01 0.0000000000000000e+00  -6.3857402923053165e+01 -1.7801407135996106e-01 0.0000000000000000e+00  -6.2807416503058960e+01 -1.7198527101406402e-01 0.0000000000000000e+00  -6.1793502178112917e+01 -1.6598956265152051e-01 0.0000000000000000e+00  -6.0815462523802978e+01 -1.6002620021182898e-01 0.0000000000000000e+00  -5.9873104236425704e+01 -1.5409423107120762e-01 0.0000000000000000e+00  -5.8966238916648479e+01 -1.4819235706495720e-01 0.0000000000000000e+00  -5.8094684282546851e+01 -1.4231867021482469e-01 0.0000000000000000e+00  -5.7258266202743386e+01 -1.3647015087062378e-01 0.0000000000000000e+00  -5.6456822290233553e+01 -1.3064171592290452e-01 0.0000000000000000e+00  -5.5690208459774517e+01 -1.2482441459839363e-01 0.0000000000000000e+00  -5.4958311106612278e+01 -1.1900200952953466e-01 0.0000000000000000e+00  -5.4261069941461763e+01 -1.1314449888501013e-01 0.0000000000000000e+00  -5.3598521020314273e+01 -1.0719584363248347e-01 0.0000000000000000e+00  -5.2970878041202390e+01 -1.0105071565906326e-01 0.0000000000000000e+00  -5.2378686153823168e+01 -9.4510440839638984e-02 0.0000000000000000e+00  -5.1823113208724209e+01 -8.7199502353423386e-02 0.0000000000000000e+00  -5.1306501601390082e+01 -7.8407219144342358e-02 0.0000000000000000e+00  -5.0833414919192485e+01 -6.6787253393404356e-02 0.0000000000000000e+00  -5.0412625005333481e+01 -4.9786056933195072e-02 0.0000000000000000e+00  -5.0060900163458797e+01 -2.2551669338555975e-02 0.0000000000000000e+00  -4.9810237156888036e+01 2.4169409394915041e-02 0.0000000000000000e+00  -4.9721990108459934e+01 1.0813329491136464e-01 0.0000000000000000e+00  -4.9914082880349767e+01 2.6396266428753268e-01 0.0000000000000000e+00  -5.0621004841780390e+01 5.6031127662117763e-01 0.0000000000000000e+00  -5.2302498786365561e+01 1.1437489344627716e+00 0.0000000000000000e+00  -5.6029822745895899e+01 2.3229625151505133e+00 0.0000000000000000e+00  -6.3840040062433474e+01 4.9970164786602993e+00 0.0000000000000000e+00  -8.2886323908519074e+01 1.0678703162430359e+01 0.0000000000000000e+00  -1.2284513585504610e+02 2.8680833139191574e+01 0.0000000000000000e+00  -2.0014320755040552e+02 4.3983469077551227e+01 0.0000000000000000e+00  -3.1723846253021816e+02 7.8602876812078478e+01 0.0000000000000000e+00  -3.8317497693257536e+02 7.0341736476683735e+01 0.0000000000000000e+00  -4.5967432823438963e+02 4.9357537961721314e-06 0.0000000000000000e+00  -4.5638581203417073e+02 4.9343735911276590e-06 0.0000000000000000e+00  -4.5145389597178183e+02 4.9302557209276149e-06 0.0000000000000000e+00  -4.4652387444594234e+02 4.9234037140567951e-06 0.0000000000000000e+00  -4.4159669340687759e+02 4.9137919646679638e-06 0.0000000000000000e+00  -4.3667329722445993e+02 4.9014722626472568e-06 0.0000000000000000e+00  -4.3175462816413000e+02 4.8864428656146006e-06 0.0000000000000000e+00  -4.2684162586449321e+02 4.8687069602583615e-06 0.0000000000000000e+00  -4.2193522681815671e+02 4.8482913480916796e-06 0.0000000000000000e+00  -4.1703636385524453e+02 4.8252032561820341e-06 0.0000000000000000e+00  -4.1214596563087758e+02 4.7994771050592320e-06 0.0000000000000000e+00  -4.0726495611673465e+02 4.7711659195914677e-06 0.0000000000000000e+00  -4.0239425409749987e+02 4.7402674593057416e-06 0.0000000000000000e+00  -3.9753477267233393e+02 4.7068147699158866e-06 0.0000000000000000e+00  -3.9268741876236635e+02 4.6708575090622454e-06 0.0000000000000000e+00  -3.8785309262395418e+02 4.6324147572614917e-06 0.0000000000000000e+00  -3.8303268736915459e+02 4.5915266955778145e-06 0.0000000000000000e+00  -3.7822708849300273e+02 4.5482251642065220e-06 0.0000000000000000e+00  -3.7343717340855505e+02 4.5025696561172928e-06 0.0000000000000000e+00  -3.6866381099002558e+02 4.4545980232451057e-06 0.0000000000000000e+00  -3.6390786112440350e+02 4.4043747524772112e-06 0.0000000000000000e+00  -3.5917017427209458e+02 4.3519329390933853e-06 0.0000000000000000e+00  -3.5445159103693055e+02 4.2973169749883861e-06 0.0000000000000000e+00  -3.4975294174589260e+02 4.2406055476085978e-06 0.0000000000000000e+00  -3.4507504603913412e+02 4.1818331839443563e-06 0.0000000000000000e+00  -3.4041871247060720e+02 4.1210734801986900e-06 0.0000000000000000e+00  -3.3578473811939142e+02 4.0583785068442849e-06 0.0000000000000000e+00  -3.3117390821258658e+02 3.9938175138632351e-06 0.0000000000000000e+00  -3.2658699575986259e+02 3.9274298767993037e-06 0.0000000000000000e+00  -3.2202476119964541e+02 3.8593060747743053e-06 0.0000000000000000e+00  -3.1748795205796318e+02 3.7894908482470907e-06 0.0000000000000000e+00  -3.1297730261973908e+02 3.7180849771192178e-06 0.0000000000000000e+00  -3.0849353361278708e+02 3.6451309756836190e-06 0.0000000000000000e+00  -3.0403735190530392e+02 3.5706914052543318e-06 0.0000000000000000e+00  -2.9960945021637934e+02 3.4948744600301534e-06 0.0000000000000000e+00  -2.9521050684025124e+02 3.4177183529317697e-06 0.0000000000000000e+00  -2.9084118538452708e+02 3.3393019340103177e-06 0.0000000000000000e+00  -2.8650213452222943e+02 3.2597126588679202e-06 0.0000000000000000e+00  -2.8219398775824322e+02 3.1790156768056123e-06 0.0000000000000000e+00  -2.7791736320993897e+02 3.0972872688666307e-06 0.0000000000000000e+00  -2.7367286340262609e+02 3.0146148020078520e-06 0.0000000000000000e+00  -2.6946107507934403e+02 2.9310656095949486e-06 0.0000000000000000e+00  -2.6528256902571701e+02 2.8467223991842625e-06 0.0000000000000000e+00  -2.6113789990952483e+02 2.7616506242047437e-06 0.0000000000000000e+00  -2.5702760613532496e+02 2.6759590216847878e-06 0.0000000000000000e+00  -2.5295220971401997e+02 2.5896985535155073e-06 0.0000000000000000e+00  -2.4891221614768267e+02 2.5029503020659948e-06 0.0000000000000000e+00  -2.4490811432918312e+02 2.4157980056252701e-06 0.0000000000000000e+00  -2.4094037645728039e+02 2.3283166045959591e-06 0.0000000000000000e+00  -2.3700945796649938e+02 2.2406063932104906e-06 0.0000000000000000e+00  -2.3311579747245642e+02 2.1527016718604038e-06 0.0000000000000000e+00  -2.2925981673192103e+02 2.0647274687744609e-06 0.0000000000000000e+00  -2.2544192061803096e+02 1.9767411092598850e-06 0.0000000000000000e+00  -2.2166249711047394e+02 1.8888100509254562e-06 0.0000000000000000e+00  -2.1792191730043206e+02 1.8010194255127358e-06 0.0000000000000000e+00  -2.1422053541032528e+02 1.7134558016987715e-06 0.0000000000000000e+00  -2.1055868882815471e+02 1.6261696151314580e-06 0.0000000000000000e+00  -2.0693669815640445e+02 1.5392541539303630e-06 0.0000000000000000e+00  -2.0335486727517497e+02 1.4527786364136963e-06 0.0000000000000000e+00  -1.9981348341964468e+02 1.3668276748187886e-06 0.0000000000000000e+00  -1.9631281727143363e+02 1.2814496409309682e-06 0.0000000000000000e+00  -1.9285312306386177e+02 1.1967276327106810e-06 0.0000000000000000e+00  -1.8943463870077608e+02 1.1127294049445236e-06 0.0000000000000000e+00  -1.8605758588882043e+02 1.0295170086906888e-06 0.0000000000000000e+00  -1.8272217028286298e+02 9.4717172379742872e-07 0.0000000000000000e+00  -1.7942858164430663e+02 8.6574423247567493e-07 0.0000000000000000e+00  -1.7617699401218385e+02 7.8530708214171643e-07 0.0000000000000000e+00  -1.7296756588654748e+02 7.0591915697107681e-07 0.0000000000000000e+00  -1.6980044042410591e+02 6.2763821778694101e-07 0.0000000000000000e+00  -1.6667574564560803e+02 5.5053311935789072e-07 0.0000000000000000e+00  -1.6359359465482149e+02 4.7465112265219305e-07 0.0000000000000000e+00  -1.6055408586882149e+02 4.0005706893438433e-07 0.0000000000000000e+00  -1.5755730325904676e+02 3.2680054627705226e-07 0.0000000000000000e+00  -1.5460331660314534e+02 2.5493569807929800e-07 0.0000000000000000e+00  -1.5169218174693174e+02 1.8450999748335246e-07 0.0000000000000000e+00  -1.4882394087639537e+02 1.1557790760066817e-07 0.0000000000000000e+00  -1.4599862279916647e+02 4.8179961880789198e-08 0.0000000000000000e+00  -1.4321624323535747e+02 -1.7635161811085313e-08 0.0000000000000000e+00  -1.4047680511708467e+02 -8.1815650218690894e-08 0.0000000000000000e+00  -1.3778029889663577e+02 -1.4433579197728455e-07 0.0000000000000000e+00  -1.3512670286267340e+02 -2.0514731947844187e-07 0.0000000000000000e+00  -1.3251598346419556e+02 -2.6421015956972289e-07 0.0000000000000000e+00  -1.2994809564185385e+02 -3.2149881875082590e-07 0.0000000000000000e+00  -1.2742298316626595e+02 -3.7697353626376779e-07 0.0000000000000000e+00  -1.2494057898283846e+02 -4.3060598103297949e-07 0.0000000000000000e+00  -1.2250080556283069e+02 -4.8236459099600573e-07 0.0000000000000000e+00  -1.2010357526020300e+02 -5.3221802400851968e-07 0.0000000000000000e+00  -1.1774879067379305e+02 -5.8015280876636861e-07 0.0000000000000000e+00  -1.1543634501454348e+02 -6.2613703052723163e-07 0.0000000000000000e+00  -1.1316612247729584e+02 -6.7015182333478882e-07 0.0000000000000000e+00  -1.1093799861669736e+02 -7.1218504266160122e-07 0.0000000000000000e+00  -1.0875184072699702e+02 -7.5221143888673525e-07 0.0000000000000000e+00  -1.0660750822508679e+02 -7.9021713778868432e-07 0.0000000000000000e+00  -1.0450485303661837e+02 -8.2619353510370391e-07 0.0000000000000000e+00  -1.0244371998459724e+02 -8.6013476922003518e-07 0.0000000000000000e+00  -1.0042394718019406e+02 -8.9202344499575564e-07 0.0000000000000000e+00  -9.8445366415267941e+01 -9.2185498385938331e-07 0.0000000000000000e+00  -9.6507803556286177e+01 -9.4963237443866036e-07 0.0000000000000000e+00  -9.4611078939204035e+01 -9.7534719994062565e-07 0.0000000000000000e+00  -9.2755007764870896e+01 -9.9900179282487629e-07 0.0000000000000000e+00  -9.0939400494666998e+01 -1.0205964051482856e-06 0.0000000000000000e+00  -8.9164063245904856e+01 -1.0401363553765380e-06 0.0000000000000000e+00  -8.7428798186626651e+01 -1.0576273923147141e-06 0.0000000000000000e+00  -8.5733403929438779e+01 -1.0730741583650111e-06 0.0000000000000000e+00  -8.4077675923991421e+01 -1.0864830640538379e-06 0.0000000000000000e+00  -8.2461406847722003e+01 -1.0978616918394134e-06 0.0000000000000000e+00  -8.0884386994525457e+01 -1.1072078378689486e-06 0.0000000000000000e+00  -7.9346404660934084e+01 -1.1145233425583419e-06 0.0000000000000000e+00  -7.7847246529543924e+01 -1.1197830503690211e-06 0.0000000000000000e+00  -7.6386698049241147e+01 -1.1229259243993196e-06 0.0000000000000000e+00  -7.4964543811957554e+01 -1.1238286111220310e-06 0.0000000000000000e+00  -7.3580567925609117e+01 -1.1222352570466384e-06 0.0000000000000000e+00  -7.2234554382933496e+01 -1.1176487329405840e-06 0.0000000000000000e+00  -7.0926287426002531e+01 -1.1091012956693142e-06 0.0000000000000000e+00  -6.9655551906147437e+01 -1.0947458123419064e-06 0.0000000000000000e+00  -6.8422133639391390e+01 -1.0710510421374528e-06 0.0000000000000000e+00  -6.7225819757493284e+01 -1.0313065164571677e-06 0.0000000000000000e+00  -6.6066399055375939e+01 -9.6277320032724070e-07 0.0000000000000000e+00  -6.4943662336534132e+01 -8.4129250522646656e-07 0.0000000000000000e+00  -6.3857402759772157e+01 -6.2108181507420249e-07 0.0000000000000000e+00  -6.2807416193756680e+01 -2.1537243599628054e-07 0.0000000000000000e+00  -6.1793501592213168e+01 5.4022027942511261e-07 0.0000000000000000e+00  -6.0815461413951773e+01 1.9571190244368029e-06 0.0000000000000000e+00  -5.9873102134069704e+01 4.6252814165831948e-06 0.0000000000000000e+00  -5.8966234934223287e+01 9.6622717877133627e-06 0.0000000000000000e+00  -5.8094676738768577e+01 1.9185099181480201e-05 0.0000000000000000e+00  -5.7258251912812732e+01 3.7203967584203260