<?xml version="1.0"?>
<VTKFile type="UnstructuredGrid"  version="0.1"  >
<UnstructuredGrid>
<Piece  NumberOfPoints="1656" NumberOfCells="3000">
<Points>
<DataArray  type="Float64"  NumberOfComponents="3"  format="ascii">0 0 0  2 0 0  4 0 0  6 0 0  8 0 0  10 0 0  12 0 0  14 0 0  16 0 0  18 0 0  20 0 0  22 0 0  24 0 0  26 0 0  28 0 0  30 0 0  32 0 0  34 0 0  36 0 0  38 0 0  40 0 0  42 0 0  44 0 0  46 0 0  48 0 0  50 0 0  52 0 0  54 0 0  56 0 0  58 0 0  60 0 0  62 0 0  64 0 0  66 0 0  68 0 0  70 0 0  72 0 0  74 0 0  76 0 0  78 0 0  80 0 0  82 0 0  84 0 0  86 0 0  88 0 0  90 0 0  92 0 0  94 0 0  96 0 0  98 0 0  100 0 0  102 0 0  104 0 0  106 0 0  108 0 0  110 0 0  112 0 0  114 0 0  116 0 0  118 0 0  120 0 0  122 0 0  124 0 0  126 0 0  128 0 0  130 0 0  132 0 0  134 0 0  136 0 0  138 0 0  140 0 0  142 0 0  144 0 0  146 0 0  148 0 0  150 0 0  152 0 0  154 0 0  156 0 0  158 0 0  160 0 0  162 0 0  164 0 0  166 0 0  168 0 0  170 0 0  172 0 0  174 0 0  176 0 0  178 0 0  180 0 0  182 0 0  184 0 0  186 0 0  188 0 0  190 0 0  192 0 0  194 0 0  196 0 0  198 0 0  200 0 0  202 0 0  204 0 0  206 0 0  208 0 0  210 0 0  212 0 0  214 0 0  216 0 0  218 0 0  220 0 0  222 0 0  224 0 0  226 0 0  228 0 0  230 0 0  232 0 0  234 0 0  236 0 0  238 0 0  240 0 0  242 0 0  244 0 0  246 0 0  248 0 0  250 0 0  252 0 0  254 0 0  256 0 0  258 0 0  260 0 0  262 0 0  264 0 0  266 0 0  268 0 0  270 0 0  272 0 0  274 0 0  276 0 0  278 0 0  280 0 0  282 0 0  284 0 0  286 0 0  288 0 0  290 0 0  292 0 0  294 0 0  296 0 0  298 0 0  300 0 0  0 2 0  2 2 0  4 2 0  6 2 0  8 2 0  10 2 0  12 2 0  14 2 0  16 2 0  18 2 0  20 2 0  22 2 0  24 2 0  26 2 0  28 2 0  30 2 0  32 2 0  34 2 0  36 2 0  38 2 0  40 2 0  42 2 0  44 2 0  46 2 0  48 2 0  50 2 0  52 2 0  54 2 0  56 2 0  58 2 0  60 2 0  62 2 0  64 2 0  66 2 0  68 2 0  70 2 0  72 2 0  74 2 0  76 2 0  78 2 0  80 2 0  82 2 0  84 2 0  86 2 0  88 2 0  90 2 0  92 2 0  94 2 0  96 2 0  98 2 0  100 2 0  102 2 0  104 2 0  106 2 0  108 2 0  110 2 0  112 2 0  114 2 0  116 2 0  118 2 0  120 2 0  122 2 0  124 2 0  126 2 0  128 2 0  130 2 0  132 2 0  134 2 0  136 2 0  138 2 0  140 2 0  142 2 0  144 2 0  146 2 0  148 2 0  150 2 0  152 2 0  154 2 0  156 2 0  158 2 0  160 2 0  162 2 0  164 2 0  166 2 0  168 2 0  170 2 0  172 2 0  174 2 0  176 2 0  178 2 0  180 2 0  182 2 0  184 2 0  186 2 0  188 2 0  190 2 0  192 2 0  194 2 0  196 2 0  198 2 0  200 2 0  202 2 0  204 2 0  206 2 0  208 2 0  210 2 0  212 2 0  214 2 0  216 2 0  218 2 0  220 2 0  222 2 0  224 2 0  226 2 0  228 2 0  230 2 0  232 2 0  234 2 0  236 2 0  238 2 0  240 2 0  242 2 0  244 2 0  246 2 0  248 2 0  250 2 0  252 2 0  254 2 0  256 2 0  258 2 0  260 2 0  262 2 0  264 2 0  266 2 0  268 2 0  270 2 0  272 2 0  274 2 0  276 2 0  278 2 0  280 2 0  282 2 0  284 2 0  286 2 0  288 2 0  290 2 0  292 2 0  294 2 0  296 2 0  298 2 0  300 2 0  0 4 0  2 4 0  4 4 0  6 4 0  8 4 0  10 4 0  12 4 0  14 4 0  16 4 0  18 4 0  20 4 0  22 4 0  24 4 0  26 4 0  28 4 0  30 4 0  32 4 0  34 4 0  36 4 0  38 4 0  40 4 0  42 4 0  44 4 0  46 4 0  48 4 0  50 4 0  52 4 0  54 4 0  56 4 0  58 4 0  60 4 0  62 4 0  64 4 0  66 4 0  68 4 0  70 4 0  72 4 0  74 4 0  76 4 0  78 4 0  80 4 0  82 4 0  84 4 0  86 4 0  88 4 0  90 4 0  92 4 0  94 4 0  96 4 0  98 4 0  100 4 0  102 4 0  104 4 0  106 4 0  108 4 0  110 4 0  112 4 0  114 4 0  116 4 0  118 4 0  120 4 0  122 4 0  124 4 0  126 4 0  128 4 0  130 4 0  132 4 0  134 4 0  136 4 0  138 4 0  140 4 0  142 4 0  144 4 0  146 4 0  148 4 0  150 4 0  152 4 0  154 4 0  156 4 0  158 4 0  160 4 0  162 4 0  164 4 0  166 4 0  168 4 0  170 4 0  172 4 0  174 4 0  176 4 0  178 4 0  180 4 0  182 4 0  184 4 0  186 4 0  188 4 0  190 4 0  192 4 0  194 4 0  196 4 0  198 4 0  200 4 0  202 4 0  204 4 0  206 4 0  208 4 0  210 4 0  212 4 0  214 4 0  216 4 0  218 4 0  220 4 0  222 4 0  224 4 0  226 4 0  228 4 0  230 4 0  232 4 0  234 4 0  236 4 0  238 4 0  240 4 0  242 4 0  244 4 0  246 4 0  248 4 0  250 4 0  252 4 0  254 4 0  256 4 0  258 4 0  260 4 0  262 4 0  264 4 0  266 4 0  268 4 0  270 4 0  272 4 0  274 4 0  276 4 0  278 4 0  280 4 0  282 4 0  284 4 0  286 4 0  288 4 0  290 4 0  292 4 0  294 4 0  296 4 0  298 4 0  300 4 0  0 6 0  2 6 0  4 6 0  6 6 0  8 6 0  10 6 0  12 6 0  14 6 0  16 6 0  18 6 0  20 6 0  22 6 0  24 6 0  26 6 0  28 6 0  30 6 0  32 6 0  34 6 0  36 6 0  38 6 0  40 6 0  42 6 0  44 6 0  46 6 0  48 6 0  50 6 0  52 6 0  54 6 0  56 6 0  58 6 0  60 6 0  62 6 0  64 6 0  66 6 0  68 6 0  70 6 0  72 6 0  74 6 0  76 6 0  78 6 0  80 6 0  82 6 0  84 6 0  86 6 0  88 6 0  90 6 0  92 6 0  94 6 0  96 6 0  98 6 0  100 6 0  102 6 0  104 6 0  106 6 0  108 6 0  110 6 0  112 6 0  114 6 0  116 6 0  118 6 0  120 6 0  122 6 0  124 6 0  126 6 0  128 6 0  130 6 0  132 6 0  134 6 0  136 6 0  138 6 0  140 6 0  142 6 0  144 6 0  146 6 0  148 6 0  150 6 0  152 6 0  154 6 0  156 6 0  158 6 0  160 6 0  162 6 0  164 6 0  166 6 0  168 6 0  170 6 0  172 6 0  174 6 0  176 6 0  178 6 0  180 6 0  182 6 0  184 6 0  186 6 0  188 6 0  190 6 0  192 6 0  194 6 0  196 6 0  198 6 0  200 6 0  202 6 0  204 6 0  206 6 0  208 6 0  210 6 0  212 6 0  214 6 0  216 6 0  218 6 0  220 6 0  222 6 0  224 6 0  226 6 0  228 6 0  230 6 0  232 6 0  234 6 0  236 6 0  238 6 0  240 6 0  242 6 0  244 6 0  246 6 0  248 6 0  250 6 0  252 6 0  254 6 0  256 6 0  258 6 0  260 6 0  262 6 0  264 6 0  266 6 0  268 6 0  270 6 0  272 6 0  274 6 0  276 6 0  278 6 0  280 6 0  282 6 0  284 6 0  286 6 0  288 6 0  290 6 0  292 6 0  294 6 0  296 6 0  298 6 0  300 6 0  0 8 0  2 8 0  4 8 0  6 8 0  8 8 0  10 8 0  12 8 0  14 8 0  16 8 0  18 8 0  20 8 0  22 8 0  24 8 0  26 8 0  28 8 0  30 8 0  32 8 0  34 8 0  36 8 0  38 8 0  40 8 0  42 8 0  44 8 0  46 8 0  48 8 0  50 8 0  52 8 0  54 8 0  56 8 0  58 8 0  60 8 0  62 8 0  64 8 0  66 8 0  68 8 0  70 8 0  72 8 0  74 8 0  76 8 0  78 8 0  80 8 0  82 8 0  84 8 0  86 8 0  88 8 0  90 8 0  92 8 0  94 8 0  96 8 0  98 8 0  100 8 0  102 8 0  104 8 0  106 8 0  108 8 0  110 8 0  112 8 0  114 8 0  116 8 0  118 8 0  120 8 0  122 8 0  124 8 0  126 8 0  128 8 0  130 8 0  132 8 0  134 8 0  136 8 0  138 8 0  140 8 0  142 8 0  144 8 0  146 8 0  148 8 0  150 8 0  152 8 0  154 8 0  156 8 0  158 8 0  160 8 0  162 8 0  164 8 0  166 8 0  168 8 0  170 8 0  172 8 0  174 8 0  176 8 0  178 8 0  180 8 0  182 8 0  184 8 0  186 8 0  188 8 0  190 8 0  192 8 0  194 8 0  196 8 0  198 8 0  200 8 0  202 8 0  204 8 0  206 8 0  208 8 0  210 8 0  212 8 0  214 8 0  216 8 0  218 8 0  220 8 0  222 8 0  224 8 0  226 8 0  228 8 0  230 8 0  232 8 0  234 8 0  236 8 0  238 8 0  240 8 0  242 8 0  244 8 0  246 8 0  248 8 0  250 8 0  252 8 0  254 8 0  256 8 0  258 8 0  260 8 0  262 8 0  264 8 0  266 8 0  268 8 0  270 8 0  272 8 0  274 8 0  276 8 0  278 8 0  280 8 0  282 8 0  284 8 0  286 8 0  288 8 0  290 8 0  292 8 0  294 8 0  296 8 0  298 8 0  300 8 0  0 10 0  2 10 0  4 10 0  6 10 0  8 10 0  10 10 0  12 10 0  14 10 0  16 10 0  18 10 0  20 10 0  22 10 0  24 10 0  26 10 0  28 10 0  30 10 0  32 10 0  34 10 0  36 10 0  38 10 0  40 10 0  42 10 0  44 10 0  46 10 0  48 10 0  50 10 0  52 10 0  54 10 0  56 10 0  58 10 0  60 10 0  62 10 0  64 10 0  66 10 0  68 10 0  70 10 0  72 10 0  74 10 0  76 10 0  78 10 0  80 10 0  82 10 0  84 10 0  86 10 0  88 10 0  90 10 0  92 10 0  94 10 0  96 10 0  98 10 0  100 10 0  102 10 0  104 10 0  106 10 0  108 10 0  110 10 0  112 10 0  114 10 0  116 10 0  118 10 0  120 10 0  122 10 0  124 10 0  126 10 0  128 10 0  130 10 0  132 10 0  134 10 0  136 10 0  138 10 0  140 10 0  142 10 0  144 10 0  146 10 0  148 10 0  150 10 0  152 10 0  154 10 0  156 10 0  158 10 0  160 10 0  162 10 0  164 10 0  166 10 0  168 10 0  170 10 0  172 10 0  174 10 0  176 10 0  178 10 0  180 10 0  182 10 0  184 10 0  186 10 0  188 10 0  190 10 0  192 10 0  194 10 0  196 10 0  198 10 0  200 10 0  202 10 0  204 10 0  206 10 0  208 10 0  210 10 0  212 10 0  214 10 0  216 10 0  218 10 0  220 10 0  222 10 0  224 10 0  226 10 0  228 10 0  230 10 0  232 10 0  234 10 0  236 10 0  238 10 0  240 10 0  242 10 0  244 10 0  246 10 0  248 10 0  250 10 0  252 10 0  254 10 0  256 10 0  258 10 0  260 10 0  262 10 0  264 10 0  266 10 0  268 10 0  270 10 0  272 10 0  274 10 0  276 10 0  278 10 0  280 10 0  282 10 0  284 10 0  286 10 0  288 10 0  290 10 0  292 10 0  294 10 0  296 10 0  298 10 0  300 10 0  1 1 0  3 1 0  5 1 0  7 1 0  9 1 0  11 1 0  13 1 0  15 1 0  17 1 0  19 1 0  21 1 0  23 1 0  25 1 0  27 1 0  29 1 0  31 1 0  33 1 0  35 1 0  37 1 0  39 1 0  41 1 0  43 1 0  45 1 0  47 1 0  49 1 0  51 1 0  53 1 0  55 1 0  57 1 0  59 1 0  61 1 0  63 1 0  65 1 0  67 1 0  69 1 0  71 1 0  73 1 0  75 1 0  77 1 0  79 1 0  81 1 0  83 1 0  85 1 0  87 1 0  89 1 0  91 1 0  93 1 0  95 1 0  97 1 0  99 1 0  101 1 0  103 1 0  105 1 0  107 1 0  109 1 0  111 1 0  113 1 0  115 1 0  117 1 0  119 1 0  121 1 0  123 1 0  125 1 0  127 1 0  129 1 0  131 1 0  133 1 0  135 1 0  137 1 0  139 1 0  141 1 0  143 1 0  145 1 0  147 1 0  149 1 0  151 1 0  153 1 0  155 1 0  157 1 0  159 1 0  161 1 0  163 1 0  165 1 0  167 1 0  169 1 0  171 1 0  173 1 0  175 1 0  177 1 0  179 1 0  181 1 0  183 1 0  185 1 0  187 1 0  189 1 0  191 1 0  193 1 0  195 1 0  197 1 0  199 1 0  201 1 0  203 1 0  205 1 0  207 1 0  209 1 0  211 1 0  213 1 0  215 1 0  217 1 0  219 1 0  221 1 0  223 1 0  225 1 0  227 1 0  229 1 0  231 1 0  233 1 0  235 1 0  237 1 0  239 1 0  241 1 0  243 1 0  245 1 0  247 1 0  249 1 0  251 1 0  253 1 0  255 1 0  257 1 0  259 1 0  261 1 0  263 1 0  265 1 0  267 1 0  269 1 0  271 1 0  273 1 0  275 1 0  277 1 0  279 1 0  281 1 0  283 1 0  285 1 0  287 1 0  289 1 0  291 1 0  293 1 0  295 1 0  297 1 0  299 1 0  1 3 0  3 3 0  5 3 0  7 3 0  9 3 0  11 3 0  13 3 0  15 3 0  17 3 0  19 3 0  21 3 0  23 3 0  25 3 0  27 3 0  29 3 0  31 3 0  33 3 0  35 3 0  37 3 0  39 3 0  41 3 0  43 3 0  45 3 0  47 3 0  49 3 0  51 3 0  53 3 0  55 3 0  57 3 0  59 3 0  61 3 0  63 3 0  65 3 0  67 3 0  69 3 0  71 3 0  73 3 0  75 3 0  77 3 0  79 3 0  81 3 0  83 3 0  85 3 0  87 3 0  89 3 0  91 3 0  93 3 0  95 3 0  97 3 0  99 3 0  101 3 0  103 3 0  105 3 0  107 3 0  109 3 0  111 3 0  113 3 0  115 3 0  117 3 0  119 3 0  121 3 0  123 3 0  125 3 0
[...]
<PointData  Vectors="flow"> 
<DataArray  type="Float64"  Name="flow"  NumberOfComponents="3" format="ascii">-4.5927801548287914e+02 -1.0203292176816126e+00 0.0000000000000000e+00  -4.5519703160205313e+02 -1.0201804627053044e+00 0.0000000000000000e+00  -4.4907717234576387e+02 -1.0197343276694004e+00 0.0000000000000000e+00  -4.4296088107325636e+02 -1.0189912016140614e+00 0.0000000000000000e+00  -4.3684993788637195e+02 -1.0179517325703888e+00 0.0000000000000000e+00  -4.3074611822561906e+02 -1.0166168261900370e+00 0.0000000000000000e+00  -4.2465119132692740e+02 -1.0149876447620627e+00 0.0000000000000000e+00  -4.1856691868765506e+02 -1.0130656052977725e+00 0.0000000000000000e+00  -4.1249505254409314e+02 -1.0108523775000005e+00 0.0000000000000000e+00  -4.0643733436264500e+02 -1.0083498813232832e+00 0.0000000000000000e+00  -4.0039549334676508e+02 -1.0055602840575335e+00 0.0000000000000000e+00  -3.9437124496180661e+02 -1.0024859973017870e+00 0.0000000000000000e+00  -3.8836628948023076e+02 -9.9912967335795044e-01 0.0000000000000000e+00  -3.8238231054892270e+02 -9.9549420126085653e-01 0.0000000000000000e+00  -3.7642097378078898e+02 -9.9158270269271820e-01 0.0000000000000000e+00  -3.7048392537254733e+02 -9.8739852737996903e-01 0.0000000000000000e+00  -3.6457279075073319e+02 -9.8294524838062336e-01 0.0000000000000000e+00  -3.5868917324795450e+02 -9.7822665668751063e-01 0.0000000000000000e+00  -3.5283465281062024e+02 -9.7324675587551701e-01 0.0000000000000000e+00  -3.4701078474070891e+02 -9.6800975649533028e-01 0.0000000000000000e+00  -3.4121909847255455e+02 -9.6252006972675264e-01 0.0000000000000000e+00  -3.3546109638668884e+02 -9.5678230145305421e-01 0.0000000000000000e+00  -3.2973825266202158e+02 -9.5080124550169831e-01 0.0000000000000000e+00  -3.2405201216789027e+02 -9.4458187702359253e-01 0.0000000000000000e+00  -3.1840378939763394e+02 -9.3812934530195924e-01 0.0000000000000000e+00  -3.1279496744422687e+02 -9.3144896686407919e-01 0.0000000000000000e+00  -3.0722689702014719e+02 -9.2454621775326795e-01 0.0000000000000000e+00  -3.0170089552183549e+02 -9.1742672628703215e-01 0.0000000000000000e+00  -2.9621824614009898e+02 -9.1009626501322949e-01 0.0000000000000000e+00  -2.9078019701749668e+02 -9.0256074307771672e-01 0.0000000000000000e+00  -2.8538796045312944e+02 -8.9482619813231512e-01 0.0000000000000000e+00  -2.8004271215619713e+02 -8.8689878812324974e-01 0.0000000000000000e+00  -2.7474559054845020e+02 -8.7878478317797826e-01 0.0000000000000000e+00  -2.6949769611643802e+02 -8.7049055715622203e-01 0.0000000000000000e+00  -2.6430009081384355e+02 -8.6202257936035742e-01 0.0000000000000000e+00  -2.5915379751447580e+02 -8.5338740606707542e-01 0.0000000000000000e+00  -2.5405979951600332e+02 -8.4459167195535279e-01 0.0000000000000000e+00  -2.4901904009485139e+02 -8.3564208165197729e-01 0.0000000000000000e+00  -2.4403242211219145e+02 -8.2654540116778907e-01 0.0000000000000000e+00  -2.3910080767115835e+02 -8.1730844941103742e-01 0.0000000000000000e+00  -2.3422501782524637e+02 -8.0793808959764923e-01 0.0000000000000000e+00  -2.2940583233751789e+02 -7.9844122088007508e-01 0.0000000000000000e+00  -2.2464398949079225e+02 -7.8882476980161842e-01 0.0000000000000000e+00  -2.1994018594805993e+02 -7.7909568201052581e-01 0.0000000000000000e+00  -2.1529507666295245e+02 -7.6926091392019347e-01 0.0000000000000000e+00  -2.1070927483981444e+02 -7.5932742447824420e-01 0.0000000000000000e+00  -2.0618335194262974e+02 -7.4930216715284970e-01 0.0000000000000000e+00  -2.0171783775235829e+02 -7.3919208180630003e-01 0.0000000000000000e+00  -1.9731322047188701e+02 -7.2900408692242136e-01 0.0000000000000000e+00  -1.9296994687769916e+02 -7.1874507181916658e-01 0.0000000000000000e+00  -1.8868842251773589e+02 -7.0842188907441983e-01 0.0000000000000000e+00  -1.8446901195415938e+02 -6.9804134708512366e-01 0.0000000000000000e+00  -1.8031203905030156e+02 -6.8761020281100305e-01 0.0000000000000000e+00  -1.7621778730069036e+02 -6.7713515464648655e-01 0.0000000000000000e+00  -1.7218650020306217e+02 -6.6662283557882596e-01 0.0000000000000000e+00  -1.6821838167120836e+02 -6.5607980644328301e-01 0.0000000000000000e+00  -1.6431359648751106e+02 -6.4551254936224445e-01 0.0000000000000000e+00  -1.6047227079398814e+02 -6.3492746153907753e-01 0.0000000000000000e+00  -1.5669449262037125e+02 -6.2433084909327285e-01 0.0000000000000000e+00  -1.5298031244822215e+02 -6.1372892120752898e-01 0.0000000000000000e+00  -1.4932974380948070e+02 -6.0312778455687799e-01 0.0000000000000000e+00  -1.4574276391818219e+02 -5.9253343775464717e-01 0.0000000000000000e+00  -1.4221931433400232e+02 -5.8195176629707934e-01 0.0000000000000000e+00  -1.3875930165608338e+02 -5.7138853757647756e-01 0.0000000000000000e+00  -1.3536259824581703e+02 -5.6084939621951069e-01 0.0000000000000000e+00  -1.3202904297703296e+02 -5.5033985955331177e-01 0.0000000000000000e+00  -1.2875844201223782e+02 -5.3986531348822142e-01 0.0000000000000000e+00  -1.2555056960328177e+02 -5.2943100851147007e-01 0.0000000000000000e+00  -1.2240516891512453e+02 -5.1904205597249709e-01 0.0000000000000000e+00  -1.1932195287107334e+02 -5.0870342463908924e-01 0.0000000000000000e+00  -1.1630060501808342e+02 -4.9841993744915691e-01 0.0000000000000000e+00  -1.1334078041065203e+02 -4.8819626860918408e-01 0.0000000000000000e+00  -1.1044210651177542e+02 -4.7803694075049241e-01 0.0000000000000000e+00  -1.0760418410950626e+02 -4.6794632254890867e-01 0.0000000000000000e+00  -1.0482658824768302e+02 -4.5792862647478666e-01 0.0000000000000000e+00  -1.0210886916939569e+02 -4.4798790674969258e-01 0.0000000000000000e+00  -9.9450553271716899e+01 -4.3812805759480233e-01 0.0000000000000000e+00  -9.6851144070319265e+01 -4.2835281173493417e-01 0.0000000000000000e+00  -9.4310123172621999e+01 -4.1866573905857662e-01 0.0000000000000000e+00  -9.1826951258041390e+01 -4.0907024555546517e-01 0.0000000000000000e+00  -8.9401069064058262e+01 -3.9956957244003044e-01 0.0000000000000000e+00  -8.7031898376824017e+01 -3.9016679554343653e-01 0.0000000000000000e+00  -8.4718843024918115e+01 -3.8086482483364759e-01 0.0000000000000000e+00  -8.2461289875166187e+01 -3.7166640426528075e-01 0.0000000000000000e+00  -8.0258609829182262e+01 -3.6257411164228692e-01 0.0000000000000000e+00  -7.8110158819472915e+01 -3.5359035886612833e-01 0.0000000000000000e+00  -7.6015278804068629e+01 -3.4471739226315723e-01 0.0000000000000000e+00  -7.3973298758433259e+01 -3.3595729310939570e-01 0.0000000000000000e+00  -7.1983535663672512e+01 -3.2731197835012821e-01 0.0000000000000000e+00  -7.0045295489989101e+01 -3.1878320146476036e-01 0.0000000000000000e+00  -6.8157874174397918e+01 -3.1037255351421389e-01 0.0000000000000000e+00  -6.6320558591745254e+01 -3.0208146432272387e-01 0.0000000000000000e+00  -6.4532627518126844e+01 -2.9391120383260649e-01 0.0000000000000000e+00  -6.2793352585836047e+01 -2.8586288356982192e-01 0.0000000000000000e+00  -6.1101999229030007e+01 -2.7793745826960592e-01 0.0000000000000000e+00  -5.9457827619287613e+01 -2.7013572761667576e-01 0.0000000000000000e+00  -5.7860093590341904e+01 -2.6245833812700581e-01 0.0000000000000000e+00  -5.6308049551312465e+01 -2.5490578509413431e-01 0.0000000000000000e+00  -5.4800945387703081e+01 -2.4747841470177048e-01 0.0000000000000000e+00  -5.3338029349579998e+01 -2.4017642618730634e-01 0.0000000000000000e+00  -5.1918548926366988e+01 -2.3299987415963380e-01 0.0000000000000000e+00  -5.0541751707690445e+01 -2.2594867093486881e-01 0.0000000000000000e+00  -4.9206886229744029e+01 -2.1902258899142718e-01 0.0000000000000000e+00  -4.7913202806754349e+01 -2.1222126349420128e-01 0.0000000000000000e+00  -4.6659954347092409e+01 -2.0554419490127246e-01 0.0000000000000000e+00  -4.5446397153638749e+01 -1.9899075159784588e-01 0.0000000000000000e+00  -4.4271791708047886e+01 -1.9256017261571223e-01 0.0000000000000000e+00  -4.3135403438587431e+01 -1.8625157040441542e-01 0.0000000000000000e+00  -4.2036503471279303e+01 -1.8006393360558864e-01 0.0000000000000000e+00  -4.0974369364068053e+01 -1.7399612991938210e-01 0.0000000000000000e+00  -3.9948285823832379e+01 -1.6804690896113705e-01 0.0000000000000000e+00  -3.8957545406059396e+01 -1.6221490512738354e-01 0.0000000000000000e+00  -3.8001449197072390e+01 -1.5649864048198195e-01 0.0000000000000000e+00  -3.7079307478764349e+01 -1.5089652757689423e-01 0.0000000000000000e+00  -3.6190440375923473e+01 -1.4540687217569095e-01 0.0000000000000000e+00  -3.5334178486448295e+01 -1.4002787579097778e-01 0.0000000000000000e+00  -3.4509863495068586e+01 -1.3475763774436805e-01 0.0000000000000000e+00  -3.3716848771832055e+01 -1.2959415652357933e-01 0.0000000000000000e+00  -3.2954499957881886e+01 -1.2453532952469293e-01 0.0000000000000000e+00  -3.2222195543231564e+01 -1.1957894998685875e-01 0.0000000000000000e+00  -3.1519327445528504e+01 -1.1472269842014203e-01 0.0000000000000000e+00  -3.0845301606887592e+01 -1.0996412373521272e-01 0.0000000000000000e+00  -3.0199538641016517e+01 -1.0530060474030552e-01 0.0000000000000000e+00  -2.9581474591751373e+01 -1.0072927460173584e-01 0.0000000000000000e+00  -2.8990561918721568e+01 -9.6246875005060600e-02 0.0000000000000000e+00  -2.8426270929265769e+01 -9.1849477274448990e-02 0.0000000000000000e+00  -2.7888092071564770e+01 -8.7531951394054841e-02 0.0000000000000000e+00  -2.7375539875189833e+01 -8.3286957538481296e-02 0.0000000000000000e+00  -2.6888160028103304e+01 -7.9103033052016061e-02 0.0000000000000000e+00  -2.6425542410960691e+01 -7.4960965885262604e-02 0.0000000000000000e+00  -2.5987345432444052e+01 -7.0826921888344663e-02 0.0000000000000000e+00  -2.5573341789198309e+01 -6.6639422280421190e-02 0.0000000000000000e+00  -2.5183504831605273e+01 -6.2284669200047792e-02 0.0000000000000000e+00  -2.4818171883912527e+01 -5.7549790404129872e-02 0.0000000000000000e+00  -2.4478353434253606e+01 -5.2034224085953831e-02 0.0000000000000000e+00  -2.4166318921125157e+01 -4.4981684274010031e-02 0.0000000000000000e+00  -2.3886707732429009e+01 -3.4961219395231571e-02 0.0000000000000000e+00  -2.3648638463191681e+01 -1.9260542373011939e-02 0.0000000000000000e+00  -2.3469730179259173e+01 7.2722626706809498e-03 0.0000000000000000e+00  -2.3383779598352383e+01 5.4461269104382752e-02 0.0000000000000000e+00  -2.3455760304229546e+01 1.4115629207240799e-01 0.0000000000000000e+00  -2.3810712362622596e+01 3.0411218622525593e-01 0.0000000000000000e+00  -2.4697438650640869e+01 6.1621158692854683e-01 0.0000000000000000e+00  -2.6603899070668096e+01 1.2330572942518483e+00 0.0000000000000000e+00  -3.0667320566718626e+01 2.4823686382329972e+00 0.0000000000000000e+00  -3.9050362708598641e+01 5.3186831151597840e+00 0.0000000000000000e+00  -5.9347764550233642e+01 1.1348135869522933e+01 0.0000000000000000e+00  -1.0183360610701976e+02 3.0458617182952356e+01 0.0000000000000000e+00  -1.8395015480869287e+02 4.6702810674635387e+01 0.0000000000000000e+00  -3.0831071482011725e+02 8.3457730762702710e+01 0.0000000000000000e+00  -3.7834174360305985e+02 7.4685436170470751e+01 0.0000000000000000e+00  -4.5927801548284208e+02 9.2977112178325159e-06 0.0000000000000000e+00  -4.5519703160206348e+02 9.2936566538632636e-06 0.0000000000000000e+00  -4.4907717234579127e+02 9.2814741948103456e-06 0.0000000000000000e+00  -4.4296088107324073e+02 9.2612351202440157e-06 0.0000000000000000e+00  -4.3684993788636507e+02 9.2329232811739952e-06 0.0000000000000000e+00  -4.3074611822563395e+02 9.1966015914896788e-06 0.0000000000000000e+00  -4.2465119132692990e+02 9.1523106978787693e-06 0.0000000000000000e+00  -4.1856691868763733e+02 9.1001330239030696e-06 0.0000000000000000e+00  -4.1249505254409513e+02 9.0401257084349588e-06 0.0000000000000000e+00  -4.0643733436266064e+02 8.9724022041291071e-06 0.0000000000000000e+00  -4.0039549334676229e+02 8.8970223454144064e-06 0.0000000000000000e+00  -3.9437124496179575e+02 8.8141288143482387e-06 0.0000000000000000e+00  -3.8836628948023099e+02 8.7238436568625381e-06 0.0000000000000000e+00  -3.8238231054893635e+02 8.6262923003768470e-06 0.0000000000000000e+00  -3.7642097378079410e+02 8.5215797588781499e-06 0.0000000000000000e+00  -3.7048392537253233e+02 8.4099243063122735e-06 0.0000000000000000e+00  -3.6457279075074916e+02 8.2914400892757744e-06 0.0000000000000000e+00  -3.5868917324794114e+02 8.1663121768142580e-06 0.0000000000000000e+00  -3.5283465281061370e+02 8.0347276795119396e-06 0.0000000000000000e+00  -3.4701078474071261e+02 7.8968665737412592e-06 0.0000000000000000e+00  -3.4121909847255642e+02 7.7529173567324114e-06 0.0000000000000000e+00  -3.3546109638669401e+02 7.6030948272741508e-06 0.0000000000000000e+00  -3.2973825266201118e+02 7.4476187307440079e-06 0.0000000000000000e+00  -3.2405201216789482e+02 7.2866910131062251e-06 0.0000000000000000e+00  -3.1840378939763019e+02 7.1205288979190434e-06 0.0000000000000000e+00  -3.1279496744422994e+02 6.9493878647661954e-06 0.0000000000000000e+00  -3.0722689702014537e+02 6.7734889131815466e-06 0.0000000000000000e+00  -3.0170089552184260e+02 6.5930728534356910e-06 0.0000000000000000e+00  -2.9621824614010097e+02 6.4083963067110421e-06 0.0000000000000000e+00  -2.9078019701749673e+02 6.2197098821231213e-06 0.0000000000000000e+00  -2.8538796045312341e+02 6.0272527120651015e-06 0.0000000000000000e+00  -2.8004271215619542e+02 5.8313021347093849e-06 0.0000000000000000e+00  -2.7474559054845179e+02 5.6321053445861846e-06 0.0000000000000000e+00  -2.6949769611643381e+02 5.4299257706656175e-06 0.0000000000000000e+00  -2.6430009081384986e+02 5.2250144210916105e-06 0.0000000000000000e+00  -2.5915379751447210e+02 5.0176690476489504e-06 0.0000000000000000e+00  -2.5405979951600520e+02 4.8081302195091170e-06 0.0000000000000000e+00  -2.4901904009485219e+02 4.5966712612368577e-06 0.0000000000000000e+00  -2.4403242211218961e+02 4.3835702029209179e-06 0.0000000000000000e+00  -2.3910080767116364e+02 4.1690730913668215e-06 0.0000000000000000e+00  -2.3422501782524211e+02 3.9534594660859811e-06 0.0000000000000000e+00  -2.2940583233751630e+02 3.7369857167536165e-06 0.0000000000000000e+00  -2.2464398949079344e+02 3.5199238333582254e-06 0.0000000000000000e+00  -2.1994018594806477e+02 3.3025177655832941e-06 0.0000000000000000e+00  -2.1529507666294811e+02 3.0850321208032483e-06 0.0000000000000000e+00  -2.1070927483981498e+02 2.8677215476876247e-06 0.0000000000000000e+00  -2.0618335194262704e+02 2.6508351618140284e-06 0.0000000000000000e+00  -2.0171783775236190e+02 2.4346159756392718e-06 0.0000000000000000e+00  -1.9731322047188746e+02 2.2193122949295200e-06 0.0000000000000000e+00  -1.9296994687770174e+02 2.0051574531115877e-06 0.0000000000000000e+00  -1.8868842251773472e+02 1.7923787059356677e-06 0.0000000000000000e+00  -1.8446901195415703e+02 1.5812120527034845e-06 0.0000000000000000e+00  -1.8031203905030407e+02 1.3718728461609233e-06 0.0000000000000000e+00  -1.7621778730068704e+02 1.1645783763595523e-06 0.0000000000000000e+00  -1.7218650020306475e+02 9.5953581095588681e-07 0.0000000000000000e+00  -1.6821838167120703e+02 7.5696060061338487e-07 0.0000000000000000e+00  -1.6431359648751268e+02 5.5703485687361098e-07 0.0000000000000000e+00  -1.6047227079398803e+02 3.5995804710566324e-07 0.0000000000000000e+00  -1.5669449262036900e+02 1.6590745567260471e-07 0.0000000000000000e+00  -1.5298031244822454e+02 -2.4936298685193249e-08 0.0000000000000000e+00  -1.4932974380948289e+02 -2.1240470132339964e-07 0.0000000000000000e+00  -1.4574276391818063e+02 -3.9633138266091497e-07 0.0000000000000000e+00  -1.4221931433400229e+02 -5.7657550134678935e-07 0.0000000000000000e+00  -1.3875930165608401e+02 -7.5298015224452097e-07 0.0000000000000000e+00  -1.3536259824581606e+02 -9.2540219290390589e-07 0.0000000000000000e+00  -1.3202904297703080e+02 -1.0937235478237033e-06 0.0000000000000000e+00  -1.2875844201223549e+02 -1.2578043023360639e-06 0.0000000000000000e+00  -1.2555056960328506e+02 -1.4175411309299997e-06 0.0000000000000000e+00  -1.2240516891512829e+02 -1.5728207580307379e-06 0.0000000000000000e+00  -1.1932195287106909e+02 -1.7235460821260489e-06 0.0000000000000000e+00  -1.1630060501808101e+02 -1.8696187652631618e-06 0.0000000000000000e+00  -1.1334078041065686e+02 -2.0109557855851862e-06 0.0000000000000000e+00  -1.1044210651177524e+02 -2.1474811352959199e-06 0.0000000000000000e+00  -1.0760418410950238e+02 -2.2791252808032199e-06 0.0000000000000000e+00  -1.0482658824768573e+02 -2.4058242890671716e-06 0.0000000000000000e+00  -1.0210886916939751e+02 -2.5275203025258369e-06 0.0000000000000000e+00  -9.9450553271715577e+01 -2.6441698577334537e-06 0.0000000000000000e+00  -9.6851144070319677e+01 -2.7557323771204428e-06 0.0000000000000000e+00  -9.4310123172622539e+01 -2.8621712027255682e-06 0.0000000000000000e+00  -9.1826951258041305e+01 -2.9634609216847462e-06 0.0000000000000000e+00  -8.9401069064060550e+01 -3.0595817367564963e-06 0.0000000000000000e+00  -8.7031898376819271e+01 -3.1505172472424455e-06 0.0000000000000000e+00  -8.4718843024915259e+01 -3.2362625408606366e-06 0.0000000000000000e+00  -8.2461289875171644e+01 -3.3168209756807918e-06 0.0000000000000000e+00  -8.0258609829181680e+01 -3.3921920301339392e-06 0.0000000000000000e+00  -7.8110158819472787e+01 -3.4623890975969908e-06 0.0000000000000000e+00  -7.6015278804068430e+01 -3.5274273865918828e-06 0.0000000000000000e+00  -7.3973298758434268e+01 -3.5873324344175505e-06 0.0000000000000000e+00  -7.1983535663672200e+01 -3.6421230021858937e-06 0.0000000000000000e+00  -7.0045295489989954e+01 -3.6918431331948710e-06 0.0000000000000000e+00  -6.8157874174398017e+01 -3.7365235473533319e-06 0.0000000000000000e+00  -6.6320558591743691e+01 -3.7762058742816366e-06 0.0000000000000000e+00  -6.4532627518126461e+01 -3.8109367758059365e-06 0.0000000000000000e+00  -6.2793352585837873e+01 -3.8407694391508798e-06 0.0000000000000000e+00  -6.1101999229030305e+01 -3.8657580203473183e-06 0.0000000000000000e+00  -5.9457827619285339e+01 -3.8859577708926123e-06 0.0000000000000000e+00  -5.7860093590341961e+01 -3.9014302505412886e-06 0.0000000000000000e+00  -5.6308049551315030e+01 -3.9122432483353274e-06 0.0000000000000000e+00  -5.4800945387703422e+01 -3.9184675198883557e-06 0.0000000000000000e+00  -5.3338029349577049e+01 -3.9201683915420507e-06 0.0000000000000000e+00  -5.1918548926366313e+01 -3.9174203005553465e-06 0.0000000000000000e+00  -5.0541751707689968e+01 -3.9103037869827476e-06 0.0000000000000000e+00  -4.9206886229740405e+01 -3.8988936065874436e-06 0.0000000000000000e+00  -4.7913202806746654e+01 -3.8832691452822245e-06 0.0000000000000000e+00  -4.6659954347080863e+01 -3.8635106888684368e-06 0.0000000000000000e+00  -4.5446397153614200e+01 -3.8396972459356105e-06 0.0000000000000000e+00  -4.4271791708004365e+01 -3.8119003871846749e-06 0.0000000000000000e+00  -4.3135403438507986e+01 -3.7801903220519198e-06 0.0000000000000000e+00  -4.2036503471126593e+01 -3.7446067783193576e-06 0.0000000000000000e+00  -4.0974369363776745e+01 -3.7051640590844190e-06 0.0000000000000000e+00  -3.9948285823280926e+01 -3.6617945561944957e-06 0.0000000000000000e+00  -3.8957545405015345e+01 -3.6142982451208087e-06 0.0000000000000000e+00  -3.8001449195095134e+01 -3.5622127184703825e-06 0.0000000000000000e+00  -3.7079307475015696e+01 -3.5045798755901518e-06 0.0000000000000000e+00  -3.6190440368825307e+01 -3.4394975935706269e-06 0.0000000000000000e+00  -3.5334178473002723e+01 -3.3632904884789352e-06 0.0000000000000000e+00  -3.4509863469596034e+01 -3.2689022088002968e-06 0.0000000000000000e+00  -3.3716848723579524e+01 -3.1428839976099610e-06 0.0000000000000000e+00  -3.2954499866473704e+01 -2.9596742659370013e-06 0.0000000000000000e+00  -3.2222195370071610e+01 -2.6707700327409836e-06 0.0000000000000000e+00  -3.1519327117504083e+01 -2.1842037549239542e-06 0.0000000000000000e+00  -3.0845300985499936e+01 -1.3256748763382922e-06 0.0000000000000000e+00  -3.0199537463895883e+01 2.3508334681019096e-07 0.0000000000000000e+00  -2.9581472361883989e+01 3.1237997852618395e-06 0.0000000000000000e+00  -2.8990557694595410e+01 8.5258898186020872e-06 0.0000000000000000e+00  -2.8426262927335518e+01 1.8687021204055150e-05 0.0000000000000000e+00  -2.7888076913188247e+01 