<?xml version="1.0"?>
<VTKFile type="UnstructuredGrid"  version="0.1"  >
<UnstructuredGrid>
<Piece  NumberOfPoints="1656" NumberOfCells="3000">
<Points>
<DataArray  type="Float64"  NumberOfComponents="3"  format="ascii">0 0 0  2 0 0  4 0 0  6 0 0  8 0 0  10 0 0  12 0 0  14 0 0  16 0 0  18 0 0  20 0 0  22 0 0  24 0 0  26 0 0  28 0 0  30 0 0  32 0 0  34 0 0  36 0 0  38 0 0  40 0 0  42 0 0  44 0 0  46 0 0  48 0 0  50 0 0  52 0 0  54 0 0  56 0 0  58 0 0  60 0 0  62 0 0  64 0 0  66 0 0  68 0 0  70 0 0  72 0 0  74 0 0  76 0 0  78 0 0  80 0 0  82 0 0  84 0 0  86 0 0  88 0 0  90 0 0  92 0 0  94 0 0  96 0 0  98 0 0  100 0 0  102 0 0  104 0 0  106 0 0  108 0 0  110 0 0  112 0 0  114 0 0  116 0 0  118 0 0  120 0 0  122 0 0  124 0 0  126 0 0  128 0 0  130 0 0  132 0 0  134 0 0  136 0 0  138 0 0  140 0 0  142 0 0  144 0 0  146 0 0  148 0 0  150 0 0  152 0 0  154 0 0  156 0 0  158 0 0  160 0 0  162 0 0  164 0 0  166 0 0  168 0 0  170 0 0  172 0 0  174 0 0  176 0 0  178 0 0  180 0 0  182 0 0  184 0 0  186 0 0  188 0 0  190 0 0  192 0 0  194 0 0  196 0 0  198 0 0  200 0 0  202 0 0  204 0 0  206 0 0  208 0 0  210 0 0  212 0 0  214 0 0  216 0 0  218 0 0  220 0 0  222 0 0  224 0 0  226 0 0  228 0 0  230 0 0  232 0 0  234 0 0  236 0 0  238 0 0  240 0 0  242 0 0  244 0 0  246 0 0  248 0 0  250 0 0  252 0 0  254 0 0  256 0 0  258 0 0  260 0 0  262 0 0  264 0 0  266 0 0  268 0 0  270 0 0  272 0 0  274 0 0  276 0 0  278 0 0  280 0 0  282 0 0  284 0 0  286 0 0  288 0 0  290 0 0  292 0 0  294 0 0  296 0 0  298 0 0  300 0 0  0 2 0  2 2 0  4 2 0  6 2 0  8 2 0  10 2 0  12 2 0  14 2 0  16 2 0  18 2 0  20 2 0  22 2 0  24 2 0  26 2 0  28 2 0  30 2 0  32 2 0  34 2 0  36 2 0  38 2 0  40 2 0  42 2 0  44 2 0  46 2 0  48 2 0  50 2 0  52 2 0  54 2 0  56 2 0  58 2 0  60 2 0  62 2 0  64 2 0  66 2 0  68 2 0  70 2 0  72 2 0  74 2 0  76 2 0  78 2 0  80 2 0  82 2 0  84 2 0  86 2 0  88 2 0  90 2 0  92 2 0  94 2 0  96 2 0  98 2 0  100 2 0  102 2 0  104 2 0  106 2 0  108 2 0  110 2 0  112 2 0  114 2 0  116 2 0  118 2 0  120 2 0  122 2 0  124 2 0  126 2 0  128 2 0  130 2 0  132 2 0  134 2 0  136 2 0  138 2 0  140 2 0  142 2 0  144 2 0  146 2 0  148 2 0  150 2 0  152 2 0  154 2 0  156 2 0  158 2 0  160 2 0  162 2 0  164 2 0  166 2 0  168 2 0  170 2 0  172 2 0  174 2 0  176 2 0  178 2 0  180 2 0  182 2 0  184 2 0  186 2 0  188 2 0  190 2 0  192 2 0  194 2 0  196 2 0  198 2 0  200 2 0  202 2 0  204 2 0  206 2 0  208 2 0  210 2 0  212 2 0  214 2 0  216 2 0  218 2 0  220 2 0  222 2 0  224 2 0  226 2 0  228 2 0  230 2 0  232 2 0  234 2 0  236 2 0  238 2 0  240 2 0  242 2 0  244 2 0  246 2 0  248 2 0  250 2 0  252 2 0  254 2 0  256 2 0  258 2 0  260 2 0  262 2 0  264 2 0  266 2 0  268 2 0  270 2 0  272 2 0  274 2 0  276 2 0  278 2 0  280 2 0  282 2 0  284 2 0  286 2 0  288 2 0  290 2 0  292 2 0  294 2 0  296 2 0  298 2 0  300 2 0  0 4 0  2 4 0  4 4 0  6 4 0  8 4 0  10 4 0  12 4 0  14 4 0  16 4 0  18 4 0  20 4 0  22 4 0  24 4 0  26 4 0  28 4 0  30 4 0  32 4 0  34 4 0  36 4 0  38 4 0  40 4 0  42 4 0  44 4 0  46 4 0  48 4 0  50 4 0  52 4 0  54 4 0  56 4 0  58 4 0  60 4 0  62 4 0  64 4 0  66 4 0  68 4 0  70 4 0  72 4 0  74 4 0  76 4 0  78 4 0  80 4 0  82 4 0  84 4 0  86 4 0  88 4 0  90 4 0  92 4 0  94 4 0  96 4 0  98 4 0  100 4 0  102 4 0  104 4 0  106 4 0  108 4 0  110 4 0  112 4 0  114 4 0  116 4 0  118 4 0  120 4 0  122 4 0  124 4 0  126 4 0  128 4 0  130 4 0  132 4 0  134 4 0  136 4 0  138 4 0  140 4 0  142 4 0  144 4 0  146 4 0  148 4 0  150 4 0  152 4 0  154 4 0  156 4 0  158 4 0  160 4 0  162 4 0  164 4 0  166 4 0  168 4 0  170 4 0  172 4 0  174 4 0  176 4 0  178 4 0  180 4 0  182 4 0  184 4 0  186 4 0  188 4 0  190 4 0  192 4 0  194 4 0  196 4 0  198 4 0  200 4 0  202 4 0  204 4 0  206 4 0  208 4 0  210 4 0  212 4 0  214 4 0  216 4 0  218 4 0  220 4 0  222 4 0  224 4 0  226 4 0  228 4 0  230 4 0  232 4 0  234 4 0  236 4 0  238 4 0  240 4 0  242 4 0  244 4 0  246 4 0  248 4 0  250 4 0  252 4 0  254 4 0  256 4 0  258 4 0  260 4 0  262 4 0  264 4 0  266 4 0  268 4 0  270 4 0  272 4 0  274 4 0  276 4 0  278 4 0  280 4 0  282 4 0  284 4 0  286 4 0  288 4 0  290 4 0  292 4 0  294 4 0  296 4 0  298 4 0  300 4 0  0 6 0  2 6 0  4 6 0  6 6 0  8 6 0  10 6 0  12 6 0  14 6 0  16 6 0  18 6 0  20 6 0  22 6 0  24 6 0  26 6 0  28 6 0  30 6 0  32 6 0  34 6 0  36 6 0  38 6 0  40 6 0  42 6 0  44 6 0  46 6 0  48 6 0  50 6 0  52 6 0  54 6 0  56 6 0  58 6 0  60 6 0  62 6 0  64 6 0  66 6 0  68 6 0  70 6 0  72 6 0  74 6 0  76 6 0  78 6 0  80 6 0  82 6 0  84 6 0  86 6 0  88 6 0  90 6 0  92 6 0  94 6 0  96 6 0  98 6 0  100 6 0  102 6 0  104 6 0  106 6 0  108 6 0  110 6 0  112 6 0  114 6 0  116 6 0  118 6 0  120 6 0  122 6 0  124 6 0  126 6 0  128 6 0  130 6 0  132 6 0  134 6 0  136 6 0  138 6 0  140 6 0  142 6 0  144 6 0  146 6 0  148 6 0  150 6 0  152 6 0  154 6 0  156 6 0  158 6 0  160 6 0  162 6 0  164 6 0  166 6 0  168 6 0  170 6 0  172 6 0  174 6 0  176 6 0  178 6 0  180 6 0  182 6 0  184 6 0  186 6 0  188 6 0  190 6 0  192 6 0  194 6 0  196 6 0  198 6 0  200 6 0  202 6 0  204 6 0  206 6 0  208 6 0  210 6 0  212 6 0  214 6 0  216 6 0  218 6 0  220 6 0  222 6 0  224 6 0  226 6 0  228 6 0  230 6 0  232 6 0  234 6 0  236 6 0  238 6 0  240 6 0  242 6 0  244 6 0  246 6 0  248 6 0  250 6 0  252 6 0  254 6 0  256 6 0  258 6 0  260 6 0  262 6 0  264 6 0  266 6 0  268 6 0  270 6 0  272 6 0  274 6 0  276 6 0  278 6 0  280 6 0  282 6 0  284 6 0  286 6 0  288 6 0  290 6 0  292 6 0  294 6 0  296 6 0  298 6 0  300 6 0  0 8 0  2 8 0  4 8 0  6 8 0  8 8 0  10 8 0  12 8 0  14 8 0  16 8 0  18 8 0  20 8 0  22 8 0  24 8 0  26 8 0  28 8 0  30 8 0  32 8 0  34 8 0  36 8 0  38 8 0  40 8 0  42 8 0  44 8 0  46 8 0  48 8 0  50 8 0  52 8 0  54 8 0  56 8 0  58 8 0  60 8 0  62 8 0  64 8 0  66 8 0  68 8 0  70 8 0  72 8 0  74 8 0  76 8 0  78 8 0  80 8 0  82 8 0  84 8 0  86 8 0  88 8 0  90 8 0  92 8 0  94 8 0  96 8 0  98 8 0  100 8 0  102 8 0  104 8 0  106 8 0  108 8 0  110 8 0  112 8 0  114 8 0  116 8 0  118 8 0  120 8 0  122 8 0  124 8 0  126 8 0  128 8 0  130 8 0  132 8 0  134 8 0  136 8 0  138 8 0  140 8 0  142 8 0  144 8 0  146 8 0  148 8 0  150 8 0  152 8 0  154 8 0  156 8 0  158 8 0  160 8 0  162 8 0  164 8 0  166 8 0  168 8 0  170 8 0  172 8 0  174 8 0  176 8 0  178 8 0  180 8 0  182 8 0  184 8 0  186 8 0  188 8 0  190 8 0  192 8 0  194 8 0  196 8 0  198 8 0  200 8 0  202 8 0  204 8 0  206 8 0  208 8 0  210 8 0  212 8 0  214 8 0  216 8 0  218 8 0  220 8 0  222 8 0  224 8 0  226 8 0  228 8 0  230 8 0  232 8 0  234 8 0  236 8 0  238 8 0  240 8 0  242 8 0  244 8 0  246 8 0  248 8 0  250 8 0  252 8 0  254 8 0  256 8 0  258 8 0  260 8 0  262 8 0  264 8 0  266 8 0  268 8 0  270 8 0  272 8 0  274 8 0  276 8 0  278 8 0  280 8 0  282 8 0  284 8 0  286 8 0  288 8 0  290 8 0  292 8 0  294 8 0  296 8 0  298 8 0  300 8 0  0 10 0  2 10 0  4 10 0  6 10 0  8 10 0  10 10 0  12 10 0  14 10 0  16 10 0  18 10 0  20 10 0  22 10 0  24 10 0  26 10 0  28 10 0  30 10 0  32 10 0  34 10 0  36 10 0  38 10 0  40 10 0  42 10 0  44 10 0  46 10 0  48 10 0  50 10 0  52 10 0  54 10 0  56 10 0  58 10 0  60 10 0  62 10 0  64 10 0  66 10 0  68 10 0  70 10 0  72 10 0  74 10 0  76 10 0  78 10 0  80 10 0  82 10 0  84 10 0  86 10 0  88 10 0  90 10 0  92 10 0  94 10 0  96 10 0  98 10 0  100 10 0  102 10 0  104 10 0  106 10 0  108 10 0  110 10 0  112 10 0  114 10 0  116 10 0  118 10 0  120 10 0  122 10 0  124 10 0  126 10 0  128 10 0  130 10 0  132 10 0  134 10 0  136 10 0  138 10 0  140 10 0  142 10 0  144 10 0  146 10 0  148 10 0  150 10 0  152 10 0  154 10 0  156 10 0  158 10 0  160 10 0  162 10 0  164 10 0  166 10 0  168 10 0  170 10 0  172 10 0  174 10 0  176 10 0  178 10 0  180 10 0  182 10 0  184 10 0  186 10 0  188 10 0  190 10 0  192 10 0  194 10 0  196 10 0  198 10 0  200 10 0  202 10 0  204 10 0  206 10 0  208 10 0  210 10 0  212 10 0  214 10 0  216 10 0  218 10 0  220 10 0  222 10 0  224 10 0  226 10 0  228 10 0  230 10 0  232 10 0  234 10 0  236 10 0  238 10 0  240 10 0  242 10 0  244 10 0  246 10 0  248 10 0  250 10 0  252 10 0  254 10 0  256 10 0  258 10 0  260 10 0  262 10 0  264 10 0  266 10 0  268 10 0  270 10 0  272 10 0  274 10 0  276 10 0  278 10 0  280 10 0  282 10 0  284 10 0  286 10 0  288 10 0  290 10 0  292 10 0  294 10 0  296 10 0  298 10 0  300 10 0  1 1 0  3 1 0  5 1 0  7 1 0  9 1 0  11 1 0  13 1 0  15 1 0  17 1 0  19 1 0  21 1 0  23 1 0  25 1 0  27 1 0  29 1 0  31 1 0  33 1 0  35 1 0  37 1 0  39 1 0  41 1 0  43 1 0  45 1 0  47 1 0  49 1 0  51 1 0  53 1 0  55 1 0  57 1 0  59 1 0  61 1 0  63 1 0  65 1 0  67 1 0  69 1 0  71 1 0  73 1 0  75 1 0  77 1 0  79 1 0  81 1 0  83 1 0  85 1 0  87 1 0  89 1 0  91 1 0  93 1 0  95 1 0  97 1 0  99 1 0  101 1 0  103 1 0  105 1 0  107 1 0  109 1 0  111 1 0  113 1 0  115 1 0  117 1 0  119 1 0  121 1 0  123 1 0  125 1 0  127 1 0  129 1 0  131 1 0  133 1 0  135 1 0  137 1 0  139 1 0  141 1 0  143 1 0  145 1 0  147 1 0  149 1 0  151 1 0  153 1 0  155 1 0  157 1 0  159 1 0  161 1 0  163 1 0  165 1 0  167 1 0  169 1 0  171 1 0  173 1 0  175 1 0  177 1 0  179 1 0  181 1 0  183 1 0  185 1 0  187 1 0  189 1 0  191 1 0  193 1 0  195 1 0  197 1 0  199 1 0  201 1 0  203 1 0  205 1 0  207 1 0  209 1 0  211 1 0  213 1 0  215 1 0  217 1 0  219 1 0  221 1 0  223 1 0  225 1 0  227 1 0  229 1 0  231 1 0  233 1 0  235 1 0  237 1 0  239 1 0  241 1 0  243 1 0  245 1 0  247 1 0  249 1 0  251 1 0  253 1 0  255 1 0  257 1 0  259 1 0  261 1 0  263 1 0  265 1 0  267 1 0  269 1 0  271 1 0  273 1 0  275 1 0  277 1 0  279 1 0  281 1 0  283 1 0  285 1 0  287 1 0  289 1 0  291 1 0  293 1 0  295 1 0  297 1 0  299 1 0  1 3 0  3 3 0  5 3 0  7 3 0  9 3 0  11 3 0  13 3 0  15 3 0  17 3 0  19 3 0  21 3 0  23 3 0  25 3 0  27 3 0  29 3 0  31 3 0  33 3 0  35 3 0  37 3 0  39 3 0  41 3 0  43 3 0  45 3 0  47 3 0  49 3 0  51 3 0  53 3 0  55 3 0  57 3 0  59 3 0  61 3 0  63 3 0  65 3 0  67 3 0  69 3 0  71 3 0  73 3 0  75 3 0  77 3 0  79 3 0  81 3 0  83 3 0  85 3 0  87 3 0  89 3 0  91 3 0  93 3 0  95 3 0  97 3 0  99 3 0  101 3 0  103 3 0  105 3 0  107 3 0  109 3 0  111 3 0  113 3 0  115 3 0  117 3 0  119 3 0  121 3 0  123 3 0  125 3 0
[...]
<PointData  Scalars="mean stress"> 
<DataArray  type="Float64"  Name="mean stress"  format="ascii">5.4969041822060535e+03  5.4364012864811612e+03  5.3545373300296087e+03  5.2734554730345499e+03  5.1931554089159199e+03  5.1136367168377838e+03  5.0348988552226556e+03  4.9569411626834499e+03  4.8797628581905101e+03  4.8033630413985538e+03  4.7277406930031566e+03  4.6528946751475050e+03  4.5788237318753709e+03  4.5055264896299204e+03  4.4330014577990705e+03  4.3612470293051410e+03  4.2902614812403135e+03  4.2200429755463801e+03  4.1505895597372419e+03  4.0818991676654296e+03  4.0139696203308558e+03  3.9467986267315728e+03  3.8803837847550099e+03  3.8147225821099810e+03  3.7498123972980402e+03  3.6856505006237039e+03  3.6222340552427459e+03  3.5595601182463715e+03  3.4976256417831792e+03  3.4364274742145481e+03  3.3759623613060894e+03  3.3162269474499954e+03  3.2572177769212540e+03  3.1989312951649495e+03  3.1413638501128744e+03  3.0845116935287697e+03  3.0283709823837030e+03  2.9729377802545832e+03  2.9182080587523624e+03  2.8641776989713544e+03  2.8108424929631251e+03  2.7581981452330156e+03  2.7062402742568252e+03  2.6549644140167338e+03  2.6043660155567432e+03  2.5544404485543673e+03  2.5051830029089265e+03  2.4565888903439786e+03  2.4086532460234648e+03  2.3613711301793865e+03  2.3147375297515096e+03  2.2687473600358153e+03  2.2233954663404929e+03  2.1786766256513461e+03  2.1345855483001942e+03  2.0911168796405282e+03  2.0482652017221944e+03  2.0060250349738226e+03  1.9643908398806361e+03  1.9233570186646346e+03  1.8829179169619483e+03  1.8430678254983454e+03  1.8038009817572233e+03  1.7651115716466156e+03  1.7269937311568967e+03  1.6894415480097168e+03  1.6524490633008227e+03  1.6160102731298111e+03  1.5801191302213533e+03  1.5447695455297981e+03  1.5099553898366235e+03  1.4756704953267874e+03  1.4419086571532798e+03  1.4086636349838889e+03  1.3759291545302674e+03  1.3436989090585100e+03  1.3119665608807422e+03  1.2807257428239709e+03  1.2499700596798052e+03  1.2196930896316062e+03  1.1898883856572252e+03  1.1605494769082309e+03  1.1316698700643460e+03  1.1032430506640378e+03  1.0752624844055554e+03  1.0477216184234942e+03  1.0206138825376615e+03  9.9393269047131071e+02  9.6767144104585736e+02  9.4182351933751693e+02  9.1638229781429254e+02  8.9134113743432033e+02  8.6669338871703303e+02  8.4243239278359783e+02  8.1855148236318382e+02  7.9504398277010773e+02  7.7190321284531137e+02  7.4912248586924602e+02  7.2669511043781154e+02  7.0461439130976623e+02  6.8287363021641977e+02  6.6146612664106738e+02  6.4038517856534008e+02  6.1962408317980612e+02  5.9917613756297987e+02  5.7903463932910699e+02  5.5919288723708473e+02  5.3964418177266668e+02  5.2038182569570642e+02  5.0139912455370506e+02  4.8268938716571813e+02  4.6424592607373097e+02  4.4606205796434699e+02  4.2813110405997065e+02  4.1044639048032582e+02  3.9300124857951107e+02  3.7578901525339757e+02  3.5880303322699609e+02  3.4203665132115884e+02  3.2548322470287690e+02  3.0913611512720524e+02  2.9298869118469713e+02  2.7703432856437558e+02  2.6126641035832000e+02  2.4567832745453222e+02  2.3026347906781388e+02  2.1501527351291207e+02  1.9992712936386170e+02  1.8499247722270036e+02  1.7020476242272917e+02  1.5555744911372915e+02  1.4104402628866305e+02  1.2665801627836117e+02  1.1239298596126714e+02  9.8242559213548674e+01  8.4200429560465068e+01  7.0260345636770438e+01  5.6416190694583662e+01  4.2661332647903478e+01  2.8993788025011646e+01  1.5389415464271323e+01  1.6606405048122059e+00  -2.3067545320074290e+00  -4.8258985582518328e+00  -7.7989211641474494e+00  -1.1667257358795645e+01  -1.7357768538482965e+01  -2.6392464229722592e+01  -4.0450020458181044e+01  -6.0737124491961765e+01  -9.9775185058555152e+01  5.4968954683967859e+03  5.4363925701681301e+03  5.3545286528961806e+03  5.2734468302403766e+03  5.1931468017556490e+03  5.1136281458761623e+03  5.0348903211116831e+03  4.9569326660506067e+03  4.8797543996548957e+03  4.8033546215678962e+03  4.7277323124739360e+03  4.6528863345046539e+03  4.5788154316918872e+03  4.5055182304665868e+03  4.4329932402040713e+03  4.3612388538138030e+03  4.2902533483750158e+03  4.2200348858157076e+03  4.1505815136362107e+03  4.0818911656749924e+03  4.0139616629177090e+03  3.9467907143476532e+03  3.8803759178374098e+03  3.8147147610802958e+03  3.7498046225625949e+03  3.6856427725732055e+03  3.6222263742513883e+03  3.5595524846725266e+03  3.4976180559680092e+03  3.4364199364829565e+03  3.3759548719652162e+03  3.3162195067897337e+03  3.2572103852140908e+03  3.1989239526651559e+03  3.1413565570560686e+03  3.0845044501328152e+03  3.0283637888473581e+03  2.9729306367572881e+03  2.9182009654546423e+03  2.8641706560139819e+03  2.8108355004669752e+03  2.7581912032991127e+03  2.7062333829651311e+03  2.6549575734273094e+03  2.6043592257083724e+03  2.5544337094645985e+03  2.5051763145739956e+03  2.4565822527382657e+03  2.4086466590987002e+03  2.3613645938656568e+03  2.3147310439553648e+03  2.2687409246416810e+03  2.2233890812087579e+03  2.1786702906189421e+03  2.1345792631800055e+03  2.0911106442203795e+03  2.0482590157659688e+03  2.0060188982192847e+03  1.9643847520402196e+03  1.9233509794246925e+03  1.8829119259823801e+03  1.8430618824110468e+03  1.8037950861673614e+03  1.7651057231309464e+03  1.7269879292625742e+03  1.6894357922554377e+03  1.6524433531745087e+03  1.6160046080885008e+03  1.5801135096902212e+03  1.5447639689023808e+03  1.5099498564720177e+03  1.4756650045501265e+03  1.4419032082539218e+03  1.4086582272152241e+03  1.3759237871069586e+03  1.3436935811569758e+03  1.3119612716362847e+03  1.2807204913297376e+03  1.2499648449853628e+03  1.2196879107410334e+03  1.1898832415262641e+03  1.1605443664434579e+03  1.1316647921198048e+03  1.1032380040389307e+03  1.0752574678416595e+03  1.0477166306016290e+03  1.0206089220744079e+03  9.9392775591590589e+02  9.6766653087427358e+02  9.4181863195055041e+02  9.1637743152985036e+02  8.9133629048389867e+02  8.6668855923900628e+02  8.4242757881561624e+02  8.1854668183561705e+02  7.9503919349696662e+02  7.7189843251560421e+02  7.4911771203572425e+02  7.2669034050602420e+02  7.0460962252406227e+02  6.8286885964570638e+02  6.6146135116223252e+02  6.4038039484377111e+02  6.1961928764855736e+02  5.9917132639881891e+02  5.7902980842333568e+02  5.5918803216462538e+02  5.3963929775662621e+02  5.2037690756374241e+02  5.0139416669028680e+02  4.8268438345496003e+02  4.6424086983459398e+02  4.4605694187151749e+02  4.2812592005384823e+02  4.1044112965933033e+02  3.9299590106878628e+02  3.7578357005137053e+02  3.5879747801794178e+02  3.4203097224457451e+02  3.2547740607210557e+02  3.0913013907949812e+02  2.9298253723908556e+02  2.7702797305831012e+02  2.6125982572302644e+02  2.4567148126047104e+02  2.3025633275095606e+02  2.1500778064715934e+02  1.9991923326580977e+02  1.8498410757983675e+02  1.7019583044656187e+02  1.5554784046614174e+02  1.4103359057193563e+02  1.2664655119136218e+02  1.1238021286166378e+02  9.8228085227311510e+01  8.4183681259215120e+01  7.0240480362432578e+01  5.6391719754058165e+01  4.2630604181622580e+01  2.8946144325367449e+01  1.5345328045117254e+01  1.2231257542308713e+00  -2.2514860733317978e+00  -4.5923315145011445e+00  -7.2909136962879231e+00  -1.0620110210351893e+01  -1.5088725866308719e+01  -2.2119671510202817e+01  -3.3889501511840550e+01  -5.3174865982307601e+01  -7.9076777444077877e+01  5.4968954675272525e+03  5.4363925705355277e+03  5.3545286527810495e+03  5.2734468302755804e+03  5.1931468017665738e+03  5.1136281458905614e+03  5.0348903211255110e+03  4.9569326660644219e+03  4.8797543996686463e+03  4.8033546215815995e+03  4.7277323124874929e+03  4.6528863345181944e+03  4.5788154317052922e+03  4.5055182304798955e+03  4.4329932402172435e+03  4.3612388538268842e+03  4.2902533483879979e+03  4.2200348858285834e+03  4.1505815136489427e+03  4.0818911656875866e+03  4.0139616629302268e+03  3.9467907143600191e+03  3.8803759178494702e+03  3.8147147610922780e+03  3.7498046225745352e+03  3.6856427725849289e+03  3.6222263742628820e+03  3.5595524846838994e+03  3.4976180559791342e+03  3.4364199364939191e+03  3.3759548719759437e+03  3.3162195068004039e+03  3.2572103852244891e+03  3.1989239526751899e+03  3.1413565570659921e+03  3.0845044501426446e+03  3.0283637888567323e+03  2.9729306367666213e+03  2.9182009654636777e+03  2.8641706560226094e+03  2.8108355004755294e+03  2.7581912033073399e+03  2.7062333829730314e+03  2.6549575734350424e+03  2.6043592257157388e+03  2.5544337094718439e+03  2.5051763145807063e+03  2.4565822527446421e+03  2.4086466591048261e+03  2.3613645938713930e+03  2.3147310439610987e+03  2.2687409246468351e+03  2.2233890812136883e+03  2.1786702906233172e+03  2.1345792631840450e+03  2.0911106442241057e+03  2.0482590157693553e+03  2.0060188982222205e+03  1.9643847520427139e+03  1.9233509794269221e+03  1.8829119259840800e+03  1.8430618824121916e+03  1.8037950861681984e+03  1.7651057231312675e+03  1.7269879292624223e+03  1.6894357922547554e+03  1.6524433531731449e+03  1.6160046080868224e+03  1.5801135096879138e+03  1.5447639688995212e+03  1.5099498564683572e+03  1.4756650045460688e+03  1.4419032082492063e+03  1.4086582272096014e+03  1.3759237871009170e+03  1.3436935811501439e+03  1.3119612716285201e+03  1.2807204913214898e+03  1.2499648449758070e+03  1.2196879107308862e+03  1.1898832415151396e+03  1.1605443664311786e+03  1.1316647921067722e+03  1.1032380040246439e+03  1.0752574678260776e+03  1.0477166305851508e+03  1.0206089220561968e+03  9.9392775589640678e+02  9.6766653085332575e+02  9.4181863192771698e+02  9.1637743150555048e+02  8.9133629045788257e+02  8.6668855921081604e+02  8.4242757878511452e+02  8.1854668180295437e+02  7.9503919346177770e+02  7.7189843247785711e+02  7.4911771199491739e+02  7.2669034046191302e+02  7.0460962247641771e+02  6.8286885959407368e+02  6.6146135110633350e+02  6.4038039478313613e+02  6.1961928758270778e+02  5.9917132632714049e+02  5.7902980834482958e+02  5.5918803207923509e+02  5.3963929766295200e+02  5.2037690746069916e+02  5.0139416657673337e+02  4.8268438332906408e+02  4.6424086969427094e+02  4.4605694171431196e+02  4.2812591987597602e+02  4.1044112945454054e+02  3.9299590082911863e+02  3.7578356976385078e+02  3.5879747766084978e+02  3.4203097178242433e+02  3.2547740544434959e+02  3.0913013818285481e+02  2.9298253589380528e+02  2.7702797095397932e+02  2.6125982231954464e+02  2.4567147562101346e+02  2.3025632325691666e+02  2.1500776451340150e+02  1.9991920573369538e+02  1.8498406058702878e+02  1.7019575048946297e+02  1.5554770524649180e+02  1.4103336395740305e+02  1.2664617610732746e+02  1.1237960241044679e+02  9.8227113928358023e+01  8.4182186400205893e+01  7.0238275818087104e+01  5.6388787638606807e+01  4.2626759116994862e+01  2.8945684162090142e+01  1.5333557494724333e+01  1.2958151680646446e+00  -1.8796428612430258e+00  -3.9163522857939679e+00  -6.0259431074280840e+00  -8.1487373403844412e+00  -1.0181632244292304e+01  -1.1237359026170953e+01  -1.4563507867032355e+01  -2.0269001554747774e+01  -1.9211949450305848e+01  5.4968954675272453e+03  5.4363925705355223e+03  5.3545286527810531e+03  5.2734468302755777e+03  5.1931468017665702e+03  5.1136281458905696e+03  5.0348903211254938e+03  4.9569326660644520e+03  4.8797543996686463e+03  4.8033546215815895e+03  4.7277323124875147e+03  4.6528863345181708e+03  4.5788154317052467e+03  4.5055182304799127e+03  4.4329932402172872e+03  4.3612388538268651e+03  4.2902533483880306e+03  4.2200348858285806e+03  4.1505815136489418e+03  4.0818911656876035e+03  4.0139616629301668e+03  3.9467907143600119e+03  3.8803759178495507e+03  3.8147147610923216e+03  3.7498046225744665e+03  3.6856427725848603e+03  3.6222263742630062e+03  3.5595524846838061e+03  3.4976180559791355e+03  3.4364199364939632e+03  3.3759548719759450e+03  3.3162195068004380e+03  3.2572103852244109e+03  3.1989239526752294e+03  3.1413565570660385e+03  3.0845044501426310e+03  3.0283637888566718e+03  2.9729306367665054e+03  2.9182009654636945e+03  2.8641706560227194e+03  2.8108355004754226e+03  2.7581912033073354e+03  2.7062333829732302e+03  2.6549575734349155e+03  2.6043592257156965e+03  2.5544337094716807e+03  2.5051763145808995e+03  2.4565822527447144e+03  2.4086466591048675e+03  2.3613645938712289e+03  2.3147310439612916e+03  2.2687409246468201e+03  2.2233890812135710e+03  2.1786702906233918e+03  2.1345792631842164e+03  2.0911106442240334e+03  2.0482590157691957e+03  2.0060188982222899e+03  1.9643847520427598e+03  1.9233509794268241e+03  1.8829119259840456e+03  1.8430618824123503e+03  1.8037950861681918e+03  1.7651057231310492e+03  1.7269879292624721e+03  1.6894357922548286e+03  1.6524433531731124e+03  1.6160046080869115e+03  1.5801135096877458e+03  1.5447639688995071e+03  1.5099498564685416e+03  1.4756650045459755e+03  1.4419032082491635e+03  1.4086582272097608e+03  1.3759237871007131e+03  1.3436935811502722e+03  1.3119612716286299e+03  1.2807204913211867e+03  1.2499648449760425e+03  1.2196879107308741e+03  1.1898832415150980e+03  1.1605443664312972e+03  1.1316647921066365e+03  1.1032380040246792e+03  1.0752574678261547e+03  1.0477166305850053e+03  1.0206089220562185e+03  9.9392775589637574e+02  9.6766653085312646e+02  9.4181863192787421e+02  9.1637743150560266e+02  8.9133629045765986e+02  8.6668855921099600e+02  8.4242757878518682e+02  8.1854668180289264e+02  7.9503919346192572e+02  7.7189843247772092e+02  7.4911771199484815e+02  7.2669034046211857e+02  7.0460962247637951e+02  6.8286885959389781e+02  6.6146135110642490e+02  6.4038039478320366e+02  6.1961928758254987e+02  5.9917132632709627e+02  5.7902980834481718e+02  5.5918803207895598e+02  5.3963929766271656e+02  5.2037690746052863e+02  5.0139416657562322e+02  4.8268438332730244e+02  4.6424086969135948e+02  4.4605694170893435e+02  4.2812591986610863e+02  4.1044112943673514e+02  3.9299590079694332e+02  3.7578356970574634e+02  3.5879747755640238e+02  3.4203097159455353e+02  3.2547740510701493e+02  3.0913013757906793e+02  2.9298253481605025e+02  2.7702796903540479e+02  2.6125981891567261e+02  2.4567146960430244e+02  2.3025631266581397e+02  2.1500774595880969e+02  1.9991917340688150e+02  1.8498400462737689e+02  1.7019565435532877e+02  1.5554754160092943e+02  1.4103308849729092e+02  1.2664571889371241e+02  1.1237885713653853e+02  9.8225928097160732e+01  8.4180363027939578e+01  7.0235611047134498e+01  5.6385226108038736e+01  4.2622741706330459e+01  2.8943405487400312e+01  1.5338136841505657e+01  1.3643779230033817e+00  -1.4447497017705950e+00  -3.1556980543673134e+00  -4.6825011054080603e+00  -5.8030438579720194e+00  -5.8413695610851208e+00  -3.6758605483736146e+00  1.0365398878438276e+01  2.9929805751944883e+01  3.7688928423274355e+01  5.4968954683967877e+03  5.4363925701681155e+03  5.3545286528961851e+03  5.2734468302403657e+03  5.1931468017556481e+03  5.1136281458761669e+03  5.0348903211116922e+03  4.9569326660505976e+03  4.8797543996549075e+03  4.8033546215678944e+03  4.7277323124739332e+03  4.6528863345046675e+03  4.5788154316919117e+03  4.5055182304665414e+03  4.4329932402040658e+03  4.3612388538138457e+03  4.2902533483749903e+03  4.2200348858156885e+03  4.1505815136362035e+03  4.0818911656750220e+03  4.0139616629177194e+03  3.9467907143476782e+03  3.8803759178372889e+03  3.8147147610802490e+03  3.7498046225626658e+03  3.6856427725733042e+03  3.6222263742514292e+03  3.5595524846724506e+03  3.4976180559680106e+03  3.4364199364828810e+03  3.3759548719652180e+03  3.3162195067898788e+03  3.2572103852140140e+03  3.1989239526651681e+03  3.1413565570560372e+03  3.0845044501329444e+03  3.0283637888472267e+03  2.9729306367572767e+03  2.9182009654547305e+03  2.8641706560139705e+03  2.8108355004669138e+03  2.7581912032991540e+03  2.7062333829651197e+03  2.6549575734272698e+03  2.6043592257084947e+03  2.5544337094645862e+03  2.5051763145739778e+03  2.4565822527381138e+03  2.4086466590987116e+03  2.3613645938655595e+03  2.3147310439557696e+03  2.2687409246415864e+03  2.2233890812087539e+03  2.1786702906189666e+03  2.1345792631800191e+03  2.0911106442202677e+03  2.0482590157658083e+03  2.0060188982193938e+03  1.9643847520402494e+03  1.9233509794246561e+03  1.8829119259824163e+03  1.8430618824109663e+03  1.8037950861674849e+03  1.7651057231308400e+03  1.7269879292625690e+03  1.6894357922556082e+03  1.6524433531742752e+03  1.6160046080885929e+03  1.5801135096901162e+03  1.5447639689022517e+03  1.5099498564720900e+03  1.4756650045500921e+03  1.4419032082539729e+03  1.4086582272151970e+03  1.3759237871070650e+03  1.3436935811570850e+03  1.3119612716362187e+03  1.2807204913297494e+03  1.2499648449854228e+03  1.2196879107409927e+03  1.1898832415263707e+03  1.1605443664434490e+03  1.1316647921199544e+03  1.1032380040389774e+03  1.0752574678415001e+03  1.0477166306017164e+03  1.0206089220743036e+03  9.9392775591584007e+02  9.6766653087423310e+02  9.4181863195042047e+02  9.1637743152982762e+02  8.9133629048398916e+02  8.6668855923894159e+02  8.4242757881538387e+02  8.1854668183572824e+02  7.9503919349699220e+02  7.7189843251560330e+02  7.4911771203585795e+02  7.2669034050607115e+02  7.0460962252412401e+02  6.8286885964571263e+02  6.6146135116219295e+02  6.4038039484366641e+02  6.1961928764857089e+02  5.9917132639883562e+02  5.7902980842280658e+02  5.5918803216430797e+02  5.3963929775609336e+02  5.2037690756249253e+02  5.0139416668791660e+02  4.8268438345061941e+02  4.6424086982646065e+02  4.4605694185750286e+02  4.2812592002850135e+02  4.1044112961270525e+02  3.9299590098437227e+02  3.7578356989946423e+02  3.5879747774413431e+02  3.4203097175244392e+02  3.2547740518898576e+02  3.0913013749898801e+02  2.9298253441745163e+02  2.7702796803574483e+02  2.6125981681226915e+02  2.4567146550904553e+02  2.3025630502411022e+02  2.1500773207297462e+02  1.9991914863805698e+02  1.8498396108398350e+02  1.7019557878070734e+02  1.5554741207084518e+02  1.4103286947314155e+02  1.2664535432666339e+02  1.1237826195657763e+02  9.8224981360813942e+01  8.4178908110462189e+01  7.0233510556300615e+01  5.6382380497101543e+01  4.2620219617562789e+01  2.8939709321220391e+01  1.5359548256606752e+01  1.4065829336767821e+00  -1.1059810349615864e+00  -2.5979606492305738e+00  -3.7812751838745844e+00  -4.4508985194156292e+00  -4.4136487131911792e+00  -2.7133291574671583e+00  -1.6470573078101314e+00  -1.4705454157777545e-01  5.7004437355533453e+00  5.4969041822060526e+03  5.4364012864811511e+03  5.3545373300296114e+03  5.2734554730345599e+03  5.1931554089159063e+03  5.1136367168377901e+03  5.0348988552226810e+03  4.9569411626834453e+03  4.8797628581905637e+03  4.8033630413985875e+03  4.7277406930031511e+03  4.6528946751474577e+03  4.5788237318753454e+03  4.5055264896299368e+03  4.4330014577990451e+03  4.3612470293051365e+03  4.2902614812404026e+03  4.2200429755465084e+03  4.1505895597371364e+03  4.0818991676653977e+03  4.0139696203307535e+03  3.9467986267317756e+03  3.8803837847549762e+03  3.8147225821099228e+03  3.7498123972980634e+03  3.6856505006237699e+03  3.6222340552426826e+03  3.5595601182463920e+03  3.4976256417830937e+03  3.4364274742145922e+03  3.3759623613061553e+03  3.3162269474499913e+03  3.2572177769211776e+03  3.1989312951651132e+03  3.1413638501128203e+03  3.0845116935289457e+03  3.0283709823835206e+03  2.9729377802544113e+03  2.9182080587525247e+03  2.8641776989713385e+03  2.8108424929631074e+03  2.7581981452331856e+03  2.7062402742569029e+03  2.6549644140164833e+03  2.6043660155566508e+03  2.5544404485543214e+03  2.5051830029089556e+03  2.4565888903440509e+03  2.4086532460234348e+03  2.3613711301795161e+03  2.3147375297516196e+03  2.2687473600357744e+03  2.2233954663404006e+03  2.1786766256514738e+03  2.1345855483004207e+03  2.0911168796401403e+03  2.0482652017222972e+03  2.0060250349739317e+03  1.9643908398805020e+03  1.9233570186644993e+03  1.8829179169621136e+03  1.8430678254983459e+03  1.8038009817570701e+03  1.7651115716465606e+03  1.7269937311569527e+03  1.6894415480098030e+03  1.6524490633009684e+03  1.6160102731296465e+03  1.5801191302210245e+03  1.5447695455299317e+03  1.5099553898366157e+03  1.4756704953268436e+03  1.4419086571