<?xml version="1.0"?>
<VTKFile type="UnstructuredGrid"  version="0.1"  >
<UnstructuredGrid>
<Piece  NumberOfPoints="1656" NumberOfCells="3000">
<Points>
<DataArray  type="Float64"  NumberOfComponents="3"  format="ascii">0 0 0  2 0 0  4 0 0  6 0 0  8 0 0  10 0 0  12 0 0  14 0 0  16 0 0  18 0 0  20 0 0  22 0 0  24 0 0  26 0 0  28 0 0  30 0 0  32 0 0  34 0 0  36 0 0  38 0 0  40 0 0  42 0 0  44 0 0  46 0 0  48 0 0  50 0 0  52 0 0  54 0 0  56 0 0  58 0 0  60 0 0  62 0 0  64 0 0  66 0 0  68 0 0  70 0 0  72 0 0  74 0 0  76 0 0  78 0 0  80 0 0  82 0 0  84 0 0  86 0 0  88 0 0  90 0 0  92 0 0  94 0 0  96 0 0  98 0 0  100 0 0  102 0 0  104 0 0  106 0 0  108 0 0  110 0 0  112 0 0  114 0 0  116 0 0  118 0 0  120 0 0  122 0 0  124 0 0  126 0 0  128 0 0  130 0 0  132 0 0  134 0 0  136 0 0  138 0 0  140 0 0  142 0 0  144 0 0  146 0 0  148 0 0  150 0 0  152 0 0  154 0 0  156 0 0  158 0 0  160 0 0  162 0 0  164 0 0  166 0 0  168 0 0  170 0 0  172 0 0  174 0 0  176 0 0  178 0 0  180 0 0  182 0 0  184 0 0  186 0 0  188 0 0  190 0 0  192 0 0  194 0 0  196 0 0  198 0 0  200 0 0  202 0 0  204 0 0  206 0 0  208 0 0  210 0 0  212 0 0  214 0 0  216 0 0  218 0 0  220 0 0  222 0 0  224 0 0  226 0 0  228 0 0  230 0 0  232 0 0  234 0 0  236 0 0  238 0 0  240 0 0  242 0 0  244 0 0  246 0 0  248 0 0  250 0 0  252 0 0  254 0 0  256 0 0  258 0 0  260 0 0  262 0 0  264 0 0  266 0 0  268 0 0  270 0 0  272 0 0  274 0 0  276 0 0  278 0 0  280 0 0  282 0 0  284 0 0  286 0 0  288 0 0  290 0 0  292 0 0  294 0 0  296 0 0  298 0 0  300 0 0  0 2 0  2 2 0  4 2 0  6 2 0  8 2 0  10 2 0  12 2 0  14 2 0  16 2 0  18 2 0  20 2 0  22 2 0  24 2 0  26 2 0  28 2 0  30 2 0  32 2 0  34 2 0  36 2 0  38 2 0  40 2 0  42 2 0  44 2 0  46 2 0  48 2 0  50 2 0  52 2 0  54 2 0  56 2 0  58 2 0  60 2 0  62 2 0  64 2 0  66 2 0  68 2 0  70 2 0  72 2 0  74 2 0  76 2 0  78 2 0  80 2 0  82 2 0  84 2 0  86 2 0  88 2 0  90 2 0  92 2 0  94 2 0  96 2 0  98 2 0  100 2 0  102 2 0  104 2 0  106 2 0  108 2 0  110 2 0  112 2 0  114 2 0  116 2 0  118 2 0  120 2 0  122 2 0  124 2 0  126 2 0  128 2 0  130 2 0  132 2 0  134 2 0  136 2 0  138 2 0  140 2 0  142 2 0  144 2 0  146 2 0  148 2 0  150 2 0  152 2 0  154 2 0  156 2 0  158 2 0  160 2 0  162 2 0  164 2 0  166 2 0  168 2 0  170 2 0  172 2 0  174 2 0  176 2 0  178 2 0  180 2 0  182 2 0  184 2 0  186 2 0  188 2 0  190 2 0  192 2 0  194 2 0  196 2 0  198 2 0  200 2 0  202 2 0  204 2 0  206 2 0  208 2 0  210 2 0  212 2 0  214 2 0  216 2 0  218 2 0  220 2 0  222 2 0  224 2 0  226 2 0  228 2 0  230 2 0  232 2 0  234 2 0  236 2 0  238 2 0  240 2 0  242 2 0  244 2 0  246 2 0  248 2 0  250 2 0  252 2 0  254 2 0  256 2 0  258 2 0  260 2 0  262 2 0  264 2 0  266 2 0  268 2 0  270 2 0  272 2 0  274 2 0  276 2 0  278 2 0  280 2 0  282 2 0  284 2 0  286 2 0  288 2 0  290 2 0  292 2 0  294 2 0  296 2 0  298 2 0  300 2 0  0 4 0  2 4 0  4 4 0  6 4 0  8 4 0  10 4 0  12 4 0  14 4 0  16 4 0  18 4 0  20 4 0  22 4 0  24 4 0  26 4 0  28 4 0  30 4 0  32 4 0  34 4 0  36 4 0  38 4 0  40 4 0  42 4 0  44 4 0  46 4 0  48 4 0  50 4 0  52 4 0  54 4 0  56 4 0  58 4 0  60 4 0  62 4 0  64 4 0  66 4 0  68 4 0  70 4 0  72 4 0  74 4 0  76 4 0  78 4 0  80 4 0  82 4 0  84 4 0  86 4 0  88 4 0  90 4 0  92 4 0  94 4 0  96 4 0  98 4 0  100 4 0  102 4 0  104 4 0  106 4 0  108 4 0  110 4 0  112 4 0  114 4 0  116 4 0  118 4 0  120 4 0  122 4 0  124 4 0  126 4 0  128 4 0  130 4 0  132 4 0  134 4 0  136 4 0  138 4 0  140 4 0  142 4 0  144 4 0  146 4 0  148 4 0  150 4 0  152 4 0  154 4 0  156 4 0  158 4 0  160 4 0  162 4 0  164 4 0  166 4 0  168 4 0  170 4 0  172 4 0  174 4 0  176 4 0  178 4 0  180 4 0  182 4 0  184 4 0  186 4 0  188 4 0  190 4 0  192 4 0  194 4 0  196 4 0  198 4 0  200 4 0  202 4 0  204 4 0  206 4 0  208 4 0  210 4 0  212 4 0  214 4 0  216 4 0  218 4 0  220 4 0  222 4 0  224 4 0  226 4 0  228 4 0  230 4 0  232 4 0  234 4 0  236 4 0  238 4 0  240 4 0  242 4 0  244 4 0  246 4 0  248 4 0  250 4 0  252 4 0  254 4 0  256 4 0  258 4 0  260 4 0  262 4 0  264 4 0  266 4 0  268 4 0  270 4 0  272 4 0  274 4 0  276 4 0  278 4 0  280 4 0  282 4 0  284 4 0  286 4 0  288 4 0  290 4 0  292 4 0  294 4 0  296 4 0  298 4 0  300 4 0  0 6 0  2 6 0  4 6 0  6 6 0  8 6 0  10 6 0  12 6 0  14 6 0  16 6 0  18 6 0  20 6 0  22 6 0  24 6 0  26 6 0  28 6 0  30 6 0  32 6 0  34 6 0  36 6 0  38 6 0  40 6 0  42 6 0  44 6 0  46 6 0  48 6 0  50 6 0  52 6 0  54 6 0  56 6 0  58 6 0  60 6 0  62 6 0  64 6 0  66 6 0  68 6 0  70 6 0  72 6 0  74 6 0  76 6 0  78 6 0  80 6 0  82 6 0  84 6 0  86 6 0  88 6 0  90 6 0  92 6 0  94 6 0  96 6 0  98 6 0  100 6 0  102 6 0  104 6 0  106 6 0  108 6 0  110 6 0  112 6 0  114 6 0  116 6 0  118 6 0  120 6 0  122 6 0  124 6 0  126 6 0  128 6 0  130 6 0  132 6 0  134 6 0  136 6 0  138 6 0  140 6 0  142 6 0  144 6 0  146 6 0  148 6 0  150 6 0  152 6 0  154 6 0  156 6 0  158 6 0  160 6 0  162 6 0  164 6 0  166 6 0  168 6 0  170 6 0  172 6 0  174 6 0  176 6 0  178 6 0  180 6 0  182 6 0  184 6 0  186 6 0  188 6 0  190 6 0  192 6 0  194 6 0  196 6 0  198 6 0  200 6 0  202 6 0  204 6 0  206 6 0  208 6 0  210 6 0  212 6 0  214 6 0  216 6 0  218 6 0  220 6 0  222 6 0  224 6 0  226 6 0  228 6 0  230 6 0  232 6 0  234 6 0  236 6 0  238 6 0  240 6 0  242 6 0  244 6 0  246 6 0  248 6 0  250 6 0  252 6 0  254 6 0  256 6 0  258 6 0  260 6 0  262 6 0  264 6 0  266 6 0  268 6 0  270 6 0  272 6 0  274 6 0  276 6 0  278 6 0  280 6 0  282 6 0  284 6 0  286 6 0  288 6 0  290 6 0  292 6 0  294 6 0  296 6 0  298 6 0  300 6 0  0 8 0  2 8 0  4 8 0  6 8 0  8 8 0  10 8 0  12 8 0  14 8 0  16 8 0  18 8 0  20 8 0  22 8 0  24 8 0  26 8 0  28 8 0  30 8 0  32 8 0  34 8 0  36 8 0  38 8 0  40 8 0  42 8 0  44 8 0  46 8 0  48 8 0  50 8 0  52 8 0  54 8 0  56 8 0  58 8 0  60 8 0  62 8 0  64 8 0  66 8 0  68 8 0  70 8 0  72 8 0  74 8 0  76 8 0  78 8 0  80 8 0  82 8 0  84 8 0  86 8 0  88 8 0  90 8 0  92 8 0  94 8 0  96 8 0  98 8 0  100 8 0  102 8 0  104 8 0  106 8 0  108 8 0  110 8 0  112 8 0  114 8 0  116 8 0  118 8 0  120 8 0  122 8 0  124 8 0  126 8 0  128 8 0  130 8 0  132 8 0  134 8 0  136 8 0  138 8 0  140 8 0  142 8 0  144 8 0  146 8 0  148 8 0  150 8 0  152 8 0  154 8 0  156 8 0  158 8 0  160 8 0  162 8 0  164 8 0  166 8 0  168 8 0  170 8 0  172 8 0  174 8 0  176 8 0  178 8 0  180 8 0  182 8 0  184 8 0  186 8 0  188 8 0  190 8 0  192 8 0  194 8 0  196 8 0  198 8 0  200 8 0  202 8 0  204 8 0  206 8 0  208 8 0  210 8 0  212 8 0  214 8 0  216 8 0  218 8 0  220 8 0  222 8 0  224 8 0  226 8 0  228 8 0  230 8 0  232 8 0  234 8 0  236 8 0  238 8 0  240 8 0  242 8 0  244 8 0  246 8 0  248 8 0  250 8 0  252 8 0  254 8 0  256 8 0  258 8 0  260 8 0  262 8 0  264 8 0  266 8 0  268 8 0  270 8 0  272 8 0  274 8 0  276 8 0  278 8 0  280 8 0  282 8 0  284 8 0  286 8 0  288 8 0  290 8 0  292 8 0  294 8 0  296 8 0  298 8 0  300 8 0  0 10 0  2 10 0  4 10 0  6 10 0  8 10 0  10 10 0  12 10 0  14 10 0  16 10 0  18 10 0  20 10 0  22 10 0  24 10 0  26 10 0  28 10 0  30 10 0  32 10 0  34 10 0  36 10 0  38 10 0  40 10 0  42 10 0  44 10 0  46 10 0  48 10 0  50 10 0  52 10 0  54 10 0  56 10 0  58 10 0  60 10 0  62 10 0  64 10 0  66 10 0  68 10 0  70 10 0  72 10 0  74 10 0  76 10 0  78 10 0  80 10 0  82 10 0  84 10 0  86 10 0  88 10 0  90 10 0  92 10 0  94 10 0  96 10 0  98 10 0  100 10 0  102 10 0  104 10 0  106 10 0  108 10 0  110 10 0  112 10 0  114 10 0  116 10 0  118 10 0  120 10 0  122 10 0  124 10 0  126 10 0  128 10 0  130 10 0  132 10 0  134 10 0  136 10 0  138 10 0  140 10 0  142 10 0  144 10 0  146 10 0  148 10 0  150 10 0  152 10 0  154 10 0  156 10 0  158 10 0  160 10 0  162 10 0  164 10 0  166 10 0  168 10 0  170 10 0  172 10 0  174 10 0  176 10 0  178 10 0  180 10 0  182 10 0  184 10 0  186 10 0  188 10 0  190 10 0  192 10 0  194 10 0  196 10 0  198 10 0  200 10 0  202 10 0  204 10 0  206 10 0  208 10 0  210 10 0  212 10 0  214 10 0  216 10 0  218 10 0  220 10 0  222 10 0  224 10 0  226 10 0  228 10 0  230 10 0  232 10 0  234 10 0  236 10 0  238 10 0  240 10 0  242 10 0  244 10 0  246 10 0  248 10 0  250 10 0  252 10 0  254 10 0  256 10 0  258 10 0  260 10 0  262 10 0  264 10 0  266 10 0  268 10 0  270 10 0  272 10 0  274 10 0  276 10 0  278 10 0  280 10 0  282 10 0  284 10 0  286 10 0  288 10 0  290 10 0  292 10 0  294 10 0  296 10 0  298 10 0  300 10 0  1 1 0  3 1 0  5 1 0  7 1 0  9 1 0  11 1 0  13 1 0  15 1 0  17 1 0  19 1 0  21 1 0  23 1 0  25 1 0  27 1 0  29 1 0  31 1 0  33 1 0  35 1 0  37 1 0  39 1 0  41 1 0  43 1 0  45 1 0  47 1 0  49 1 0  51 1 0  53 1 0  55 1 0  57 1 0  59 1 0  61 1 0  63 1 0  65 1 0  67 1 0  69 1 0  71 1 0  73 1 0  75 1 0  77 1 0  79 1 0  81 1 0  83 1 0  85 1 0  87 1 0  89 1 0  91 1 0  93 1 0  95 1 0  97 1 0  99 1 0  101 1 0  103 1 0  105 1 0  107 1 0  109 1 0  111 1 0  113 1 0  115 1 0  117 1 0  119 1 0  121 1 0  123 1 0  125 1 0  127 1 0  129 1 0  131 1 0  133 1 0  135 1 0  137 1 0  139 1 0  141 1 0  143 1 0  145 1 0  147 1 0  149 1 0  151 1 0  153 1 0  155 1 0  157 1 0  159 1 0  161 1 0  163 1 0  165 1 0  167 1 0  169 1 0  171 1 0  173 1 0  175 1 0  177 1 0  179 1 0  181 1 0  183 1 0  185 1 0  187 1 0  189 1 0  191 1 0  193 1 0  195 1 0  197 1 0  199 1 0  201 1 0  203 1 0  205 1 0  207 1 0  209 1 0  211 1 0  213 1 0  215 1 0  217 1 0  219 1 0  221 1 0  223 1 0  225 1 0  227 1 0  229 1 0  231 1 0  233 1 0  235 1 0  237 1 0  239 1 0  241 1 0  243 1 0  245 1 0  247 1 0  249 1 0  251 1 0  253 1 0  255 1 0  257 1 0  259 1 0  261 1 0  263 1 0  265 1 0  267 1 0  269 1 0  271 1 0  273 1 0  275 1 0  277 1 0  279 1 0  281 1 0  283 1 0  285 1 0  287 1 0  289 1 0  291 1 0  293 1 0  295 1 0  297 1 0  299 1 0  1 3 0  3 3 0  5 3 0  7 3 0  9 3 0  11 3 0  13 3 0  15 3 0  17 3 0  19 3 0  21 3 0  23 3 0  25 3 0  27 3 0  29 3 0  31 3 0  33 3 0  35 3 0  37 3 0  39 3 0  41 3 0  43 3 0  45 3 0  47 3 0  49 3 0  51 3 0  53 3 0  55 3 0  57 3 0  59 3 0  61 3 0  63 3 0  65 3 0  67 3 0  69 3 0  71 3 0  73 3 0  75 3 0  77 3 0  79 3 0  81 3 0  83 3 0  85 3 0  87 3 0  89 3 0  91 3 0  93 3 0  95 3 0  97 3 0  99 3 0  101 3 0  103 3 0  105 3 0  107 3 0  109 3 0  111 3 0  113 3 0  115 3 0  117 3 0  119 3 0  121 3 0  123 3 0  125 3 0
[...]
<PointData  Scalars="mean stress"> 
<DataArray  type="Float64"  Name="mean stress"  format="ascii">3.5289373582092589e+03  3.4686642507680745e+03  3.3874894344188438e+03  3.3075556317014352e+03  3.2288616865890499e+03  3.1514060027775135e+03  3.0751865289298098e+03  3.0002007627326948e+03  2.9264457534196995e+03  2.8539181050640464e+03  2.7826139803136111e+03  2.7125291046100492e+03  2.6436587708755005e+03  2.5759978446601767e+03  2.5095407697401201e+03  2.4442815741554045e+03  2.3802138766765220e+03  2.3173308936878248e+03  2.2556254464750186e+03  2.1950899689031362e+03  2.1357165154697559e+03  2.0774967697222892e+03  2.0204220530187777e+03  1.9644833336218135e+03  1.9096712361047078e+03  1.8559760510564929e+03  1.8033877450669888e+03  1.7518959709743751e+03  1.7014900783580720e+03  1.6521591242592194e+03  1.6038918841082555e+03  1.5566768628449563e+03  1.5105023062076534e+03  1.4653562121776340e+03  1.4212263425557494e+03  1.3781002346562013e+03  1.3359652130956522e+03  1.2948084016612763e+03  1.2546167352384955e+03  1.2153769717803323e+03  1.1770757042986256e+03  1.1396993728631196e+03  1.1032342765865792e+03  1.0676665855812414e+03  1.0329823528698407e+03  9.9916752623162404e+02  9.6620795997386836e+02  9.3408942660356809e+02  9.0279762839542798e+02  8.7231820883016530e+02  8.4263676389904606e+02  8.1373885325317826e+02  7.8561001119087814e+02  7.5823575746405686e+02  7.3160160789876909e+02  7.0569308481309497e+02  6.8049572722383118e+02  6.5599510083368023e+02  6.3217680778458191e+02  6.0902649617521092e+02  5.8652986932777264e+02  5.6467269480164896e+02  5.4344081314380173e+02  5.2282014637135308e+02  5.0279670618105985e+02  4.8335660187829313e+02  4.6448604802380368e+02  4.4617137179389465e+02  4.2839902004975568e+02  4.1115556611331556e+02  3.9442771624959852e+02  3.7820231585384499e+02  3.6246635533672872e+02  3.4720697571856692e+02  3.3241147392066091e+02  3.1806730776316067e+02  3.0416210066495103e+02  2.9068364605113192e+02  2.7761991146691514e+02  2.6495904240240753e+02  2.5268936582989627e+02  2.4079939345718276e+02  2.2927782470112200e+02  2.1811354938372079e+02  2.0729565015617851e+02  1.9681340465513961e+02  1.8665628739610082e+02  1.7681397140850811e+02  1.6727632961732579e+02  1.5803343597975774e+02  1.4907556637859437e+02  1.4039319928376051e+02  1.3197701618234095e+02  1.2381790179156879e+02  1.1590694405764805e+02  1.0823543395105958e+02  1.0079486506897322e+02  9.3576933057314506e+01  8.6573534868221159e+01  7.9776767873549517e+01  7.3178928867338612e+01  6.6772512998144677e+01  6.0550212710948017e+01  5.4504916816620963e+01  4.8629709914044156e+01  4.2917872603043577e+01  3.7362883255390408e+01  3.1958423953747150e+01  2.6698390644851319e+01  2.1576951295163006e+01  1.6588484155059692e+01  1.1728994907581809e+01  6.9896917114505879e+00  2.3148015518470055e+00  -3.5059303552235976e-01  -9.2464001855649114e-01  -1.5433376087363535e+00  -2.1493471305394065e+00  -2.7399079639297916e+00  -3.3173645676776671e+00  -3.8825291246499511e+00  -4.4361604339099125e+00  -4.9789033815251607e+00  -5.5113525818492111e+00  -6.0340662659874402e+00  -6.5475760139765642e+00  -7.0523925930337885e+00  -7.5490110204215446e+00  -8.0379164062149009e+00  -8.5195924187203378e+00  -8.9945350990763000e+00  -9.4632766374317860e+00  -9.9264272069096489e+00  -1.0384749205324303e+01  -1.0839289379601180e+01  -1.1291614008499312e+01  -1.1744227202467041e+01  -1.2201314280671296e+01  -1.2670063337308680e+01  -1.3163020849697881e+01  -1.3702328806775579e+01  -1.4327455186717764e+01  -1.5109874106557045e+01  -1.6181517063729839e+01  -1.7797220983602557e+01  -2.0453493049349071e+01  -2.5208857277361517e+01  -3.3829804964823552e+01  -4.8290660450826223e+01  -6.9875604990490899e+01  -1.1337597418949268e+02  3.5289238462258350e+03  3.4686507378447377e+03  3.3874760267396659e+03  3.3075423182777618e+03  3.2288484716836206e+03  3.1513928887980624e+03  3.0751735184702047e+03  3.0001878582913159e+03  2.9264329574376625e+03  2.8539054199163643e+03  2.7826014083077393e+03  2.7125166479834688e+03  2.6436464317934051e+03  2.5759856252132890e+03  2.5095286719427577e+03  2.4442695999431608e+03  2.3802020279045000e+03  2.3173191721290959e+03  2.2556138538186478e+03  2.1950785067525244e+03  2.1357051853415041e+03  2.0774855730443865e+03  2.0204109911298765e+03  1.9644724077694664e+03  1.9096604474446722e+03  1.8559654006520359e+03  1.8033772338875422e+03  1.7518855998952233e+03  1.7014798481597277e+03  1.6521490356268068e+03  1.6038819376314020e+03  1.5566670590172055e+03  1.5104926454267604e+03  1.4653466947452080e+03  1.4212169686776017e+03  1.3780910044423022e+03  1.3359561265606112e+03  1.2947994587247956e+03  1.2546079357258425e+03  1.2153683154224202e+03  1.1770671907336211e+03  1.1396910016365960e+03  1.1032260471525560e+03  1.0676584973029981e+03  1.0329744050208287e+03  9.9915971799722547e+02  9.6620029045150670e+02  9.3408189480484475e+02  9.0279023324639661e+02  8.7231094917348526e+02  8.4262963849472510e+02  8.1373186078042659e+02  7.8560315024857994e+02  7.5822902657314989e+02  7.3159500550287783e+02  7.0568660927998815e+02  6.8048937684709472e+02  6.5598887383342219e+02  6.3217070230909792e+02  6.0902051030207895e+02  5.8652400106444406e+02  5.6466694208696879e+02  5.4343517384858171e+02  5.2281461829906539e+02  5.0279128706822229e+02  4.8335128939503016e+02  4.6448083977375609e+02  4.4616626531428045e+02  4.2839401280992348e+02  4.1115065551531603e+02  3.9442289962631122e+02  3.7819759046620754e+02  3.6246171837333969e+02  3.4720242429124761e+02  3.3240700506186187e+02  3.1806291842059073e+02  3.0415778769714291e+02  2.9067940622034661e+02  2.7761574143117673e+02  2.6495493870666155e+02  2.5268532489465315e+02  2.4079541156526707e+02  2.2927389798178206e+02  2.1810967379377882e+02  2.0729182145804688e+02  1.9680961838989489e+02  1.8665253885135479e+02  1.7681025557962184e+02  1.6727264116176457e+02  1.5802976915990533e+02  1.4907191499348795e+02  1.4038955658357159e+02  1.3197337476522023e+02  1.2381425347207994e+02  1.1590327970259419e+02  1.0823174327024584e+02  1.0079113634653436e+02  9.3573152800376789e+01  8.6569687342616248e+01  7.9772834480137362e+01  7.3174887286400377e+01  6.6768335994597962e+01  6.0545866421013798e+01  5.4500358221817933e+01  4.8624883000298489e+01  4.2912702253823674e+01  3.7357265268892320e+01  3.1952206441817733e+01  2.6691345863726127e+01  2.1568668587358118e+01  1.6578450826819115e+01  1.1714437609752586e+01  6.9753517042591122e+00  2.2130264879163475e+00  -4.5456414234574960e-01  -9.3687809699074320e-01  -1.5558237116128486e+00  -2.1571779006326453e+00  -2.7459506947114298e+00  -3.3221394721217568e+00  -3.8864531487276972e+00  -4.4394626400310822e+00  -4.9817353756223426e+00  -5.5138172138700767e+00  -6.0362364899512038e+00  -6.5495047794293493e+00  -7.0541185488107327e+00  -7.5505614954899993e+00  -8.0393083029974246e+00  -8.5208309320538582e+00  -8.9956094780323959e+00  -9.4641512255973286e+00  -9.9270243869293058e+00  -1.0384918081118109e+01  -1.0838749086679609e+01  -1.1289851731171314e+01  -1.1740315117454603e+01  -1.2193580749337787e+01  -1.2655499172925227e+01  -1.3136195884280401e+01  -1.3653362105078395e+01  -1.4238102909168754e+01  -1.4945296095155475e+01  -1.5873107708974327e+01  -1.7196604574880112e+01  -1.9253757518906774e+01  -2.2631035410966710e+01  -2.8950002413212722e+01  -4.0661173431992459e+01  -6.1044076651455491e+01  -8.9447121367781563e+01  3.5289238442969800e+03  3.4686507388249702e+03  3.3874760264722663e+03  3.3075423183892885e+03  3.2288484717339516e+03  3.1513928888570108e+03  3.0751735185275779e+03  3.0001878583485313e+03  2.9264329574944636e+03  2.8539054199727270e+03  2.7826014083636533e+03  2.7125166480388652e+03  2.6436464318482522e+03  2.5759856252675495e+03  2.5095286719963569e+03  2.4442695999960783e+03  2.3802020279567478e+03  2.3173191721805547e+03  2.2556138538693904e+03  2.1950785068023424e+03  2.1357051853905259e+03  2.0774855730925392e+03  2.0204109911770277e+03  1.9644724078156964e+03  1.9096604474899548e+03  1.8559654006963187e+03  1.8033772339307220e+03  1.7518855999373793e+03  1.7014798482008691e+03  1.6521490356667348e+03  1.6038819376702102e+03  1.5566670590548899e+03  1.5104926454632907e+03  1.4653466947804886e+03  1.4212169687116536e+03  1.3780910044752325e+03  1.3359561265922480e+03  1.2947994587552350e+03  1.2546079357549106e+03  1.2153683154502817e+03  1.1770671907603621e+03  1.1396910016618783e+03  1.1032260471765162e+03  1.0676584973257004e+03  1.0329744050421989e+03  9.9915971801740898e+02  9.6620029047025366e+02  9.3408189482226157e+02  9.0279023326254674e+02  8.7231094918833162e+02  8.4262963850821234e+02  8.1373186079264099e+02  7.8560315025940895e+02  7.5822902658265787e+02  7.3159500551110000e+02  7.0568660928694464e+02  6.8048937685265059e+02  6.5598887383762883e+02  6.3217070231203832e+02  6.0902051030352322e+02  5.8652400106467610e+02  5.6466694208586330e+02  5.4343517384588608e+02  5.2281461829518310e+02  5.0279128706301753e+02  4.8335128938828359e+02  4.6448083976557069e+02  4.4616626530443324e+02  4.2839401279880400e+02  4.1115065550258066e+02  3.9442289961187208e+02  3.7819759045000285e+02  3.6246171835540838e+02  3.4720242427142813e+02  3.3240700504014472e+02  3.1806291839672065e+02  3.0415778767104990e+02  2.9067940619167933e+02  2.7761574139991399e+02  2.6495493867256050e+02  2.5268532485735275e+02  2.4079541152443986e+02  2.2927389793695170e+02  2.1810967374453173e+02  2.0729182140399584e+02  1.9680961833003815e+02  1.8665253878510742e+02  1.7681025550602274e+02  1.6727264107948466e+02  1.5802976906745118e+02  1.4907191488935175e+02  1.4038955646549090e+02  1.3197337463035296e+02  1.2381425331694724e+02  1.1590327952277887e+02  1.0823174306055608e+02  1.0079113609927782e+02  9.3573152505887052e+01  8.6569686988007234e+01  7.9772834047471619e+01  7.3174886750788559e+01  6.6768335320678588e+01  6.0545865555928962e+01  5.4500357086694592e+01  4.8624881468286937e+01  4.2912700126122971e+01  3.7357262126113909e+01  3.1952201988252405e+01  2.6691336137437961e+01  2.1568667477773019e+01  1.6578336203334882e+01  1.1714907669703955e+01  6.9719736658178224e+00  2.2200237726417149e+00  -4.4765261487494262e-01  -9.4037672627554336e-01  -1.5553356027268255e+00  -2.1572960550804452e+00  -2.7459511229204963e+00  -3.3221487772709604e+00  -3.8864566874340936e+00  -4.4394641726823725e+00  -4.9817346037234893e+00  -5.5138134912873635e+00  -6.0362280628946712e+00  -6.5494882143076003e+00  -7.0540874390499955e+00  -7.5505040910240613e+00  -8.0392031863346247e+00  -8.5206391804961381e+00  -8.9952604930077307e+00  -9.4635171631697510e+00  -9.9258741057884254e+00  -1.0382834352181076e+01  -1.0834980024165812e+01  -1.1283044616428437e+01  -1.1728040077514565e+01  -1.2171478433758498e+01  -1.2615752733350423e+01  -1.3064773430474206e+01  -1.3524980678157130e+01  -1.4006750779881099e+01  -1.4525890161111626e+01  -1.5102259774100245e+01  -1.5751990819724732e+01  -1.6425791508724870e+01  -1.7005711936853025e+01  -1.6479145652543608e+01  -1.8545829395501553e+01  -2.3272442066362085e+01  -2.0630987902609526e+01  3.5289238442969736e+03  3.4686507388249770e+03  3.3874760264722586e+03  3.3075423183892972e+03  3.2288484717339525e+03  3.1513928888569976e+03  3.0751735185275770e+03  3.0001878583485441e+03  2.9264329574944591e+03  2.8539054199727298e+03  2.7826014083636614e+03  2.7125166480388698e+03  2.6436464318482335e+03  2.5759856252675390e+03  2.5095286719963738e+03  2.4442695999960915e+03  2.3802020279567382e+03  2.3173191721805392e+03  2.2556138538693831e+03  2.1950785068023447e+03  2.1357051853905250e+03  2.0774855730925324e+03  2.0204109911770677e+03  1.9644724078156703e+03  1.9096604474899834e+03  1.8559654006962962e+03  1.8033772339307245e+03  1.7518855999373848e+03  1.7014798482008352e+03  1.6521490356667982e+03  1.6038819376702038e+03  1.5566670590548756e+03  1.5104926454632623e+03  1.4653466947804986e+03  1.4212169687117059e+03  1.3780910044752370e+03  1.3359561265921975e+03  1.2947994587552200e+03  1.2546079357549402e+03  1.2153683154503176e+03  1.1770671907602823e+03  1.1396910016618945e+03  1.1032260471765499e+03  1.0676584973256665e+03  1.0329744050422296e+03  9.9915971801736816e+02  9.6620029047024320e+02  9.3408189482229170e+02  9.0279023326257891e+02  8.7231094918832650e+02  8.4262963850823348e+02  8.1373186079263439e+02  7.8560315025947477e+02  7.5822902658262922e+02  7.3159500551108317e+02  7.0568660928688632e+02  6.8048937685267356e+02  6.5598887383764486e+02  6.3217070231198750e+02  6.0902051030356347e+02  5.8652400106463483e+02  5.6466694208580350e+02  5.4343517384596851e+02  5.2281461829521822e+02  5.0279128706295631e+02  4.8335128938823692e+02  4.6448083976557768e+02  4.4616626530457268e+02  4.2839401279879110e+02  4.1115065550244930e+02  3.9442289961188146e+02  3.7819759045010994e+02  3.6246171835534744e+02  3.4720242427142387e+02  3.3240700504015302e+02  3.1806291839675987e+02  3.0415778767102455e+02  2.9067940619168405e+02  2.7761574139992393e+02  2.6495493867247808e+02  2.5268532485742529e+02  2.4079541152436752e+02  2.2927389793699268e+02  2.1810967374460984e+02  2.0729182140390506e+02  1.9680961833008828e+02  1.8665253878509091e+02  1.7681025550602226e+02  1.6727264107944308e+02  1.5802976906750214e+02  1.4907191488933117e+02  1.4038955646545219e+02  1.3197337463023717e+02  1.2381425331705626e+02  1.1590327952286874e+02  1.0823174306047818e+02  1.0079113609925675e+02  9.3573152505959229e+01  8.6569686988000043e+01  7.9772834047489397e+01  7.3174886750739816e+01  6.6768335320715522e+01  6.0545865555926618e+01  5.4500357086696837e+01  4.8624881468192527e+01  4.2912700126108199e+01  3.7357262125874051e+01  3.1952201987893837e+01  2.6691336136932211e+01  2.1568667476671916e+01  1.6578336201427213e+01  1.1714907666303779e+01  6.9719736595772011e+00  2.2200237552114817e+00  -4.4765258623420739e-01  -9.4037667632523358e-01  -1.5553355105217168e+00  -2.1572958857276379e+00  -2.7459508119356335e+00  -3.3221482065701293e+00  -3.8864556407421134e+00  -4.4394622542425024e+00  -4.9817310899351623e+00  -5.5138070602032769e+00  -6.0362163015268093e+00  -6.5494667224342473e+00  -7.0540482006245506e+00  -7.5504325184469776e+00  -8.0390727636724311e+00  -8.5204017688792799e+00  -8.9948288134395149e+00  -9.4627331986912093e+00  -9.9244522107117685e+00  -1.0380259031458577e+01  -1.0830322674277724e+01  -1.1274635793543647e+01  -1.1712884992395569e+01  -1.2144217711087396e+01  -1.2566820736484370e+01  -1.2977148592392346e+01  -1.3368468432424303e+01  -1.3728023462176504e+01  -1.4030944332698768e+01  -1.4227250229077592e+01  -1.4204433429531917e+01  -1.3719052889983654e+01  -1.1992384252048128e+01  -7.7321368058223490e+00  1.0149254383247300e+01  3.4353543714870348e+01  4.4544708560351950e+01  3.5289238462258363e+03  3.4686507378447300e+03  3.3874760267396678e+03  3.3075423182777595e+03  3.2288484716836165e+03  3.1513928887980660e+03  3.0751735184701979e+03  3.0001878582913037e+03  2.9264329574376702e+03  2.8539054199163747e+03  2.7826014083077416e+03  2.7125166479834734e+03  2.6436464317934051e+03  2.5759856252132849e+03  2.5095286719427568e+03  2.4442695999431403e+03  2.3802020279045196e+03  2.3173191721291096e+03  2.2556138538186815e+03  2.1950785067524712e+03  2.1357051853415119e+03  2.0774855730444106e+03  2.0204109911298417e+03  1.9644724077694150e+03  1.9096604474447411e+03  1.8559654006520225e+03  1.8033772338875510e+03  1.7518855998952035e+03  1.7014798481597852e+03  1.6521490356267846e+03  1.6038819376314095e+03  1.5566670590172321e+03  1.5104926454267520e+03  1.4653466947451934e+03  1.4212169686776433e+03  1.3780910044422735e+03  1.3359561265605951e+03  1.2947994587248261e+03  1.2546079357257543e+03  1.2153683154224298e+03  1.1770671907337135e+03  1.1396910016366471e+03  1.1032260471524407e+03  1.0676584973030529e+03  1.0329744050207851e+03  9.9915971799722820e+02  9.6620029045150659e+02  9.3408189480482872e+02  9.0279023324639377e+02  8.7231094917347991e+02  8.4262963849472771e+02  8.1373186078045728e+02  7.8560315024862166e+02  7.5822902657299835e+02  7.3159500550291182e+02  7.0568660928006273e+02  6.8048937684710904e+02  6.5598887383338717e+02  6.3217070230912111e+02  6.0902051030199596e+02  5.8652400106445839e+02  5.6466694208700733e+02  5.4343517384844256e+02  5.2281461829911746e+02  5.0279128706831824e+02  4.8335128939500783e+02  4.6448083977379036e+02  4.4616626531416722e+02  4.2839401281005269e+02  4.1115065551523128e+02  3.9442289962627746e+02  3.7819759046624540e+02  3.6246171837329331e+02  3.4720242429125449e+02  3.3240700506193730e+02  3.1806291842064127e+02  3.0415778769717275e+02  2.9067940622021507e+02  2.7761574143121368e+02  2.6495493870672090e+02  2.5268532489462930e+02  2.4079541156533583e+02  2.2927389798172587e+02  2.1810967379378397e+02  2.0729182145805299e+02  1.9680961838981867e+02  1.8665253885134163e+02  1.7681025557959708e+02  1.6727264116185626e+02  1.5802976915986733e+02  1.4907191499339604e+02  1.4038955658368346e+02  1.3197337476520065e+02  1.2381425347207272e+02  1.1590327970250326e+02  1.0823174327030168e+02  1.0079113634660037e+02  9.3573152800376192e+01  8.6569687342603245e+01  7.9772834480206001e+01  7.3174887286337722e+01  6.6768335994692762e+01  6.0545866420779085e+01  5.4500358221775869e+01  4.8624883000187111e+01  4.2912702253578722e+01  3.7357265268572263e+01  3.1952206440966361e+01  2.6691345862107895e+01  2.1568668584744859e+01  1.6578450821923102e+01  1.1714437600691841e+01  6.9753516890727676e+00  2.2130264394668422e+00  -4.5456407019746692e-01  -9.3687796514028798e-01  -1.5558234703932086e+00  -2.1571774572478177e+00  -2.7459498805559224e+00  -3.3221379779924995e+00  -3.8864504083771365e+00  -4.4394576174012279e+00  -4.9817261762047931e+00  -5.5138003767533919e+00  -6.0362056978062357e+00  -6.5494485121953447e+00  -7.0540158199282583e+00  -7.5503741137989770e+00  -8.0389668482624987e+00  -8.5202093740982683e+00  -8.9944793159399428e+00  -9.4620987629146818e+00  -9.9233017894639008e+00  -1.0378175758732981e+01  -1.0826555913916259e+01  -1.1267837030105818e+01  -1.1700638414953081e+01  -1.2122210913575204e+01  -1.2527393332120406e+01  -1.2906788627264048e+01  -1.3243615817127333e+01  -1.3508335809725409e+01  -1.3649917916035399e+01  -1.3581311469524316e+01  -1.3163657708418066e+01  -1.2160058600683570e+01  -1.0350359122093590e+01  -6.6648072005819410e+00  -3.7447548811886318e+00  -1.6969930471561520e-01  7.8802655113866562e+00  3.5289373582092667e+03  3.4686642507680763e+03  3.3874894344188533e+03  3.3075556317014289e+03  3.2288616865890658e+03  3.1514060027775040e+03  3.0751865289298162e+03  3.0002007627326816e+03  2.9264457534196968e+03  2.8539181050640832e+03  2.7826139803136671e+03  2.7125291046099896e+03  2.6436587708755155e+03  2.5759978446601181e+03  2.5095407697401279e+03  2.4442815741554823e+03  2.3802138766765020e+03  2.3173308936878107e+03  2.2556254464750591e+03  2.1950899689030866e+03  2.1357165154697909e+03  2.0774967697222482e+03  2.0204220530188393e+03  1.9644833336218162e+03  1.9096712361047366e+03  1.8559760510564304e+03  1.8033877450670122e+03  1.7518959709743340e+03  1.7014900783581115e+03  1.6521591242592012e+03  1.6038918841083046e+03  1.5566768628449017e+03  1.5105023062077171e+03  1.4653562121776060e+03  1.4212263425558092e+03  1.3781002346562541e+03  1.3359652130955337e+03  1.2948084016612354e+03  1.2546167352386142e+03  1.2153769717803405e+03  1.1770757042985872e+03  1.1396993728630891e+03  1.1032342765866176e+03  1.0676665855813847e+03  1.0329823528696322e+03  9.9916752623163472e+02  9.6620795997379969e+02  9.3408942660365597e+02  9.0279762839547243e+02  8.7231820883015905e+02  8.4263676389899888e+02  8.1373885325321442e+02  7.8561001119086905e+02  7.5823575746410222e+02  7.3160160789879171e+02  7.0569308481308474e+02  6.8049572722385881e+02  6.5599510083360042e+02  6.3217680778454110e+02  6.0902649617510031e+02  5.8652986932785723e+02  5.6467269480161144e+02  5.4344081314380753e+02  5.2282014637142345e+02  5.0279670618110254e+02  4.8335660187827631e+02  4.64486048023732