<?xml version="1.0"?>
<VTKFile type="UnstructuredGrid"  version="0.1"  >
<UnstructuredGrid>
<Piece  NumberOfPoints="1656" NumberOfCells="3000">
<Points>
<DataArray  type="Float64"  NumberOfComponents="3"  format="ascii">0 0 0  2 0 0  4 0 0  6 0 0  8 0 0  10 0 0  12 0 0  14 0 0  16 0 0  18 0 0  20 0 0  22 0 0  24 0 0  26 0 0  28 0 0  30 0 0  32 0 0  34 0 0  36 0 0  38 0 0  40 0 0  42 0 0  44 0 0  46 0 0  48 0 0  50 0 0  52 0 0  54 0 0  56 0 0  58 0 0  60 0 0  62 0 0  64 0 0  66 0 0  68 0 0  70 0 0  72 0 0  74 0 0  76 0 0  78 0 0  80 0 0  82 0 0  84 0 0  86 0 0  88 0 0  90 0 0  92 0 0  94 0 0  96 0 0  98 0 0  100 0 0  102 0 0  104 0 0  106 0 0  108 0 0  110 0 0  112 0 0  114 0 0  116 0 0  118 0 0  120 0 0  122 0 0  124 0 0  126 0 0  128 0 0  130 0 0  132 0 0  134 0 0  136 0 0  138 0 0  140 0 0  142 0 0  144 0 0  146 0 0  148 0 0  150 0 0  152 0 0  154 0 0  156 0 0  158 0 0  160 0 0  162 0 0  164 0 0  166 0 0  168 0 0  170 0 0  172 0 0  174 0 0  176 0 0  178 0 0  180 0 0  182 0 0  184 0 0  186 0 0  188 0 0  190 0 0  192 0 0  194 0 0  196 0 0  198 0 0  200 0 0  202 0 0  204 0 0  206 0 0  208 0 0  210 0 0  212 0 0  214 0 0  216 0 0  218 0 0  220 0 0  222 0 0  224 0 0  226 0 0  228 0 0  230 0 0  232 0 0  234 0 0  236 0 0  238 0 0  240 0 0  242 0 0  244 0 0  246 0 0  248 0 0  250 0 0  252 0 0  254 0 0  256 0 0  258 0 0  260 0 0  262 0 0  264 0 0  266 0 0  268 0 0  270 0 0  272 0 0  274 0 0  276 0 0  278 0 0  280 0 0  282 0 0  284 0 0  286 0 0  288 0 0  290 0 0  292 0 0  294 0 0  296 0 0  298 0 0  300 0 0  0 2 0  2 2 0  4 2 0  6 2 0  8 2 0  10 2 0  12 2 0  14 2 0  16 2 0  18 2 0  20 2 0  22 2 0  24 2 0  26 2 0  28 2 0  30 2 0  32 2 0  34 2 0  36 2 0  38 2 0  40 2 0  42 2 0  44 2 0  46 2 0  48 2 0  50 2 0  52 2 0  54 2 0  56 2 0  58 2 0  60 2 0  62 2 0  64 2 0  66 2 0  68 2 0  70 2 0  72 2 0  74 2 0  76 2 0  78 2 0  80 2 0  82 2 0  84 2 0  86 2 0  88 2 0  90 2 0  92 2 0  94 2 0  96 2 0  98 2 0  100 2 0  102 2 0  104 2 0  106 2 0  108 2 0  110 2 0  112 2 0  114 2 0  116 2 0  118 2 0  120 2 0  122 2 0  124 2 0  126 2 0  128 2 0  130 2 0  132 2 0  134 2 0  136 2 0  138 2 0  140 2 0  142 2 0  144 2 0  146 2 0  148 2 0  150 2 0  152 2 0  154 2 0  156 2 0  158 2 0  160 2 0  162 2 0  164 2 0  166 2 0  168 2 0  170 2 0  172 2 0  174 2 0  176 2 0  178 2 0  180 2 0  182 2 0  184 2 0  186 2 0  188 2 0  190 2 0  192 2 0  194 2 0  196 2 0  198 2 0  200 2 0  202 2 0  204 2 0  206 2 0  208 2 0  210 2 0  212 2 0  214 2 0  216 2 0  218 2 0  220 2 0  222 2 0  224 2 0  226 2 0  228 2 0  230 2 0  232 2 0  234 2 0  236 2 0  238 2 0  240 2 0  242 2 0  244 2 0  246 2 0  248 2 0  250 2 0  252 2 0  254 2 0  256 2 0  258 2 0  260 2 0  262 2 0  264 2 0  266 2 0  268 2 0  270 2 0  272 2 0  274 2 0  276 2 0  278 2 0  280 2 0  282 2 0  284 2 0  286 2 0  288 2 0  290 2 0  292 2 0  294 2 0  296 2 0  298 2 0  300 2 0  0 4 0  2 4 0  4 4 0  6 4 0  8 4 0  10 4 0  12 4 0  14 4 0  16 4 0  18 4 0  20 4 0  22 4 0  24 4 0  26 4 0  28 4 0  30 4 0  32 4 0  34 4 0  36 4 0  38 4 0  40 4 0  42 4 0  44 4 0  46 4 0  48 4 0  50 4 0  52 4 0  54 4 0  56 4 0  58 4 0  60 4 0  62 4 0  64 4 0  66 4 0  68 4 0  70 4 0  72 4 0  74 4 0  76 4 0  78 4 0  80 4 0  82 4 0  84 4 0  86 4 0  88 4 0  90 4 0  92 4 0  94 4 0  96 4 0  98 4 0  100 4 0  102 4 0  104 4 0  106 4 0  108 4 0  110 4 0  112 4 0  114 4 0  116 4 0  118 4 0  120 4 0  122 4 0  124 4 0  126 4 0  128 4 0  130 4 0  132 4 0  134 4 0  136 4 0  138 4 0  140 4 0  142 4 0  144 4 0  146 4 0  148 4 0  150 4 0  152 4 0  154 4 0  156 4 0  158 4 0  160 4 0  162 4 0  164 4 0  166 4 0  168 4 0  170 4 0  172 4 0  174 4 0  176 4 0  178 4 0  180 4 0  182 4 0  184 4 0  186 4 0  188 4 0  190 4 0  192 4 0  194 4 0  196 4 0  198 4 0  200 4 0  202 4 0  204 4 0  206 4 0  208 4 0  210 4 0  212 4 0  214 4 0  216 4 0  218 4 0  220 4 0  222 4 0  224 4 0  226 4 0  228 4 0  230 4 0  232 4 0  234 4 0  236 4 0  238 4 0  240 4 0  242 4 0  244 4 0  246 4 0  248 4 0  250 4 0  252 4 0  254 4 0  256 4 0  258 4 0  260 4 0  262 4 0  264 4 0  266 4 0  268 4 0  270 4 0  272 4 0  274 4 0  276 4 0  278 4 0  280 4 0  282 4 0  284 4 0  286 4 0  288 4 0  290 4 0  292 4 0  294 4 0  296 4 0  298 4 0  300 4 0  0 6 0  2 6 0  4 6 0  6 6 0  8 6 0  10 6 0  12 6 0  14 6 0  16 6 0  18 6 0  20 6 0  22 6 0  24 6 0  26 6 0  28 6 0  30 6 0  32 6 0  34 6 0  36 6 0  38 6 0  40 6 0  42 6 0  44 6 0  46 6 0  48 6 0  50 6 0  52 6 0  54 6 0  56 6 0  58 6 0  60 6 0  62 6 0  64 6 0  66 6 0  68 6 0  70 6 0  72 6 0  74 6 0  76 6 0  78 6 0  80 6 0  82 6 0  84 6 0  86 6 0  88 6 0  90 6 0  92 6 0  94 6 0  96 6 0  98 6 0  100 6 0  102 6 0  104 6 0  106 6 0  108 6 0  110 6 0  112 6 0  114 6 0  116 6 0  118 6 0  120 6 0  122 6 0  124 6 0  126 6 0  128 6 0  130 6 0  132 6 0  134 6 0  136 6 0  138 6 0  140 6 0  142 6 0  144 6 0  146 6 0  148 6 0  150 6 0  152 6 0  154 6 0  156 6 0  158 6 0  160 6 0  162 6 0  164 6 0  166 6 0  168 6 0  170 6 0  172 6 0  174 6 0  176 6 0  178 6 0  180 6 0  182 6 0  184 6 0  186 6 0  188 6 0  190 6 0  192 6 0  194 6 0  196 6 0  198 6 0  200 6 0  202 6 0  204 6 0  206 6 0  208 6 0  210 6 0  212 6 0  214 6 0  216 6 0  218 6 0  220 6 0  222 6 0  224 6 0  226 6 0  228 6 0  230 6 0  232 6 0  234 6 0  236 6 0  238 6 0  240 6 0  242 6 0  244 6 0  246 6 0  248 6 0  250 6 0  252 6 0  254 6 0  256 6 0  258 6 0  260 6 0  262 6 0  264 6 0  266 6 0  268 6 0  270 6 0  272 6 0  274 6 0  276 6 0  278 6 0  280 6 0  282 6 0  284 6 0  286 6 0  288 6 0  290 6 0  292 6 0  294 6 0  296 6 0  298 6 0  300 6 0  0 8 0  2 8 0  4 8 0  6 8 0  8 8 0  10 8 0  12 8 0  14 8 0  16 8 0  18 8 0  20 8 0  22 8 0  24 8 0  26 8 0  28 8 0  30 8 0  32 8 0  34 8 0  36 8 0  38 8 0  40 8 0  42 8 0  44 8 0  46 8 0  48 8 0  50 8 0  52 8 0  54 8 0  56 8 0  58 8 0  60 8 0  62 8 0  64 8 0  66 8 0  68 8 0  70 8 0  72 8 0  74 8 0  76 8 0  78 8 0  80 8 0  82 8 0  84 8 0  86 8 0  88 8 0  90 8 0  92 8 0  94 8 0  96 8 0  98 8 0  100 8 0  102 8 0  104 8 0  106 8 0  108 8 0  110 8 0  112 8 0  114 8 0  116 8 0  118 8 0  120 8 0  122 8 0  124 8 0  126 8 0  128 8 0  130 8 0  132 8 0  134 8 0  136 8 0  138 8 0  140 8 0  142 8 0  144 8 0  146 8 0  148 8 0  150 8 0  152 8 0  154 8 0  156 8 0  158 8 0  160 8 0  162 8 0  164 8 0  166 8 0  168 8 0  170 8 0  172 8 0  174 8 0  176 8 0  178 8 0  180 8 0  182 8 0  184 8 0  186 8 0  188 8 0  190 8 0  192 8 0  194 8 0  196 8 0  198 8 0  200 8 0  202 8 0  204 8 0  206 8 0  208 8 0  210 8 0  212 8 0  214 8 0  216 8 0  218 8 0  220 8 0  222 8 0  224 8 0  226 8 0  228 8 0  230 8 0  232 8 0  234 8 0  236 8 0  238 8 0  240 8 0  242 8 0  244 8 0  246 8 0  248 8 0  250 8 0  252 8 0  254 8 0  256 8 0  258 8 0  260 8 0  262 8 0  264 8 0  266 8 0  268 8 0  270 8 0  272 8 0  274 8 0  276 8 0  278 8 0  280 8 0  282 8 0  284 8 0  286 8 0  288 8 0  290 8 0  292 8 0  294 8 0  296 8 0  298 8 0  300 8 0  0 10 0  2 10 0  4 10 0  6 10 0  8 10 0  10 10 0  12 10 0  14 10 0  16 10 0  18 10 0  20 10 0  22 10 0  24 10 0  26 10 0  28 10 0  30 10 0  32 10 0  34 10 0  36 10 0  38 10 0  40 10 0  42 10 0  44 10 0  46 10 0  48 10 0  50 10 0  52 10 0  54 10 0  56 10 0  58 10 0  60 10 0  62 10 0  64 10 0  66 10 0  68 10 0  70 10 0  72 10 0  74 10 0  76 10 0  78 10 0  80 10 0  82 10 0  84 10 0  86 10 0  88 10 0  90 10 0  92 10 0  94 10 0  96 10 0  98 10 0  100 10 0  102 10 0  104 10 0  106 10 0  108 10 0  110 10 0  112 10 0  114 10 0  116 10 0  118 10 0  120 10 0  122 10 0  124 10 0  126 10 0  128 10 0  130 10 0  132 10 0  134 10 0  136 10 0  138 10 0  140 10 0  142 10 0  144 10 0  146 10 0  148 10 0  150 10 0  152 10 0  154 10 0  156 10 0  158 10 0  160 10 0  162 10 0  164 10 0  166 10 0  168 10 0  170 10 0  172 10 0  174 10 0  176 10 0  178 10 0  180 10 0  182 10 0  184 10 0  186 10 0  188 10 0  190 10 0  192 10 0  194 10 0  196 10 0  198 10 0  200 10 0  202 10 0  204 10 0  206 10 0  208 10 0  210 10 0  212 10 0  214 10 0  216 10 0  218 10 0  220 10 0  222 10 0  224 10 0  226 10 0  228 10 0  230 10 0  232 10 0  234 10 0  236 10 0  238 10 0  240 10 0  242 10 0  244 10 0  246 10 0  248 10 0  250 10 0  252 10 0  254 10 0  256 10 0  258 10 0  260 10 0  262 10 0  264 10 0  266 10 0  268 10 0  270 10 0  272 10 0  274 10 0  276 10 0  278 10 0  280 10 0  282 10 0  284 10 0  286 10 0  288 10 0  290 10 0  292 10 0  294 10 0  296 10 0  298 10 0  300 10 0  1 1 0  3 1 0  5 1 0  7 1 0  9 1 0  11 1 0  13 1 0  15 1 0  17 1 0  19 1 0  21 1 0  23 1 0  25 1 0  27 1 0  29 1 0  31 1 0  33 1 0  35 1 0  37 1 0  39 1 0  41 1 0  43 1 0  45 1 0  47 1 0  49 1 0  51 1 0  53 1 0  55 1 0  57 1 0  59 1 0  61 1 0  63 1 0  65 1 0  67 1 0  69 1 0  71 1 0  73 1 0  75 1 0  77 1 0  79 1 0  81 1 0  83 1 0  85 1 0  87 1 0  89 1 0  91 1 0  93 1 0  95 1 0  97 1 0  99 1 0  101 1 0  103 1 0  105 1 0  107 1 0  109 1 0  111 1 0  113 1 0  115 1 0  117 1 0  119 1 0  121 1 0  123 1 0  125 1 0  127 1 0  129 1 0  131 1 0  133 1 0  135 1 0  137 1 0  139 1 0  141 1 0  143 1 0  145 1 0  147 1 0  149 1 0  151 1 0  153 1 0  155 1 0  157 1 0  159 1 0  161 1 0  163 1 0  165 1 0  167 1 0  169 1 0  171 1 0  173 1 0  175 1 0  177 1 0  179 1 0  181 1 0  183 1 0  185 1 0  187 1 0  189 1 0  191 1 0  193 1 0  195 1 0  197 1 0  199 1 0  201 1 0  203 1 0  205 1 0  207 1 0  209 1 0  211 1 0  213 1 0  215 1 0  217 1 0  219 1 0  221 1 0  223 1 0  225 1 0  227 1 0  229 1 0  231 1 0  233 1 0  235 1 0  237 1 0  239 1 0  241 1 0  243 1 0  245 1 0  247 1 0  249 1 0  251 1 0  253 1 0  255 1 0  257 1 0  259 1 0  261 1 0  263 1 0  265 1 0  267 1 0  269 1 0  271 1 0  273 1 0  275 1 0  277 1 0  279 1 0  281 1 0  283 1 0  285 1 0  287 1 0  289 1 0  291 1 0  293 1 0  295 1 0  297 1 0  299 1 0  1 3 0  3 3 0  5 3 0  7 3 0  9 3 0  11 3 0  13 3 0  15 3 0  17 3 0  19 3 0  21 3 0  23 3 0  25 3 0  27 3 0  29 3 0  31 3 0  33 3 0  35 3 0  37 3 0  39 3 0  41 3 0  43 3 0  45 3 0  47 3 0  49 3 0  51 3 0  53 3 0  55 3 0  57 3 0  59 3 0  61 3 0  63 3 0  65 3 0  67 3 0  69 3 0  71 3 0  73 3 0  75 3 0  77 3 0  79 3 0  81 3 0  83 3 0  85 3 0  87 3 0  89 3 0  91 3 0  93 3 0  95 3 0  97 3 0  99 3 0  101 3 0  103 3 0  105 3 0  107 3 0  109 3 0  111 3 0  113 3 0  115 3 0  117 3 0  119 3 0  121 3 0  123 3 0  125 3 0
[...]
<PointData  Scalars="mean stress"> 
<DataArray  type="Float64"  Name="mean stress"  format="ascii">2.2658568554452345e+03  2.2059412303893969e+03  2.1258380479659500e+03  2.0476881569058901e+03  1.9714869891173439e+03  1.8972282186612952e+03  1.8249037401728965e+03  1.7545036977520347e+03  1.6860165139773649e+03  1.6194289246073581e+03  1.5547260179804898e+03  1.4918912790190338e+03  1.4309066375799846e+03  1.3717525208966126e+03  1.3144079098328439e+03  1.2588503986560115e+03  1.2050562580183409e+03  1.1530005008282242e+03  1.1026569506799415e+03  1.0539983125059034e+03  1.0069962451096552e+03  9.6162143523726047e+02  9.1784367284324685e+02  8.7563192721252744e+02  8.3495442360169579e+02  7.9577872007319093e+02  7.5807178420209357e+02  7.2180006934807295e+02  6.8692959019637544e+02  6.5342599728656091e+02  6.2125465026103029e+02  5.9038068958531960e+02  5.6076910650519824e+02  5.3238481102722858e+02  5.0519269772641775e+02  4.7915770920357443e+02  4.5424489703569367e+02  4.3041948008118266e+02  4.0764690002059854e+02  3.8589287403463129e+02  3.6512344453789154e+02  3.4530502590756879e+02  3.2640444816102701e+02  3.0838899755718938e+02  2.9122645410918068e+02  2.7488512601503385e+02  2.5933388102458588e+02  2.4454217477572493e+02  2.3048007614898034e+02  2.1711828969281271e+02  2.0442817519486510e+02  1.9238176447160447e+02  1.8095177546686514e+02  1.7011162375214207e+02  1.5983543153098185e+02  1.5009803425301405e+02  1.4087498495017013e+02  1.3214255641023180e+02  1.2387774130523087e+02  1.1605825039664776e+02  1.0866250893749199e+02  1.0166965139408019e+02  9.5059514610627687e+01  8.8812629536843588e+01  8.2910211639684718e+01  7.7334150117868035e+01  7.2066996034116954e+01  6.7091949481257871e+01  6.2392845890227477e+01  5.7954141588583397e+01  5.3760898714027981e+01  4.9798769581532170e+01  4.6053980601633015e+01  4.2513315841130961e+01  3.9164100315851989e+01  3.5994183099154228e+01  3.2991920327614203e+01  3.0146158182314210e+01  2.7446215921856528e+01  2.4881869042576334e+01  2.2443332645007487e+01  2.0121245094101994e+01  1.7906652080337398e+01  1.5790991235577950e+01  1.3766077560830425e+01  1.1824090116989741e+01  9.9575613366712297e+00  8.1593698109939030e+00  6.4227572910082458e+00  4.7413128274235934e+00  3.1096654720956489e+00  1.5212437884139212e+00  4.5357156516075893e-02  -2.1626214191534254e-01  -4.3194009455838828e-01  -6.4467282408721061e-01  -8.5382464239985811e-01  -1.0609672144007511e+00  -1.2668253097233784e+00  -1.4720695961860464e+00  -1.6772958953350692e+00  -1.8830581442281773e+00  -2.0898756186700762e+00  -2.2982376807276039e+00  -2.5086062836127692e+00  -2.7214175821672919e+00  -2.9370830312760141e+00  -3.1559901852835397e+00  -3.3785033026269327e+00  -3.6049638135687005e+00  -3.8356906858591069e+00  -4.0709807095614039e+00  -4.3111087168819626e+00  -4.5563277482836604e+00  -4.8068691744386616e+00  -5.0629427821984407e+00  -5.3247368326656872e+00  -5.5924180990161236e+00  -5.8661318926796620e+00  -6.1460020877660568e+00  -6.4321311567168982e+00  -6.7246002350218816e+00  -7.0234692431640084e+00  -7.3287771116542544e+00  -7.6405421870601637e+00  -7.9587629563753977e+00  -8.2834193328384416e+00  -8.6144749378307637e+00  -8.9518811585152172e+00  -9.2955843794725155e+00  -9.6455388954119545e+00  -1.0001729992369095e+01  -1.0364215214698641e+01  -1.0733198108014561e+01  -1.1109159850737960e+01  -1.1493093872085446e+01  -1.1886923394570765e+01  -1.2294243669724018e+01  -1.2721641696616491e+01  -1.3181048723519346e+01  -1.3693972024171330e+01  -1.4299215951983284e+01  -1.5067544753709821e+01  -1.6130101009818258e+01  -1.7740783189327168e+01  -2.0394875953452786e+01  -2.5149035380527430e+01  -3.3766985471030225e+01  -4.8219730076758303e+01  -6.9789551519779181e+01  -1.1324641451416211e+02  2.2658359594320668e+03  2.2059203420473450e+03  2.1258174352351143e+03  2.0476677964965038e+03  1.9714668951728465e+03  1.8972084004750091e+03  1.8248842072317482e+03  1.7544844590198259e+03  1.6859975779744786e+03  1.6194102993755107e+03  1.5547077110671416e+03  1.4918732974609393e+03  1.4308889878890159e+03  1.3717352090476511e+03  1.3143909412538030e+03  1.2588337782196154e+03  1.2050399900363939e+03  1.1529845890477329e+03  1.1026413982813897e+03  1.0539831221035320e+03  1.0069814187538144e+03  9.6160697441865295e+02  9.1782957849916772e+02  8.7561819973473564e+02  8.3494106284620693e+02  7.9576572537165464e+02  7.5805915437465308e+02  7.2178780271776907e+02  6.8691768460480409e+02  6.5341445011065593e+02  6.2124345843118454e+02  5.9036984960415714e+02  5.6075861446731278e+02  5.3237466264003183e+02  5.0518288833054083e+02  4.7914823379494402e+02  4.5423575028716471e+02  4.3041065636455880e+02  4.0763839342883398e+02  3.8588467840405184e+02  3.6511555347008402e+02  3.4529743279133737e+02  3.2639714619387360e+02  3.0838197976598127e+02  2.9121971337132942e+02  2.7487865507798853e+02  2.5932767252520023e+02  2.4453622125918181e+02  2.3047437008584413e+02  2.1711282349663679e+02  2.0442294123783768e+02  1.9237675509956361e+02  1.8094698301321318e+02  1.7010704055112353e+02  1.5983104992896992e+02  1.5009384661955792e+02  1.4087098368720180e+02  1.3213873396007924e+02  1.2387409015773628e+02  1.1605476309428259e+02  1.0865917807892626e+02  1.0166646963676999e+02  9.5056474670884015e+01  8.8809724188211845e+01  8.2907433708849766e+01  7.7331492478188608e+01  7.2064451596165284e+01  6.7089511179413932e+01  6.2390506665218091e+01  5.7951894364927178e+01  5.3758736370551944e+01  4.9796684913813742e+01  4.6051966273793163e+01  4.2511364324093179e+01  3.9162203807009405e+01  3.5992333417648666e+01  3.2990108776087823e+01  3.0144375362084471e+01  2.7444451480627414e+01  2.4880111325820611e+01  2.2441568201008302e+01  2.0119457954583456e+01  1.7904822681847367e+01  1.5789094744773898e+01  1.3764081149403522e+01  1.1821948362581045e+01  9.9552073981435374e+00  8.1567007905739626e+00  6.4195816055122279e+00  4.7373535308818715e+00  3.1035382214906968e+00  1.5137846387636027e+00  -2.1879143508188283e-02  -2.2198271063518410e-01  -4.3736322292882240e-01  -6.4788274328641182e-01  -8.5628219806951333e-01  -1.0629143688175402e+00  -1.2684477093979540e+00  -1.4734638662374433e+00  -1.6785242037001022e+00  -1.8841616586694498e+00  -2.0908831236391139e+00  -2.2991700186174708e+00  -2.5094790015780855e+00  -2.7222425576886633e+00  -2.9378695191439657e+00  -3.1567455151210817e+00  -3.3792333577545013e+00  -3.6056733683241005e+00  -3.8363836481836908e+00  -4.0716602991222519e+00  -4.3117775979820800e+00  -4.5569881305404323e+00  -4.8075228900242806e+00  -5.0635913456794635e+00  -5.3253814875430736e+00  -5.5930598536759941e+00  -5.8667715471626671e+00  -6.1466402515518066e+00  -6.4327682558677193e+00  -6.7252365045509137e+00  -7.0241046959998883e+00  -7.3294114674516688e+00  -7.6411747305338391e+00  -7.9593922689893013e+00  -8.2840427962136811e+00  -8.6150878245712015e+00  -8.9524749776107146e+00  -9.2961438760900315e+00  -9.6460366245714066e+00  -1.0002116526258973e+01  -1.0364401504165295e+01  -1.0733023769705358e+01  -1.1108336241104341e+01  -1.1491102023382711e+01  -1.1882831060189330e+01  -1.2286376869658424e+01  -1.2706991728113051e+01  -1.3154190127067926e+01  -1.3645035386921286e+01  -1.4209980630994183e+01  -1.4903215323973358e+01  -1.5822158052625312e+01  -1.7141029567704241e+01  -1.9196755683301799e+01  -2.2574449823663574e+01  -2.8893186726749942e+01  -4.0600295317257356e+01  -6.0970383745530192e+01  -8.9348131144551672e+01  2.2658359551129897e+03  2.2059203446282781e+03  2.1258174346558681e+03  2.0476677968590209e+03  1.9714668953815944e+03  1.8972084007032231e+03  1.8248842074537858e+03  1.7544844592388872e+03  1.6859975781896628e+03  1.6194102995865003e+03  1.5547077112736033e+03  1.4918732976624988e+03  1.4308889880853585e+03  1.3717352092385277e+03  1.3143909414389079e+03  1.2588337783987172e+03  1.2050399902092877e+03  1.1529845892141996e+03  1.1026413984412868e+03  1.0539831222567159e+03  1.0069814189001437e+03  9.6160697455806655e+02  9.1782957863162881e+02  8.7561819986011596e+02  8.3494106296460791e+02  7.9576572548301817e+02  7.5805915447902862e+02  7.2178780281519369e+02  6.8691768469535066e+02  6.5341445019445280e+02  6.2124345850823863e+02  5.9036984967467697e+02  5.6075861453151754e+02  5.3237466269789195e+02  5.0518288838232036e+02  4.7914823384085099e+02  4.5423575032731526e+02  4.3041065639916599e+02  4.0763839345816262e+02  3.8588467842814487e+02  3.6511555348933592e+02  3.4529743280588656e+02  3.2639714620383620e+02  3.0838197977169813e+02  2.9121971337293354e+02  2.7487865507574173e+02  2.5932767251928317e+02  2.4453622124976087e+02  2.3047437007313641e+02  2.1711282348086795e+02  2.0442294121909856e+02  1.9237675507808498e+02  1.8094698298916211e+02  1.7010704052456080e+02  1.5983104990013661e+02  1.5009384658856317e+02  1.4087098365406356e+02  1.3213873392499067e+02  1.2387409012069320e+02  1.1605476305532758e+02  1.0865917803818697e+02  1.0166646959421728e+02  9.5056474626431452e+01  8.8809724141752412e+01  8.2907433660385450e+01  7.7331492427492861e+01  7.2064451543054545e+01  6.7089511123526776e+01  6.2390506606132085e+01  5.7951894302130491e+01  5.3758736303300836e+01  4.9796684841200978e+01  4.6051966194668069e+01  4.2511364236901478e+01  3.9162203709649397e+01  3.5992333307342044e+01  3.2990108649247858e+01  3.0144375213441307e+01  2.7444451303350672e+01  2.4880111109681952e+01  2.2441567931387084e+01  2.0119457609453384e+01  1.7904822227131174e+01  1.5789094124660387e+01  1.3764080272940294e+01  1.1821947035315688e+01  9.9552054398211105e+00  8.1566964216840141e+00  6.4195799084831977e+00  4.7373033993084883e+00  3.1036956617302067e+00  1.5125933227663602e+00  -2.3740815803802613e-02  -2.2348779008592060e-01  -4.3714715458241865e-01  -6.4794035432822017e-01  -8.5628225763041199e-01  -1.0629187411007484e+00  -1.2684495256594941e+00  -1.4734651184107259e+00  -1.6785250182598559e+00  -1.8841622278964107e+00  -2.0908835333637277e+00  -2.2991703224413280e+00  -2.5094792321004129e+00  -2.7222427359582384e+00  -2.9378696591405991e+00  -3.1567456264179357e+00  -3.3792334470185668e+00  -3.6056734401914925e+00  -3.8363837058225205e+00  -4.0716603444732211e+00  -4.3117776316930687e+00  -4.5569881516848216e+00  -4.8075228952253175e+00  -5.0635913274791626e+00  -5.3253814312650993e+00  -5.5930597315920743e+00  -5.8667713078075421e+00  -6.1466398001055476e+00  -6.4327674182662742e+00  -6.7252349619121059e+00  -7.0241018649209117e+00  -7.3294062817916794e+00  -7.6411652439189854e+00  -7.9593749316241817e+00  -8.2840111405609971e+00  -8.6150300799295287e+00  -8.9523697463621286e+00  -9.2959523076078305e+00  -9.6456882721169208e+00  -1.0001483829413681e+01  -1.0363253829081467e+01  -1.0730944779729539e+01  -1.1104575605815146e+01  -1.1484309719659619e+01  -1.1870581867163022e+01  -1.2264319437988908e+01  -1.2667322933153928e+01  -1.3082901585934978e+01  -1.3516884452064962e+01  -1.3979025185269435e+01  -1.4484494232789352e+01  -1.5052504740562012e+01  -1.5698537516370198e+01  -1.6372716176527454e+01  -1.6956580076349077e+01  -1.6437957221085718e+01  -1.8511870190215362e+01  -2.3244804614844355e+01  -2.0616369228702531e+01  2.2658359551129897e+03  2.2059203446282786e+03  2.1258174346558681e+03  2.0476677968590204e+03  1.9714668953815947e+03  1.8972084007032201e+03  1.8248842074537888e+03  1.7544844592388897e+03  1.6859975781896558e+03  1.6194102995865173e+03  1.5547077112735938e+03  1.4918732976624963e+03  1.4308889880853694e+03  1.3717352092385177e+03  1.3143909414389082e+03  1.2588337783987126e+03  1.2050399902092652e+03  1.1529845892142137e+03  1.1026413984413036e+03  1.0539831222566847e+03  1.0069814189001672e+03  9.6160697455806132e+02  9.1782957863163256e+02  8.7561819986013654e+02  8.3494106296459756e+02  7.9576572548301306e+02  7.5805915447903305e+02  7.2178780281518243e+02  6.8691768469539682e+02  6.5341445019439504e+02  6.2124345850823624e+02  5.9036984967471255e+02  5.6075861453150515e+02  5.3237466269788069e+02  5.0518288838234059e+02  4.7914823384082263e+02  4.5423575032732617e+02  4.3041065639916724e+02  4.0763839345815177e+02  3.8588467842817221e+02  3.6511555348930784e+02  3.4529743280589270e+02  3.2639714620385763e+02  3.0838197977168500e+02  2.9121971337292530e+02  2.7487865507577771e+02  2.5932767251925679e+02  2.4453622124975902e+02  2.3047437007315312e+02  2.1711282348084680e+02  2.0442294121913113e+02  1.9237675507807094e+02  1.8094698298918738e+02  1.7010704052455776e+02  1.5983104990011745e+02  1.5009384658851488e+02  1.4087098365410625e+02  1.3213873392496222e+02  1.2387409012071741e+02  1.1605476305532717e+02  1.0865917803816494e+02  1.0166646959420626e+02  9.5056474626430770e+01  8.8809724141776371e+01  8.2907433660403598e+01  7.7331492427485173e+01  7.2064451543032789e+01  6.7089511123522612e+01  6.2390506606156904e+01  5.7951894302111455e+01  5.3758736303272848e+01  4.9796684841223296e+01  4.6051966194687523e+01  4.2511364236874812e+01  3.9162203709651656e+01  3.5992333307347117e+01  3.2990108649222456e+01  3.0144375213497455e+01  2.7444451303315841e+01  2.4880111109675266e+01  2.2441567931460423e+01  2.0119457609398477e+01  1.7904822227177014e+01  1.5789094124667949e+01  1.3764080272904611e+01  1.1821947035309819e+01  9.9552054398594372e+00  8.1566964216864672e+00  6.4195799084375391e+00  4.7373033992823101e+00  3.1036956617902161e+00  1.5125933227116526e+00  -2.3740815812229050e-02  -2.2348779008057171e-01  -4.3714715458165526e-01  -6.4794035432774078e-01  -8.5628225763254717e-01  -1.0629187410981058e+00  -1.2684495256604920e+00  -1.4734651184093361e+00  -1.6785250182566762e+00  -1.8841622278908761e+00  -2.0908835333502171e+00  -2.2991703224108408e+00  -2.5094792320313863e+00  -2.7222427358452244e+00  -2.9378696589418030e+00  -3.1567456260474080e+00  -3.3792334463195717e+00  -3.6056734389095997e+00  -3.8363837034646293e+00  -4.0716603401208982e+00  -4.3117776236802392e+00  -4.5569881369261189e+00  -4.8075228680645266e+00  -5.0635912775266734e+00  -5.3253813394306881e+00  -5.5930595628551636e+00  -5.8667709979175999e+00  -6.1466392313597948e+00  -6.4327663750744746e+00  -6.7252330497521520e+00  -7.0240983623770887e+00  -7.3293998707946368e+00  -7.6411535184305777e+00  -7.9593535036996554e+00  -8.2839720158537649e+00  -8.6149587092763618e+00  -8.9522396815196075e+00  -9.2957155288126501e+00  -9.6452577093494636e+00  -1.0000701831336984e+01  -1.0361835388118211e+01  -1.0728375510974775e+01  -1.1099928831106046e+01  -1.1475919323313059e+01  -1.1855458792259272e+01  -1.2237114145810162e+01  -1.2618486600076009e+01  -1.2995441263000680e+01  -1.3360654085655172e+01  -1.3700778974263645e+01  -1.3990366613814688e+01  -1.4178881182982858e+01  -1.4153329276967199e+01  -1.3669938654854976e+01  -1.1950262816189884e+01  -7.7029177329637273e+00  1.0147964343842558e+01  3.4312954012482777e+01  4.4481718535182708e+01  2.2658359594320664e+03  2.2059203420473441e+03  2.1258174352351143e+03  2.0476677964964988e+03  1.9714668951728504e+03  1.8972084004750166e+03  1.8248842072317439e+03  1.7544844590198288e+03  1.6859975779744684e+03  1.6194102993755123e+03  1.5547077110671626e+03  1.4918732974609345e+03  1.4308889878890054e+03  1.3717352090476347e+03  1.3143909412538194e+03  1.2588337782196052e+03  1.2050399900364041e+03  1.1529845890477327e+03  1.1026413982814006e+03  1.0539831221035211e+03  1.0069814187538367e+03  9.6160697441864056e+02  9.1782957849915954e+02  8.7561819973471597e+02  8.3494106284620591e+02  7.9576572537166601e+02  7.5805915437465376e+02  7.2178780271778089e+02  6.8691768460481887e+02  6.5341445011067390e+02  6.2124345843116237e+02  5.9036984960412508e+02  5.6075861446740362e+02  5.3237466263999829e+02  5.0518288833053299e+02  4.7914823379492822e+02  4.5423575028713964e+02  4.3041065636456375e+02  4.0763839342886286e+02  3.8588467840400938e+02  3.6511555347009227e+02  3.4529743279138933e+02  3.2639714619383972e+02  3.0838197976599542e+02  2.9121971337130827e+02  2.7487865507798148e+02  2.5932767252522598e+02  2.4453622125917627e+02  2.3047437008582284e+02  2.1711282349665905e+02  2.0442294123785254e+02  1.9237675509954673e+02  1.8094698301324732e+02  1.7010704055106234e+02  1.5983104992898672e+02  1.5009384661958086e+02  1.4087098368719580e+02  1.3213873396007938e+02  1.2387409015771722e+02  1.1605476309426838e+02  1.0865917807892195e+02  1.0166646963679791e+02  9.5056474670879382e+01  8.8809724188166371e+01  8.2907433708856672e+01  7.7331492478178447e+01  7.2064451596195596e+01  6.7089511179414700e+01  6.2390506665241240e+01  5.7951894364952707e+01  5.3758736370521476e+01  4.9796684913790628e+01  4.6051966273794790e+01  4.2511364324118041e+01  3.9162203807018130e+01  3.5992333417618603e+01  3.2990108776129325e+01  3.0144375362033035e+01  2.7444451480683359e+01  2.4880111325843281e+01  2.2441568201003349e+01  2.0119457954549297e+01  1.7904822681850803e+01  1.5789094744814186e+01  1.3764081149382820e+01  1.1821948362567300e+01  9.9552073981597324e+00  8.1567007905476707e+00  6.4195816054822483e+00  4.7373535308893748e+00  3.1035382214811778e+00  1.5137846387759308e+00  -2.1879143494202523e-02  -2.2198271064018041e-01  -4.3736322292679353e-01  -6.4788274328293416e-01  -8.5628219807300288e-01  -1.0629143688168547e+00  -1.2684477093983964e+00  -1.4734638662410695e+00  -1.6785242036892443e+00  -1.8841616586409895e+00  -2.0908831235849297e+00  -2.2991700185307962e+00  -2.5094790014234443e+00  -2.7222425574055369e+00  -2.9378695186031902e+00  -3.1567455141315373e+00  -3.3792333559399732e+00  -3.6056733649696064e+00  -3.8363836420091477e+00  -4.0716602877295376e+00  -4.3117775769942321e+00  -4.5569880919147252e+00  -4.8075228189232391e+00  -5.0635912148963138e+00  -5.3253812471139508e+00  -5.5930594118910921e+00  -5.8667707358533869e+00  -6.1466387625327039e+00  -6.4327655247210016e+00  -6.7252314983909240e+00  -7.0240955261171818e+00  -7.3293946830689949e+00  -7.6411440324787945e+00  -7.9593361694056108e+00  -8.2839403654508992e+00  -8.6149009720888010e+00  -8.9521344605585380e+00  -9.2955239762388828e+00  -9.6449093882082195e+00  -1.0000069214515019e+01  -1.0360687953688286e+01  -1.0726297297131003e+01  -1.1096170762135801e+01  -1.1469135573624028e+01  -1.1843238174416753e+01  -1.2215152169059154e+01  -1.2579136358506556e+01  -1.2925213605954021e+01  -1.3236027100603962e+01  -1.3481473177715198e+01  -1.3609978619910573e+01  -1.3533989379333699e+01  -1.3114201141007658e+01  -1.2113378558749577e+01  -1.0311006778327528e+01  -6.6377856676531906e+00  -3.7314863332768193e+00  -1.7396806794831438e-01  7.8547355126743570e+00  2.2658568554452340e+03  2.2059412303893996e+03  2.1258380479659522e+03  2.0476881569058894e+03  1.9714869891173564e+03  1.8972282186612845e+03  1.8249037401729024e+03  1.7545036977520399e+03  1.6860165139773683e+03  1.6194289246073706e+03  1.5547260179804878e+03  1.4918912790190373e+03  1.4309066375799816e+03  1.3717525208966017e+03  1.3144079098328521e+03  1.2588503986560195e+03  1.2050562580183405e+03  1.1530005008282151e+03  1.1026569506799622e+03  1.0539983125058804e+03  1.0069962451096820e+03  9.6162143523723887e+02  9.1784367284327163e+02  8.7563192721250743e+02  8.3495442360168624e+02  7.9577872007321355e+02  7.5807178420208140e+02  7.2180006934806795e+02  6.8692959019640796e+02  6.5342599728649463e+02  6.2125465026101585e+02  5.9038068958541544e+02  5.6076910650516265e+02  5.3238481102724040e+02  5.0519269772645077e+02  4.7915770920352446e+02  4.5424489703567377e+02  4.3041948008121193e+02  4.0764690002063645e+02  3.8589287403458701e+02  3.6512344453786608e+02  3.4530502590760551e+02  3.2640444816110181e+02  3.0838899755713766e+02  2.9122645410913810e+02  2.7488512601508666e+02  2.5933388102450607e+02  2.4454217477576734e+02  2.3048007614898265e+02  2.1711828969281981e+02  2.0442817519490049e+02  1.9238176447160274e+02  1.8095177546684053e+02  1.7011162375210390e+02  1.5983543153097600e+02  1.5009803425302522e+02  1.4087498495021919e+02  1.3214255641018249e+02  1.2387774130520837e+02  1.1605825039665723e+02  1.0866250893749535e+02  1.0166965139408815e+02  9.5