<?xml version="1.0"?>
<VTKFile type="UnstructuredGrid"  version="0.1"  >
<UnstructuredGrid>
<Piece  NumberOfPoints="1656" NumberOfCells="3000">
<Points>
<DataArray  type="Float64"  NumberOfComponents="3"  format="ascii">0 0 0  2 0 0  4 0 0  6 0 0  8 0 0  10 0 0  12 0 0  14 0 0  16 0 0  18 0 0  20 0 0  22 0 0  24 0 0  26 0 0  28 0 0  30 0 0  32 0 0  34 0 0  36 0 0  38 0 0  40 0 0  42 0 0  44 0 0  46 0 0  48 0 0  50 0 0  52 0 0  54 0 0  56 0 0  58 0 0  60 0 0  62 0 0  64 0 0  66 0 0  68 0 0  70 0 0  72 0 0  74 0 0  76 0 0  78 0 0  80 0 0  82 0 0  84 0 0  86 0 0  88 0 0  90 0 0  92 0 0  94 0 0  96 0 0  98 0 0  100 0 0  102 0 0  104 0 0  106 0 0  108 0 0  110 0 0  112 0 0  114 0 0  116 0 0  118 0 0  120 0 0  122 0 0  124 0 0  126 0 0  128 0 0  130 0 0  132 0 0  134 0 0  136 0 0  138 0 0  140 0 0  142 0 0  144 0 0  146 0 0  148 0 0  150 0 0  152 0 0  154 0 0  156 0 0  158 0 0  160 0 0  162 0 0  164 0 0  166 0 0  168 0 0  170 0 0  172 0 0  174 0 0  176 0 0  178 0 0  180 0 0  182 0 0  184 0 0  186 0 0  188 0 0  190 0 0  192 0 0  194 0 0  196 0 0  198 0 0  200 0 0  202 0 0  204 0 0  206 0 0  208 0 0  210 0 0  212 0 0  214 0 0  216 0 0  218 0 0  220 0 0  222 0 0  224 0 0  226 0 0  228 0 0  230 0 0  232 0 0  234 0 0  236 0 0  238 0 0  240 0 0  242 0 0  244 0 0  246 0 0  248 0 0  250 0 0  252 0 0  254 0 0  256 0 0  258 0 0  260 0 0  262 0 0  264 0 0  266 0 0  268 0 0  270 0 0  272 0 0  274 0 0  276 0 0  278 0 0  280 0 0  282 0 0  284 0 0  286 0 0  288 0 0  290 0 0  292 0 0  294 0 0  296 0 0  298 0 0  300 0 0  0 2 0  2 2 0  4 2 0  6 2 0  8 2 0  10 2 0  12 2 0  14 2 0  16 2 0  18 2 0  20 2 0  22 2 0  24 2 0  26 2 0  28 2 0  30 2 0  32 2 0  34 2 0  36 2 0  38 2 0  40 2 0  42 2 0  44 2 0  46 2 0  48 2 0  50 2 0  52 2 0  54 2 0  56 2 0  58 2 0  60 2 0  62 2 0  64 2 0  66 2 0  68 2 0  70 2 0  72 2 0  74 2 0  76 2 0  78 2 0  80 2 0  82 2 0  84 2 0  86 2 0  88 2 0  90 2 0  92 2 0  94 2 0  96 2 0  98 2 0  100 2 0  102 2 0  104 2 0  106 2 0  108 2 0  110 2 0  112 2 0  114 2 0  116 2 0  118 2 0  120 2 0  122 2 0  124 2 0  126 2 0  128 2 0  130 2 0  132 2 0  134 2 0  136 2 0  138 2 0  140 2 0  142 2 0  144 2 0  146 2 0  148 2 0  150 2 0  152 2 0  154 2 0  156 2 0  158 2 0  160 2 0  162 2 0  164 2 0  166 2 0  168 2 0  170 2 0  172 2 0  174 2 0  176 2 0  178 2 0  180 2 0  182 2 0  184 2 0  186 2 0  188 2 0  190 2 0  192 2 0  194 2 0  196 2 0  198 2 0  200 2 0  202 2 0  204 2 0  206 2 0  208 2 0  210 2 0  212 2 0  214 2 0  216 2 0  218 2 0  220 2 0  222 2 0  224 2 0  226 2 0  228 2 0  230 2 0  232 2 0  234 2 0  236 2 0  238 2 0  240 2 0  242 2 0  244 2 0  246 2 0  248 2 0  250 2 0  252 2 0  254 2 0  256 2 0  258 2 0  260 2 0  262 2 0  264 2 0  266 2 0  268 2 0  270 2 0  272 2 0  274 2 0  276 2 0  278 2 0  280 2 0  282 2 0  284 2 0  286 2 0  288 2 0  290 2 0  292 2 0  294 2 0  296 2 0  298 2 0  300 2 0  0 4 0  2 4 0  4 4 0  6 4 0  8 4 0  10 4 0  12 4 0  14 4 0  16 4 0  18 4 0  20 4 0  22 4 0  24 4 0  26 4 0  28 4 0  30 4 0  32 4 0  34 4 0  36 4 0  38 4 0  40 4 0  42 4 0  44 4 0  46 4 0  48 4 0  50 4 0  52 4 0  54 4 0  56 4 0  58 4 0  60 4 0  62 4 0  64 4 0  66 4 0  68 4 0  70 4 0  72 4 0  74 4 0  76 4 0  78 4 0  80 4 0  82 4 0  84 4 0  86 4 0  88 4 0  90 4 0  92 4 0  94 4 0  96 4 0  98 4 0  100 4 0  102 4 0  104 4 0  106 4 0  108 4 0  110 4 0  112 4 0  114 4 0  116 4 0  118 4 0  120 4 0  122 4 0  124 4 0  126 4 0  128 4 0  130 4 0  132 4 0  134 4 0  136 4 0  138 4 0  140 4 0  142 4 0  144 4 0  146 4 0  148 4 0  150 4 0  152 4 0  154 4 0  156 4 0  158 4 0  160 4 0  162 4 0  164 4 0  166 4 0  168 4 0  170 4 0  172 4 0  174 4 0  176 4 0  178 4 0  180 4 0  182 4 0  184 4 0  186 4 0  188 4 0  190 4 0  192 4 0  194 4 0  196 4 0  198 4 0  200 4 0  202 4 0  204 4 0  206 4 0  208 4 0  210 4 0  212 4 0  214 4 0  216 4 0  218 4 0  220 4 0  222 4 0  224 4 0  226 4 0  228 4 0  230 4 0  232 4 0  234 4 0  236 4 0  238 4 0  240 4 0  242 4 0  244 4 0  246 4 0  248 4 0  250 4 0  252 4 0  254 4 0  256 4 0  258 4 0  260 4 0  262 4 0  264 4 0  266 4 0  268 4 0  270 4 0  272 4 0  274 4 0  276 4 0  278 4 0  280 4 0  282 4 0  284 4 0  286 4 0  288 4 0  290 4 0  292 4 0  294 4 0  296 4 0  298 4 0  300 4 0  0 6 0  2 6 0  4 6 0  6 6 0  8 6 0  10 6 0  12 6 0  14 6 0  16 6 0  18 6 0  20 6 0  22 6 0  24 6 0  26 6 0  28 6 0  30 6 0  32 6 0  34 6 0  36 6 0  38 6 0  40 6 0  42 6 0  44 6 0  46 6 0  48 6 0  50 6 0  52 6 0  54 6 0  56 6 0  58 6 0  60 6 0  62 6 0  64 6 0  66 6 0  68 6 0  70 6 0  72 6 0  74 6 0  76 6 0  78 6 0  80 6 0  82 6 0  84 6 0  86 6 0  88 6 0  90 6 0  92 6 0  94 6 0  96 6 0  98 6 0  100 6 0  102 6 0  104 6 0  106 6 0  108 6 0  110 6 0  112 6 0  114 6 0  116 6 0  118 6 0  120 6 0  122 6 0  124 6 0  126 6 0  128 6 0  130 6 0  132 6 0  134 6 0  136 6 0  138 6 0  140 6 0  142 6 0  144 6 0  146 6 0  148 6 0  150 6 0  152 6 0  154 6 0  156 6 0  158 6 0  160 6 0  162 6 0  164 6 0  166 6 0  168 6 0  170 6 0  172 6 0  174 6 0  176 6 0  178 6 0  180 6 0  182 6 0  184 6 0  186 6 0  188 6 0  190 6 0  192 6 0  194 6 0  196 6 0  198 6 0  200 6 0  202 6 0  204 6 0  206 6 0  208 6 0  210 6 0  212 6 0  214 6 0  216 6 0  218 6 0  220 6 0  222 6 0  224 6 0  226 6 0  228 6 0  230 6 0  232 6 0  234 6 0  236 6 0  238 6 0  240 6 0  242 6 0  244 6 0  246 6 0  248 6 0  250 6 0  252 6 0  254 6 0  256 6 0  258 6 0  260 6 0  262 6 0  264 6 0  266 6 0  268 6 0  270 6 0  272 6 0  274 6 0  276 6 0  278 6 0  280 6 0  282 6 0  284 6 0  286 6 0  288 6 0  290 6 0  292 6 0  294 6 0  296 6 0  298 6 0  300 6 0  0 8 0  2 8 0  4 8 0  6 8 0  8 8 0  10 8 0  12 8 0  14 8 0  16 8 0  18 8 0  20 8 0  22 8 0  24 8 0  26 8 0  28 8 0  30 8 0  32 8 0  34 8 0  36 8 0  38 8 0  40 8 0  42 8 0  44 8 0  46 8 0  48 8 0  50 8 0  52 8 0  54 8 0  56 8 0  58 8 0  60 8 0  62 8 0  64 8 0  66 8 0  68 8 0  70 8 0  72 8 0  74 8 0  76 8 0  78 8 0  80 8 0  82 8 0  84 8 0  86 8 0  88 8 0  90 8 0  92 8 0  94 8 0  96 8 0  98 8 0  100 8 0  102 8 0  104 8 0  106 8 0  108 8 0  110 8 0  112 8 0  114 8 0  116 8 0  118 8 0  120 8 0  122 8 0  124 8 0  126 8 0  128 8 0  130 8 0  132 8 0  134 8 0  136 8 0  138 8 0  140 8 0  142 8 0  144 8 0  146 8 0  148 8 0  150 8 0  152 8 0  154 8 0  156 8 0  158 8 0  160 8 0  162 8 0  164 8 0  166 8 0  168 8 0  170 8 0  172 8 0  174 8 0  176 8 0  178 8 0  180 8 0  182 8 0  184 8 0  186 8 0  188 8 0  190 8 0  192 8 0  194 8 0  196 8 0  198 8 0  200 8 0  202 8 0  204 8 0  206 8 0  208 8 0  210 8 0  212 8 0  214 8 0  216 8 0  218 8 0  220 8 0  222 8 0  224 8 0  226 8 0  228 8 0  230 8 0  232 8 0  234 8 0  236 8 0  238 8 0  240 8 0  242 8 0  244 8 0  246 8 0  248 8 0  250 8 0  252 8 0  254 8 0  256 8 0  258 8 0  260 8 0  262 8 0  264 8 0  266 8 0  268 8 0  270 8 0  272 8 0  274 8 0  276 8 0  278 8 0  280 8 0  282 8 0  284 8 0  286 8 0  288 8 0  290 8 0  292 8 0  294 8 0  296 8 0  298 8 0  300 8 0  0 10 0  2 10 0  4 10 0  6 10 0  8 10 0  10 10 0  12 10 0  14 10 0  16 10 0  18 10 0  20 10 0  22 10 0  24 10 0  26 10 0  28 10 0  30 10 0  32 10 0  34 10 0  36 10 0  38 10 0  40 10 0  42 10 0  44 10 0  46 10 0  48 10 0  50 10 0  52 10 0  54 10 0  56 10 0  58 10 0  60 10 0  62 10 0  64 10 0  66 10 0  68 10 0  70 10 0  72 10 0  74 10 0  76 10 0  78 10 0  80 10 0  82 10 0  84 10 0  86 10 0  88 10 0  90 10 0  92 10 0  94 10 0  96 10 0  98 10 0  100 10 0  102 10 0  104 10 0  106 10 0  108 10 0  110 10 0  112 10 0  114 10 0  116 10 0  118 10 0  120 10 0  122 10 0  124 10 0  126 10 0  128 10 0  130 10 0  132 10 0  134 10 0  136 10 0  138 10 0  140 10 0  142 10 0  144 10 0  146 10 0  148 10 0  150 10 0  152 10 0  154 10 0  156 10 0  158 10 0  160 10 0  162 10 0  164 10 0  166 10 0  168 10 0  170 10 0  172 10 0  174 10 0  176 10 0  178 10 0  180 10 0  182 10 0  184 10 0  186 10 0  188 10 0  190 10 0  192 10 0  194 10 0  196 10 0  198 10 0  200 10 0  202 10 0  204 10 0  206 10 0  208 10 0  210 10 0  212 10 0  214 10 0  216 10 0  218 10 0  220 10 0  222 10 0  224 10 0  226 10 0  228 10 0  230 10 0  232 10 0  234 10 0  236 10 0  238 10 0  240 10 0  242 10 0  244 10 0  246 10 0  248 10 0  250 10 0  252 10 0  254 10 0  256 10 0  258 10 0  260 10 0  262 10 0  264 10 0  266 10 0  268 10 0  270 10 0  272 10 0  274 10 0  276 10 0  278 10 0  280 10 0  282 10 0  284 10 0  286 10 0  288 10 0  290 10 0  292 10 0  294 10 0  296 10 0  298 10 0  300 10 0  1 1 0  3 1 0  5 1 0  7 1 0  9 1 0  11 1 0  13 1 0  15 1 0  17 1 0  19 1 0  21 1 0  23 1 0  25 1 0  27 1 0  29 1 0  31 1 0  33 1 0  35 1 0  37 1 0  39 1 0  41 1 0  43 1 0  45 1 0  47 1 0  49 1 0  51 1 0  53 1 0  55 1 0  57 1 0  59 1 0  61 1 0  63 1 0  65 1 0  67 1 0  69 1 0  71 1 0  73 1 0  75 1 0  77 1 0  79 1 0  81 1 0  83 1 0  85 1 0  87 1 0  89 1 0  91 1 0  93 1 0  95 1 0  97 1 0  99 1 0  101 1 0  103 1 0  105 1 0  107 1 0  109 1 0  111 1 0  113 1 0  115 1 0  117 1 0  119 1 0  121 1 0  123 1 0  125 1 0  127 1 0  129 1 0  131 1 0  133 1 0  135 1 0  137 1 0  139 1 0  141 1 0  143 1 0  145 1 0  147 1 0  149 1 0  151 1 0  153 1 0  155 1 0  157 1 0  159 1 0  161 1 0  163 1 0  165 1 0  167 1 0  169 1 0  171 1 0  173 1 0  175 1 0  177 1 0  179 1 0  181 1 0  183 1 0  185 1 0  187 1 0  189 1 0  191 1 0  193 1 0  195 1 0  197 1 0  199 1 0  201 1 0  203 1 0  205 1 0  207 1 0  209 1 0  211 1 0  213 1 0  215 1 0  217 1 0  219 1 0  221 1 0  223 1 0  225 1 0  227 1 0  229 1 0  231 1 0  233 1 0  235 1 0  237 1 0  239 1 0  241 1 0  243 1 0  245 1 0  247 1 0  249 1 0  251 1 0  253 1 0  255 1 0  257 1 0  259 1 0  261 1 0  263 1 0  265 1 0  267 1 0  269 1 0  271 1 0  273 1 0  275 1 0  277 1 0  279 1 0  281 1 0  283 1 0  285 1 0  287 1 0  289 1 0  291 1 0  293 1 0  295 1 0  297 1 0  299 1 0  1 3 0  3 3 0  5 3 0  7 3 0  9 3 0  11 3 0  13 3 0  15 3 0  17 3 0  19 3 0  21 3 0  23 3 0  25 3 0  27 3 0  29 3 0  31 3 0  33 3 0  35 3 0  37 3 0  39 3 0  41 3 0  43 3 0  45 3 0  47 3 0  49 3 0  51 3 0  53 3 0  55 3 0  57 3 0  59 3 0  61 3 0  63 3 0  65 3 0  67 3 0  69 3 0  71 3 0  73 3 0  75 3 0  77 3 0  79 3 0  81 3 0  83 3 0  85 3 0  87 3 0  89 3 0  91 3 0  93 3 0  95 3 0  97 3 0  99 3 0  101 3 0  103 3 0  105 3 0  107 3 0  109 3 0  111 3 0  113 3 0  115 3 0  117 3 0  119 3 0  121 3 0  123 3 0  125 3 0
[...]
<PointData  Scalars="mean stress"> 
<DataArray  type="Float64"  Name="mean stress"  format="ascii">6.0495552001471005e+03  5.9890130314066191e+03  5.9070312759521566e+03  5.8257531255595850e+03  5.7451783414012489e+03  5.6653065959141140e+03  5.5861374674628778e+03  5.5076704410437032e+03  5.4299049083539976e+03  5.3528401679789549e+03  5.2764754255914031e+03  5.2008097941803981e+03  5.1258422943052392e+03  5.0515718543763305e+03  4.9779973109615476e+03  4.9051174091177218e+03  4.8329308027490051e+03  4.7614360549889216e+03  4.6906316386081771e+03  4.6205159364467818e+03  4.5510872418699555e+03  4.4823437592499004e+03  4.4142836044684263e+03  4.3469048054450723e+03  4.2802053026867225e+03  4.2141829498609195e+03  4.1488355143897797e+03  4.0841606780677184e+03  4.0201560376970615e+03  3.9568191057484669e+03  3.8941473110385155e+03  3.8321379994282697e+03  3.7707884345411721e+03  3.7100957985009582e+03  3.6500571926839484e+03  3.5906696384947236e+03  3.5319300781544089e+03  3.4738353755083267e+03  3.4163823168476406e+03  3.3595676117501107e+03  3.3033878939313468e+03  3.2478397221137293e+03  3.1929195809087378e+03  3.1386238817102385e+03  3.0849489636045982e+03  3.0318910942884609e+03  2.9794464709999556e+03  2.9276112214623795e+03  2.8763814048337094e+03  2.8257530126703118e+03  2.7757219698969107e+03  2.7262841357845541e+03  2.6774353049388501e+03  2.6291712082912368e+03  2.5814875141006196e+03  2.5343798289594852e+03  2.4878436988020717e+03  2.4418746099218620e+03  2.3964679899907806e+03  2.3516192090789677e+03  2.3073235806844004e+03  2.2635763627531455e+03  2.2203727587144485e+03  2.1777079185051853e+03  2.1355769396000369e+03  2.0939748680415491e+03  2.0528966994658572e+03  2.0123373801292742e+03  1.9722918079330152e+03  1.9327548334419364e+03  1.8937212609038017e+03  1.8551858492626911e+03  1.8171433131671417e+03  1.7795883239745006e+03  1.7425155107510232e+03  1.7059194612612680e+03  1.6697947229582294e+03  1.6341358039567190e+03  1.5989371740112333e+03  1.5641932654732414e+03  1.5298984742496807e+03  1.4960471607485542e+03  1.4626336508148429e+03  1.4296522366570121e+03  1.3970971777647658e+03  1.3649627018165120e+03  1.3332430055712603e+03  1.3019322557571732e+03  1.2710245899405868e+03  1.2405141173891157e+03  1.2103949199198735e+03  1.1806610527335099e+03  1.1513065452421774e+03  1.1223254018740267e+03  1.0937116028764895e+03  1.0654591050949994e+03  1.0375618427465670e+03  1.0100137281756547e+03  9.8280865259393715e+02  9.5594048681345998e+02  9.2940308195690250e+02  9.0319027015892198e+02  8.7729586525267064e+02  8.5171366343963473e+02  8.2643744394888790e+02  8.0146096967627841e+02  7.7677798781689148e+02  7.5238223047472957e+02  7.2826741526578940e+02  7.0442724590416310e+02  6.8085541277448635e+02  6.5754559348740270e+02  6.3449145343122893e+02  6.1168664630171111e+02  5.8912481462569667e+02  5.6679959027161487e+02  5.4470459494911881e+02  5.2283344070262262e+02  5.0117973040153481e+02  4.7973705821966189e+02  4.5849901012548065e+02  4.3745916437959659e+02  4.1661109205453437e+02  3.9594835759906692e+02  3.7546451946869746e+02  3.5515313088382914e+02  3.3500774076927257e+02  3.1502189501326512e+02  2.9518913817941376e+02  2.7550301592753254e+02  2.5595707840735784e+02  2.3654488489961210e+02  2.1726000971701666e+02  1.9809604849927669e+02  1.7904662168070757e+02  1.6010536613451296e+02  1.4126589293065118e+02  1.2252166146516207e+02  1.0386565973406834e+02  8.5289699020612630e+01  6.6782744796739934e+01  4.8329095253412760e+01  2.9894162696899908e+01  1.1403555911424423e+01  -3.5008301424500914e+00  -7.4808494172245990e+00  -1.3624698996187041e+01  -2.2855471198640025e+01  -3.6718062412833930e+01  -5.6400789652668436e+01  -9.3329355863116362e+01  6.0495472762603667e+03  5.9890051046563995e+03  5.9070233800004198e+03  5.8257452563934094e+03  5.7451705000076208e+03  5.6652987826861809e+03  5.5861296828648419e+03  5.5076626855202794e+03  5.4298971823433230e+03  5.3528324719101875e+03  5.2764677598851331e+03  5.2008021592478481e+03  5.1258346905486260e+03  5.0515642821882166e+03  4.9779897707246091e+03  4.9051099012048753e+03  4.8329233275228171e+03  4.7614286128014110e+03  4.6906242298006528e+03  4.6205085613496603e+03  4.5510799008025497e+03  4.4823364525198112e+03  4.4142763323718236e+03  4.3468975682660603e+03  4.2801981006971891e+03  4.2141757833204947e+03  4.1488283835453394e+03  4.0841535831530255e+03  4.0201489789329726e+03  3.9568120833424832e+03  3.8941403251839879e+03  3.8321310503051095e+03  3.7707815223148827e+03  3.7100889233222438e+03  3.6500503546892851e+03  3.5906628378055329e+03  3.5319233148764110e+03  3.4738286497316931e+03  3.4163756286472594e+03  3.3595609611841414e+03  3.3033812810415793e+03  3.2478331469253294e+03  3.1929130434295844e+03  3.1386173819313503e+03  3.0849425014985741e+03  3.0318846698101825e+03  2.9794400840857816e+03  2.9276048720299746e+03  2.8763750927813380e+03  2.8257467378773149e+03  2.7757157322221142e+03  2.7262779350665110e+03  2.6774291409953626e+03  2.6291650809191765e+03  2.5814814230751681e+03  2.5343737740327160e+03  2.4878376797046421e+03  2.4418686263603986e+03  2.3964620416481780e+03  2.3516132956145116e+03  2.3073177017308371e+03  2.2635705179192596e+03  2.2203669475815182e+03  2.1777021406274002e+03  2.1355711945045027e+03  2.0939691552262025e+03  2.0528910183988160e+03  2.0123317302484147e+03  1.9722861886443829e+03  1.9327492441199529e+03  1.8937157008882407e+03  1.8551803178585421e+03  1.8171378096430478e+03  1.7795828475625301e+03  1.7425100606424644e+03  1.7059140366083448e+03  1.6697893228694668e+03  1.6341304274974964e+03  1.5989318201993035e+03  1.5641879332788380e+03  1.5298931625926168e+03  1.4960418684940319e+03  1.4626283767726104e+03  1.4296469795777455e+03  1.3970919363369446e+03  1.3649574746621265e+03  1.3332377912434022e+03  1.3019270527341612e+03  1.2710193966228296e+03  1.2405089320932839e+03  1.2103897408729979e+03  1.1806558780684138e+03  1.1513013729888867e+03  1.1223202299546788e+03  1.0937064290943474e+03  1.0654539271282401e+03  1.0375566581372220e+03  1.0100085343173915e+03  9.8280344672346678e+02  9.5593526599196173e+02  9.2939784305837452e+02  9.0318500985247897e+02  8.7729057998276483e+02  8.5170834940471798e+02  8.2643209707687720e+02  8.0145558559882954e+02  7.7677256183516693e+02  7.5237675752681639e+02  7.2826188988619435e+02  7.0442166217596150e+02  6.8084976427542961e+02  6.5753987323160709e+02  6.3448565379569641e+02  6.1168075894427784e+02  5.8911883038761778e+02  5.6679349906234177e+02  5.4469838561339191e+02  5.2282710086005773e+02  5.0117324625027260e+02  4.7973041430605451e+02  4.5849218905831725e+02  4.3745214648083709e+02  4.1660385492046601e+02  3.9594087554719198e+02  3.7545676283064188e+02  3.5514506507953888e+02  3.3499932508467356e+02  3.1501308094477724e+02  2.9517986717420609e+02  2.7549321622926601e+02  2.5594666062756073e+02  2.3653373575700112e+02  2.1724798320601667e+02  1.9808295361157806e+02  1.7903220581722798e+02  1.6008929391245894e+02  1.4124772177095073e+02  1.2250081844506174e+02  1.0384143360027308e+02  8.5261220710665739e+01  6.6749180718898600e+01  4.8287689984897433e+01  2.9849213149122889e+01  1.1221125434367870e+01  -3.2921673786000167e+00  -6.5129410284071803e+00  -1.1506119518152454e+01  -1.8876294895564307e+01  -3.0682279036473311e+01  -4.9445568637269105e+01  -7.4159925042160339e+01  6.0495472755147694e+03  5.9890051049474787e+03  5.9070233799058187e+03  5.8257452564205378e+03  5.7451705000150332e+03  5.6652987826963781e+03  5.5861296828745735e+03  5.5076626855300365e+03  5.4298971823529928e+03  5.3528324719198190e+03  5.2764677598946218e+03  5.2008021592572441e+03  5.1258346905579538e+03  5.0515642821974752e+03  4.9779897707337886e+03  4.9051099012139039e+03  4.8329233275317711e+03  4.7614286128102376e+03  4.6906242298094285e+03  4.6205085613582860e+03  4.5510799008110453e+03  4.4823364525281804e+03  4.4142763323800173e+03  4.3468975682741375e+03  4.2801981007052009e+03  4.2141757833282800e+03  4.1488283835530056e+03  4.0841535831605534e+03  4.0201489789403477e+03  3.9568120833496369e+03  3.8941403251910101e+03  3.8321310503118489e+03  3.7707815223215334e+03  3.7100889233287107e+03  3.6500503546957229e+03  3.5906628378114879e+03  3.5319233148822545e+03  3.4738286497371992e+03  3.4163756286527096e+03  3.3595609611893587e+03  3.3033812810466093e+03  3.2478331469301561e+03  3.1929130434341282e+03  3.1386173819354435e+03  3.0849425015025781e+03  3.0318846698138259e+03  2.9794400840892959e+03  2.9276048720329991e+03  2.8763750927841761e+03  2.8257467378798374e+03  2.7757157322242765e+03  2.7262779350684264e+03  2.6774291409970501e+03  2.6291650809203966e+03  2.5814814230759494e+03  2.5343737740333981e+03  2.4878376797047204e+03  2.4418686263600839e+03  2.3964620416477333e+03  2.3516132956135116e+03  2.3073177017291273e+03  2.2635705179173797e+03  2.2203669475790798e+03  2.1777021406243684e+03  2.1355711945013718e+03  2.0939691552222339e+03  2.0528910183944536e+03  2.0123317302435519e+03  1.9722861886390122e+03  1.9327492441137247e+03  1.8937157008812578e+03  1.8551803178511268e+03  1.8171378096350202e+03  1.7795828475536514e+03  1.7425100606329388e+03  1.7059140365980918e+03  1.6697893228582436e+03  1.6341304274852976e+03  1.5989318201865458e+03  1.5641879332651024e+03  1.5298931625773469e+03  1.4960418684782412e+03  1.4626283767553368e+03  1.4296469795592120e+03  1.3970919363173753e+03  1.3649574746411204e+03  1.3332377912208153e+03  1.3019270527103824e+03  1.2710193965972294e+03  1.2405089320657012e+03  1.2103897408435935e+03  1.1806558780371968e+03  1.1513013729555494e+03  1.1223202299187703e+03  1.0937064290558592e+03  1.0654539270869357e+03  1.0375566580933057e+03  1.0100085342703777e+03  9.8280344667268628e+02  9.5593526593734327e+02  9.2939784299985126e+02  9.0318500978925499e+02  8.7729057991439402e+02  8.5170834933088997e+02  8.2643209699690590e+02  8.0145558551202259e+02  7.7677256174110141e+02  7.5237675742447038e+02  7.2826188977425147e+02  7.0442166205327476e+02  6.8084976414056257e+02  6.5753987308305670e+02  6.3448565363042337e+02  6.1168075875883937e+02  5.8911883017645425e+02  5.6679349881914391e+02  5.4469838532533208e+02  5.2282710050762842e+02  5.0117324580119686e+02  4.7973041370443781e+02  4.5849218820993792e+02  4.3745214522024025e+02  4.1660385296083837e+02  3.9594087239033081e+02  3.7545675761064984e+02  3.5514505629802721e+02  3.3499931016351178e+02  3.1501305547563038e+02  2.9517982368569682e+02  2.7549314220496325e+02  2.5594653539875421e+02  2.3653352583549008e+02  2.1724763571748358e+02  1.9808238807955007e+02  1.7903130644885795e+02  1.6008790943927119e+02  1.4124569166199646e+02  1.2249806963921715e+02  1.0383824690876115e+02  8.5258874281433918e+01  6.6751295588956992e+01  4.8303733944639234e+01  2.9897214610289588e+01  1.1267556477245952e+01  -2.0358566840702248e+00  -4.2137802010947158e+00  -6.9362529220069007e+00  -8.7432223002711531e+00  -1.2670940697995052e+01  -1.8847002055289529e+01  -1.8534467822085261e+01  6.0495472755147612e+03  5.9890051049474896e+03  5.9070233799058124e+03  5.8257452564205414e+03  5.7451705000150287e+03  5.6652987826963827e+03  5.5861296828745699e+03  5.5076626855300265e+03  5.4298971823530173e+03  5.3528324719197708e+03  5.2764677598946391e+03  5.2008021592572686e+03  5.1258346905579210e+03  5.0515642821974689e+03  4.9779897707337741e+03  4.9051099012139093e+03  4.8329233275317911e+03  4.7614286128102849e+03  4.6906242298093875e+03  4.6205085613582860e+03  4.5510799008109907e+03  4.4823364525282132e+03  4.4142763323800245e+03  4.3468975682741611e+03  4.2801981007051672e+03  4.2141757833282663e+03  4.1488283835530747e+03  4.0841535831605170e+03  4.0201489789404568e+03  3.9568120833496341e+03  3.8941403251910233e+03  3.8321310503117684e+03  3.7707815223215675e+03  3.7100889233286630e+03  3.6500503546956238e+03  3.5906628378114865e+03  3.5319233148823132e+03  3.4738286497373006e+03  3.4163756286526436e+03  3.3595609611893178e+03  3.3033812810466575e+03  3.2478331469300456e+03  3.1929130434341628e+03  3.1386173819355085e+03  3.0849425015025522e+03  3.0318846698138091e+03  2.9794400840893350e+03  2.9276048720328990e+03  2.8763750927843262e+03  2.8257467378797705e+03  2.7757157322242338e+03  2.7262779350685200e+03  2.6774291409970579e+03  2.6291650809202752e+03  2.5814814230760630e+03  2.5343737740332645e+03  2.4878376797046726e+03  2.4418686263602913e+03  2.3964620416475782e+03  2.3516132956134320e+03  2.3073177017292819e+03  2.2635705179172828e+03  2.2203669475791266e+03  2.1777021406245713e+03  2.1355711945012263e+03  2.0939691552222585e+03  2.0528910183944099e+03  2.0123317302434855e+03  1.9722861886390290e+03  1.9327492441136483e+03  1.8937157008814950e+03  1.8551803178509633e+03  1.8171378096351266e+03  1.7795828475537301e+03  1.7425100606328056e+03  1.7059140365980531e+03  1.6697893228583448e+03  1.6341304274854187e+03  1.5989318201862675e+03  1.5641879332650053e+03  1.5298931625776845e+03  1.4960418684780620e+03  1.4626283767553925e+03  1.4296469795593839e+03  1.3970919363172629e+03  1.3649574746410974e+03  1.3332377912209197e+03  1.3019270527102365e+03  1.2710193965971748e+03  1.2405089320657808e+03  1.2103897408435432e+03  1.1806558780373539e+03  1.1513013729553809e+03  1.1223202299186012e+03  1.0937064290559438e+03  1.0654539270872153e+03  1.0375566580930893e+03  1.0100085342703552e+03  9.8280344667269208e+02  9.5593526593755939e+02  9.2939784299972655e+02  9.0318500978903467e+02  8.7729057991452919e+02  8.5170834933073854e+02  8.2643209699710110e+02  8.0145558551209899e+02  7.7677256174087381e+02  7.5237675742432225e+02  7.2826188977381310e+02  7.0442166205238368e+02  6.8084976413900597e+02  6.5753987308007254e+02  6.3448565362528370e+02  6.1168075874965996e+02  5.8911883016031686e+02  5.6679349878913581e+02  5.4469838527125683e+02  5.2282710041042492e+02  5.0117324562615642e+02  4.7973041339083829e+02  4.5849218764822405e+02  4.3745214421751422e+02  4.1660385117617443e+02  3.9594086922402715e+02  3.7545675201373291e+02  3.5514504644647076e+02  3.3499929290399319e+02  3.1501302540581946e+02  2.9517977163337804e+02  2.7549305278303893e+02  2.5594638318085077e+02  2.3653326961233151e+02  2.1724721043689297e+02  1.9808169485241643e+02  1.7903020346504940e+02  1.6008621324478031e+02  1.4124321378814219e+02  1.2249475206438240e+02  1.0383453014560965e+02  8.5256669980180391e+01  6.6755976087900805e+01  4.8329983612192073e+01  2.9977045803970856e+01  1.1389486623133484e+01  -7.9268389817379703e-01  -2.0579621276886462e+00  -2.9320185440650763e+00  -1.7596035153465437e+00  1.0465119260286214e+01  2.7834530953126119e+01  3.4440161733099110e+01  6.0495472762603658e+03  5.9890051046564013e+03  5.9070233800004162e+03  5.8257452563934221e+03  5.7451705000076217e+03  5.6652987826861590e+03  5.5861296828648119e+03  5.5076626855203112e+03  5.4298971823433303e+03  5.3528324719102175e+03  5.2764677598851076e+03  5.2008021592478417e+03  5.1258346905486142e+03  5.0515642821881775e+03  4.9779897707246855e+03  4.9051099012048790e+03  4.8329233275227816e+03  4.7614286128014483e+03  4.6906242298007173e+03  4.6205085613496603e+03  4.5510799008024824e+03  4.4823364525198249e+03  4.4142763323717645e+03  4.3468975682660212e+03  4.2801981006972528e+03  4.2141757833205411e+03  4.1488283835453449e+03  4.0841535831530323e+03  4.0201489789330908e+03  3.9568120833423509e+03  3.8941403251840479e+03  3.8321310503051068e+03  3.7707815223149041e+03  3.7100889233222069e+03  3.6500503546893292e+03  3.5906628378055475e+03  3.5319233148763510e+03  3.4738286497316335e+03  3.4163756286472799e+03  3.3595609611841419e+03  3.3033812810416653e+03  3.2478331469254899e+03  3.1929130434294898e+03  3.1386173819312990e+03  3.0849425014986723e+03  3.0318846698100069e+03  2.9794400840858812e+03  2.9276048720298104e+03  2.8763750927812625e+03  2.8257467378773799e+03  2.7757157322220892e+03  2.7262779350666638e+03  2.6774291409952953e+03  2.6291650809191806e+03  2.5814814230750662e+03  2.5343737740327711e+03  2.4878376797046035e+03  2.4418686263604427e+03  2.3964620416482117e+03  2.3516132956145816e+03  2.3073177017308190e+03  2.2635705179191691e+03  2.2203669475814072e+03  2.1777021406274180e+03  2.1355711945046187e+03  2.0939691552261902e+03  2.0528910183985618e+03  2.0123317302485682e+03  1.9722861886446790e+03  1.9327492441196705e+03  1.8937157008881763e+03  1.8551803178586404e+03  1.8171378096431708e+03  1.7795828475623091e+03  1.7425100606425831e+03  1.7059140366083388e+03  1.6697893228694311e+03  1.6341304274975366e+03  1.5989318201994554e+03  1.5641879332790052e+03  1.5298931625924995e+03  1.4960418684942340e+03  1.4626283767726206e+03  1.4296469795774358e+03  1.3970919363370606e+03  1.3649574746620096e+03  1.3332377912434213e+03  1.3019270527341359e+03  1.2710193966228876e+03  1.2405089320931247e+03  1.2103897408728565e+03  1.1806558780685980e+03  1.1513013729887064e+03  1.1223202299547409e+03  1.0937064290942026e+03  1.0654539271283240e+03  1.0375566581371863e+03  1.0100085343177138e+03  9.8280344672326476e+02  9.5593526599208280e+02  9.2939784305852299e+02  9.0318500985240087e+02  8.7729057998263579e+02  8.5170834940456109e+02  8.2643209707681206e+02  8.0145558559881465e+02  7.7677256183458917e+02  7.5237675752648886e+02  7.2826188988506635e+02  7.0442166217359807e+02  6.8084976427119977e+02  6.5753987322436467e+02  6.3448565378272713e+02  6.1168075892031641e+02  5.8911883034433481e+02  5.6679349898391149e+02  5.4469838547231416e+02  5.2282710060522038e+02  5.0117324579241796e+02  4.7973041348427131e+02  4.5849218758813652e+02  4.3745214385597490e+02  4.1660385024821937e+02  3.9594086725840452e+02  3.7545674817861249e+02  3.5514503928771501e+02  3.3499927990061173e+02  3.1501300222456013e+02  2.9517973090495423e+02  2.7549298213237563e+02  2.5594626214041349e+02  2.3653306500053765e+02  2.1724686989315308e+02  1.9808113888463023e+02  1.7902931850556251e+02  1.6008485379132603e+02  1.4124123631049579e+02  1.2249213331791009e+02  1.0383172236801109e+02  8.5255392410239097e+01  6.6761892530902884e+01  4.8354651264436335e+01  3.0068407031901685e+01  1.1531993204146763e+01  3.0599831554312066e-03  -7.9767506519614884e-01  -1.6088636305924642e+00  -8.3767676570467420e-01  -6.4724865277017019e-01  -1.3975876879614582e-01  4.6673592920561422e+00  6.0495552001471033e+03  5.9890130314066118e+03  5.9070312759521612e+03  5.8257531255596050e+03  5.7451783414012416e+03  5.6653065959141340e+03  5.5861374674628614e+03  5.5076704410437214e+03  5.4299049083540194e+03  5.3528401679789504e+03  5.2764754255914413e+03  5.2008097941804135e+03  5.1258422943051801e+03  5.0515718543763614e+03  4.9779973109615912e+03  4.9051174091177008e+03  4.8329308027490297e+03  4.7614360549890562e+03  4.6906316386081526e+03  4.6205159364465826e+03  4.5510872418700274e+03  4.4823437592499822e+03  4.4142836044683490e+03  4.3469048054450705e+03  4.2802053026868080e+03  4.2141829498609241e+03  4.1488355143897970e+03  4.0841606780676639e+03  4.0201560376971793e+03  3.9568191057485751e+03  3.8941473110383904e+03  3.8321379994282061e+03  3.7707884345413222e+03  3.7100957985007813e+03  3.6500571926840448e+03  3.5906696384948027e+03  3.5319300781543393e+03  3.4738353755082298e+03  3.4163823168476565e+03  3.3595676117500884e+03  3.3033878939314559e+03  3.2478397221138007e+03  3.1929195809085099e+03  3.1386238817103358e+03  3.0849489636045955e+03  3.0318910942884745e+03  2.9794464710001512e+03  2.9276112214621412e+03  2.8763814048336808e+03  2.8257530126704910e+03  2.7757219698967124e+03  2.7262841357847255e+03  2.6774353049386841e+03  2.6291712082912090e+03  2.5814875141008674e+03  2.5343798289592287e+03  2.4878436988019344e+03  2.4418746099222562e+03  2.3964679899905605e+03  2.3516192090790737e+03  2.3073235806843159e+03  2.2635763627532378e+03  2.2203727587144481e+03  2.1777079185050784e+03  2.1355769395999623e+03  2.0939748680416483e+03  2.0528966994657094e+03  2.0123373801293801e+03  1.9722918079328419e+03  1.9327548334419730e+03  1.8937212609040846e+03  1.8551858492625972e+03  1.8171433131671286e+03 