<?xml version="1.0"?>
<VTKFile type="UnstructuredGrid"  version="0.1"  >
<UnstructuredGrid>
<Piece  NumberOfPoints="1656" NumberOfCells="3000">
<Points>
<DataArray  type="Float64"  NumberOfComponents="3"  format="ascii">0 0 0  2 0 0  4 0 0  6 0 0  8 0 0  10 0 0  12 0 0  14 0 0  16 0 0  18 0 0  20 0 0  22 0 0  24 0 0  26 0 0  28 0 0  30 0 0  32 0 0  34 0 0  36 0 0  38 0 0  40 0 0  42 0 0  44 0 0  46 0 0  48 0 0  50 0 0  52 0 0  54 0 0  56 0 0  58 0 0  60 0 0  62 0 0  64 0 0  66 0 0  68 0 0  70 0 0  72 0 0  74 0 0  76 0 0  78 0 0  80 0 0  82 0 0  84 0 0  86 0 0  88 0 0  90 0 0  92 0 0  94 0 0  96 0 0  98 0 0  100 0 0  102 0 0  104 0 0  106 0 0  108 0 0  110 0 0  112 0 0  114 0 0  116 0 0  118 0 0  120 0 0  122 0 0  124 0 0  126 0 0  128 0 0  130 0 0  132 0 0  134 0 0  136 0 0  138 0 0  140 0 0  142 0 0  144 0 0  146 0 0  148 0 0  150 0 0  152 0 0  154 0 0  156 0 0  158 0 0  160 0 0  162 0 0  164 0 0  166 0 0  168 0 0  170 0 0  172 0 0  174 0 0  176 0 0  178 0 0  180 0 0  182 0 0  184 0 0  186 0 0  188 0 0  190 0 0  192 0 0  194 0 0  196 0 0  198 0 0  200 0 0  202 0 0  204 0 0  206 0 0  208 0 0  210 0 0  212 0 0  214 0 0  216 0 0  218 0 0  220 0 0  222 0 0  224 0 0  226 0 0  228 0 0  230 0 0  232 0 0  234 0 0  236 0 0  238 0 0  240 0 0  242 0 0  244 0 0  246 0 0  248 0 0  250 0 0  252 0 0  254 0 0  256 0 0  258 0 0  260 0 0  262 0 0  264 0 0  266 0 0  268 0 0  270 0 0  272 0 0  274 0 0  276 0 0  278 0 0  280 0 0  282 0 0  284 0 0  286 0 0  288 0 0  290 0 0  292 0 0  294 0 0  296 0 0  298 0 0  300 0 0  0 2 0  2 2 0  4 2 0  6 2 0  8 2 0  10 2 0  12 2 0  14 2 0  16 2 0  18 2 0  20 2 0  22 2 0  24 2 0  26 2 0  28 2 0  30 2 0  32 2 0  34 2 0  36 2 0  38 2 0  40 2 0  42 2 0  44 2 0  46 2 0  48 2 0  50 2 0  52 2 0  54 2 0  56 2 0  58 2 0  60 2 0  62 2 0  64 2 0  66 2 0  68 2 0  70 2 0  72 2 0  74 2 0  76 2 0  78 2 0  80 2 0  82 2 0  84 2 0  86 2 0  88 2 0  90 2 0  92 2 0  94 2 0  96 2 0  98 2 0  100 2 0  102 2 0  104 2 0  106 2 0  108 2 0  110 2 0  112 2 0  114 2 0  116 2 0  118 2 0  120 2 0  122 2 0  124 2 0  126 2 0  128 2 0  130 2 0  132 2 0  134 2 0  136 2 0  138 2 0  140 2 0  142 2 0  144 2 0  146 2 0  148 2 0  150 2 0  152 2 0  154 2 0  156 2 0  158 2 0  160 2 0  162 2 0  164 2 0  166 2 0  168 2 0  170 2 0  172 2 0  174 2 0  176 2 0  178 2 0  180 2 0  182 2 0  184 2 0  186 2 0  188 2 0  190 2 0  192 2 0  194 2 0  196 2 0  198 2 0  200 2 0  202 2 0  204 2 0  206 2 0  208 2 0  210 2 0  212 2 0  214 2 0  216 2 0  218 2 0  220 2 0  222 2 0  224 2 0  226 2 0  228 2 0  230 2 0  232 2 0  234 2 0  236 2 0  238 2 0  240 2 0  242 2 0  244 2 0  246 2 0  248 2 0  250 2 0  252 2 0  254 2 0  256 2 0  258 2 0  260 2 0  262 2 0  264 2 0  266 2 0  268 2 0  270 2 0  272 2 0  274 2 0  276 2 0  278 2 0  280 2 0  282 2 0  284 2 0  286 2 0  288 2 0  290 2 0  292 2 0  294 2 0  296 2 0  298 2 0  300 2 0  0 4 0  2 4 0  4 4 0  6 4 0  8 4 0  10 4 0  12 4 0  14 4 0  16 4 0  18 4 0  20 4 0  22 4 0  24 4 0  26 4 0  28 4 0  30 4 0  32 4 0  34 4 0  36 4 0  38 4 0  40 4 0  42 4 0  44 4 0  46 4 0  48 4 0  50 4 0  52 4 0  54 4 0  56 4 0  58 4 0  60 4 0  62 4 0  64 4 0  66 4 0  68 4 0  70 4 0  72 4 0  74 4 0  76 4 0  78 4 0  80 4 0  82 4 0  84 4 0  86 4 0  88 4 0  90 4 0  92 4 0  94 4 0  96 4 0  98 4 0  100 4 0  102 4 0  104 4 0  106 4 0  108 4 0  110 4 0  112 4 0  114 4 0  116 4 0  118 4 0  120 4 0  122 4 0  124 4 0  126 4 0  128 4 0  130 4 0  132 4 0  134 4 0  136 4 0  138 4 0  140 4 0  142 4 0  144 4 0  146 4 0  148 4 0  150 4 0  152 4 0  154 4 0  156 4 0  158 4 0  160 4 0  162 4 0  164 4 0  166 4 0  168 4 0  170 4 0  172 4 0  174 4 0  176 4 0  178 4 0  180 4 0  182 4 0  184 4 0  186 4 0  188 4 0  190 4 0  192 4 0  194 4 0  196 4 0  198 4 0  200 4 0  202 4 0  204 4 0  206 4 0  208 4 0  210 4 0  212 4 0  214 4 0  216 4 0  218 4 0  220 4 0  222 4 0  224 4 0  226 4 0  228 4 0  230 4 0  232 4 0  234 4 0  236 4 0  238 4 0  240 4 0  242 4 0  244 4 0  246 4 0  248 4 0  250 4 0  252 4 0  254 4 0  256 4 0  258 4 0  260 4 0  262 4 0  264 4 0  266 4 0  268 4 0  270 4 0  272 4 0  274 4 0  276 4 0  278 4 0  280 4 0  282 4 0  284 4 0  286 4 0  288 4 0  290 4 0  292 4 0  294 4 0  296 4 0  298 4 0  300 4 0  0 6 0  2 6 0  4 6 0  6 6 0  8 6 0  10 6 0  12 6 0  14 6 0  16 6 0  18 6 0  20 6 0  22 6 0  24 6 0  26 6 0  28 6 0  30 6 0  32 6 0  34 6 0  36 6 0  38 6 0  40 6 0  42 6 0  44 6 0  46 6 0  48 6 0  50 6 0  52 6 0  54 6 0  56 6 0  58 6 0  60 6 0  62 6 0  64 6 0  66 6 0  68 6 0  70 6 0  72 6 0  74 6 0  76 6 0  78 6 0  80 6 0  82 6 0  84 6 0  86 6 0  88 6 0  90 6 0  92 6 0  94 6 0  96 6 0  98 6 0  100 6 0  102 6 0  104 6 0  106 6 0  108 6 0  110 6 0  112 6 0  114 6 0  116 6 0  118 6 0  120 6 0  122 6 0  124 6 0  126 6 0  128 6 0  130 6 0  132 6 0  134 6 0  136 6 0  138 6 0  140 6 0  142 6 0  144 6 0  146 6 0  148 6 0  150 6 0  152 6 0  154 6 0  156 6 0  158 6 0  160 6 0  162 6 0  164 6 0  166 6 0  168 6 0  170 6 0  172 6 0  174 6 0  176 6 0  178 6 0  180 6 0  182 6 0  184 6 0  186 6 0  188 6 0  190 6 0  192 6 0  194 6 0  196 6 0  198 6 0  200 6 0  202 6 0  204 6 0  206 6 0  208 6 0  210 6 0  212 6 0  214 6 0  216 6 0  218 6 0  220 6 0  222 6 0  224 6 0  226 6 0  228 6 0  230 6 0  232 6 0  234 6 0  236 6 0  238 6 0  240 6 0  242 6 0  244 6 0  246 6 0  248 6 0  250 6 0  252 6 0  254 6 0  256 6 0  258 6 0  260 6 0  262 6 0  264 6 0  266 6 0  268 6 0  270 6 0  272 6 0  274 6 0  276 6 0  278 6 0  280 6 0  282 6 0  284 6 0  286 6 0  288 6 0  290 6 0  292 6 0  294 6 0  296 6 0  298 6 0  300 6 0  0 8 0  2 8 0  4 8 0  6 8 0  8 8 0  10 8 0  12 8 0  14 8 0  16 8 0  18 8 0  20 8 0  22 8 0  24 8 0  26 8 0  28 8 0  30 8 0  32 8 0  34 8 0  36 8 0  38 8 0  40 8 0  42 8 0  44 8 0  46 8 0  48 8 0  50 8 0  52 8 0  54 8 0  56 8 0  58 8 0  60 8 0  62 8 0  64 8 0  66 8 0  68 8 0  70 8 0  72 8 0  74 8 0  76 8 0  78 8 0  80 8 0  82 8 0  84 8 0  86 8 0  88 8 0  90 8 0  92 8 0  94 8 0  96 8 0  98 8 0  100 8 0  102 8 0  104 8 0  106 8 0  108 8 0  110 8 0  112 8 0  114 8 0  116 8 0  118 8 0  120 8 0  122 8 0  124 8 0  126 8 0  128 8 0  130 8 0  132 8 0  134 8 0  136 8 0  138 8 0  140 8 0  142 8 0  144 8 0  146 8 0  148 8 0  150 8 0  152 8 0  154 8 0  156 8 0  158 8 0  160 8 0  162 8 0  164 8 0  166 8 0  168 8 0  170 8 0  172 8 0  174 8 0  176 8 0  178 8 0  180 8 0  182 8 0  184 8 0  186 8 0  188 8 0  190 8 0  192 8 0  194 8 0  196 8 0  198 8 0  200 8 0  202 8 0  204 8 0  206 8 0  208 8 0  210 8 0  212 8 0  214 8 0  216 8 0  218 8 0  220 8 0  222 8 0  224 8 0  226 8 0  228 8 0  230 8 0  232 8 0  234 8 0  236 8 0  238 8 0  240 8 0  242 8 0  244 8 0  246 8 0  248 8 0  250 8 0  252 8 0  254 8 0  256 8 0  258 8 0  260 8 0  262 8 0  264 8 0  266 8 0  268 8 0  270 8 0  272 8 0  274 8 0  276 8 0  278 8 0  280 8 0  282 8 0  284 8 0  286 8 0  288 8 0  290 8 0  292 8 0  294 8 0  296 8 0  298 8 0  300 8 0  0 10 0  2 10 0  4 10 0  6 10 0  8 10 0  10 10 0  12 10 0  14 10 0  16 10 0  18 10 0  20 10 0  22 10 0  24 10 0  26 10 0  28 10 0  30 10 0  32 10 0  34 10 0  36 10 0  38 10 0  40 10 0  42 10 0  44 10 0  46 10 0  48 10 0  50 10 0  52 10 0  54 10 0  56 10 0  58 10 0  60 10 0  62 10 0  64 10 0  66 10 0  68 10 0  70 10 0  72 10 0  74 10 0  76 10 0  78 10 0  80 10 0  82 10 0  84 10 0  86 10 0  88 10 0  90 10 0  92 10 0  94 10 0  96 10 0  98 10 0  100 10 0  102 10 0  104 10 0  106 10 0  108 10 0  110 10 0  112 10 0  114 10 0  116 10 0  118 10 0  120 10 0  122 10 0  124 10 0  126 10 0  128 10 0  130 10 0  132 10 0  134 10 0  136 10 0  138 10 0  140 10 0  142 10 0  144 10 0  146 10 0  148 10 0  150 10 0  152 10 0  154 10 0  156 10 0  158 10 0  160 10 0  162 10 0  164 10 0  166 10 0  168 10 0  170 10 0  172 10 0  174 10 0  176 10 0  178 10 0  180 10 0  182 10 0  184 10 0  186 10 0  188 10 0  190 10 0  192 10 0  194 10 0  196 10 0  198 10 0  200 10 0  202 10 0  204 10 0  206 10 0  208 10 0  210 10 0  212 10 0  214 10 0  216 10 0  218 10 0  220 10 0  222 10 0  224 10 0  226 10 0  228 10 0  230 10 0  232 10 0  234 10 0  236 10 0  238 10 0  240 10 0  242 10 0  244 10 0  246 10 0  248 10 0  250 10 0  252 10 0  254 10 0  256 10 0  258 10 0  260 10 0  262 10 0  264 10 0  266 10 0  268 10 0  270 10 0  272 10 0  274 10 0  276 10 0  278 10 0  280 10 0  282 10 0  284 10 0  286 10 0  288 10 0  290 10 0  292 10 0  294 10 0  296 10 0  298 10 0  300 10 0  1 1 0  3 1 0  5 1 0  7 1 0  9 1 0  11 1 0  13 1 0  15 1 0  17 1 0  19 1 0  21 1 0  23 1 0  25 1 0  27 1 0  29 1 0  31 1 0  33 1 0  35 1 0  37 1 0  39 1 0  41 1 0  43 1 0  45 1 0  47 1 0  49 1 0  51 1 0  53 1 0  55 1 0  57 1 0  59 1 0  61 1 0  63 1 0  65 1 0  67 1 0  69 1 0  71 1 0  73 1 0  75 1 0  77 1 0  79 1 0  81 1 0  83 1 0  85 1 0  87 1 0  89 1 0  91 1 0  93 1 0  95 1 0  97 1 0  99 1 0  101 1 0  103 1 0  105 1 0  107 1 0  109 1 0  111 1 0  113 1 0  115 1 0  117 1 0  119 1 0  121 1 0  123 1 0  125 1 0  127 1 0  129 1 0  131 1 0  133 1 0  135 1 0  137 1 0  139 1 0  141 1 0  143 1 0  145 1 0  147 1 0  149 1 0  151 1 0  153 1 0  155 1 0  157 1 0  159 1 0  161 1 0  163 1 0  165 1 0  167 1 0  169 1 0  171 1 0  173 1 0  175 1 0  177 1 0  179 1 0  181 1 0  183 1 0  185 1 0  187 1 0  189 1 0  191 1 0  193 1 0  195 1 0  197 1 0  199 1 0  201 1 0  203 1 0  205 1 0  207 1 0  209 1 0  211 1 0  213 1 0  215 1 0  217 1 0  219 1 0  221 1 0  223 1 0  225 1 0  227 1 0  229 1 0  231 1 0  233 1 0  235 1 0  237 1 0  239 1 0  241 1 0  243 1 0  245 1 0  247 1 0  249 1 0  251 1 0  253 1 0  255 1 0  257 1 0  259 1 0  261 1 0  263 1 0  265 1 0  267 1 0  269 1 0  271 1 0  273 1 0  275 1 0  277 1 0  279 1 0  281 1 0  283 1 0  285 1 0  287 1 0  289 1 0  291 1 0  293 1 0  295 1 0  297 1 0  299 1 0  1 3 0  3 3 0  5 3 0  7 3 0  9 3 0  11 3 0  13 3 0  15 3 0  17 3 0  19 3 0  21 3 0  23 3 0  25 3 0  27 3 0  29 3 0  31 3 0  33 3 0  35 3 0  37 3 0  39 3 0  41 3 0  43 3 0  45 3 0  47 3 0  49 3 0  51 3 0  53 3 0  55 3 0  57 3 0  59 3 0  61 3 0  63 3 0  65 3 0  67 3 0  69 3 0  71 3 0  73 3 0  75 3 0  77 3 0  79 3 0  81 3 0  83 3 0  85 3 0  87 3 0  89 3 0  91 3 0  93 3 0  95 3 0  97 3 0  99 3 0  101 3 0  103 3 0  105 3 0  107 3 0  109 3 0  111 3 0  113 3 0  115 3 0  117 3 0  119 3 0  121 3 0  123 3 0  125 3 0
[...]
<PointData  Scalars="mean stress"> 
<DataArray  type="Float64"  Name="mean stress"  format="ascii">3.2905262326758088e+03  3.2302994363694352e+03  3.1492634847569516e+03  3.0695609544768026e+03  2.9911904156948758e+03  2.9141498926686409e+03  2.8384368472350575e+03  2.7640481841352066e+03  2.6909802547069530e+03  2.6192288616013780e+03  2.5487892641415970e+03  2.4796561843679629e+03  2.4118238137477438e+03  2.3452858205345733e+03  2.2800353577628994e+03  2.2160650718581851e+03  2.1533671118450529e+03  2.0919331391328951e+03  2.0317543378576433e+03  1.9728214257573241e+03  1.9151246655582777e+03  1.8586538768482260e+03  1.8033984484088307e+03  1.7493473509858709e+03  1.6964891504662830e+03  1.6448120214371311e+03  1.5943037610987451e+03  1.5449518035025562e+03  1.4967432340868406e+03  1.4496648044797821e+03  1.4037029475413460e+03  1.3588437926166559e+03  1.3150731809680183e+03  1.2723766813597001e+03  1.2307396057652099e+03  1.1901470251678272e+03  1.1505837854268868e+03  1.1120345231806054e+03  1.0744836817585879e+03  1.0379155270763410e+03  1.0023141634847631e+03  9.6766354954964550e+02  9.3394751373386941e+02  9.0114976996044538e+02  8.6925393302933890e+02  8.3824353386763892e+02  8.0810203458938236e+02  7.7881284334512270e+02  7.5035932893824656e+02  7.2272483519261823e+02  6.9589269505093966e+02  6.6984624438500430e+02  6.4456883550632733e+02  6.2004385035673477e+02  5.9625471336913733e+02  5.7318490398223150e+02  5.5081796880020875e+02  5.2913753338430547e+02  5.0812731366756952e+02  4.8777112698412736e+02  4.6805290270626159e+02  4.4895669248091656e+02  4.3046668006163378e+02  4.1256719073135014e+02  3.9524270031288052e+02  3.7847784376331185e+02  3.6225742335301857e+02  3.4656641642574135e+02  3.3138998274450501e+02  3.1671347141890180e+02  3.0252242742054324e+02  2.8880259768818769e+02  2.7553993682308538e+02  2.6272061238331412e+02  2.5033100977934134e+02  2.3835773677687581e+02  2.2678762761190248e+02  2.1560774672841694e+02  2.0480539213973162e+02  1.9436809842866327e+02  1.8428363938747751e+02  1.7454003031039016e+02  1.6512552994658608e+02  1.5602864212251203e+02  1.4723811704301647e+02  1.3874295228164317e+02  1.3053239346957875e+02  1.2259593469546616e+02  1.1492331862498366e+02  1.0750453635214700e+02  1.0032982699796872e+02  9.3389677064380493e+01  8.6674819562655827e+01  8.0176232934276769e+01  7.3885139781129013e+01  6.7793005440814113e+01  6.1891536441853873e+01  5.6172678903147556e+01  5.0628616974817383e+01  4.5251771495104521e+01  4.0034799184246104e+01  3.4970593000823385e+01  3.0052285105870162e+01  2.5273255229442370e+01  2.0627155945583912e+01  1.6107961304295518e+01  1.1710270851459255e+01  7.4294566120456631e+00  3.2629126290465766e+00  -1.6548451938785891e-01  -6.7115429731364951e-01  -1.2296417273285454e+00  -1.7762077118652146e+00  -2.3081065292102165e+00  -2.8280131744104922e+00  -3.3367764241752638e+00  -3.8351755544224346e+00  -4.3238589546966120e+00  -4.8034170899544879e+00  -5.2743975414667794e+00  -5.7373149443350053e+00  -6.1926560119807244e+00  -6.6408827216504598e+00  -7.0824345615115831e+00  -7.5177303970468934e+00  -7.9471703234161444e+00  -8.3711378702206165e+00  -8.7900030619368650e+00  -9.2041271542659135e+00  -9.6138704730245106e+00  -1.0019605887001514e+01  -1.0421742431869163e+01  -1.0820767146606963e+01  -1.1217319485885742e+01  -1.1612323849300154e+01  -1.2007225547834445e+01  -1.2404410537146228e+01  -1.2807951374555913e+01  -1.3224933403681014e+01  -1.3667818636374381e+01  -1.4158697814123066e+01  -1.4737048177221896e+01  -1.5474465383919391e+01  -1.6503215035465423e+01  -1.8078900195768604e+01  -2.0699653031438238e+01  -2.5427636927916581e+01  -3.4035918453557613e+01  -4.8507018181184932e+01  -7.0127595876036651e+01  -1.1375106508949760e+02  3.2905117549175607e+03  3.2302849582603076e+03  3.1492491291721485e+03  3.0695467089804124e+03  2.9911762854346653e+03  2.9141358806412654e+03  2.8384229566412487e+03  2.7640344180539419e+03  2.6909666161389287e+03  2.6192153534581944e+03  2.5487758892436286e+03  2.4796429454409313e+03  2.4118107134194665e+03  2.3452728613323070e+03  2.2800225421101500e+03  2.2160524020722669e+03  2.1533545901345515e+03  2.0919207675953130e+03  2.0317421184770265e+03  1.9728093604025360e+03  1.9151127559810539e+03  1.8586421246811965e+03  1.8033868551646499e+03  1.7493359180553023e+03  1.6964778791173412e+03  1.6448009128141668e+03  1.5942928162213793e+03  1.5449410232654948e+03  1.4967326192590622e+03  1.4496543557043733e+03  1.4036926653358453e+03  1.3588336773725657e+03  1.3150632329511532e+03  1.2723669007110918e+03  1.2307299925010682e+03  1.1901375791808400e+03  1.1505745064867187e+03  1.1120254109350935e+03  1.0744747357348544e+03  1.0379067466822908e+03  1.0023055480104240e+03  9.6765509816846952e+02  9.3393922550487014e+02  9.0114164382939623e+02  8.6924596783131494e+02  8.3823572832854734e+02  8.0809438732816443e+02  7.7880535287530358e+02  7.5035199367079838e+02  7.2271765343825598e+02  6.9588566502117180e+02  6.6983936419575957e+02  6.4456210317919988e+02  6.2003726382175580e+02  5.9624827046663916e+02  5.7317860246512680e+02  5.5081180633629219e+02  5.2913150755769925e+02  5.0812142198095432e+02  4.8776536686063008e+02  4.6804727149073250e+02  4.4895118744126893e+02  4.3046129839036860e+02  4.1256192954655148e+02  3.9523755665791867e+02  3.7847281460839622e+02  3.6225250559385057e+02  3.4656160688376457e+02  3.3138527816521423e+02  3.1670886847024121e+02  3.0251792269083927e+02  2.8879818768155070e+02  2.7553561795627138e+02  2.6271638098005690e+02  2.5032686206309526e+02  2.3835366886267235e+02  2.2678363549652525e+02  2.1560382627713830e+02  2.0480153907249127e+02  1.9436430830122950e+02  1.8427990756980120e+02  1.7453635196036234e+02  1.6512189997815790e+02  1.5602505516706162e+02  1.4723456740219692e+02  1.3873943387026128e+02  1.3052889974450139e+02  1.2259245856778220e+02  1.1491985235093284e+02  1.0750107139635553e+02  1.0032635385784249e+02  9.3386185046362499e+01  8.6671296491255674e+01  8.0172664767161478e+01  7.3881510095920333e+01  6.7789294734015513e+01  6.1887721155202307e+01  5.6168730036934491e+01  5.0624498062393911e+01  4.5247435546691108e+01  4.0030183900940898e+01  3.4965612956003788e+01  3.0046818126094919e+01  2.5267117838240772e+01  2.0620049089528983e+01  1.6099377980231036e+01  1.1699024345944961e+01  7.4136457019751987e+00  3.2261397919708257e+00  -2.9873793435886914e-01  -6.8395982057404514e-01  -1.2424077806907501e+00  -1.7838492319728287e+00  -2.3139172337907152e+00  -2.8325480419125260e+00  -3.3404748315447144e+00  -3.8382710441507051e+00  -4.3265038296732152e+00  -4.8057133928832947e+00  -5.2764172802928497e+00  -5.7391106543557990e+00  -6.1942671029250453e+00  -6.6423393839010805e+00  -7.0837602499923600e+00  -7.5189434029087732e+00  -7.9482846884201681e+00  -8.3721637259896795e+00  -8.7909463224849933e+00  -9.2049882998240609e+00  -9.6146418689512263e+00  -1.0020266584190107e+01  -1.0422248520246262e+01  -1.0821034180905698e+01  -1.1217190736717937e+01  -1.1611513195719345e+01  -1.2005214999282281e+01  -1.2400266470041213e+01  -1.2799994578201309e+01  -1.3210143355989313e+01  -1.3640746477317212e+01  -1.4109429847298674e+01  -1.4647280835885558e+01  -1.5309244850033956e+01  -1.6193712493132303e+01  -1.7476258887269331e+01  -1.9495968293092819e+01  -2.2841371040261453e+01  -2.9139545792755840e+01  -4.0848548940126292e+01  -6.1261303378905907e+01  -8.9733013961163977e+01  3.2905117527252032e+03  3.2302849594018503e+03  3.1492491288685228e+03  3.0695467091144405e+03  2.9911762854979706e+03  2.9141358807144647e+03  2.8384229567125826e+03  2.7640344181249957e+03  2.6909666162094154e+03  2.6192153535281118e+03  2.5487758893128739e+03  2.4796429455094540e+03  2.4118107134872512e+03  2.3452728613992308e+03  2.2800225421761934e+03  2.2160524021373767e+03  2.1533545901987454e+03  2.0919207676583464e+03  2.0317421185390162e+03  1.9728093604633964e+03  1.9151127560407144e+03  1.8586421247396534e+03  1.8033868552218046e+03  1.7493359181111946e+03  1.6964778791718454e+03  1.6448009128673239e+03  1.5942928162730493e+03  1.5449410233158080e+03  1.4967326193078545e+03  1.4496543557516766e+03  1.4036926653816199e+03  1.3588336774167406e+03  1.3150632329937857e+03  1.2723669007520905e+03  1.2307299925405157e+03  1.1901375792186664e+03  1.1505745065227889e+03  1.1120254109695636e+03  1.0744747357677604e+03  1.0379067467134992e+03  1.0023055480398731e+03  9.6765509819620047e+02  9.3393922553098878e+02  9.0114164385387687e+02  8.6924596785411381e+02  8.3823572834961089e+02  8.0809438734749847e+02  7.7880535289293971e+02  7.5035199368692213e+02  7.2271765345250810e+02  6.9588566503390052e+02  6.6983936420680618e+02  6.4456210318851208e+02  6.2003726382948639e+02  5.9624827047267320e+02  5.7317860246964722e+02  5.5081180633906263e+02  5.2913150755883623e+02  5.0812142198036145e+02  4.8776536685850090e+02  4.6804727148689756e+02  4.4895118743587813e+02  4.3046129838328068e+02  4.1256192953760302e+02  3.9523755664744931e+02  3.7847281459606359e+02  3.6225250557962403e+02  3.4656160686782135e+02  3.3138527814734124e+02  3.1670886845044470e+02  3.0251792266873923e+02  2.8879818765731295e+02  2.7553561792981685e+02  2.6271638095096415e+02  2.5032686203147568e+02  2.3835366882808481e+02  2.2678363545861717e+02  2.1560382623581944e+02  2.0480153902726857e+02  1.9436430825165360e+02  1.8427990751523967e+02  1.7453635190013560e+02  1.6512189991160986e+02  1.5602505509300531e+02  1.4723456731969790e+02  1.3873943377766869e+02  1.3052889963977245e+02  1.2259245844904861e+02  1.1491985221511845e+02  1.0750107123979072e+02  1.0032635367589161e+02  9.3386184833091434e+01  8.6671296238427928e+01  8.0172664464149051e+01  7.3881509728140784e+01  6.7789294281354344e+01  6.1887720588672778e+01  5.6168729314633367e+01  5.0624497121047860e+01  4.5247434287609600e+01  4.0030182164130146e+01  3.4965610459500553e+01  3.0046814398891382e+01  2.5267111622285256e+01  2.0620039756447607e+01  1.6099348738719563e+01  1.1699028018009964e+01  7.4131350074605544e+00  3.2270614527830563e+00  -2.9676640043684605e-01  -6.8778779179179539e-01  -1.2418716739550599e+00  -1.7839832612884741e+00  -2.3139172078801433e+00  -2.8325584055280744e+00  -3.3404792260862330e+00  -3.8382740647921540e+00  -4.3265057367571416e+00  -4.8057145868465154e+00  -5.2764178705722182e+00  -5.7391105949450711e+00  -6.1942661523201741e+00  -6.6423370067085079e+00  -7.0837554081512435e+00  -7.5189341620940615e+00  -7.9482674943152070e+00  -8.3721320846035567e+00  -8.7908884024712268e+00  -9.2048825849787903e+00  -9.6144492888557807e+00  -1.0019916292626119e+01  -1.0421612237701364e+01  -1.0819879985492028e+01  -1.1215099991641370e+01  -1.1607731473465860e+01  -1.1998384994810039e+01  -1.2387950046944844e+01  -1.2777817519946810e+01  -1.3170262096612968e+01  -1.3569081080373440e+01  -1.3980610654690789e+01  -1.4415138070321236e+01  -1.4888402288197994e+01  -1.5420216030239928e+01  -1.6026657316093864e+01  -1.6658167379655676e+01  -1.7196293949685639e+01  -1.6624860426459350e+01  -1.8656126973131219e+01  -2.3355467875816291e+01  -2.0669775345827762e+01  3.2905117527252005e+03  3.2302849594018517e+03  3.1492491288685219e+03  3.0695467091144469e+03  2.9911762854979811e+03  2.9141358807144570e+03  2.8384229567125644e+03  2.7640344181249975e+03  2.6909666162094236e+03  2.6192153535281354e+03  2.5487758893128675e+03  2.4796429455094535e+03  2.4118107134872448e+03  2.3452728613992253e+03  2.2800225421761984e+03  2.2160524021373703e+03  2.1533545901986995e+03  2.0919207676583874e+03  2.0317421185390428e+03  1.9728093604633541e+03  1.9151127560407326e+03  1.8586421247396602e+03  1.8033868552217807e+03  1.7493359181112119e+03  1.6964778791718602e+03  1.6448009128673116e+03  1.5942928162730711e+03  1.5449410233158005e+03  1.4967326193078552e+03  1.4496543557516595e+03  1.4036926653816372e+03  1.3588336774167010e+03  1.3150632329938371e+03  1.2723669007521041e+03  1.2307299925404866e+03  1.1901375792186134e+03  1.1505745065229000e+03  1.1120254109695118e+03  1.0744747357677284e+03  1.0379067467134405e+03  1.0023055480399223e+03  9.6765509819630324e+02  9.3393922553091784e+02  9.0114164385390723e+02  8.6924596785405754e+02  8.3823572834963772e+02  8.0809438734748483e+02  7.7880535289292209e+02  7.5035199368688359e+02  7.2271765345255562e+02  6.9588566503391417e+02  6.6983936420677003e+02  6.4456210318856802e+02  6.2003726382955210e+02  5.9624827047267286e+02  5.7317860246951830e+02  5.5081180633905933e+02  5.2913150755884101e+02  5.0812142198046115e+02  4.8776536685844223e+02  4.6804727148692859e+02  4.4895118743591382e+02  4.3046129838326101e+02  4.1256192953760660e+02  3.9523755664743106e+02  3.7847281459601561e+02  3.6225250557965722e+02  3.4656160686782079e+02  3.3138527814729935e+02  3.1670886845037575e+02  3.0251792266878414e+02  2.8879818765742453e+02  2.7553561792973983e+02  2.6271638095100883e+02  2.5032686203145755e+02  2.3835366882809728e+02  2.2678363545869604e+02  2.1560382623568657e+02  2.0480153902725536e+02  1.9436430825167452e+02  1.8427990751528102e+02  1.7453635190016519e+02  1.6512189991151433e+02  1.5602505509307784e+02  1.4723456731969921e+02  1.3873943377766005e+02  1.3052889963979132e+02  1.2259245844899766e+02  1.1491985221514280e+02  1.0750107123981579e+02  1.0032635367589297e+02  9.3386184832960765e+01  8.6671296238497817e+01  8.0172664464171959e+01  7.3881509728195581e+01  6.7789294281266734e+01  6.1887720588629314e+01  5.6168729314754849e+01  5.0624497121050048e+01  4.5247434287552863e+01  4.0030182164082994e+01  3.4965610459510209e+01  3.0046814398885548e+01  2.5267111622349475e+01  2.0620039756304557e+01  1.6099348738638376e+01  1.1699028017900062e+01  7.4131350070254598e+00  3.2270614521973036e+00  -2.9676639928011861e-01  -6.8778778941529506e-01  -1.2418716695638399e+00  -1.7839832532194253e+00  -2.3139171930317421e+00  -2.8325583781807548e+00  -3.3404791758035994e+00  -3.8382739723287953e+00  -4.3265055669031307e+00  -4.8057142748899535e+00  -5.2764172980983739e+00  -5.7391095449833243e+00  -6.1942642278288575e+00  -6.6423334818132549e+00  -7.0837489566444614e+00  -7.5189223632219262e+00  -7.9482459335977715e+00  -8.3720927198629944e+00  -8.7908165983829178e+00  -9.2047517384517263e+00  -9.6142111019686034e+00  -1.0019483196635239e+01  -1.0420825688588202e+01  -1.0818453380212778e+01  -1.1212516099135776e+01  -1.1603058548091031e+01  -1.1989947917309379e+01  -1.2372743799107750e+01  -1.2750464336036435e+01  -1.3121163363617864e+01  -1.3481156275005725e+01  -1.3823560104992090e+01  -1.4135447394406098e+01  -1.4391736363007301e+01  -1.4542144475649682e+01  -1.4473633630299412e+01  -1.3941737689674031e+01  -1.2164788397342940e+01  -7.8456385755736129e+00  1.0142692224094406e+01  3.4475821384545142e+01  4.4734150325750775e+01  3.2905117549175575e+03  3.2302849582603076e+03  3.1492491291721531e+03  3.0695467089804156e+03  2.9911762854346680e+03  2.9141358806412572e+03  2.8384229566412378e+03  2.7640344180539428e+03  2.6909666161389259e+03  2.6192153534582208e+03  2.5487758892436268e+03  2.4796429454409299e+03  2.4118107134194711e+03  2.3452728613322925e+03  2.2800225421101418e+03  2.2160524020722660e+03  2.1533545901345828e+03  2.0919207675952603e+03  2.0317421184770765e+03  1.9728093604025621e+03  1.9151127559810320e+03  1.8586421246811772e+03  1.8033868551646183e+03  1.7493359180553261e+03  1.6964778791173792e+03  1.6448009128141607e+03  1.5942928162213443e+03  1.5449410232655337e+03  1.4967326192590704e+03  1.4496543557043715e+03  1.4036926653358482e+03  1.3588336773725055e+03  1.3150632329512105e+03  1.2723669007110584e+03  1.2307299925011287e+03  1.1901375791808271e+03  1.1505745064867424e+03  1.1120254109350094e+03  1.0744747357348940e+03  1.0379067466823012e+03  1.0023055480103933e+03  9.6765509816848225e+02  9.3393922550481409e+02  9.0114164382945864e+02  8.6924596783134473e+02  8.3823572832853017e+02  8.0809438732810781e+02  7.7880535287525822e+02  7.5035199367089410e+02  7.2271765343819879e+02  6.9588566502121944e+02  6.6983936419577265e+02  6.4456210317918533e+02  6.2003726382175000e+02  5.9624827046661596e+02  5.7317860246521911e+02  5.5081180633625127e+02  5.2913150755770357e+02  5.0812142198084319e+02  4.8776536686061900e+02  4.6804727149078377e+02  4.4895118744132236e+02  4.3046129839041055e+02  4.1256192954645923e+02  3.9523755665798245e+02  3.7847281460840958e+02  3.6225250559373654e+02  3.4656160688377918e+02  3.3138527816524299e+02  3.1670886847035592e+02  3.0251792269069369e+02  2.8879818768147311e+02  2.7553561795636978e+02  2.6271638097999414e+02  2.5032686206319516e+02  2.3835366886268739e+02  2.2678363549652013e+02  2.1560382627716083e+02  2.0480153907249144e+02  1.9436430830127443e+02  1.8427990756984352e+02  1.7453635196025192e+02  1.6512189997811296e+02  1.5602505516709104e+02  1.4723456740230017e+02  1.3873943387022928e+02  1.3052889974444130e+02  1.2259245856770100e+02  1.1491985235103647e+02  1.0750107139630600e+02  1.0032635385783297e+02  9.3386185046289484e+01  8.6671296491368963e+01  8.0172664767083518e+01  7.3881510095888174e+01  6.7789294734060405e+01  6.1887721155142025e+01  5.6168730037010995e+01  5.0624498062410666e+01  4.5247435546738053e+01  4.0030183900986529e+01  3.4965612955970911e+01  3.0046818125914378e+01  2.5267117838235539e+01  2.0620049089406841e+01  1.6099377979898190e+01  1.1699024345543588e+01  7.4136457012739783e+00  3.2261397901499951e+00  -2.9873793136619198e-01  -6.8395981433693021e-01  -1.2424077692183870e+00  -1.7838492108473103e+00  -2.3139171948985471e+00  -2.8325479703183913e+00  -3.3404746998728649e+00  -3.8382708021096512e+00  -4.3265033849238019e+00  -4.8057125761893049e+00  -5.2764157815194137e+00  -5.7391079054481136e+00  -6.1942620645100970e+00  -6.6423301554831182e+00  -7.0837433594920709e+00  -7.5189125126646523e+00  -7.9482282410887555e+00  -8.3720606666625024e+00  -8.7907583351373404e+00  -9.2046457360446574e+00  -9.6140182824212808e+00  -1.0019132715635022e+01  -1.0420189293670131e+01  -1.0817299256274760e+01  -1.1210425979788875e+01  -1.1599279256218670e+01  -1.1983126342407278e+01  -1.2360455845651707e+01  -1.2728382711991395e+01  -1.3081601055757881e+01  -1.3410554017974338e+01  -1.3698274676481081e+01  -1.3914992946368862e+01  -1.4009370883932224e+01  -1.3893921334154040e+01  -1.3429158266216517e+01  -1.2377201190724922e+01  -1.0516994312583153e+01  -6.7754094310207771e+00  -3.8034906916178990e+00  -1.7112387564289178e-01  7.9396553931696934e+00  3.2905262326758134e+03  3.2302994363694370e+03  3.1492634847569525e+03  3.0695609544768240e+03  2.9911904156948831e+03  2.9141498926686190e+03  2.8384368472350734e+03  2.7640481841351830e+03  2.6909802547069735e+03  2.6192288616014025e+03  2.5487892641415883e+03  2.4796561843679801e+03  2.4118238137477133e+03  2.3452858205345774e+03  2.2800353577628975e+03  2.2160650718581833e+03  2.1533671118450293e+03  2.0919331391329465e+03  2.0317543378576650e+03  1.9728214257572856e+03  1.9151246655583348e+03  1.8586538768481671e+03  1.8033984484088398e+03  1.7493473509858670e+03  1.6964891504663149e+03  1.6448120214371393e+03  1.5943037610987292e+03  1.5449518035026399e+03  1.4967432340868236e+03  1.4496648044796959e+03  1.4037029475413437e+03  1.3588437926166444e+03  1.3150731809680508e+03  1.2723766813597233e+03  1.2307396057652327e+03  1.1901470251678272e+03  1.1505837854269166e+03  1.1120345231805302e+03  1.0744836817586145e+03  1.0379155270762956e+03  1.0023141634848239e+03  9.6766354954970313e+02  9.3394751373380609e+02  9.0114976996051269e+02  8.6925393302929911e+02  8.3824353386760629e+02  8.0810203458938042e+02  7.7881284334504448e+02  7.5035932893822746e+02  7.2272483519272760e+02  6.9589269505100788e+02  6.6984624438494075e+02  6.4456883550628561e+02  6.2004385035690689e+02  5.9625471336902467e+02  5.7318490398222173e+02  5.5081796880020875e+02  5.2913753338430638e+02  5.0812731366746129e+02  4.8777112698407200e+02  4.6805290270639097e+02  4.4895669248101217e+02  4.3046668006162952e+02  4.1256719073127761e+02  3.9524270031289933e+02  3.7847784376331