<?xml version="1.0"?>
<VTKFile type="UnstructuredGrid"  version="0.1"  >
<UnstructuredGrid>
<Piece  NumberOfPoints="1656" NumberOfCells="3000">
<Points>
<DataArray  type="Float64"  NumberOfComponents="3"  format="ascii">0 0 0  2 0 0  4 0 0  6 0 0  8 0 0  10 0 0  12 0 0  14 0 0  16 0 0  18 0 0  20 0 0  22 0 0  24 0 0  26 0 0  28 0 0  30 0 0  32 0 0  34 0 0  36 0 0  38 0 0  40 0 0  42 0 0  44 0 0  46 0 0  48 0 0  50 0 0  52 0 0  54 0 0  56 0 0  58 0 0  60 0 0  62 0 0  64 0 0  66 0 0  68 0 0  70 0 0  72 0 0  74 0 0  76 0 0  78 0 0  80 0 0  82 0 0  84 0 0  86 0 0  88 0 0  90 0 0  92 0 0  94 0 0  96 0 0  98 0 0  100 0 0  102 0 0  104 0 0  106 0 0  108 0 0  110 0 0  112 0 0  114 0 0  116 0 0  118 0 0  120 0 0  122 0 0  124 0 0  126 0 0  128 0 0  130 0 0  132 0 0  134 0 0  136 0 0  138 0 0  140 0 0  142 0 0  144 0 0  146 0 0  148 0 0  150 0 0  152 0 0  154 0 0  156 0 0  158 0 0  160 0 0  162 0 0  164 0 0  166 0 0  168 0 0  170 0 0  172 0 0  174 0 0  176 0 0  178 0 0  180 0 0  182 0 0  184 0 0  186 0 0  188 0 0  190 0 0  192 0 0  194 0 0  196 0 0  198 0 0  200 0 0  202 0 0  204 0 0  206 0 0  208 0 0  210 0 0  212 0 0  214 0 0  216 0 0  218 0 0  220 0 0  222 0 0  224 0 0  226 0 0  228 0 0  230 0 0  232 0 0  234 0 0  236 0 0  238 0 0  240 0 0  242 0 0  244 0 0  246 0 0  248 0 0  250 0 0  252 0 0  254 0 0  256 0 0  258 0 0  260 0 0  262 0 0  264 0 0  266 0 0  268 0 0  270 0 0  272 0 0  274 0 0  276 0 0  278 0 0  280 0 0  282 0 0  284 0 0  286 0 0  288 0 0  290 0 0  292 0 0  294 0 0  296 0 0  298 0 0  300 0 0  0 2 0  2 2 0  4 2 0  6 2 0  8 2 0  10 2 0  12 2 0  14 2 0  16 2 0  18 2 0  20 2 0  22 2 0  24 2 0  26 2 0  28 2 0  30 2 0  32 2 0  34 2 0  36 2 0  38 2 0  40 2 0  42 2 0  44 2 0  46 2 0  48 2 0  50 2 0  52 2 0  54 2 0  56 2 0  58 2 0  60 2 0  62 2 0  64 2 0  66 2 0  68 2 0  70 2 0  72 2 0  74 2 0  76 2 0  78 2 0  80 2 0  82 2 0  84 2 0  86 2 0  88 2 0  90 2 0  92 2 0  94 2 0  96 2 0  98 2 0  100 2 0  102 2 0  104 2 0  106 2 0  108 2 0  110 2 0  112 2 0  114 2 0  116 2 0  118 2 0  120 2 0  122 2 0  124 2 0  126 2 0  128 2 0  130 2 0  132 2 0  134 2 0  136 2 0  138 2 0  140 2 0  142 2 0  144 2 0  146 2 0  148 2 0  150 2 0  152 2 0  154 2 0  156 2 0  158 2 0  160 2 0  162 2 0  164 2 0  166 2 0  168 2 0  170 2 0  172 2 0  174 2 0  176 2 0  178 2 0  180 2 0  182 2 0  184 2 0  186 2 0  188 2 0  190 2 0  192 2 0  194 2 0  196 2 0  198 2 0  200 2 0  202 2 0  204 2 0  206 2 0  208 2 0  210 2 0  212 2 0  214 2 0  216 2 0  218 2 0  220 2 0  222 2 0  224 2 0  226 2 0  228 2 0  230 2 0  232 2 0  234 2 0  236 2 0  238 2 0  240 2 0  242 2 0  244 2 0  246 2 0  248 2 0  250 2 0  252 2 0  254 2 0  256 2 0  258 2 0  260 2 0  262 2 0  264 2 0  266 2 0  268 2 0  270 2 0  272 2 0  274 2 0  276 2 0  278 2 0  280 2 0  282 2 0  284 2 0  286 2 0  288 2 0  290 2 0  292 2 0  294 2 0  296 2 0  298 2 0  300 2 0  0 4 0  2 4 0  4 4 0  6 4 0  8 4 0  10 4 0  12 4 0  14 4 0  16 4 0  18 4 0  20 4 0  22 4 0  24 4 0  26 4 0  28 4 0  30 4 0  32 4 0  34 4 0  36 4 0  38 4 0  40 4 0  42 4 0  44 4 0  46 4 0  48 4 0  50 4 0  52 4 0  54 4 0  56 4 0  58 4 0  60 4 0  62 4 0  64 4 0  66 4 0  68 4 0  70 4 0  72 4 0  74 4 0  76 4 0  78 4 0  80 4 0  82 4 0  84 4 0  86 4 0  88 4 0  90 4 0  92 4 0  94 4 0  96 4 0  98 4 0  100 4 0  102 4 0  104 4 0  106 4 0  108 4 0  110 4 0  112 4 0  114 4 0  116 4 0  118 4 0  120 4 0  122 4 0  124 4 0  126 4 0  128 4 0  130 4 0  132 4 0  134 4 0  136 4 0  138 4 0  140 4 0  142 4 0  144 4 0  146 4 0  148 4 0  150 4 0  152 4 0  154 4 0  156 4 0  158 4 0  160 4 0  162 4 0  164 4 0  166 4 0  168 4 0  170 4 0  172 4 0  174 4 0  176 4 0  178 4 0  180 4 0  182 4 0  184 4 0  186 4 0  188 4 0  190 4 0  192 4 0  194 4 0  196 4 0  198 4 0  200 4 0  202 4 0  204 4 0  206 4 0  208 4 0  210 4 0  212 4 0  214 4 0  216 4 0  218 4 0  220 4 0  222 4 0  224 4 0  226 4 0  228 4 0  230 4 0  232 4 0  234 4 0  236 4 0  238 4 0  240 4 0  242 4 0  244 4 0  246 4 0  248 4 0  250 4 0  252 4 0  254 4 0  256 4 0  258 4 0  260 4 0  262 4 0  264 4 0  266 4 0  268 4 0  270 4 0  272 4 0  274 4 0  276 4 0  278 4 0  280 4 0  282 4 0  284 4 0  286 4 0  288 4 0  290 4 0  292 4 0  294 4 0  296 4 0  298 4 0  300 4 0  0 6 0  2 6 0  4 6 0  6 6 0  8 6 0  10 6 0  12 6 0  14 6 0  16 6 0  18 6 0  20 6 0  22 6 0  24 6 0  26 6 0  28 6 0  30 6 0  32 6 0  34 6 0  36 6 0  38 6 0  40 6 0  42 6 0  44 6 0  46 6 0  48 6 0  50 6 0  52 6 0  54 6 0  56 6 0  58 6 0  60 6 0  62 6 0  64 6 0  66 6 0  68 6 0  70 6 0  72 6 0  74 6 0  76 6 0  78 6 0  80 6 0  82 6 0  84 6 0  86 6 0  88 6 0  90 6 0  92 6 0  94 6 0  96 6 0  98 6 0  100 6 0  102 6 0  104 6 0  106 6 0  108 6 0  110 6 0  112 6 0  114 6 0  116 6 0  118 6 0  120 6 0  122 6 0  124 6 0  126 6 0  128 6 0  130 6 0  132 6 0  134 6 0  136 6 0  138 6 0  140 6 0  142 6 0  144 6 0  146 6 0  148 6 0  150 6 0  152 6 0  154 6 0  156 6 0  158 6 0  160 6 0  162 6 0  164 6 0  166 6 0  168 6 0  170 6 0  172 6 0  174 6 0  176 6 0  178 6 0  180 6 0  182 6 0  184 6 0  186 6 0  188 6 0  190 6 0  192 6 0  194 6 0  196 6 0  198 6 0  200 6 0  202 6 0  204 6 0  206 6 0  208 6 0  210 6 0  212 6 0  214 6 0  216 6 0  218 6 0  220 6 0  222 6 0  224 6 0  226 6 0  228 6 0  230 6 0  232 6 0  234 6 0  236 6 0  238 6 0  240 6 0  242 6 0  244 6 0  246 6 0  248 6 0  250 6 0  252 6 0  254 6 0  256 6 0  258 6 0  260 6 0  262 6 0  264 6 0  266 6 0  268 6 0  270 6 0  272 6 0  274 6 0  276 6 0  278 6 0  280 6 0  282 6 0  284 6 0  286 6 0  288 6 0  290 6 0  292 6 0  294 6 0  296 6 0  298 6 0  300 6 0  0 8 0  2 8 0  4 8 0  6 8 0  8 8 0  10 8 0  12 8 0  14 8 0  16 8 0  18 8 0  20 8 0  22 8 0  24 8 0  26 8 0  28 8 0  30 8 0  32 8 0  34 8 0  36 8 0  38 8 0  40 8 0  42 8 0  44 8 0  46 8 0  48 8 0  50 8 0  52 8 0  54 8 0  56 8 0  58 8 0  60 8 0  62 8 0  64 8 0  66 8 0  68 8 0  70 8 0  72 8 0  74 8 0  76 8 0  78 8 0  80 8 0  82 8 0  84 8 0  86 8 0  88 8 0  90 8 0  92 8 0  94 8 0  96 8 0  98 8 0  100 8 0  102 8 0  104 8 0  106 8 0  108 8 0  110 8 0  112 8 0  114 8 0  116 8 0  118 8 0  120 8 0  122 8 0  124 8 0  126 8 0  128 8 0  130 8 0  132 8 0  134 8 0  136 8 0  138 8 0  140 8 0  142 8 0  144 8 0  146 8 0  148 8 0  150 8 0  152 8 0  154 8 0  156 8 0  158 8 0  160 8 0  162 8 0  164 8 0  166 8 0  168 8 0  170 8 0  172 8 0  174 8 0  176 8 0  178 8 0  180 8 0  182 8 0  184 8 0  186 8 0  188 8 0  190 8 0  192 8 0  194 8 0  196 8 0  198 8 0  200 8 0  202 8 0  204 8 0  206 8 0  208 8 0  210 8 0  212 8 0  214 8 0  216 8 0  218 8 0  220 8 0  222 8 0  224 8 0  226 8 0  228 8 0  230 8 0  232 8 0  234 8 0  236 8 0  238 8 0  240 8 0  242 8 0  244 8 0  246 8 0  248 8 0  250 8 0  252 8 0  254 8 0  256 8 0  258 8 0  260 8 0  262 8 0  264 8 0  266 8 0  268 8 0  270 8 0  272 8 0  274 8 0  276 8 0  278 8 0  280 8 0  282 8 0  284 8 0  286 8 0  288 8 0  290 8 0  292 8 0  294 8 0  296 8 0  298 8 0  300 8 0  0 10 0  2 10 0  4 10 0  6 10 0  8 10 0  10 10 0  12 10 0  14 10 0  16 10 0  18 10 0  20 10 0  22 10 0  24 10 0  26 10 0  28 10 0  30 10 0  32 10 0  34 10 0  36 10 0  38 10 0  40 10 0  42 10 0  44 10 0  46 10 0  48 10 0  50 10 0  52 10 0  54 10 0  56 10 0  58 10 0  60 10 0  62 10 0  64 10 0  66 10 0  68 10 0  70 10 0  72 10 0  74 10 0  76 10 0  78 10 0  80 10 0  82 10 0  84 10 0  86 10 0  88 10 0  90 10 0  92 10 0  94 10 0  96 10 0  98 10 0  100 10 0  102 10 0  104 10 0  106 10 0  108 10 0  110 10 0  112 10 0  114 10 0  116 10 0  118 10 0  120 10 0  122 10 0  124 10 0  126 10 0  128 10 0  130 10 0  132 10 0  134 10 0  136 10 0  138 10 0  140 10 0  142 10 0  144 10 0  146 10 0  148 10 0  150 10 0  152 10 0  154 10 0  156 10 0  158 10 0  160 10 0  162 10 0  164 10 0  166 10 0  168 10 0  170 10 0  172 10 0  174 10 0  176 10 0  178 10 0  180 10 0  182 10 0  184 10 0  186 10 0  188 10 0  190 10 0  192 10 0  194 10 0  196 10 0  198 10 0  200 10 0  202 10 0  204 10 0  206 10 0  208 10 0  210 10 0  212 10 0  214 10 0  216 10 0  218 10 0  220 10 0  222 10 0  224 10 0  226 10 0  228 10 0  230 10 0  232 10 0  234 10 0  236 10 0  238 10 0  240 10 0  242 10 0  244 10 0  246 10 0  248 10 0  250 10 0  252 10 0  254 10 0  256 10 0  258 10 0  260 10 0  262 10 0  264 10 0  266 10 0  268 10 0  270 10 0  272 10 0  274 10 0  276 10 0  278 10 0  280 10 0  282 10 0  284 10 0  286 10 0  288 10 0  290 10 0  292 10 0  294 10 0  296 10 0  298 10 0  300 10 0  1 1 0  3 1 0  5 1 0  7 1 0  9 1 0  11 1 0  13 1 0  15 1 0  17 1 0  19 1 0  21 1 0  23 1 0  25 1 0  27 1 0  29 1 0  31 1 0  33 1 0  35 1 0  37 1 0  39 1 0  41 1 0  43 1 0  45 1 0  47 1 0  49 1 0  51 1 0  53 1 0  55 1 0  57 1 0  59 1 0  61 1 0  63 1 0  65 1 0  67 1 0  69 1 0  71 1 0  73 1 0  75 1 0  77 1 0  79 1 0  81 1 0  83 1 0  85 1 0  87 1 0  89 1 0  91 1 0  93 1 0  95 1 0  97 1 0  99 1 0  101 1 0  103 1 0  105 1 0  107 1 0  109 1 0  111 1 0  113 1 0  115 1 0  117 1 0  119 1 0  121 1 0  123 1 0  125 1 0  127 1 0  129 1 0  131 1 0  133 1 0  135 1 0  137 1 0  139 1 0  141 1 0  143 1 0  145 1 0  147 1 0  149 1 0  151 1 0  153 1 0  155 1 0  157 1 0  159 1 0  161 1 0  163 1 0  165 1 0  167 1 0  169 1 0  171 1 0  173 1 0  175 1 0  177 1 0  179 1 0  181 1 0  183 1 0  185 1 0  187 1 0  189 1 0  191 1 0  193 1 0  195 1 0  197 1 0  199 1 0  201 1 0  203 1 0  205 1 0  207 1 0  209 1 0  211 1 0  213 1 0  215 1 0  217 1 0  219 1 0  221 1 0  223 1 0  225 1 0  227 1 0  229 1 0  231 1 0  233 1 0  235 1 0  237 1 0  239 1 0  241 1 0  243 1 0  245 1 0  247 1 0  249 1 0  251 1 0  253 1 0  255 1 0  257 1 0  259 1 0  261 1 0  263 1 0  265 1 0  267 1 0  269 1 0  271 1 0  273 1 0  275 1 0  277 1 0  279 1 0  281 1 0  283 1 0  285 1 0  287 1 0  289 1 0  291 1 0  293 1 0  295 1 0  297 1 0  299 1 0  1 3 0  3 3 0  5 3 0  7 3 0  9 3 0  11 3 0  13 3 0  15 3 0  17 3 0  19 3 0  21 3 0  23 3 0  25 3 0  27 3 0  29 3 0  31 3 0  33 3 0  35 3 0  37 3 0  39 3 0  41 3 0  43 3 0  45 3 0  47 3 0  49 3 0  51 3 0  53 3 0  55 3 0  57 3 0  59 3 0  61 3 0  63 3 0  65 3 0  67 3 0  69 3 0  71 3 0  73 3 0  75 3 0  77 3 0  79 3 0  81 3 0  83 3 0  85 3 0  87 3 0  89 3 0  91 3 0  93 3 0  95 3 0  97 3 0  99 3 0  101 3 0  103 3 0  105 3 0  107 3 0  109 3 0  111 3 0  113 3 0  115 3 0  117 3 0  119 3 0  121 3 0  123 3 0  125 3 0
[...]
<PointData  Scalars="pressure"> 
<DataArray  type="Float64"  Name="pressure"  format="ascii">-5.8838897491636262e+03  -5.7920803556575765e+03  -5.7011795701156561e+03  -5.6111871667462601e+03  -5.5221027693437936e+03  -5.4339258514592402e+03  -5.3466557366386614e+03  -5.2602915987294973e+03  -5.1748324622544151e+03  -5.0902772028522331e+03  -5.0066245477857146e+03  -4.9238730765155760e+03  -4.8420212213403192e+03  -4.7610672681012893e+03  -4.6810093569522796e+03  -4.6018454831929876e+03  -4.5235734981656797e+03  -4.4461911102140803e+03  -4.3696958857037671e+03  -4.2940852501031004e+03  -4.2193564891237011e+03  -4.1455067499194984e+03  -4.0725330423432306e+03  -4.0004322402593007e+03  -3.9292010829118349e+03  -3.8588361763466419e+03  -3.7893339948859325e+03  -3.7206908826543777e+03  -3.6529030551552314e+03  -3.5859666008950608e+03  -3.5198774830557231e+03  -3.4546315412120293e+03  -3.3902244930936868e+03  -3.3266519363898665e+03  -3.2639093505949163e+03  -3.2019920988935773e+03  -3.1408954300839664e+03  -3.0806144805368845e+03  -3.0211442761895041e+03  -2.9624797345718907e+03  -2.9046156668645308e+03  -2.8475467799851526e+03  -2.7912676787030155e+03  -2.7357728677789210e+03  -2.6810567541290447e+03  -2.6271136490108961e+03  -2.5739377702294246e+03  -2.5215232443615214e+03  -2.4698641089970229e+03  -2.4189543149943647e+03  -2.3687877287489941e+03  -2.3193581344727477e+03  -2.2706592364821959e+03  -2.2226846614942679e+03  -2.1754279609271071e+03  -2.1288826132044510e+03  -2.0830420260616056e+03  -2.0378995388511998e+03  -1.9934484248468955e+03  -1.9496818935432261e+03  -1.9065930929497883e+03  -1.8641751118779725e+03  -1.8224209822184946e+03  -1.7813236812079631e+03  -1.7408761336827743e+03  -1.7010712143186292e+03  -1.6619017498539965e+03  -1.6233605212958760e+03  -1.5854402661062186e+03  -1.5481336803674799e+03  -1.5114334209256428e+03  -1.4753321075092736e+03  -1.4398223248230706e+03  -1.4048966246144539e+03  -1.3705475277117755e+03  -1.3367675260327649e+03  -1.3035490845618510e+03  -1.2708846432950795e+03  -1.2387666191513242e+03  -1.2071874078485944e+03  -1.1761393857442420e+03  -1.1456149116379481e+03  -1.1156063285363546e+03  -1.0861059653783586e+03  -1.0571061387199993e+03  -1.0285991543780276e+03  -1.0005773090312441e+03  -9.7303289177873353e+02  -9.4595818565419677e+02  -9.1934546909562437e+02  -8.9318701736959565e+02  -8.6747510394954770e+02  -8.4220200184740065e+02  -8.1735998489799374e+02  -7.9294132899581632e+02  -7.6893831328359011e+02  -7.4534322129228246e+02  -7.2214834203222927e+02  -6.9934597103504689e+02  -6.7692841134609318e+02  -6.5488797446728699e+02  -6.3321698125015325e+02  -6.1190776273897893e+02  -5.9095266096407204e+02  -5.7034402968511768e+02  -5.5007423508469810e+02  -5.3013565641210641e+02  -5.1052068657759753e+02  -4.9122173269731331e+02  -4.7223121658913487e+02  -4.5354157521977174e+02  -4.3514526110345497e+02  -4.1703474265262446e+02  -3.9920250448104895e+02  -3.8164104765982620e+02  -3.6434288992673112e+02  -3.4730056584931526e+02  -3.3050662694205175e+02  -3.1395364173755070e+02  -2.9763419581130779e+02  -2.8154089175837032e+02  -2.6566634911819284e+02  -2.5000320423995549e+02  -2.3454411007295676e+02  -2.1928173585219542e+02  -2.0420876662170383e+02  -1.8931790248602590e+02  -1.7460185738133788e+02  -1.6005335697036523e+02  -1.4566513491030932e+02  -1.3142992607065807e+02  -1.1734045400400933e+02  -1.0338940755999428e+02  -8.9569396960309774e+01  -7.5872870987836393e+01  -6.2291960512252558e+01  -4.8818182385794380e+01  -3.5441878412400584e+01  -2.2151150738694035e+01  -8.9298365639100972e+00  4.2463630897525064e+00  1.7417352012245868e+01  3.0653308506256678e+01  4.4084471691602431e+01  5.7965119337346998e+01  7.2822497900361725e+01  8.9832759255591654e+01  1.1176641536037741e+02  1.4427760659809405e+02  1.9557287633596044e+02  2.7317471564704027e+02  -5.8838897491636235e+03  -5.7920803556575793e+03  -5.7011795701156598e+03  -5.6111871667462574e+03  -5.5221027693437927e+03  -5.4339258514592420e+03  -5.3466557366386623e+03  -5.2602915987295000e+03  -5.1748324622544151e+03  -5.0902772028522350e+03  -5.0066245477857174e+03  -4.9238730765155788e+03  -4.8420212213403202e+03  -4.7610672681012920e+03  -4.6810093569522778e+03  -4.6018454831929848e+03  -4.5235734981656824e+03  -4.4461911102140830e+03  -4.3696958857037698e+03  -4.2940852501031013e+03  -4.2193564891237047e+03  -4.1455067499195002e+03  -4.0725330423432265e+03  -4.0004322402593025e+03  -3.9292010829118340e+03  -3.8588361763466428e+03  -3.7893339948859334e+03  -3.7206908826543795e+03  -3.6529030551552319e+03  -3.5859666008950612e+03  -3.5198774830557240e+03  -3.4546315412120284e+03  -3.3902244930936868e+03  -3.3266519363898656e+03  -3.2639093505949227e+03  -3.2019920988935742e+03  -3.1408954300839673e+03  -3.0806144805368867e+03  -3.0211442761895041e+03  -2.9624797345718894e+03  -2.9046156668645303e+03  -2.8475467799851504e+03  -2.7912676787030205e+03  -2.7357728677789191e+03  -2.6810567541290452e+03  -2.6271136490108956e+03  -2.5739377702294237e+03  -2.5215232443615218e+03  -2.4698641089970229e+03  -2.4189543149943634e+03  -2.3687877287489964e+03  -2.3193581344727459e+03  -2.2706592364821986e+03  -2.2226846614942674e+03  -2.1754279609271057e+03  -2.1288826132044514e+03  -2.0830420260616052e+03  -2.0378995388512014e+03  -1.9934484248468943e+03  -1.9496818935432261e+03  -1.9065930929497868e+03  -1.8641751118779721e+03  -1.8224209822184944e+03  -1.7813236812079626e+03  -1.7408761336827738e+03  -1.7010712143186295e+03  -1.6619017498539988e+03  -1.6233605212958739e+03  -1.5854402661062188e+03  -1.5481336803674797e+03  -1.5114334209256422e+03  -1.4753321075092724e+03  -1.4398223248230711e+03  -1.4048966246144532e+03  -1.3705475277117764e+03  -1.3367675260327642e+03  -1.3035490845618501e+03  -1.2708846432950797e+03  -1.2387666191513247e+03  -1.2071874078485935e+03  -1.1761393857442440e+03  -1.1456149116379470e+03  -1.1156063285363541e+03  -1.0861059653783598e+03  -1.0571061387199986e+03  -1.0285991543780276e+03  -1.0005773090312451e+03  -9.7303289177873353e+02  -9.4595818565419677e+02  -9.1934546909562391e+02  -8.9318701736959599e+02  -8.6747510394954770e+02  -8.4220200184740031e+02  -8.1735998489799329e+02  -7.9294132899581689e+02  -7.6893831328359022e+02  -7.4534322129228178e+02  -7.2214834203222915e+02  -6.9934597103504802e+02  -6.7692841134609296e+02  -6.5488797446728790e+02  -6.3321698125015348e+02  -6.1190776273897973e+02  -5.9095266096407408e+02  -5.7034402968512029e+02  -5.5007423508470436e+02  -5.3013565641211824e+02  -5.1052068657761913e+02  -4.9122173269735458e+02  -4.7223121658921258e+02  -4.5354157521991880e+02  -4.3514526110373316e+02  -4.1703474265315288e+02  -3.9920250448204888e+02  -3.8164104766172028e+02  -3.6434288993031953e+02  -3.4730056585611209e+02  -3.3050662695492690e+02  -3.1395364176193942e+02  -2.9763419585750671e+02  -2.8154089184588287e+02  -2.6566634928396343e+02  -2.5000320455396681e+02  -2.3454411066777158e+02  -2.1928173697892359e+02  -2.0420876875600629e+02  -1.8931790652892130e+02  -1.7460186503958067e+02  -1.6005337147696866e+02  -1.4566516238940912e+02  -1.3142997812293919e+02  -1.1734055260430391e+02  -1.0338959433518718e+02  -8.9569750766548580e+01  -7.5873541216097124e+01  -6.2293230216015836e+01  -4.8820588010119756e+01  -3.5446437167805023e+01  -2.2159793529467407e+01  -8.9462366369108182e+00  4.2151874660403204e+00  1.7357874748600945e+01  3.0539017981749144e+01  4.3861748276766484e+01  5.7519560213309802e+01  7.1890455219304798e+01  8.7757859772514180e+01  1.0693579233285914e+02  1.3480492287777128e+02  1.8173629864646171e+02  2.5766751530442923e+02  -5.8838897491636235e+03  -5.7920803556575765e+03  -5.7011795701156652e+03  -5.6111871667462565e+03  -5.5221027693437973e+03  -5.4339258514592466e+03  -5.3466557366386614e+03  -5.2602915987295037e+03  -5.1748324622544160e+03  -5.0902772028522386e+03  -5.0066245477857192e+03  -4.9238730765155788e+03  -4.8420212213403202e+03  -4.7610672681012938e+03  -4.6810093569522778e+03  -4.6018454831929876e+03  -4.5235734981656797e+03  -4.4461911102140821e+03  -4.3696958857037716e+03  -4.2940852501031050e+03  -4.2193564891237020e+03  -4.1455067499194993e+03  -4.0725330423432301e+03  -4.0004322402593052e+03  -3.9292010829118367e+03  -3.8588361763466442e+03  -3.7893339948859348e+03  -3.7206908826543786e+03  -3.6529030551552364e+03  -3.5859666008950635e+03  -3.5198774830557231e+03  -3.4546315412120321e+03  -3.3902244930936872e+03  -3.3266519363898683e+03  -3.2639093505949254e+03  -3.2019920988935769e+03  -3.1408954300839696e+03  -3.0806144805368881e+03  -3.0211442761895064e+03  -2.9624797345718903e+03  -2.9046156668645326e+03  -2.8475467799851544e+03  -2.7912676787030205e+03  -2.7357728677789237e+03  -2.6810567541290466e+03  -2.6271136490108975e+03  -2.5739377702294255e+03  -2.5215232443615214e+03  -2.4698641089970270e+03  -2.4189543149943638e+03  -2.3687877287489982e+03  -2.3193581344727504e+03  -2.2706592364821995e+03  -2.2226846614942688e+03  -2.1754279609271071e+03  -2.1288826132044514e+03  -2.0830420260616070e+03  -2.0378995388512008e+03  -1.9934484248468962e+03  -1.9496818935432282e+03  -1.9065930929497886e+03  -1.8641751118779741e+03  -1.8224209822184948e+03  -1.7813236812079633e+03  -1.7408761336827731e+03  -1.7010712143186308e+03  -1.6619017498539988e+03  -1.6233605212958744e+03  -1.5854402661062202e+03  -1.5481336803674824e+03  -1.5114334209256422e+03  -1.4753321075092729e+03  -1.4398223248230720e+03  -1.4048966246144541e+03  -1.3705475277117755e+03  -1.3367675260327655e+03  -1.3035490845618519e+03  -1.2708846432950802e+03  -1.2387666191513240e+03  -1.2071874078485948e+03  -1.1761393857442440e+03  -1.1456149116379484e+03  -1.1156063285363550e+03  -1.0861059653783593e+03  -1.0571061387199998e+03  -1.0285991543780290e+03  -1.0005773090312463e+03  -9.7303289177873432e+02  -9.4595818565419745e+02  -9.1934546909562494e+02  -8.9318701736959690e+02  -8.6747510394954907e+02  -8.4220200184740133e+02  -8.1735998489799454e+02  -7.9294132899581723e+02  -7.6893831328359022e+02  -7.4534322129228224e+02  -7.2214834203223040e+02  -6.9934597103504836e+02  -6.7692841134609421e+02  -6.5488797446728915e+02  -6.3321698125015598e+02  -6.1190776273898291e+02  -5.9095266096407943e+02  -5.7034402968512893e+02  -5.5007423508472016e+02  -5.3013565641214802e+02  -5.1052068657767575e+02  -4.9122173269746270e+02  -4.7223121658941699e+02  -4.5354157522030522e+02  -4.3514526110446326e+02  -4.1703474265453542e+02  -3.9920250448466737e+02  -3.8164104766668083e+02  -3.6434288993971342e+02  -3.4730056587390754e+02  -3.3050662698863465e+02  -3.1395364182579061e+02  -2.9763419597845746e+02  -2.8154089207499356e+02  -2.6566634971795668e+02  -2.5000320537605847e+02  -2.3454411222501849e+02  -2.1928173992873627e+02  -2.0420877434368151e+02  -1.8931791711335882e+02  -1.7460188508911560e+02  -1.6005340945572888e+02  -1.4566523433054894e+02  -1.3143011439728170e+02  -1.1734081074206689e+02  -1.0339008331452169e+02  -8.9570677026095794e+01  -7.5875295830161377e+01  -6.2296554088239539e+01  -4.8826885032675214e+01  -3.5458368355496894e+01  -2.2182406056552558e+01  -8.9891163884783367e+00  4.1337849679405272e+00  1.7202993478861963e+01  3.0242996815363394e+01  4.3290861482870646e+01  5.6399185940986584e+01  6.9619245483611280e+01  8.2892962913063784e+01  9.5651856946738690e+01  1.0615880048205543e+02  1.3636678460229800e+02  2.0832824572338691e+02  -5.8838897491636271e+03  -5.7920803556575756e+03  -5.7011795701156552e+03  -5.6111871667462610e+03  -5.5221027693437927e+03  -5.4339258514592466e+03  -5.3466557366386651e+03  -5.2602915987294973e+03  -5.1748324622544151e+03  -5.0902772028522350e+03  -5.0066245477857210e+03  -4.9238730765155797e+03  -4.8420212213403220e+03  -4.7610672681012957e+03  -4.6810093569522760e+03  -4.6018454831929903e+03  -4.5235734981656797e+03  -4.4461911102140830e+03  -4.3696958857037680e+03  -4.2940852501031031e+03  -4.2193564891236992e+03  -4.1455067499195002e+03  -4.0725330423432288e+03  -4.0004322402593039e+03  -3.9292010829118335e+03  -3.8588361763466428e+03  -3.7893339948859334e+03  -3.7206908826543827e+03  -3.6529030551552332e+03  -3.5859666008950653e+03  -3.5198774830557199e+03  -3.4546315412120284e+03  -3.3902244930936899e+03  -3.3266519363898683e+03  -3.2639093505949263e+03  -3.2019920988935787e+03  -3.1408954300839682e+03  -3.0806144805368854e+03  -3.0211442761895055e+03  -2.9624797345718916e+03  -2.9046156668645322e+03  -2.8475467799851535e+03  -2.7912676787030200e+03  -2.7357728677789228e+03  -2.6810567541290461e+03  -2.6271136490108979e+03  -2.5739377702294260e+03  -2.5215232443615209e+03  -2.4698641089970270e+03  -2.4189543149943661e+03  -2.3687877287490005e+03  -2.3193581344727486e+03  -2.2706592364821990e+03  -2.2226846614942697e+03  -2.1754279609271080e+03  -2.1288826132044510e+03  -2.0830420260616065e+03  -2.0378995388512008e+03  -1.9934484248468955e+03  -1.9496818935432261e+03  -1.9065930929497893e+03  -1.8641751118779734e+03  -1.8224209822184951e+03  -1.7813236812079624e+03  -1.7408761336827754e+03  -1.7010712143186288e+03  -1.6619017498539988e+03  -1.6233605212958739e+03  -1.5854402661062209e+03  -1.5481336803674810e+03  -1.5114334209256424e+03  -1.4753321075092736e+03  -1.4398223248230697e+03  -1.4048966246144541e+03  -1.3705475277117762e+03  -1.3367675260327642e+03  -1.3035490845618522e+03  -1.2708846432950809e+03  -1.2387666191513247e+03  -1.2071874078485955e+03  -1.1761393857442442e+03  -1.1456149116379470e+03  -1.1156063285363541e+03  -1.0861059653783591e+03  -1.0571061387199993e+03  -1.0285991543780285e+03  -1.0005773090312458e+03  -9.7303289177873501e+02  -9.4595818565419654e+02  -9.1934546909562528e+02  -8.9318701736959804e+02  -8.6747510394954975e+02  -8.4220200184740202e+02  -8.1735998489799385e+02  -7.9294132899581700e+02  -7.6893831328358965e+02  -7.4534322129228258e+02  -7.2214834203223074e+02  -6.9934597103504916e+02  -6.7692841134609512e+02  -6.5488797446728984e+02  -6.3321698125015746e+02  -6.1190776273898621e+02  -5.9095266096408466e+02  -5.7034402968513893e+02  -5.5007423508473869e+02  -5.3013565641218418e+02  -5.1052068657774612e+02  -4.9122173269759554e+02  -4.7223121658966852e+02  -4.5354157522078151e+02  -4.3514526110536553e+02  -4.1703474265624396e+02  -3.9920250448790421e+02  -3.8164104767281066e+02  -3.6434288995132590e+02  -3.4730056589590316e+02  -3.3050662703030065e+02  -3.1395364190471543e+02  -2.9763419612796082e+02  -2.8154089235818986e+02  -2.6566635025440138e+02  -2.5000320639221979e+02  -2.3454411414988132e+02  -2.1928174357490420e+02  -2.0420878125042745e+02  -1.8931793019643987e+02  -1.7460190987169344e+02  -1.6005345640001761e+02  -1.4566532325453198e+02  -1.3143028284102954e+02  -1.1734112981556963e+02  -1.0339068771728148e+02  -8.9571821911436359e+01  -7.5877464519817536e+01  -6.2300662109486126e+01  -4.8834666613194884e+01  -3.5473108536452500e+01  -2.2210327488707158e+01  -9.0420062573575954e+00  4.0335988724154586e+00  1.7013216402201241e+01  2.9883506428544511e+01  4.2609829548091049e+01  5.5108467586583856e+01  6.7167849672162689e+01  7.8188145021487003e+01  8.6159210821118847e+01  8.2677898707673208e+01  1.2656542480726788e-14  1.6875643434411865e+02  -5.8838897491636262e+03  -5.7920803556575756e+03  -5.7011795701156570e+03  -5.6111871667462565e+03  -5.5221027693437954e+03  -5.4339258514592466e+03  -5.3466557366386623e+03  -5.2602915987294964e+03  -5.1748324622544114e+03  -5.0902772028522350e+03  -5.0066245477857146e+03  -4.9238730765155806e+03  -4.8420212213403220e+03  -4.7610672681012929e+03  -4.6810093569522796e+03  -4.6018454831929830e+03  -4.5235734981656797e+03  -4.4461911102140803e+03  -4.3696958857037689e+03  -4.2940852501030977e+03  -4.2193564891237002e+03  -4.1455067499194993e+03  -4.0725330423432274e+03  -4.0004322402592979e+03  -3.9292010829118340e+03  -3.8588361763466414e+03  -3.7893339948859307e+03  -3.7206908826543795e+03  -3.6529030551552319e+03  -3.5859666008950621e+03  -3.5198774830557213e+03  -3.4546315412120284e+03  -3.3902244930936840e+03  -3.3266519363898674e+03  -3.2639093505949227e+03  -3.2019920988935760e+03  -3.1408954300839687e+03  -3.0806144805368863e+03  -3.0211442761895028e+03  -2.9624797345718921e+03  -2.9046156668645290e+03  -2.8475467799851508e+03  -2.7912676787030200e+03  -2.7357728677789210e+03  -2.6810567541290447e+03  -2.6271136490108938e+03  -2.5739377702294255e+03  -2.5215232443615209e+03  -2.4698641089970247e+03  -2.4189543149943688e+03  -2.3687877287489991e+03  -2.3193581344727500e+03  -2.2706592364821986e+03  -2.2226846614942679e+03  -2.1754279609271057e+03  -2.1288826132044501e+03  -2.0830420260616074e+03  -2.0378995388512003e+03  -1.9934484248468957e+03  -1.9496818935432248e+03  -1.9065930929497895e+03  -1.8641751118779741e+03  -1.8224209822184935e+03  -1.7813236812079626e+03  -1.7408761336827733e+03  -1.7010712143186295e+03  -1.6619017498539970e+03  -1.6233605212958739e+03  -1.5854402661062184e+03  -1.5481336803674797e+03  -1.5114334209256417e+03  -1.4753321075092713e+03  -1.4398223248230693e+03  -1.4048966246144521e+03  -1.3705475277117744e+03  -1.3367675260327630e+03  -1.3035490845618508e+03  -1.2708846432950797e+03  -1.2387666191513258e+03  -1.2071874078485948e+03  -1.1761393857442436e+03  -1.1456149116379477e+03  -1.1156063285363534e+03  -1.0861059653783593e+03  -1.0571061387199991e+03  -1.0285991543780281e+03  -1.0005773090312448e+03  -9.7303289177873455e+02  -9.4595818565419813e+02  -9.1934546909562630e+02  -8.9318701736959724e+02  -8.6747510394954872e+02  -8.4220200184740190e+02  -8.1735998489799420e+02  -7.9294132899581621e+02  -7.6893831328359090e+02  -7.4534322129228337e+02  -7.2214834203223108e+02  -6.9934597103504905e+02  -6.7692841134609489e+02  -6.5488797446729063e+02  -6.3321698125015848e+02  -6.1190776273898791e+02  -5.9095266096408773e+02  -5.7034402968514644e+02  -5.5007423508475426e+02  -5.3013565641221396e+02  -5.1052068657780256e+02  -4.9122173269770269e+02  -4.7223121658987196e+02  -4.5354157522116589e+02  -4.3514526110609552e+02  -4.1703474265762623e+02  -3.9920250449052202e+02  -3.8164104767776928e+02  -3.6434288996072007e+02  -3.4730056591369748e+02  -3.3050662706400783e+02  -3.1395364196856633e+02  -2.9763419624891083e+02  -2.8154089258730056e+02  -2.6566635068839486e+02  -2.5000320721431021e+02  -2.3454411570712782e+02  -2.1928174652471614e+02  -2.0420878683810074e+02  -1.8931794078087268e+02  -1.7460192992121097e+02  -1.6005349437871189e+02  -1.4566539519541820e+02  -1.3143041911439769e+02  -1.1734138794957936e+02  -1.0339117668215592e+02  -8.9572748115283318e+01  -7.5879218919327570e+01  -6.2303985155262765e+01  -4.8840960452376351e+01  -3.5485027462269393e+01  -2.2232892785228820e+01  -9.0847040863157726e+00  3.9528970996275881e+00  1.6861034156703170e+01  2.9597881204390283e+01  4.2078985080183706e+01  5.4142325102430114e+01  6.5490704983217910e+01  7.5611815406416568e+01  8.3706557266527497e+01  8.8702714343693927e+01  1.1430872059934205e+02  1.8447185156827956e+02  -5.8838897491636208e+03  -5.7920803556575747e+03  -5.7011795701156607e+03  -5.6111871667462601e+03  -5.5221027693437918e+03  -5.4339258514592411e+03  -5.3466557366386623e+03  -5.2602915987294982e+03  -5.1748324622544114e+03  -5.0902772028522350e+03  -5.0066245477857174e+03  -4.9238730765155751e+03  -4.8420212213403192e+03  -4.7610672681012920e+03  -4.6810093569522769e+03  -4.6018454831929876e+03  -4.5235734981656778e+03  -4.4461911102140803e+03  -4.3696958857037662e+03  -4.2940852501030995e+03  -4.2193564891237011e+03  -4.1455067499194956e+03  -4.0725330423432297e+03  -4.0004322402593025e+03  -3.9292010829118344e+03  -3.8588361763466419e+03  -3.7893339948859343e+03  -3.7206908826543768e+03  -3.6529030551552305e+03  -3.5859666008950626e+03  -3.5198774830557204e+03  -3.4546315412120289e+03  -3.3902244930936822e+03  -3.3266519363898624e+03  -3.2639093505949245e+03  -3.2019920988935778e+03  -3.1408954300839650e+03  -3.0806144805368854e+03  -3.0211442761895041e+03  -2.9624797345718894e+03  -2.9046156668645290e+03  -2.8475467799851522e+03  -2.7912676787030168e+03  -2.735772867