<?xml version="1.0"?>
<VTKFile type="UnstructuredGrid"  version="0.1"  >
<UnstructuredGrid>
<Piece  NumberOfPoints="1656" NumberOfCells="3000">
<Points>
<DataArray  type="Float64"  NumberOfComponents="3"  format="ascii">0 0 0  2 0 0  4 0 0  6 0 0  8 0 0  10 0 0  12 0 0  14 0 0  16 0 0  18 0 0  20 0 0  22 0 0  24 0 0  26 0 0  28 0 0  30 0 0  32 0 0  34 0 0  36 0 0  38 0 0  40 0 0  42 0 0  44 0 0  46 0 0  48 0 0  50 0 0  52 0 0  54 0 0  56 0 0  58 0 0  60 0 0  62 0 0  64 0 0  66 0 0  68 0 0  70 0 0  72 0 0  74 0 0  76 0 0  78 0 0  80 0 0  82 0 0  84 0 0  86 0 0  88 0 0  90 0 0  92 0 0  94 0 0  96 0 0  98 0 0  100 0 0  102 0 0  104 0 0  106 0 0  108 0 0  110 0 0  112 0 0  114 0 0  116 0 0  118 0 0  120 0 0  122 0 0  124 0 0  126 0 0  128 0 0  130 0 0  132 0 0  134 0 0  136 0 0  138 0 0  140 0 0  142 0 0  144 0 0  146 0 0  148 0 0  150 0 0  152 0 0  154 0 0  156 0 0  158 0 0  160 0 0  162 0 0  164 0 0  166 0 0  168 0 0  170 0 0  172 0 0  174 0 0  176 0 0  178 0 0  180 0 0  182 0 0  184 0 0  186 0 0  188 0 0  190 0 0  192 0 0  194 0 0  196 0 0  198 0 0  200 0 0  202 0 0  204 0 0  206 0 0  208 0 0  210 0 0  212 0 0  214 0 0  216 0 0  218 0 0  220 0 0  222 0 0  224 0 0  226 0 0  228 0 0  230 0 0  232 0 0  234 0 0  236 0 0  238 0 0  240 0 0  242 0 0  244 0 0  246 0 0  248 0 0  250 0 0  252 0 0  254 0 0  256 0 0  258 0 0  260 0 0  262 0 0  264 0 0  266 0 0  268 0 0  270 0 0  272 0 0  274 0 0  276 0 0  278 0 0  280 0 0  282 0 0  284 0 0  286 0 0  288 0 0  290 0 0  292 0 0  294 0 0  296 0 0  298 0 0  300 0 0  0 2 0  2 2 0  4 2 0  6 2 0  8 2 0  10 2 0  12 2 0  14 2 0  16 2 0  18 2 0  20 2 0  22 2 0  24 2 0  26 2 0  28 2 0  30 2 0  32 2 0  34 2 0  36 2 0  38 2 0  40 2 0  42 2 0  44 2 0  46 2 0  48 2 0  50 2 0  52 2 0  54 2 0  56 2 0  58 2 0  60 2 0  62 2 0  64 2 0  66 2 0  68 2 0  70 2 0  72 2 0  74 2 0  76 2 0  78 2 0  80 2 0  82 2 0  84 2 0  86 2 0  88 2 0  90 2 0  92 2 0  94 2 0  96 2 0  98 2 0  100 2 0  102 2 0  104 2 0  106 2 0  108 2 0  110 2 0  112 2 0  114 2 0  116 2 0  118 2 0  120 2 0  122 2 0  124 2 0  126 2 0  128 2 0  130 2 0  132 2 0  134 2 0  136 2 0  138 2 0  140 2 0  142 2 0  144 2 0  146 2 0  148 2 0  150 2 0  152 2 0  154 2 0  156 2 0  158 2 0  160 2 0  162 2 0  164 2 0  166 2 0  168 2 0  170 2 0  172 2 0  174 2 0  176 2 0  178 2 0  180 2 0  182 2 0  184 2 0  186 2 0  188 2 0  190 2 0  192 2 0  194 2 0  196 2 0  198 2 0  200 2 0  202 2 0  204 2 0  206 2 0  208 2 0  210 2 0  212 2 0  214 2 0  216 2 0  218 2 0  220 2 0  222 2 0  224 2 0  226 2 0  228 2 0  230 2 0  232 2 0  234 2 0  236 2 0  238 2 0  240 2 0  242 2 0  244 2 0  246 2 0  248 2 0  250 2 0  252 2 0  254 2 0  256 2 0  258 2 0  260 2 0  262 2 0  264 2 0  266 2 0  268 2 0  270 2 0  272 2 0  274 2 0  276 2 0  278 2 0  280 2 0  282 2 0  284 2 0  286 2 0  288 2 0  290 2 0  292 2 0  294 2 0  296 2 0  298 2 0  300 2 0  0 4 0  2 4 0  4 4 0  6 4 0  8 4 0  10 4 0  12 4 0  14 4 0  16 4 0  18 4 0  20 4 0  22 4 0  24 4 0  26 4 0  28 4 0  30 4 0  32 4 0  34 4 0  36 4 0  38 4 0  40 4 0  42 4 0  44 4 0  46 4 0  48 4 0  50 4 0  52 4 0  54 4 0  56 4 0  58 4 0  60 4 0  62 4 0  64 4 0  66 4 0  68 4 0  70 4 0  72 4 0  74 4 0  76 4 0  78 4 0  80 4 0  82 4 0  84 4 0  86 4 0  88 4 0  90 4 0  92 4 0  94 4 0  96 4 0  98 4 0  100 4 0  102 4 0  104 4 0  106 4 0  108 4 0  110 4 0  112 4 0  114 4 0  116 4 0  118 4 0  120 4 0  122 4 0  124 4 0  126 4 0  128 4 0  130 4 0  132 4 0  134 4 0  136 4 0  138 4 0  140 4 0  142 4 0  144 4 0  146 4 0  148 4 0  150 4 0  152 4 0  154 4 0  156 4 0  158 4 0  160 4 0  162 4 0  164 4 0  166 4 0  168 4 0  170 4 0  172 4 0  174 4 0  176 4 0  178 4 0  180 4 0  182 4 0  184 4 0  186 4 0  188 4 0  190 4 0  192 4 0  194 4 0  196 4 0  198 4 0  200 4 0  202 4 0  204 4 0  206 4 0  208 4 0  210 4 0  212 4 0  214 4 0  216 4 0  218 4 0  220 4 0  222 4 0  224 4 0  226 4 0  228 4 0  230 4 0  232 4 0  234 4 0  236 4 0  238 4 0  240 4 0  242 4 0  244 4 0  246 4 0  248 4 0  250 4 0  252 4 0  254 4 0  256 4 0  258 4 0  260 4 0  262 4 0  264 4 0  266 4 0  268 4 0  270 4 0  272 4 0  274 4 0  276 4 0  278 4 0  280 4 0  282 4 0  284 4 0  286 4 0  288 4 0  290 4 0  292 4 0  294 4 0  296 4 0  298 4 0  300 4 0  0 6 0  2 6 0  4 6 0  6 6 0  8 6 0  10 6 0  12 6 0  14 6 0  16 6 0  18 6 0  20 6 0  22 6 0  24 6 0  26 6 0  28 6 0  30 6 0  32 6 0  34 6 0  36 6 0  38 6 0  40 6 0  42 6 0  44 6 0  46 6 0  48 6 0  50 6 0  52 6 0  54 6 0  56 6 0  58 6 0  60 6 0  62 6 0  64 6 0  66 6 0  68 6 0  70 6 0  72 6 0  74 6 0  76 6 0  78 6 0  80 6 0  82 6 0  84 6 0  86 6 0  88 6 0  90 6 0  92 6 0  94 6 0  96 6 0  98 6 0  100 6 0  102 6 0  104 6 0  106 6 0  108 6 0  110 6 0  112 6 0  114 6 0  116 6 0  118 6 0  120 6 0  122 6 0  124 6 0  126 6 0  128 6 0  130 6 0  132 6 0  134 6 0  136 6 0  138 6 0  140 6 0  142 6 0  144 6 0  146 6 0  148 6 0  150 6 0  152 6 0  154 6 0  156 6 0  158 6 0  160 6 0  162 6 0  164 6 0  166 6 0  168 6 0  170 6 0  172 6 0  174 6 0  176 6 0  178 6 0  180 6 0  182 6 0  184 6 0  186 6 0  188 6 0  190 6 0  192 6 0  194 6 0  196 6 0  198 6 0  200 6 0  202 6 0  204 6 0  206 6 0  208 6 0  210 6 0  212 6 0  214 6 0  216 6 0  218 6 0  220 6 0  222 6 0  224 6 0  226 6 0  228 6 0  230 6 0  232 6 0  234 6 0  236 6 0  238 6 0  240 6 0  242 6 0  244 6 0  246 6 0  248 6 0  250 6 0  252 6 0  254 6 0  256 6 0  258 6 0  260 6 0  262 6 0  264 6 0  266 6 0  268 6 0  270 6 0  272 6 0  274 6 0  276 6 0  278 6 0  280 6 0  282 6 0  284 6 0  286 6 0  288 6 0  290 6 0  292 6 0  294 6 0  296 6 0  298 6 0  300 6 0  0 8 0  2 8 0  4 8 0  6 8 0  8 8 0  10 8 0  12 8 0  14 8 0  16 8 0  18 8 0  20 8 0  22 8 0  24 8 0  26 8 0  28 8 0  30 8 0  32 8 0  34 8 0  36 8 0  38 8 0  40 8 0  42 8 0  44 8 0  46 8 0  48 8 0  50 8 0  52 8 0  54 8 0  56 8 0  58 8 0  60 8 0  62 8 0  64 8 0  66 8 0  68 8 0  70 8 0  72 8 0  74 8 0  76 8 0  78 8 0  80 8 0  82 8 0  84 8 0  86 8 0  88 8 0  90 8 0  92 8 0  94 8 0  96 8 0  98 8 0  100 8 0  102 8 0  104 8 0  106 8 0  108 8 0  110 8 0  112 8 0  114 8 0  116 8 0  118 8 0  120 8 0  122 8 0  124 8 0  126 8 0  128 8 0  130 8 0  132 8 0  134 8 0  136 8 0  138 8 0  140 8 0  142 8 0  144 8 0  146 8 0  148 8 0  150 8 0  152 8 0  154 8 0  156 8 0  158 8 0  160 8 0  162 8 0  164 8 0  166 8 0  168 8 0  170 8 0  172 8 0  174 8 0  176 8 0  178 8 0  180 8 0  182 8 0  184 8 0  186 8 0  188 8 0  190 8 0  192 8 0  194 8 0  196 8 0  198 8 0  200 8 0  202 8 0  204 8 0  206 8 0  208 8 0  210 8 0  212 8 0  214 8 0  216 8 0  218 8 0  220 8 0  222 8 0  224 8 0  226 8 0  228 8 0  230 8 0  232 8 0  234 8 0  236 8 0  238 8 0  240 8 0  242 8 0  244 8 0  246 8 0  248 8 0  250 8 0  252 8 0  254 8 0  256 8 0  258 8 0  260 8 0  262 8 0  264 8 0  266 8 0  268 8 0  270 8 0  272 8 0  274 8 0  276 8 0  278 8 0  280 8 0  282 8 0  284 8 0  286 8 0  288 8 0  290 8 0  292 8 0  294 8 0  296 8 0  298 8 0  300 8 0  0 10 0  2 10 0  4 10 0  6 10 0  8 10 0  10 10 0  12 10 0  14 10 0  16 10 0  18 10 0  20 10 0  22 10 0  24 10 0  26 10 0  28 10 0  30 10 0  32 10 0  34 10 0  36 10 0  38 10 0  40 10 0  42 10 0  44 10 0  46 10 0  48 10 0  50 10 0  52 10 0  54 10 0  56 10 0  58 10 0  60 10 0  62 10 0  64 10 0  66 10 0  68 10 0  70 10 0  72 10 0  74 10 0  76 10 0  78 10 0  80 10 0  82 10 0  84 10 0  86 10 0  88 10 0  90 10 0  92 10 0  94 10 0  96 10 0  98 10 0  100 10 0  102 10 0  104 10 0  106 10 0  108 10 0  110 10 0  112 10 0  114 10 0  116 10 0  118 10 0  120 10 0  122 10 0  124 10 0  126 10 0  128 10 0  130 10 0  132 10 0  134 10 0  136 10 0  138 10 0  140 10 0  142 10 0  144 10 0  146 10 0  148 10 0  150 10 0  152 10 0  154 10 0  156 10 0  158 10 0  160 10 0  162 10 0  164 10 0  166 10 0  168 10 0  170 10 0  172 10 0  174 10 0  176 10 0  178 10 0  180 10 0  182 10 0  184 10 0  186 10 0  188 10 0  190 10 0  192 10 0  194 10 0  196 10 0  198 10 0  200 10 0  202 10 0  204 10 0  206 10 0  208 10 0  210 10 0  212 10 0  214 10 0  216 10 0  218 10 0  220 10 0  222 10 0  224 10 0  226 10 0  228 10 0  230 10 0  232 10 0  234 10 0  236 10 0  238 10 0  240 10 0  242 10 0  244 10 0  246 10 0  248 10 0  250 10 0  252 10 0  254 10 0  256 10 0  258 10 0  260 10 0  262 10 0  264 10 0  266 10 0  268 10 0  270 10 0  272 10 0  274 10 0  276 10 0  278 10 0  280 10 0  282 10 0  284 10 0  286 10 0  288 10 0  290 10 0  292 10 0  294 10 0  296 10 0  298 10 0  300 10 0  1 1 0  3 1 0  5 1 0  7 1 0  9 1 0  11 1 0  13 1 0  15 1 0  17 1 0  19 1 0  21 1 0  23 1 0  25 1 0  27 1 0  29 1 0  31 1 0  33 1 0  35 1 0  37 1 0  39 1 0  41 1 0  43 1 0  45 1 0  47 1 0  49 1 0  51 1 0  53 1 0  55 1 0  57 1 0  59 1 0  61 1 0  63 1 0  65 1 0  67 1 0  69 1 0  71 1 0  73 1 0  75 1 0  77 1 0  79 1 0  81 1 0  83 1 0  85 1 0  87 1 0  89 1 0  91 1 0  93 1 0  95 1 0  97 1 0  99 1 0  101 1 0  103 1 0  105 1 0  107 1 0  109 1 0  111 1 0  113 1 0  115 1 0  117 1 0  119 1 0  121 1 0  123 1 0  125 1 0  127 1 0  129 1 0  131 1 0  133 1 0  135 1 0  137 1 0  139 1 0  141 1 0  143 1 0  145 1 0  147 1 0  149 1 0  151 1 0  153 1 0  155 1 0  157 1 0  159 1 0  161 1 0  163 1 0  165 1 0  167 1 0  169 1 0  171 1 0  173 1 0  175 1 0  177 1 0  179 1 0  181 1 0  183 1 0  185 1 0  187 1 0  189 1 0  191 1 0  193 1 0  195 1 0  197 1 0  199 1 0  201 1 0  203 1 0  205 1 0  207 1 0  209 1 0  211 1 0  213 1 0  215 1 0  217 1 0  219 1 0  221 1 0  223 1 0  225 1 0  227 1 0  229 1 0  231 1 0  233 1 0  235 1 0  237 1 0  239 1 0  241 1 0  243 1 0  245 1 0  247 1 0  249 1 0  251 1 0  253 1 0  255 1 0  257 1 0  259 1 0  261 1 0  263 1 0  265 1 0  267 1 0  269 1 0  271 1 0  273 1 0  275 1 0  277 1 0  279 1 0  281 1 0  283 1 0  285 1 0  287 1 0  289 1 0  291 1 0  293 1 0  295 1 0  297 1 0  299 1 0  1 3 0  3 3 0  5 3 0  7 3 0  9 3 0  11 3 0  13 3 0  15 3 0  17 3 0  19 3 0  21 3 0  23 3 0  25 3 0  27 3 0  29 3 0  31 3 0  33 3 0  35 3 0  37 3 0  39 3 0  41 3 0  43 3 0  45 3 0  47 3 0  49 3 0  51 3 0  53 3 0  55 3 0  57 3 0  59 3 0  61 3 0  63 3 0  65 3 0  67 3 0  69 3 0  71 3 0  73 3 0  75 3 0  77 3 0  79 3 0  81 3 0  83 3 0  85 3 0  87 3 0  89 3 0  91 3 0  93 3 0  95 3 0  97 3 0  99 3 0  101 3 0  103 3 0  105 3 0  107 3 0  109 3 0  111 3 0  113 3 0  115 3 0  117 3 0  119 3 0  121 3 0  123 3 0  125 3 0
[...]
<PointData  Scalars="pressure"> 
<DataArray  type="Float64"  Name="pressure"  format="ascii">-3.5405665814928821e+03  -3.4490746072668558e+03  -3.3591258001339970e+03  -3.2707190964740853e+03  -3.1838527252474196e+03  -3.0985242104814297e+03  -3.0147303747433834e+03  -2.9324673435904942e+03  -2.8517305509865050e+03  -2.7725147456714235e+03  -2.6948139984686650e+03  -2.6186217105118203e+03  -2.5439306223708331e+03  -2.4707328240554857e+03  -2.3990197658718575e+03  -2.3287822701056571e+03  -2.2600105435042906e+03  -2.1926941905279632e+03  -2.1268222273382753e+03  -2.0623830964914123e+03  -1.9993646823014687e+03  -1.9377543268382160e+03  -1.8775388465224178e+03  -1.8187045492807524e+03  -1.7612372522214675e+03  -1.7051222997910909e+03  -1.6503445823718710e+03  -1.5968885552790493e+03  -1.5447382581167385e+03  -1.4938773344507947e+03  -1.4442890517570636e+03  -1.3959563216032370e+03  -1.3488617200227843e+03  -1.3029875080395623e+03  -1.2583156523021569e+03  -1.2148278457874039e+03  -1.1725055285331784e+03  -1.1313299083612374e+03  -1.0912819815516564e+03  -1.0523425534313815e+03  -1.0144922588403097e+03  -9.7771158243953346e+02  -9.4198087882738332e+02  -9.0728039243031094e+02  -8.7359027713682849e+02  -8.4089061564420365e+02  -8.0916143848896240e+02  -7.7838274273378693e+02  -7.4853451028488303e+02  -7.1959672581550285e+02  -6.9154939427283932e+02  -6.6437255794717873e+02  -6.3804631308381090e+02  -6.1255082601983702e+02  -5.8786634882966746e+02  -5.6397323446466032e+02  -5.4085195137397216e+02  -5.1848309759533083e+02  -4.9684741430604868e+02  -4.7592579882617008e+02  -4.5569931706720746e+02  -4.3614921542143941e+02  -4.1725693208822622e+02  -3.9900410783523745e+02  -3.8137259619388368e+02  -3.6434447308958784e+02  -3.4790204590881905e+02  -3.3202786200606221e+02  -3.1670471665504766e+02  -3.0191566044972791e+02  -2.8764400616149499e+02  -2.7387333506016569e+02  -2.6058750270716280e+02  -2.4777064423020673e+02  -2.3540717908960696e+02  -2.2348181534698750e+02  -2.1197955344794045e+02  -2.0088568953070217e+02  -1.9018581827347015e+02  -1.7986583529346089e+02  -1.6991193911120055e+02  -1.6031063269388818e+02  -1.5104872459195036e+02  -1.4211332968312550e+02  -1.3349186953858924e+02  -1.2517207242572204e+02  -1.1714197296219820e+02  -1.0938991143606330e+02  -1.0190453280642913e+02  -9.4674785399327703e+01  -8.7689919313125159e+01  -8.0939484547730729e+01  -7.4413328871616983e+01  -6.8101595440425911e+01  -6.1994720180651385e+01  -5.6083428951582604e+01  -5.0358734498358288e+01  -4.4811933208617752e+01  -3.9434601684859189e+01  -3.4218593144213351e+01  -2.9156033656929417e+01  -2.4239318234438262e+01  -1.9461106777427684e+01  -1.4814319893908685e+01  -1.0292134596808349e+01  -5.8879798901714677e+00  -1.5955322525891074e+00  2.5912889739731471e+00  6.6783262822330229e+00  1.0671188777257473e+01  1.4575257026917187e+01  1.8395687978731061e+01  2.2137419937129970e+01  2.5805177595609450e+01  2.9403477118646151e+01  3.2936631268699401e+01  3.6408754574090032e+01  3.9823768534080777e+01  4.3185406858179931e+01  4.6497220737679143e+01  4.9762584149012753e+01  5.2984699191213195e+01  5.6166601464558909e+01  5.9311165506388264e+01  6.2421110316623398e+01  6.5499005036704958e+01  6.8547274904467656e+01  7.1568207718716579e+01  7.4563961257812991e+01  7.7536572495287004e+01  8.0487970210665964e+01  8.3419994024289920e+01  8.6334425595196620e+01  8.9233042856782419e+01  9.2117717898814547e+01  9.4990597563306693e+01  9.7854440863987904e+01  1.0071325400626114e+02  1.0357349116862491e+02  1.0644633471750211e+02  1.0935204976253880e+02  1.1232838163418427e+02  1.1544704699888976e+02  1.1884721672696617e+02  1.2280743426398871e+02  1.2791303552503209e+02  1.3547877428960666e+02  1.4861174119364361e+02  1.7366098926399809e+02  2.1984595216292547e+02  2.9561963534145588e+02  -3.5405665814928789e+03  -3.4490746072668562e+03  -3.3591258001339938e+03  -3.2707190964740857e+03  -3.1838527252474169e+03  -3.0985242104814320e+03  -3.0147303747433871e+03  -2.9324673435904929e+03  -2.8517305509865059e+03  -2.7725147456714212e+03  -2.6948139984686659e+03  -2.6186217105118217e+03  -2.5439306223708345e+03  -2.4707328240554843e+03  -2.3990197658718575e+03  -2.3287822701056557e+03  -2.2600105435042919e+03  -2.1926941905279623e+03  -2.1268222273382762e+03  -2.0623830964914118e+03  -1.9993646823014690e+03  -1.9377543268382158e+03  -1.8775388465224189e+03  -1.8187045492807517e+03  -1.7612372522214666e+03  -1.7051222997910918e+03  -1.6503445823718707e+03  -1.5968885552790503e+03  -1.5447382581167383e+03  -1.4938773344507940e+03  -1.4442890517570622e+03  -1.3959563216032379e+03  -1.3488617200227829e+03  -1.3029875080395632e+03  -1.2583156523021589e+03  -1.2148278457874042e+03  -1.1725055285331773e+03  -1.1313299083612369e+03  -1.0912819815516584e+03  -1.0523425534313797e+03  -1.0144922588403114e+03  -9.7771158243953323e+02  -9.4198087882738423e+02  -9.0728039243031139e+02  -8.7359027713682860e+02  -8.4089061564420319e+02  -8.0916143848896286e+02  -7.7838274273378613e+02  -7.4853451028488337e+02  -7.1959672581550342e+02  -6.9154939427283932e+02  -6.6437255794717885e+02  -6.3804631308381101e+02  -6.1255082601983690e+02  -5.8786634882966723e+02  -5.6397323446466009e+02  -5.4085195137397204e+02  -5.1848309759533106e+02  -4.9684741430604919e+02  -4.7592579882617036e+02  -4.5569931706720769e+02  -4.3614921542143964e+02  -4.1725693208822634e+02  -3.9900410783523785e+02  -3.8137259619388340e+02  -3.6434447308958767e+02  -3.4790204590881956e+02  -3.3202786200606175e+02  -3.1670471665504760e+02  -3.0191566044972780e+02  -2.8764400616149521e+02  -2.7387333506016569e+02  -2.6058750270716246e+02  -2.4777064423020667e+02  -2.3540717908960715e+02  -2.2348181534698702e+02  -2.1197955344794042e+02  -2.0088568953070205e+02  -1.9018581827347018e+02  -1.7986583529346089e+02  -1.6991193911120041e+02  -1.6031063269388821e+02  -1.5104872459195019e+02  -1.4211332968312553e+02  -1.3349186953858930e+02  -1.2517207242572202e+02  -1.1714197296219842e+02  -1.0938991143606327e+02  -1.0190453280642920e+02  -9.4674785399327618e+01  -8.7689919313125372e+01  -8.0939484547730601e+01  -7.4413328871617153e+01  -6.8101595440425839e+01  -6.1994720180651150e+01  -5.6083428951582427e+01  -5.0358734498358302e+01  -4.4811933208617738e+01  -3.9434601684859260e+01  -3.4218593144213408e+01  -2.9156033656929637e+01  -2.4239318234438823e+01  -1.9461106777428991e+01  -1.4814319893910623e+01  -1.0292134596811954e+01  -5.8879798901784683e+00  -1.5955322526022939e+00  2.5912889739487852e+00  6.6783262821870029e+00  1.0671188777170451e+01  1.4575257026752613e+01  1.8395687978418898e+01  2.2137419936538613e+01  2.5805177594489187e+01  2.9403477116523838e+01  3.2936631264678766e+01  3.6408754566473306e+01  3.9823768519651701e+01  4.3185406830844990e+01  4.6497220685895272e+01  4.9762584050912174e+01  5.2984699005369734e+01  5.6166601112494000e+01  5.9311164839430496e+01  6.2421109053126756e+01  6.5499002643115219e+01  6.8547270370009727e+01  7.1568199128559229e+01  7.4563944984462807e+01  7.7536541666736767e+01  8.0487911808378442e+01  8.3419883385376394e+01  8.6334215996486861e+01  8.9232645779774842e+01  9.2116965631914567e+01  9.4989172311109854e+01  9.7851740282028260e+01  1.0070813581783993e+02  1.0356378685905942e+02  1.0642791862715470e+02  1.0931703845220274e+02  1.1226158006961177e+02  1.1531866925151073e+02  1.1859701431291703e+02  1.2230684662136986e+02  1.2686575532603662e+02  1.3314705018300401e+02  1.4318260760053337e+02  1.6301406189145507e+02  2.0429396303485851e+02  2.7818994972713040e+02  -3.5405665814928825e+03  -3.4490746072668567e+03  -3.3591258001339979e+03  -3.2707190964740848e+03  -3.1838527252474200e+03  -3.0985242104814324e+03  -3.0147303747433903e+03  -2.9324673435904947e+03  -2.8517305509865082e+03  -2.7725147456714226e+03  -2.6948139984686663e+03  -2.6186217105118230e+03  -2.5439306223708359e+03  -2.4707328240554871e+03  -2.3990197658718585e+03  -2.3287822701056580e+03  -2.2600105435042929e+03  -2.1926941905279641e+03  -2.1268222273382753e+03  -2.0623830964914132e+03  -1.9993646823014722e+03  -1.9377543268382160e+03  -1.8775388465224178e+03  -1.8187045492807517e+03  -1.7612372522214666e+03  -1.7051222997910918e+03  -1.6503445823718707e+03  -1.5968885552790505e+03  -1.5447382581167385e+03  -1.4938773344507952e+03  -1.4442890517570625e+03  -1.3959563216032382e+03  -1.3488617200227850e+03  -1.3029875080395639e+03  -1.2583156523021582e+03  -1.2148278457874039e+03  -1.1725055285331800e+03  -1.1313299083612383e+03  -1.0912819815516575e+03  -1.0523425534313812e+03  -1.0144922588403111e+03  -9.7771158243953334e+02  -9.4198087882738548e+02  -9.0728039243031128e+02  -8.7359027713682872e+02  -8.4089061564420376e+02  -8.0916143848896309e+02  -7.7838274273378750e+02  -7.4853451028488337e+02  -7.1959672581550456e+02  -6.9154939427284023e+02  -6.6437255794717964e+02  -6.3804631308381124e+02  -6.1255082601983713e+02  -5.8786634882966757e+02  -5.6397323446466021e+02  -5.4085195137397272e+02  -5.1848309759533140e+02  -4.9684741430604890e+02  -4.7592579882617088e+02  -4.5569931706720786e+02  -4.3614921542144015e+02  -4.1725693208822696e+02  -3.9900410783523802e+02  -3.8137259619388391e+02  -3.6434447308958767e+02  -3.4790204590881990e+02  -3.3202786200606261e+02  -3.1670471665504783e+02  -3.0191566044972791e+02  -2.8764400616149521e+02  -2.7387333506016597e+02  -2.6058750270716246e+02  -2.4777064423020667e+02  -2.3540717908960690e+02  -2.2348181534698739e+02  -2.1197955344794042e+02  -2.0088568953070222e+02  -1.9018581827347003e+02  -1.7986583529346106e+02  -1.6991193911120078e+02  -1.6031063269388815e+02  -1.5104872459195019e+02  -1.4211332968312536e+02  -1.3349186953858947e+02  -1.2517207242572253e+02  -1.1714197296219862e+02  -1.0938991143606360e+02  -1.0190453280642949e+02  -9.4674785399327845e+01  -8.7689919313125145e+01  -8.0939484547730601e+01  -7.4413328871617068e+01  -6.8101595440425783e+01  -6.1994720180650930e+01  -5.6083428951582441e+01  -5.0358734498358366e+01  -4.4811933208617958e+01  -3.9434601684859437e+01  -3.4218593144213912e+01  -2.9156033656930394e+01  -2.4239318234440166e+01  -1.9461106777431542e+01  -1.4814319893915570e+01  -1.0292134596821400e+01  -5.8879798901963838e+00  -1.5955322526362468e+00  2.5912889738851255e+00  6.6783262820667231e+00  1.0671188776942655e+01  1.4575257026321209e+01  1.8395687977601725e+01  2.2137419934990476e+01  2.5805177591556411e+01  2.9403477110967579e+01  3.2936631254152729e+01  3.6408754546532535e+01  3.9823768481875533e+01  4.3185406759281285e+01  4.6497220550323050e+01  4.9762583794081891e+01  5.2984698518825617e+01  5.6166600190776300e+01  5.9311163093312196e+01  6.2421105745249903e+01  6.5498996376616134e+01  6.8547258498645675e+01  7.1568176639241216e+01  7.4563902380302125e+01  7.7536460956632254e+01  8.0487758909543643e+01  8.3419593730244060e+01  8.6333667264962557e+01  8.9231606238017321e+01  9.2114996246113620e+01  9.4985441239421959e+01  9.7844671172154591e+01  1.0069474048459804e+02  1.0353839704650777e+02  1.0637976783225390e+02  1.0922562078863203e+02  1.1208762661359681e+02  1.1498616312044626e+02  1.1795569968664826e+02  1.2104812170324524e+02  1.2431379164947785e+02  1.2768012541356717e+02  1.3050077291833915e+02  1.3081561147983061e+02  1.5329720274989765e+02  2.2273129391135754e+02  -3.5405665814928834e+03  -3.4490746072668567e+03  -3.3591258001339988e+03  -3.2707190964740862e+03  -3.1838527252474200e+03  -3.0985242104814338e+03  -3.0147303747433862e+03  -2.9324673435904956e+03  -2.8517305509865078e+03  -2.7725147456714226e+03  -2.6948139984686673e+03  -2.6186217105118217e+03  -2.5439306223708368e+03  -2.4707328240554871e+03  -2.3990197658718598e+03  -2.3287822701056584e+03  -2.2600105435042933e+03  -2.1926941905279650e+03  -2.1268222273382758e+03  -2.0623830964914118e+03  -1.9993646823014694e+03  -1.9377543268382160e+03  -1.8775388465224169e+03  -1.8187045492807522e+03  -1.7612372522214657e+03  -1.7051222997910918e+03  -1.6503445823718714e+03  -1.5968885552790505e+03  -1.5447382581167392e+03  -1.4938773344507949e+03  -1.4442890517570627e+03  -1.3959563216032377e+03  -1.3488617200227852e+03  -1.3029875080395634e+03  -1.2583156523021589e+03  -1.2148278457874060e+03  -1.1725055285331791e+03  -1.1313299083612385e+03  -1.0912819815516591e+03  -1.0523425534313817e+03  -1.0144922588403101e+03  -9.7771158243953403e+02  -9.4198087882738355e+02  -9.0728039243031139e+02  -8.7359027713682860e+02  -8.4089061564420479e+02  -8.0916143848896343e+02  -7.7838274273378704e+02  -7.4853451028488428e+02  -7.1959672581550421e+02  -6.9154939427284103e+02  -6.6437255794717953e+02  -6.3804631308381158e+02  -6.1255082601983747e+02  -5.8786634882966757e+02  -5.6397323446466055e+02  -5.4085195137397295e+02  -5.1848309759533106e+02  -4.9684741430604902e+02  -4.7592579882616991e+02  -4.5569931706720791e+02  -4.3614921542143998e+02  -4.1725693208822696e+02  -3.9900410783523768e+02  -3.8137259619388351e+02  -3.6434447308958767e+02  -3.4790204590881956e+02  -3.3202786200606232e+02  -3.1670471665504760e+02  -3.0191566044972797e+02  -2.8764400616149527e+02  -2.7387333506016574e+02  -2.6058750270716263e+02  -2.4777064423020641e+02  -2.3540717908960673e+02  -2.2348181534698713e+02  -2.1197955344794050e+02  -2.0088568953070219e+02  -1.9018581827347009e+02  -1.7986583529346106e+02  -1.6991193911120050e+02  -1.6031063269388804e+02  -1.5104872459195002e+02  -1.4211332968312556e+02  -1.3349186953858938e+02  -1.2517207242572253e+02  -1.1714197296219901e+02  -1.0938991143606383e+02  -1.0190453280642954e+02  -9.4674785399327945e+01  -8.7689919313125216e+01  -8.0939484547730629e+01  -7.4413328871616855e+01  -6.8101595440425754e+01  -6.1994720180650823e+01  -5.6083428951582640e+01  -5.0358734498358388e+01  -4.4811933208617994e+01  -3.9434601684859871e+01  -3.4218593144214537e+01  -2.9156033656931374e+01  -2.4239318234441910e+01  -1.9461106777434672e+01  -1.4814319893921528e+01  -1.0292134596833094e+01  -5.8879798902184621e+00  -1.5955322526777869e+00  2.5912889738066949e+00  6.6783262819182045e+00  1.0671188776661118e+01  1.4575257025787998e+01  1.8395687976591550e+01  2.2137419933076924e+01  2.5805177587931084e+01  2.9403477104099494e+01  3.2936631241141711e+01  3.6408754521884418e+01  3.9823768435181556e+01  4.3185406670823212e+01  4.6497220382746775e+01  4.9762583476622289e+01  5.2984697917424405e+01  5.6166599051470477e+01  5.9311160934991143e+01  6.2421101656489419e+01  6.5498988630798095e+01  6.8547243824835761e+01  7.1568148840927265e+01  7.4563849718708894e+01  7.7536361193632203e+01  8.0487569916867287e+01  8.3419235699417470e+01  8.6332989005541265e+01  8.9230321332428574e+01  9.2112562100413257e+01  9.4980829955202083e+01  9.7835935482815913e+01  1.0067819145845601e+02  1.0350704631468375e+02  1.0632037651587028e+02  1.0911310888251009e+02  1.1187448146386764e+02  1.1458236921527640e+02  1.1719066547762728e+02  1.1959806172487326e+02  1.2155950246162529e+02  1.2239345461702715e+02  1.1983294341228802e+02  1.0442400778302149e+02  1.1324274851176600e-14  1.7825287161622776e+02  -3.5405665814928811e+03  -3.4490746072668589e+03  -3.3591258001339966e+03  -3.2707190964740862e+03  -3.1838527252474187e+03  -3.0985242104814324e+03  -3.0147303747433871e+03  -2.9324673435904924e+03  -2.8517305509865055e+03  -2.7725147456714240e+03  -2.6948139984686668e+03  -2.6186217105118212e+03  -2.5439306223708359e+03  -2.4707328240554848e+03  -2.3990197658718585e+03  -2.3287822701056557e+03  -2.2600105435042919e+03  -2.1926941905279623e+03  -2.1268222273382748e+03  -2.0623830964914132e+03  -1.9993646823014681e+03  -1.9377543268382167e+03  -1.8775388465224164e+03  -1.8187045492807508e+03  -1.7612372522214650e+03  -1.7051222997910911e+03  -1.6503445823718705e+03  -1.5968885552790505e+03  -1.5447382581167383e+03  -1.4938773344507940e+03  -1.4442890517570625e+03  -1.3959563216032370e+03  -1.3488617200227843e+03  -1.3029875080395634e+03  -1.2583156523021578e+03  -1.2148278457874053e+03  -1.1725055285331796e+03  -1.1313299083612385e+03  -1.0912819815516582e+03  -1.0523425534313812e+03  -1.0144922588403103e+03  -9.7771158243953357e+02  -9.4198087882738491e+02  -9.0728039243030992e+02  -8.7359027713682804e+02  -8.4089061564420319e+02  -8.0916143848896320e+02  -7.7838274273378738e+02  -7.4853451028488405e+02  -7.1959672581550490e+02  -6.9154939427284069e+02  -6.6437255794717964e+02  -6.3804631308381136e+02  -6.1255082601983747e+02  -5.8786634882966757e+02  -5.6397323446466066e+02  -5.4085195137397216e+02  -5.1848309759533117e+02  -4.9684741430604856e+02  -4.7592579882617025e+02  -4.5569931706720791e+02  -4.3614921542143998e+02  -4.1725693208822651e+02  -3.9900410783523739e+02  -3.8137259619388340e+02  -3.6434447308958738e+02  -3.4790204590881956e+02  -3.3202786200606175e+02  -3.1670471665504726e+02  -3.0191566044972768e+02  -2.8764400616149470e+02  -2.7387333506016563e+02  -2.6058750270716229e+02  -2.4777064423020641e+02  -2.3540717908960681e+02  -2.2348181534698710e+02  -2.1197955344794056e+02  -2.0088568953070197e+02  -1.9018581827346969e+02  -1.7986583529346078e+02  -1.6991193911120064e+02  -1.6031063269388807e+02  -1.5104872459194985e+02  -1.4211332968312556e+02  -1.3349186953858947e+02  -1.2517207242572258e+02  -1.1714197296219893e+02  -1.0938991143606408e+02  -1.0190453280642980e+02  -9.4674785399328101e+01  -8.7689919313125145e+01  -8.0939484547730544e+01  -7.4413328871616812e+01  -6.8101595440425726e+01  -6.1994720180650972e+01  -5.6083428951582569e+01  -5.0358734498358508e+01  -4.4811933208618129e+01  -3.9434601684859750e+01  -3.4218593144214715e+01  -2.9156033656931935e+01  -2.4239318234443214e+01  -1.9461106777437042e+01  -1.4814319893926349e+01  -1.0292134596842383e+01  -5.8879798902362657e+00  -1.5955322527113420e+00  2.5912889737432057e+00  6.6783262817981788e+00  1.0671188776433546e+01  1.4575257025356365e+01  1.8395687975774194e+01  2.2137419931528495e+01  2.5805177584998169e+01  2.9403477098543167e+01  3.2936631230615610e+01  3.6408754501943598e+01  3.9823768397405296e+01  4.3185406599259387e+01  4.6497220247174894e+01  4.9762583219791956e+01  5.2984697430880225e+01  5.6166598129752721e+01  5.9311159188873084e+01  6.2421098348612993e+01  6.5498982364300375e+01  6.8547231953476953e+01  7.1568126351628308e+01  7.4563807114621767e+01  7.7536280483811993e+01  8.0487417019127648e+01  8.3418946048504111e+01  8.6332440290268877e+01  8.9229281853270990e+01  9.2110592955738170e+01  9.4977099812294341e+01  9.7828869950457431e+01  1.0066480990523254e+02  1.0348170958054288e+02  1.0627243017037338e+02  1.0902247872447248e+02  1.1170356134880595e+02  1.1426154700796211e+02  1.1659435537221184e+02  1.1851268691718639e+02  1.1967526563997353e+02  1.1949896376495592e+02  1.1707817513656671e+02  1.1120002788645978e+02  1.2850997694067689e+02  1.9592317293671144e+02  -3.5405665814928802e+03  -3.4490746072668544e+03  -3.3591258001339979e+03  -3.2707190964740839e+03  -3.1838527252474187e+03  -3.0985242104814315e+03  -3.0147303747433834e+03  -2.9324673435904929e+03  -2.8517305509865041e+03  -2.7725147456714221e+03  -2.6948139984686668e+03  -2.6186217105118217e+03  -2.5439306223708350e+03  -2.4707328240554857e+03  -2.3990197658718575e+03  -2.3287822701056575e+03  -2.2600105435042906e+03  -2.1926941905279627e+03  -2.1268222273382758e+03  -2.0623830964914118e+03  -1.9993646823014678e+03  -1.9377543268382160e+03  -1.8775388465224171e+03  -1.8187045492807501e+03  -1.7612372522214648e+03  -1.7051222997910907e+03  -1.6503445823718700e+03  -1.5968885552790498e+03  -1.5447382581167378e+03  -1.4938773344507947e+03  -1.4442890517570625e+03  -1.3959563216032377e+03  -1.3488617200227836e+03  -1.3029875080395634e+03  -1.2583156523021585e+03  -1.2148278457874046e+03  -1.1725055285331798e+03  -1.1313299083612378e+03  -1.0912819815516593e+03  -1.0523425534313810e+03  -1.0144922588403101e+03  -9.7771158243953312e+02  -9.4198087882738378e+02  -9.0728039243031071e+02  -8.7359027713682735e+02  -8.4089061564420365e+02  -8.0916143848896286e+02  -7.7838274273378715e+02  -7.4853451028488416e+02  -7.1959672581550421e+02  -6