<?xml version="1.0"?>
<VTKFile type="UnstructuredGrid"  version="0.1"  >
<UnstructuredGrid>
<Piece  NumberOfPoints="1656" NumberOfCells="3000">
<Points>
<DataArray  type="Float64"  NumberOfComponents="3"  format="ascii">0 0 0  2 0 0  4 0 0  6 0 0  8 0 0  10 0 0  12 0 0  14 0 0  16 0 0  18 0 0  20 0 0  22 0 0  24 0 0  26 0 0  28 0 0  30 0 0  32 0 0  34 0 0  36 0 0  38 0 0  40 0 0  42 0 0  44 0 0  46 0 0  48 0 0  50 0 0  52 0 0  54 0 0  56 0 0  58 0 0  60 0 0  62 0 0  64 0 0  66 0 0  68 0 0  70 0 0  72 0 0  74 0 0  76 0 0  78 0 0  80 0 0  82 0 0  84 0 0  86 0 0  88 0 0  90 0 0  92 0 0  94 0 0  96 0 0  98 0 0  100 0 0  102 0 0  104 0 0  106 0 0  108 0 0  110 0 0  112 0 0  114 0 0  116 0 0  118 0 0  120 0 0  122 0 0  124 0 0  126 0 0  128 0 0  130 0 0  132 0 0  134 0 0  136 0 0  138 0 0  140 0 0  142 0 0  144 0 0  146 0 0  148 0 0  150 0 0  152 0 0  154 0 0  156 0 0  158 0 0  160 0 0  162 0 0  164 0 0  166 0 0  168 0 0  170 0 0  172 0 0  174 0 0  176 0 0  178 0 0  180 0 0  182 0 0  184 0 0  186 0 0  188 0 0  190 0 0  192 0 0  194 0 0  196 0 0  198 0 0  200 0 0  202 0 0  204 0 0  206 0 0  208 0 0  210 0 0  212 0 0  214 0 0  216 0 0  218 0 0  220 0 0  222 0 0  224 0 0  226 0 0  228 0 0  230 0 0  232 0 0  234 0 0  236 0 0  238 0 0  240 0 0  242 0 0  244 0 0  246 0 0  248 0 0  250 0 0  252 0 0  254 0 0  256 0 0  258 0 0  260 0 0  262 0 0  264 0 0  266 0 0  268 0 0  270 0 0  272 0 0  274 0 0  276 0 0  278 0 0  280 0 0  282 0 0  284 0 0  286 0 0  288 0 0  290 0 0  292 0 0  294 0 0  296 0 0  298 0 0  300 0 0  0 2 0  2 2 0  4 2 0  6 2 0  8 2 0  10 2 0  12 2 0  14 2 0  16 2 0  18 2 0  20 2 0  22 2 0  24 2 0  26 2 0  28 2 0  30 2 0  32 2 0  34 2 0  36 2 0  38 2 0  40 2 0  42 2 0  44 2 0  46 2 0  48 2 0  50 2 0  52 2 0  54 2 0  56 2 0  58 2 0  60 2 0  62 2 0  64 2 0  66 2 0  68 2 0  70 2 0  72 2 0  74 2 0  76 2 0  78 2 0  80 2 0  82 2 0  84 2 0  86 2 0  88 2 0  90 2 0  92 2 0  94 2 0  96 2 0  98 2 0  100 2 0  102 2 0  104 2 0  106 2 0  108 2 0  110 2 0  112 2 0  114 2 0  116 2 0  118 2 0  120 2 0  122 2 0  124 2 0  126 2 0  128 2 0  130 2 0  132 2 0  134 2 0  136 2 0  138 2 0  140 2 0  142 2 0  144 2 0  146 2 0  148 2 0  150 2 0  152 2 0  154 2 0  156 2 0  158 2 0  160 2 0  162 2 0  164 2 0  166 2 0  168 2 0  170 2 0  172 2 0  174 2 0  176 2 0  178 2 0  180 2 0  182 2 0  184 2 0  186 2 0  188 2 0  190 2 0  192 2 0  194 2 0  196 2 0  198 2 0  200 2 0  202 2 0  204 2 0  206 2 0  208 2 0  210 2 0  212 2 0  214 2 0  216 2 0  218 2 0  220 2 0  222 2 0  224 2 0  226 2 0  228 2 0  230 2 0  232 2 0  234 2 0  236 2 0  238 2 0  240 2 0  242 2 0  244 2 0  246 2 0  248 2 0  250 2 0  252 2 0  254 2 0  256 2 0  258 2 0  260 2 0  262 2 0  264 2 0  266 2 0  268 2 0  270 2 0  272 2 0  274 2 0  276 2 0  278 2 0  280 2 0  282 2 0  284 2 0  286 2 0  288 2 0  290 2 0  292 2 0  294 2 0  296 2 0  298 2 0  300 2 0  0 4 0  2 4 0  4 4 0  6 4 0  8 4 0  10 4 0  12 4 0  14 4 0  16 4 0  18 4 0  20 4 0  22 4 0  24 4 0  26 4 0  28 4 0  30 4 0  32 4 0  34 4 0  36 4 0  38 4 0  40 4 0  42 4 0  44 4 0  46 4 0  48 4 0  50 4 0  52 4 0  54 4 0  56 4 0  58 4 0  60 4 0  62 4 0  64 4 0  66 4 0  68 4 0  70 4 0  72 4 0  74 4 0  76 4 0  78 4 0  80 4 0  82 4 0  84 4 0  86 4 0  88 4 0  90 4 0  92 4 0  94 4 0  96 4 0  98 4 0  100 4 0  102 4 0  104 4 0  106 4 0  108 4 0  110 4 0  112 4 0  114 4 0  116 4 0  118 4 0  120 4 0  122 4 0  124 4 0  126 4 0  128 4 0  130 4 0  132 4 0  134 4 0  136 4 0  138 4 0  140 4 0  142 4 0  144 4 0  146 4 0  148 4 0  150 4 0  152 4 0  154 4 0  156 4 0  158 4 0  160 4 0  162 4 0  164 4 0  166 4 0  168 4 0  170 4 0  172 4 0  174 4 0  176 4 0  178 4 0  180 4 0  182 4 0  184 4 0  186 4 0  188 4 0  190 4 0  192 4 0  194 4 0  196 4 0  198 4 0  200 4 0  202 4 0  204 4 0  206 4 0  208 4 0  210 4 0  212 4 0  214 4 0  216 4 0  218 4 0  220 4 0  222 4 0  224 4 0  226 4 0  228 4 0  230 4 0  232 4 0  234 4 0  236 4 0  238 4 0  240 4 0  242 4 0  244 4 0  246 4 0  248 4 0  250 4 0  252 4 0  254 4 0  256 4 0  258 4 0  260 4 0  262 4 0  264 4 0  266 4 0  268 4 0  270 4 0  272 4 0  274 4 0  276 4 0  278 4 0  280 4 0  282 4 0  284 4 0  286 4 0  288 4 0  290 4 0  292 4 0  294 4 0  296 4 0  298 4 0  300 4 0  0 6 0  2 6 0  4 6 0  6 6 0  8 6 0  10 6 0  12 6 0  14 6 0  16 6 0  18 6 0  20 6 0  22 6 0  24 6 0  26 6 0  28 6 0  30 6 0  32 6 0  34 6 0  36 6 0  38 6 0  40 6 0  42 6 0  44 6 0  46 6 0  48 6 0  50 6 0  52 6 0  54 6 0  56 6 0  58 6 0  60 6 0  62 6 0  64 6 0  66 6 0  68 6 0  70 6 0  72 6 0  74 6 0  76 6 0  78 6 0  80 6 0  82 6 0  84 6 0  86 6 0  88 6 0  90 6 0  92 6 0  94 6 0  96 6 0  98 6 0  100 6 0  102 6 0  104 6 0  106 6 0  108 6 0  110 6 0  112 6 0  114 6 0  116 6 0  118 6 0  120 6 0  122 6 0  124 6 0  126 6 0  128 6 0  130 6 0  132 6 0  134 6 0  136 6 0  138 6 0  140 6 0  142 6 0  144 6 0  146 6 0  148 6 0  150 6 0  152 6 0  154 6 0  156 6 0  158 6 0  160 6 0  162 6 0  164 6 0  166 6 0  168 6 0  170 6 0  172 6 0  174 6 0  176 6 0  178 6 0  180 6 0  182 6 0  184 6 0  186 6 0  188 6 0  190 6 0  192 6 0  194 6 0  196 6 0  198 6 0  200 6 0  202 6 0  204 6 0  206 6 0  208 6 0  210 6 0  212 6 0  214 6 0  216 6 0  218 6 0  220 6 0  222 6 0  224 6 0  226 6 0  228 6 0  230 6 0  232 6 0  234 6 0  236 6 0  238 6 0  240 6 0  242 6 0  244 6 0  246 6 0  248 6 0  250 6 0  252 6 0  254 6 0  256 6 0  258 6 0  260 6 0  262 6 0  264 6 0  266 6 0  268 6 0  270 6 0  272 6 0  274 6 0  276 6 0  278 6 0  280 6 0  282 6 0  284 6 0  286 6 0  288 6 0  290 6 0  292 6 0  294 6 0  296 6 0  298 6 0  300 6 0  0 8 0  2 8 0  4 8 0  6 8 0  8 8 0  10 8 0  12 8 0  14 8 0  16 8 0  18 8 0  20 8 0  22 8 0  24 8 0  26 8 0  28 8 0  30 8 0  32 8 0  34 8 0  36 8 0  38 8 0  40 8 0  42 8 0  44 8 0  46 8 0  48 8 0  50 8 0  52 8 0  54 8 0  56 8 0  58 8 0  60 8 0  62 8 0  64 8 0  66 8 0  68 8 0  70 8 0  72 8 0  74 8 0  76 8 0  78 8 0  80 8 0  82 8 0  84 8 0  86 8 0  88 8 0  90 8 0  92 8 0  94 8 0  96 8 0  98 8 0  100 8 0  102 8 0  104 8 0  106 8 0  108 8 0  110 8 0  112 8 0  114 8 0  116 8 0  118 8 0  120 8 0  122 8 0  124 8 0  126 8 0  128 8 0  130 8 0  132 8 0  134 8 0  136 8 0  138 8 0  140 8 0  142 8 0  144 8 0  146 8 0  148 8 0  150 8 0  152 8 0  154 8 0  156 8 0  158 8 0  160 8 0  162 8 0  164 8 0  166 8 0  168 8 0  170 8 0  172 8 0  174 8 0  176 8 0  178 8 0  180 8 0  182 8 0  184 8 0  186 8 0  188 8 0  190 8 0  192 8 0  194 8 0  196 8 0  198 8 0  200 8 0  202 8 0  204 8 0  206 8 0  208 8 0  210 8 0  212 8 0  214 8 0  216 8 0  218 8 0  220 8 0  222 8 0  224 8 0  226 8 0  228 8 0  230 8 0  232 8 0  234 8 0  236 8 0  238 8 0  240 8 0  242 8 0  244 8 0  246 8 0  248 8 0  250 8 0  252 8 0  254 8 0  256 8 0  258 8 0  260 8 0  262 8 0  264 8 0  266 8 0  268 8 0  270 8 0  272 8 0  274 8 0  276 8 0  278 8 0  280 8 0  282 8 0  284 8 0  286 8 0  288 8 0  290 8 0  292 8 0  294 8 0  296 8 0  298 8 0  300 8 0  0 10 0  2 10 0  4 10 0  6 10 0  8 10 0  10 10 0  12 10 0  14 10 0  16 10 0  18 10 0  20 10 0  22 10 0  24 10 0  26 10 0  28 10 0  30 10 0  32 10 0  34 10 0  36 10 0  38 10 0  40 10 0  42 10 0  44 10 0  46 10 0  48 10 0  50 10 0  52 10 0  54 10 0  56 10 0  58 10 0  60 10 0  62 10 0  64 10 0  66 10 0  68 10 0  70 10 0  72 10 0  74 10 0  76 10 0  78 10 0  80 10 0  82 10 0  84 10 0  86 10 0  88 10 0  90 10 0  92 10 0  94 10 0  96 10 0  98 10 0  100 10 0  102 10 0  104 10 0  106 10 0  108 10 0  110 10 0  112 10 0  114 10 0  116 10 0  118 10 0  120 10 0  122 10 0  124 10 0  126 10 0  128 10 0  130 10 0  132 10 0  134 10 0  136 10 0  138 10 0  140 10 0  142 10 0  144 10 0  146 10 0  148 10 0  150 10 0  152 10 0  154 10 0  156 10 0  158 10 0  160 10 0  162 10 0  164 10 0  166 10 0  168 10 0  170 10 0  172 10 0  174 10 0  176 10 0  178 10 0  180 10 0  182 10 0  184 10 0  186 10 0  188 10 0  190 10 0  192 10 0  194 10 0  196 10 0  198 10 0  200 10 0  202 10 0  204 10 0  206 10 0  208 10 0  210 10 0  212 10 0  214 10 0  216 10 0  218 10 0  220 10 0  222 10 0  224 10 0  226 10 0  228 10 0  230 10 0  232 10 0  234 10 0  236 10 0  238 10 0  240 10 0  242 10 0  244 10 0  246 10 0  248 10 0  250 10 0  252 10 0  254 10 0  256 10 0  258 10 0  260 10 0  262 10 0  264 10 0  266 10 0  268 10 0  270 10 0  272 10 0  274 10 0  276 10 0  278 10 0  280 10 0  282 10 0  284 10 0  286 10 0  288 10 0  290 10 0  292 10 0  294 10 0  296 10 0  298 10 0  300 10 0  1 1 0  3 1 0  5 1 0  7 1 0  9 1 0  11 1 0  13 1 0  15 1 0  17 1 0  19 1 0  21 1 0  23 1 0  25 1 0  27 1 0  29 1 0  31 1 0  33 1 0  35 1 0  37 1 0  39 1 0  41 1 0  43 1 0  45 1 0  47 1 0  49 1 0  51 1 0  53 1 0  55 1 0  57 1 0  59 1 0  61 1 0  63 1 0  65 1 0  67 1 0  69 1 0  71 1 0  73 1 0  75 1 0  77 1 0  79 1 0  81 1 0  83 1 0  85 1 0  87 1 0  89 1 0  91 1 0  93 1 0  95 1 0  97 1 0  99 1 0  101 1 0  103 1 0  105 1 0  107 1 0  109 1 0  111 1 0  113 1 0  115 1 0  117 1 0  119 1 0  121 1 0  123 1 0  125 1 0  127 1 0  129 1 0  131 1 0  133 1 0  135 1 0  137 1 0  139 1 0  141 1 0  143 1 0  145 1 0  147 1 0  149 1 0  151 1 0  153 1 0  155 1 0  157 1 0  159 1 0  161 1 0  163 1 0  165 1 0  167 1 0  169 1 0  171 1 0  173 1 0  175 1 0  177 1 0  179 1 0  181 1 0  183 1 0  185 1 0  187 1 0  189 1 0  191 1 0  193 1 0  195 1 0  197 1 0  199 1 0  201 1 0  203 1 0  205 1 0  207 1 0  209 1 0  211 1 0  213 1 0  215 1 0  217 1 0  219 1 0  221 1 0  223 1 0  225 1 0  227 1 0  229 1 0  231 1 0  233 1 0  235 1 0  237 1 0  239 1 0  241 1 0  243 1 0  245 1 0  247 1 0  249 1 0  251 1 0  253 1 0  255 1 0  257 1 0  259 1 0  261 1 0  263 1 0  265 1 0  267 1 0  269 1 0  271 1 0  273 1 0  275 1 0  277 1 0  279 1 0  281 1 0  283 1 0  285 1 0  287 1 0  289 1 0  291 1 0  293 1 0  295 1 0  297 1 0  299 1 0  1 3 0  3 3 0  5 3 0  7 3 0  9 3 0  11 3 0  13 3 0  15 3 0  17 3 0  19 3 0  21 3 0  23 3 0  25 3 0  27 3 0  29 3 0  31 3 0  33 3 0  35 3 0  37 3 0  39 3 0  41 3 0  43 3 0  45 3 0  47 3 0  49 3 0  51 3 0  53 3 0  55 3 0  57 3 0  59 3 0  61 3 0  63 3 0  65 3 0  67 3 0  69 3 0  71 3 0  73 3 0  75 3 0  77 3 0  79 3 0  81 3 0  83 3 0  85 3 0  87 3 0  89 3 0  91 3 0  93 3 0  95 3 0  97 3 0  99 3 0  101 3 0  103 3 0  105 3 0  107 3 0  109 3 0  111 3 0  113 3 0  115 3 0  117 3 0  119 3 0  121 3 0  123 3 0  125 3 0
[...]
<PointData  Scalars="pressure"> 
<DataArray  type="Float64"  Name="pressure"  format="ascii">-4.6488059987950119e+03  -4.5571240809975279e+03  -4.4666056442555382e+03  -4.3772502278871552e+03  -4.2890570644928302e+03  -4.2020250805601827e+03  -4.1161528973096165e+03  -4.0314388317796302e+03  -3.9478808981503175e+03  -3.8654768093033863e+03  -3.7842239786164782e+03  -3.7041195219895735e+03  -3.6251602601006298e+03  -3.5473427208876055e+03  -3.4706631422534815e+03  -3.3951174749907505e+03  -3.3207013859215590e+03  -3.2474102612493043e+03  -3.1752392101173250e+03  -3.1041830683700928e+03  -3.0342364025118873e+03  -2.9653935138579313e+03  -2.8976484428725435e+03  -2.8309949736887243e+03  -2.7654266388034030e+03  -2.7009367239423045e+03  -2.6375182730882389e+03  -2.5751640936664835e+03  -2.5138667618806226e+03  -2.4536186281922542e+03  -2.3944118229376218e+03  -2.3362382620742474e+03  -2.2790896530504206e+03  -2.2229575007903827e+03  -2.1678331137878586e+03  -2.1137076103005229e+03  -2.0605719246380295e+03  -2.0084168135359328e+03  -1.9572328626080528e+03  -1.9070104928696060e+03  -1.8577399673234718e+03  -1.8094113976019657e+03  -1.7620147506564517e+03  -1.7155398554871692e+03  -1.6699764099056331e+03  -1.6253139873220871e+03  -1.5815420435503997e+03  -1.5386499236229743e+03  -1.4966268686082458e+03  -1.4554620224234382e+03  -1.4151444386353230e+03  -1.3756630872418318e+03  -1.3370068614274787e+03  -1.2991645842856833e+03  -1.2621250155011512e+03  -1.2258768579856705e+03  -1.1904087644607885e+03  -1.1557093439809598e+03  -1.1217671683909737e+03  -1.0885707787115616e+03  -1.0561086914472876e+03  -1.0243694048110210e+03  -9.9334140485940452e+02  -9.6301317153398645e+02  -9.3337318460282108e+02  -9.0440992949756048e+02  -8.7611190304125591e+02  -8.4846761906227471e+02  -8.2146561388994962e+02  -7.9509445172778373e+02  -7.6934272990023419e+02  -7.4419908396931510e+02  -7.1965219271745423e+02  -6.9569078299327384e+02  -6.7230363441714212e+02  -6.4947958394359466e+02  -6.2720753027788624e+02  -6.0547643814419644e+02  -5.8427534240316459e+02  -5.6359335201669671e+02  -5.4341965385812978e+02  -5.2374351636609811e+02  -5.0455429304060794e+02  -4.8584142578004338e+02  -4.6759444805802212e+02  -4.4980298793919468e+02  -4.3245677093329732e+02  -4.1554562268692450e+02  -3.9905947151269214e+02  -3.8298835075562397e+02  -3.6732240099677534e+02  -3.5205187209427214e+02  -3.3716712506210683e+02  -3.2265863378720508e+02  -3.0851698658540687e+02  -2.9473288759717991e+02  -2.8129715802402040e+02  -2.6820073720662367e+02  -2.5543468354606358e+02  -2.4299017526933616e+02  -2.3085851104074641e+02  -2.1903111042074485e+02  -2.0749951417392970e+02  -1.9625538442804344e+02  -1.8529050468588974e+02  -1.7459677969220837e+02  -1.6416623515762433e+02  -1.5399101734189384e+02  -1.4406339249873173e+02  -1.3437574618461787e+02  -1.2492058243400791e+02  -1.1569052280348109e+02  -1.0667830528739103e+02  -9.7876783107649914e+01  -8.9278923380290649e+01  -8.0877805661469978e+01  -7.2666620375514100e+01  -6.4638667127489782e+01  -5.6787352902459205e+01  -4.9106190152986358e+01  -4.1588794775243002e+01  -3.4228883971761469e+01  -2.7020273994474188e+01  -1.9956877753301441e+01  -1.3032702259663040e+01  -6.2418458441518272e+00  4.2150496947623789e-01  6.9630791600160062e+00  1.3388525905164837e+01  1.9703421097674735e+01  2.5913277235877253e+01  3.2023559636379559e+01  3.8039714556286583e+01  4.3967219813646423e+01  4.9811677973849541e+01  5.5578990144448909e+01  6.1275682542173492e+01  6.6909522907638902e+01  7.2490687866533861e+01  7.8033981357038940e+01  8.3563072732994456e+01  8.9118670994796418e+01  9.4774578413896648e+01  1.0067028530286935e+02  1.0708097951545655e+02  1.1458051849164836e+02  1.2445281685989599e+02  1.3972647556839203e+02  1.6658572760550345e+02  2.1400830988525132e+02  2.9022449240881724e+02  -4.6488059987950128e+03  -4.5571240809975270e+03  -4.4666056442555400e+03  -4.3772502278871589e+03  -4.2890570644928321e+03  -4.2020250805601836e+03  -4.1161528973096183e+03  -4.0314388317796279e+03  -3.9478808981503189e+03  -3.8654768093033858e+03  -3.7842239786164801e+03  -3.7041195219895712e+03  -3.6251602601006284e+03  -3.5473427208876042e+03  -3.4706631422534779e+03  -3.3951174749907495e+03  -3.3207013859215640e+03  -3.2474102612493016e+03  -3.1752392101173255e+03  -3.1041830683700937e+03  -3.0342364025118882e+03  -2.9653935138579322e+03  -2.8976484428725435e+03  -2.8309949736887256e+03  -2.7654266388034043e+03  -2.7009367239423027e+03  -2.6375182730882416e+03  -2.5751640936664821e+03  -2.5138667618806226e+03  -2.4536186281922528e+03  -2.3944118229376240e+03  -2.3362382620742464e+03  -2.2790896530504197e+03  -2.2229575007903845e+03  -2.1678331137878549e+03  -2.1137076103005234e+03  -2.0605719246380299e+03  -2.0084168135359332e+03  -1.9572328626080530e+03  -1.9070104928696046e+03  -1.8577399673234729e+03  -1.8094113976019657e+03  -1.7620147506564538e+03  -1.7155398554871681e+03  -1.6699764099056320e+03  -1.6253139873220875e+03  -1.5815420435504006e+03  -1.5386499236229740e+03  -1.4966268686082449e+03  -1.4554620224234391e+03  -1.4151444386353246e+03  -1.3756630872418318e+03  -1.3370068614274778e+03  -1.2991645842856828e+03  -1.2621250155011514e+03  -1.2258768579856710e+03  -1.1904087644607880e+03  -1.1557093439809605e+03  -1.1217671683909748e+03  -1.0885707787115612e+03  -1.0561086914472885e+03  -1.0243694048110212e+03  -9.9334140485940520e+02  -9.6301317153398679e+02  -9.3337318460282165e+02  -9.0440992949756094e+02  -8.7611190304125603e+02  -8.4846761906227516e+02  -8.2146561388995008e+02  -7.9509445172778396e+02  -7.6934272990023464e+02  -7.4419908396931453e+02  -7.1965219271745445e+02  -6.9569078299327373e+02  -6.7230363441714303e+02  -6.4947958394359398e+02  -6.2720753027788646e+02  -6.0547643814419632e+02  -5.8427534240316459e+02  -5.6359335201669649e+02  -5.4341965385813012e+02  -5.2374351636609856e+02  -5.0455429304060743e+02  -4.8584142578004338e+02  -4.6759444805802167e+02  -4.4980298793919508e+02  -4.3245677093329795e+02  -4.1554562268692456e+02  -3.9905947151269220e+02  -3.8298835075562391e+02  -3.6732240099677551e+02  -3.5205187209427180e+02  -3.3716712506210683e+02  -3.2265863378720519e+02  -3.0851698658540647e+02  -2.9473288759718008e+02  -2.8129715802402058e+02  -2.6820073720662327e+02  -2.5543468354606370e+02  -2.4299017526933636e+02  -2.3085851104074686e+02  -2.1903111042074539e+02  -2.0749951417393049e+02  -1.9625538442804540e+02  -1.8529050468589335e+02  -1.7459677969221494e+02  -1.6416623515763749e+02  -1.5399101734191760e+02  -1.4406339249877658e+02  -1.3437574618470268e+02  -1.2492058243416905e+02  -1.1569052280378577e+02  -1.0667830528796789e+02  -9.7876783108742586e+01  -8.9278923382360773e+01  -8.0877805665390994e+01  -7.2666620382941886e+01  -6.4638667141559822e+01  -5.6787352929112764e+01  -4.9106190203476793e+01  -4.1588794870888677e+01  -3.4228884152945128e+01  -2.7020274337694470e+01  -1.9956878403470999e+01  -1.3032703491294511e+01  -6.2418481772577783e+00  4.2150054982321994e-01  6.9630707877709579e+00  1.3388510045438368e+01  1.9703391054234082e+01  2.5913220323830942e+01  3.2023451826156730e+01  3.8039510326878130e+01  4.3966832928570959e+01  4.9810945053669464e+01  5.5577601618952599e+01  6.1273051687683818e+01  6.6904537129399330e+01  7.2481235111297281e+01  7.8016043601958273e+01  8.3528972637939944e+01  8.9053611613403405e+01  9.4649555877194217e+01  1.0042663662807374e+02  1.0659353526866873e+02  1.1356080490781335e+02  1.2218262498936527e+02  1.3444093698901878e+02  1.5622072209261131e+02  1.9886824269049185e+02  2.7325643849486323e+02  -4.6488059987950128e+03  -4.5571240809975270e+03  -4.4666056442555437e+03  -4.3772502278871561e+03  -4.2890570644928339e+03  -4.2020250805601863e+03  -4.1161528973096174e+03  -4.0314388317796311e+03  -3.9478808981503203e+03  -3.8654768093033863e+03  -3.7842239786164801e+03  -3.7041195219895753e+03  -3.6251602601006311e+03  -3.5473427208876092e+03  -3.4706631422534797e+03  -3.3951174749907527e+03  -3.3207013859215608e+03  -3.2474102612493080e+03  -3.1752392101173259e+03  -3.1041830683700937e+03  -3.0342364025118873e+03  -2.9653935138579327e+03  -2.8976484428725448e+03  -2.8309949736887252e+03  -2.7654266388034043e+03  -2.7009367239423054e+03  -2.6375182730882420e+03  -2.5751640936664840e+03  -2.5138667618806226e+03  -2.4536186281922542e+03  -2.3944118229376236e+03  -2.3362382620742474e+03  -2.2790896530504201e+03  -2.2229575007903859e+03  -2.1678331137878581e+03  -2.1137076103005243e+03  -2.0605719246380295e+03  -2.0084168135359353e+03  -1.9572328626080537e+03  -1.9070104928696060e+03  -1.8577399673234709e+03  -1.8094113976019664e+03  -1.7620147506564538e+03  -1.7155398554871695e+03  -1.6699764099056333e+03  -1.6253139873220882e+03  -1.5815420435504011e+03  -1.5386499236229740e+03  -1.4966268686082451e+03  -1.4554620224234402e+03  -1.4151444386353248e+03  -1.3756630872418323e+03  -1.3370068614274790e+03  -1.2991645842856835e+03  -1.2621250155011512e+03  -1.2258768579856719e+03  -1.1904087644607878e+03  -1.1557093439809610e+03  -1.1217671683909755e+03  -1.0885707787115625e+03  -1.0561086914472887e+03  -1.0243694048110217e+03  -9.9334140485940463e+02  -9.6301317153398850e+02  -9.3337318460282177e+02  -9.0440992949756071e+02  -8.7611190304125682e+02  -8.4846761906227584e+02  -8.2146561388995042e+02  -7.9509445172778408e+02  -7.6934272990023487e+02  -7.4419908396931487e+02  -7.1965219271745468e+02  -6.9569078299327339e+02  -6.7230363441714246e+02  -6.4947958394359421e+02  -6.2720753027788635e+02  -6.0547643814419655e+02  -5.8427534240316595e+02  -5.6359335201669694e+02  -5.4341965385813069e+02  -5.2374351636609822e+02  -5.0455429304060817e+02  -4.8584142578004361e+02  -4.6759444805802241e+02  -4.4980298793919513e+02  -4.3245677093329812e+02  -4.1554562268692536e+02  -3.9905947151269243e+02  -3.8298835075562408e+02  -3.6732240099677568e+02  -3.5205187209427197e+02  -3.3716712506210717e+02  -3.2265863378720530e+02  -3.0851698658540641e+02  -2.9473288759718008e+02  -2.8129715802402058e+02  -2.6820073720662384e+02  -2.5543468354606398e+02  -2.4299017526933721e+02  -2.3085851104074771e+02  -2.1903111042074693e+02  -2.0749951417393342e+02  -1.9625538442805018e+02  -1.8529050468590253e+02  -1.7459677969223267e+02  -1.6416623515767066e+02  -1.5399101734197967e+02  -1.4406339249889439e+02  -1.3437574618492519e+02  -1.2492058243459030e+02  -1.1569052280458310e+02  -1.0667830528947823e+02  -9.7876783111603089e+01  -8.9278923387779685e+01  -8.0877805675656163e+01  -7.2666620402387409e+01  -6.4638667178396318e+01  -5.6787352998892558e+01  -4.9106190335662816e+01  -4.1588795121291810e+01  -3.4228884627289922e+01  -2.7020275236256150e+01  -1.9956880105637698e+01  -1.3032706715747230e+01  -6.2418542854088166e+00  4.2148897902152394e-01  6.9630488689548296e+00  1.3388468524158034e+01  1.9703312399570979e+01  2.5913071326491082e+01  3.2023169576598249e+01  3.8038975652234917e+01  4.3965820069126082e+01  4.9809026316269261e+01  5.5573966691433874e+01  6.1266165097504064e+01  6.6891488338080592e+01  7.2456503443455617e+01  7.7969143436931233e+01  8.3439934143063269e+01  8.8884194530648614e+01  9.4325738837150283e+01  9.9802116808873393e+01  1.0536784807294248e+02  1.1107598249506268e+02  1.1685989418050939e+02  1.2209442944473724e+02  1.2487558850991763e+02  1.4922359020089229e+02  2.1926806245425979e+02  -4.6488059987950146e+03  -4.5571240809975297e+03  -4.4666056442555373e+03  -4.3772502278871598e+03  -4.2890570644928339e+03  -4.2020250805601863e+03  -4.1161528973096183e+03  -4.0314388317796283e+03  -3.9478808981503175e+03  -3.8654768093033890e+03  -3.7842239786164819e+03  -3.7041195219895740e+03  -3.6251602601006298e+03  -3.5473427208876092e+03  -3.4706631422534824e+03  -3.3951174749907500e+03  -3.3207013859215635e+03  -3.2474102612493052e+03  -3.1752392101173286e+03  -3.1041830683700937e+03  -3.0342364025118895e+03  -2.9653935138579341e+03  -2.8976484428725448e+03  -2.8309949736887243e+03  -2.7654266388034052e+03  -2.7009367239423054e+03  -2.6375182730882411e+03  -2.5751640936664821e+03  -2.5138667618806226e+03  -2.4536186281922537e+03  -2.3944118229376245e+03  -2.3362382620742478e+03  -2.2790896530504201e+03  -2.2229575007903845e+03  -2.1678331137878577e+03  -2.1137076103005243e+03  -2.0605719246380322e+03  -2.0084168135359346e+03  -1.9572328626080530e+03  -1.9070104928696060e+03  -1.8577399673234713e+03  -1.8094113976019667e+03  -1.7620147506564558e+03  -1.7155398554871683e+03  -1.6699764099056342e+03  -1.6253139873220880e+03  -1.5815420435504011e+03  -1.5386499236229736e+03  -1.4966268686082456e+03  -1.4554620224234379e+03  -1.4151444386353246e+03  -1.3756630872418332e+03  -1.3370068614274790e+03  -1.2991645842856842e+03  -1.2621250155011514e+03  -1.2258768579856712e+03  -1.1904087644607889e+03  -1.1557093439809607e+03  -1.1217671683909759e+03  -1.0885707787115625e+03  -1.0561086914472889e+03  -1.0243694048110212e+03  -9.9334140485940497e+02  -9.6301317153398782e+02  -9.3337318460282108e+02  -9.0440992949756105e+02  -8.7611190304125648e+02  -8.4846761906227550e+02  -8.2146561388995053e+02  -7.9509445172778339e+02  -7.6934272990023453e+02  -7.4419908396931510e+02  -7.1965219271745400e+02  -6.9569078299327361e+02  -6.7230363441714155e+02  -6.4947958394359432e+02  -6.2720753027788635e+02  -6.0547643814419723e+02  -5.8427534240316550e+02  -5.6359335201669774e+02  -5.4341965385813046e+02  -5.2374351636609867e+02  -5.0455429304060817e+02  -4.8584142578004344e+02  -4.6759444805802252e+02  -4.4980298793919542e+02  -4.3245677093329795e+02  -4.1554562268692536e+02  -3.9905947151269288e+02  -3.8298835075562420e+02  -3.6732240099677534e+02  -3.5205187209427197e+02  -3.3716712506210683e+02  -3.2265863378720559e+02  -3.0851698658540653e+02  -2.9473288759718014e+02  -2.8129715802402063e+02  -2.6820073720662378e+02  -2.5543468354606421e+02  -2.4299017526933770e+02  -2.3085851104074899e+02  -2.1903111042074900e+02  -2.0749951417393672e+02  -1.9625538442805598e+02  -1.8529050468591393e+02  -1.7459677969225407e+02  -1.6416623515771116e+02  -1.5399101734205624e+02  -1.4406339249903922e+02  -1.3437574618520011e+02  -1.2492058243511046e+02  -1.1569052280556855e+02  -1.0667830529134477e+02  -9.7876783115139034e+01  -8.9278923394477658e+01  -8.0877805688344353e+01  -7.2666620426423208e+01  -6.4638667223928522e+01  -5.6787353085145327e+01  -4.9106190499053966e+01  -4.1588795430806677e+01  -3.4228885213611868e+01  -2.7020276346940197e+01  -1.9956882209631580e+01  -1.3032710701389405e+01  -6.2418618354981055e+00  4.2147467672681727e-01  6.9630217758190582e+00  1.3388417201077083e+01  1.9703215177231105e+01  2.5912887156309267e+01  3.2022820699495746e+01  3.8038314767808714e+01  4.3964568143666668e+01  4.9806654771497158e+01  5.5569474232781978e+01  6.1257654956529159e+01  6.6875367436436591e+01  7.2425965356999399e+01  7.7911294647080723e+01  8.3330350196128038e+01  8.8676607135431851e+01  9.3932494668947456e+01  9.9057109866564787e+01  1.0395582352753284e+02  1.0839408398632831e+02  1.1171246229945699e+02  1.1170823209140067e+02  9.9182804887407386e+01  2.3314683517128294e-14  1.7596807846962147e+02  -4.6488059987950137e+03  -4.5571240809975297e+03  -4.4666056442555391e+03  -4.3772502278871552e+03  -4.2890570644928321e+03  -4.2020250805601836e+03  -4.1161528973096174e+03  -4.0314388317796238e+03  -3.9478808981503180e+03  -3.8654768093033822e+03  -3.7842239786164778e+03  -3.7041195219895708e+03  -3.6251602601006284e+03  -3.5473427208876051e+03  -3.4706631422534779e+03  -3.3951174749907509e+03  -3.3207013859215622e+03  -3.2474102612493016e+03  -3.1752392101173268e+03  -3.1041830683700950e+03  -3.0342364025118859e+03  -2.9653935138579332e+03  -2.8976484428725448e+03  -2.8309949736887256e+03  -2.7654266388034021e+03  -2.7009367239423050e+03  -2.6375182730882416e+03  -2.5751640936664821e+03  -2.5138667618806226e+03  -2.4536186281922533e+03  -2.3944118229376218e+03  -2.3362382620742474e+03  -2.2790896530504206e+03  -2.2229575007903845e+03  -2.1678331137878549e+03  -2.1137076103005261e+03  -2.0605719246380299e+03  -2.0084168135359332e+03  -1.9572328626080514e+03  -1.9070104928696062e+03  -1.8577399673234720e+03  -1.8094113976019657e+03  -1.7620147506564526e+03  -1.7155398554871674e+03  -1.6699764099056329e+03  -1.6253139873220887e+03  -1.5815420435504018e+03  -1.5386499236229733e+03  -1.4966268686082453e+03  -1.4554620224234379e+03  -1.4151444386353253e+03  -1.3756630872418320e+03  -1.3370068614274792e+03  -1.2991645842856833e+03  -1.2621250155011501e+03  -1.2258768579856710e+03  -1.1904087644607871e+03  -1.1557093439809603e+03  -1.1217671683909750e+03  -1.0885707787115618e+03  -1.0561086914472883e+03  -1.0243694048110215e+03  -9.9334140485940452e+02  -9.6301317153398736e+02  -9.3337318460282131e+02  -9.0440992949756026e+02  -8.7611190304125705e+02  -8.4846761906227573e+02  -8.2146561388994974e+02  -7.9509445172778373e+02  -7.6934272990023385e+02  -7.4419908396931498e+02  -7.1965219271745377e+02  -6.9569078299327373e+02  -6.7230363441714132e+02  -6.4947958394359432e+02  -6.2720753027788635e+02  -6.0547643814419678e+02  -5.8427534240316584e+02  -5.6359335201669751e+02  -5.4341965385813103e+02  -5.2374351636609879e+02  -5.0455429304060812e+02  -4.8584142578004423e+02  -4.6759444805802252e+02  -4.4980298793919513e+02  -4.3245677093329812e+02  -4.1554562268692501e+02  -3.9905947151269243e+02  -3.8298835075562414e+02  -3.6732240099677551e+02  -3.5205187209427180e+02  -3.3716712506210689e+02  -3.2265863378720547e+02  -3.0851698658540602e+02  -2.9473288759718008e+02  -2.8129715802402058e+02  -2.6820073720662378e+02  -2.5543468354606387e+02  -2.4299017526933778e+02  -2.3085851104074976e+02  -2.1903111042075037e+02  -2.0749951417393945e+02  -1.9625538442806084e+02  -1.8529050468592274e+02  -1.7459677969227141e+02  -1.6416623515774407e+02  -1.5399101734211771e+02  -1.4406339249915609e+02  -1.3437574618542183e+02  -1.2492058243553089e+02  -1.1569052280636539e+02  -1.0667830529285467e+02  -9.7876783117999395e+01  -8.9278923399896428e+01  -8.0877805698609436e+01  -7.2666620445868517e+01  -6.4638667260764407e+01  -5.6787353154924794e+01  -4.9106190631239414e+01  -4.1588795681210094e+01  -3.4228885687956499e+01  -2.7020277245502193e+01  -1.9956883911798158e+01  -1.3032713925841438e+01  -6.2418679436476516e+00  4.2146310592999109e-01  6.9629998570214626e+00  1.3388375679868190e+01  1.9703136522844456e+01  2.5912738160035300e+01  3.2022538454044593e+01  3.8037780108987626e+01  4.3963555345166775e+01  4.9804736268851450e+01  5.5565840209513013e+01  6.1250771849394567e+01  6.6862332061270237e+01  7.2401285365890416e+01  7.7864593531284953e+01  8.3242078399596195e+01  8.8510143214650100e+01  9.3620052562653015e+01  9.8476403707673612e+01  1.0289889650474508e+02  1.0655929610991284e+02  1.0889395418228457e+02  1.0902535366604130e+02  1.0577700469824855e+02  1.2508986460476886e+02  1.9316675675498070e+02  -4.6488059987950128e+03  -4.5571240809975234e+03  -4.4666056442555418e+03  -4.3772502278871571e+03  -4.2890570644928312e+03  -4.2020250805601836e+03  -4.1161528973096174e+03  -4.0314388317796256e+03  -3.9478808981503166e+03  -3.8654768093033854e+03  -3.7842239786164801e+03  -3.7041195219895726e+03  -3.6251602601006284e+03  -3.5473427208876060e+03  -3.4706631422534815e+03  -3.3951174749907477e+03  -3.3207013859215604e+03  -3.2474102612493057e+03  -3.1752392101173273e+03  -3.1041830683700923e+03  -3.0342364025118877e+03  -2.9653935138579332e+03  -2.8976484428725453e+03  -2.8309949736887238e+03  -2.7654266388034030e+03  -2.7009367239423027e+03  -2.6375182730882398e+03  -2.5751640936664830e+03  -2.5138667618806203e+03  -2.4536186281922537e+03  -2.3944118229376240e+03  -2.3362382620742478e+03  -2.2790896530504192e+03  -2.2229575007903832e+03  -2.1678331137878567e+03  -2.1137076103005243e+03  -2.0605719246380309e+03  -2.0084168135359334e+03  -1.9572328626080518e+03  -1.9070104928696062e+03  -1.8577399673234706e+03  -1.8094113976019660e+03  -1.7620147506564529e+03  -1.7155398554871679e+03  -1.6699764099056329e+03  -1.6253139873220896e+03  -1.5815