<?xml version="1.0"?>
<VTKFile type="UnstructuredGrid"  version="0.1"  >
<UnstructuredGrid>
<Piece  NumberOfPoints="1656" NumberOfCells="3000">
<Points>
<DataArray  type="Float64"  NumberOfComponents="3"  format="ascii">0 0 0  2 0 0  4 0 0  6 0 0  8 0 0  10 0 0  12 0 0  14 0 0  16 0 0  18 0 0  20 0 0  22 0 0  24 0 0  26 0 0  28 0 0  30 0 0  32 0 0  34 0 0  36 0 0  38 0 0  40 0 0  42 0 0  44 0 0  46 0 0  48 0 0  50 0 0  52 0 0  54 0 0  56 0 0  58 0 0  60 0 0  62 0 0  64 0 0  66 0 0  68 0 0  70 0 0  72 0 0  74 0 0  76 0 0  78 0 0  80 0 0  82 0 0  84 0 0  86 0 0  88 0 0  90 0 0  92 0 0  94 0 0  96 0 0  98 0 0  100 0 0  102 0 0  104 0 0  106 0 0  108 0 0  110 0 0  112 0 0  114 0 0  116 0 0  118 0 0  120 0 0  122 0 0  124 0 0  126 0 0  128 0 0  130 0 0  132 0 0  134 0 0  136 0 0  138 0 0  140 0 0  142 0 0  144 0 0  146 0 0  148 0 0  150 0 0  152 0 0  154 0 0  156 0 0  158 0 0  160 0 0  162 0 0  164 0 0  166 0 0  168 0 0  170 0 0  172 0 0  174 0 0  176 0 0  178 0 0  180 0 0  182 0 0  184 0 0  186 0 0  188 0 0  190 0 0  192 0 0  194 0 0  196 0 0  198 0 0  200 0 0  202 0 0  204 0 0  206 0 0  208 0 0  210 0 0  212 0 0  214 0 0  216 0 0  218 0 0  220 0 0  222 0 0  224 0 0  226 0 0  228 0 0  230 0 0  232 0 0  234 0 0  236 0 0  238 0 0  240 0 0  242 0 0  244 0 0  246 0 0  248 0 0  250 0 0  252 0 0  254 0 0  256 0 0  258 0 0  260 0 0  262 0 0  264 0 0  266 0 0  268 0 0  270 0 0  272 0 0  274 0 0  276 0 0  278 0 0  280 0 0  282 0 0  284 0 0  286 0 0  288 0 0  290 0 0  292 0 0  294 0 0  296 0 0  298 0 0  300 0 0  0 2 0  2 2 0  4 2 0  6 2 0  8 2 0  10 2 0  12 2 0  14 2 0  16 2 0  18 2 0  20 2 0  22 2 0  24 2 0  26 2 0  28 2 0  30 2 0  32 2 0  34 2 0  36 2 0  38 2 0  40 2 0  42 2 0  44 2 0  46 2 0  48 2 0  50 2 0  52 2 0  54 2 0  56 2 0  58 2 0  60 2 0  62 2 0  64 2 0  66 2 0  68 2 0  70 2 0  72 2 0  74 2 0  76 2 0  78 2 0  80 2 0  82 2 0  84 2 0  86 2 0  88 2 0  90 2 0  92 2 0  94 2 0  96 2 0  98 2 0  100 2 0  102 2 0  104 2 0  106 2 0  108 2 0  110 2 0  112 2 0  114 2 0  116 2 0  118 2 0  120 2 0  122 2 0  124 2 0  126 2 0  128 2 0  130 2 0  132 2 0  134 2 0  136 2 0  138 2 0  140 2 0  142 2 0  144 2 0  146 2 0  148 2 0  150 2 0  152 2 0  154 2 0  156 2 0  158 2 0  160 2 0  162 2 0  164 2 0  166 2 0  168 2 0  170 2 0  172 2 0  174 2 0  176 2 0  178 2 0  180 2 0  182 2 0  184 2 0  186 2 0  188 2 0  190 2 0  192 2 0  194 2 0  196 2 0  198 2 0  200 2 0  202 2 0  204 2 0  206 2 0  208 2 0  210 2 0  212 2 0  214 2 0  216 2 0  218 2 0  220 2 0  222 2 0  224 2 0  226 2 0  228 2 0  230 2 0  232 2 0  234 2 0  236 2 0  238 2 0  240 2 0  242 2 0  244 2 0  246 2 0  248 2 0  250 2 0  252 2 0  254 2 0  256 2 0  258 2 0  260 2 0  262 2 0  264 2 0  266 2 0  268 2 0  270 2 0  272 2 0  274 2 0  276 2 0  278 2 0  280 2 0  282 2 0  284 2 0  286 2 0  288 2 0  290 2 0  292 2 0  294 2 0  296 2 0  298 2 0  300 2 0  0 4 0  2 4 0  4 4 0  6 4 0  8 4 0  10 4 0  12 4 0  14 4 0  16 4 0  18 4 0  20 4 0  22 4 0  24 4 0  26 4 0  28 4 0  30 4 0  32 4 0  34 4 0  36 4 0  38 4 0  40 4 0  42 4 0  44 4 0  46 4 0  48 4 0  50 4 0  52 4 0  54 4 0  56 4 0  58 4 0  60 4 0  62 4 0  64 4 0  66 4 0  68 4 0  70 4 0  72 4 0  74 4 0  76 4 0  78 4 0  80 4 0  82 4 0  84 4 0  86 4 0  88 4 0  90 4 0  92 4 0  94 4 0  96 4 0  98 4 0  100 4 0  102 4 0  104 4 0  106 4 0  108 4 0  110 4 0  112 4 0  114 4 0  116 4 0  118 4 0  120 4 0  122 4 0  124 4 0  126 4 0  128 4 0  130 4 0  132 4 0  134 4 0  136 4 0  138 4 0  140 4 0  142 4 0  144 4 0  146 4 0  148 4 0  150 4 0  152 4 0  154 4 0  156 4 0  158 4 0  160 4 0  162 4 0  164 4 0  166 4 0  168 4 0  170 4 0  172 4 0  174 4 0  176 4 0  178 4 0  180 4 0  182 4 0  184 4 0  186 4 0  188 4 0  190 4 0  192 4 0  194 4 0  196 4 0  198 4 0  200 4 0  202 4 0  204 4 0  206 4 0  208 4 0  210 4 0  212 4 0  214 4 0  216 4 0  218 4 0  220 4 0  222 4 0  224 4 0  226 4 0  228 4 0  230 4 0  232 4 0  234 4 0  236 4 0  238 4 0  240 4 0  242 4 0  244 4 0  246 4 0  248 4 0  250 4 0  252 4 0  254 4 0  256 4 0  258 4 0  260 4 0  262 4 0  264 4 0  266 4 0  268 4 0  270 4 0  272 4 0  274 4 0  276 4 0  278 4 0  280 4 0  282 4 0  284 4 0  286 4 0  288 4 0  290 4 0  292 4 0  294 4 0  296 4 0  298 4 0  300 4 0  0 6 0  2 6 0  4 6 0  6 6 0  8 6 0  10 6 0  12 6 0  14 6 0  16 6 0  18 6 0  20 6 0  22 6 0  24 6 0  26 6 0  28 6 0  30 6 0  32 6 0  34 6 0  36 6 0  38 6 0  40 6 0  42 6 0  44 6 0  46 6 0  48 6 0  50 6 0  52 6 0  54 6 0  56 6 0  58 6 0  60 6 0  62 6 0  64 6 0  66 6 0  68 6 0  70 6 0  72 6 0  74 6 0  76 6 0  78 6 0  80 6 0  82 6 0  84 6 0  86 6 0  88 6 0  90 6 0  92 6 0  94 6 0  96 6 0  98 6 0  100 6 0  102 6 0  104 6 0  106 6 0  108 6 0  110 6 0  112 6 0  114 6 0  116 6 0  118 6 0  120 6 0  122 6 0  124 6 0  126 6 0  128 6 0  130 6 0  132 6 0  134 6 0  136 6 0  138 6 0  140 6 0  142 6 0  144 6 0  146 6 0  148 6 0  150 6 0  152 6 0  154 6 0  156 6 0  158 6 0  160 6 0  162 6 0  164 6 0  166 6 0  168 6 0  170 6 0  172 6 0  174 6 0  176 6 0  178 6 0  180 6 0  182 6 0  184 6 0  186 6 0  188 6 0  190 6 0  192 6 0  194 6 0  196 6 0  198 6 0  200 6 0  202 6 0  204 6 0  206 6 0  208 6 0  210 6 0  212 6 0  214 6 0  216 6 0  218 6 0  220 6 0  222 6 0  224 6 0  226 6 0  228 6 0  230 6 0  232 6 0  234 6 0  236 6 0  238 6 0  240 6 0  242 6 0  244 6 0  246 6 0  248 6 0  250 6 0  252 6 0  254 6 0  256 6 0  258 6 0  260 6 0  262 6 0  264 6 0  266 6 0  268 6 0  270 6 0  272 6 0  274 6 0  276 6 0  278 6 0  280 6 0  282 6 0  284 6 0  286 6 0  288 6 0  290 6 0  292 6 0  294 6 0  296 6 0  298 6 0  300 6 0  0 8 0  2 8 0  4 8 0  6 8 0  8 8 0  10 8 0  12 8 0  14 8 0  16 8 0  18 8 0  20 8 0  22 8 0  24 8 0  26 8 0  28 8 0  30 8 0  32 8 0  34 8 0  36 8 0  38 8 0  40 8 0  42 8 0  44 8 0  46 8 0  48 8 0  50 8 0  52 8 0  54 8 0  56 8 0  58 8 0  60 8 0  62 8 0  64 8 0  66 8 0  68 8 0  70 8 0  72 8 0  74 8 0  76 8 0  78 8 0  80 8 0  82 8 0  84 8 0  86 8 0  88 8 0  90 8 0  92 8 0  94 8 0  96 8 0  98 8 0  100 8 0  102 8 0  104 8 0  106 8 0  108 8 0  110 8 0  112 8 0  114 8 0  116 8 0  118 8 0  120 8 0  122 8 0  124 8 0  126 8 0  128 8 0  130 8 0  132 8 0  134 8 0  136 8 0  138 8 0  140 8 0  142 8 0  144 8 0  146 8 0  148 8 0  150 8 0  152 8 0  154 8 0  156 8 0  158 8 0  160 8 0  162 8 0  164 8 0  166 8 0  168 8 0  170 8 0  172 8 0  174 8 0  176 8 0  178 8 0  180 8 0  182 8 0  184 8 0  186 8 0  188 8 0  190 8 0  192 8 0  194 8 0  196 8 0  198 8 0  200 8 0  202 8 0  204 8 0  206 8 0  208 8 0  210 8 0  212 8 0  214 8 0  216 8 0  218 8 0  220 8 0  222 8 0  224 8 0  226 8 0  228 8 0  230 8 0  232 8 0  234 8 0  236 8 0  238 8 0  240 8 0  242 8 0  244 8 0  246 8 0  248 8 0  250 8 0  252 8 0  254 8 0  256 8 0  258 8 0  260 8 0  262 8 0  264 8 0  266 8 0  268 8 0  270 8 0  272 8 0  274 8 0  276 8 0  278 8 0  280 8 0  282 8 0  284 8 0  286 8 0  288 8 0  290 8 0  292 8 0  294 8 0  296 8 0  298 8 0  300 8 0  0 10 0  2 10 0  4 10 0  6 10 0  8 10 0  10 10 0  12 10 0  14 10 0  16 10 0  18 10 0  20 10 0  22 10 0  24 10 0  26 10 0  28 10 0  30 10 0  32 10 0  34 10 0  36 10 0  38 10 0  40 10 0  42 10 0  44 10 0  46 10 0  48 10 0  50 10 0  52 10 0  54 10 0  56 10 0  58 10 0  60 10 0  62 10 0  64 10 0  66 10 0  68 10 0  70 10 0  72 10 0  74 10 0  76 10 0  78 10 0  80 10 0  82 10 0  84 10 0  86 10 0  88 10 0  90 10 0  92 10 0  94 10 0  96 10 0  98 10 0  100 10 0  102 10 0  104 10 0  106 10 0  108 10 0  110 10 0  112 10 0  114 10 0  116 10 0  118 10 0  120 10 0  122 10 0  124 10 0  126 10 0  128 10 0  130 10 0  132 10 0  134 10 0  136 10 0  138 10 0  140 10 0  142 10 0  144 10 0  146 10 0  148 10 0  150 10 0  152 10 0  154 10 0  156 10 0  158 10 0  160 10 0  162 10 0  164 10 0  166 10 0  168 10 0  170 10 0  172 10 0  174 10 0  176 10 0  178 10 0  180 10 0  182 10 0  184 10 0  186 10 0  188 10 0  190 10 0  192 10 0  194 10 0  196 10 0  198 10 0  200 10 0  202 10 0  204 10 0  206 10 0  208 10 0  210 10 0  212 10 0  214 10 0  216 10 0  218 10 0  220 10 0  222 10 0  224 10 0  226 10 0  228 10 0  230 10 0  232 10 0  234 10 0  236 10 0  238 10 0  240 10 0  242 10 0  244 10 0  246 10 0  248 10 0  250 10 0  252 10 0  254 10 0  256 10 0  258 10 0  260 10 0  262 10 0  264 10 0  266 10 0  268 10 0  270 10 0  272 10 0  274 10 0  276 10 0  278 10 0  280 10 0  282 10 0  284 10 0  286 10 0  288 10 0  290 10 0  292 10 0  294 10 0  296 10 0  298 10 0  300 10 0  1 1 0  3 1 0  5 1 0  7 1 0  9 1 0  11 1 0  13 1 0  15 1 0  17 1 0  19 1 0  21 1 0  23 1 0  25 1 0  27 1 0  29 1 0  31 1 0  33 1 0  35 1 0  37 1 0  39 1 0  41 1 0  43 1 0  45 1 0  47 1 0  49 1 0  51 1 0  53 1 0  55 1 0  57 1 0  59 1 0  61 1 0  63 1 0  65 1 0  67 1 0  69 1 0  71 1 0  73 1 0  75 1 0  77 1 0  79 1 0  81 1 0  83 1 0  85 1 0  87 1 0  89 1 0  91 1 0  93 1 0  95 1 0  97 1 0  99 1 0  101 1 0  103 1 0  105 1 0  107 1 0  109 1 0  111 1 0  113 1 0  115 1 0  117 1 0  119 1 0  121 1 0  123 1 0  125 1 0  127 1 0  129 1 0  131 1 0  133 1 0  135 1 0  137 1 0  139 1 0  141 1 0  143 1 0  145 1 0  147 1 0  149 1 0  151 1 0  153 1 0  155 1 0  157 1 0  159 1 0  161 1 0  163 1 0  165 1 0  167 1 0  169 1 0  171 1 0  173 1 0  175 1 0  177 1 0  179 1 0  181 1 0  183 1 0  185 1 0  187 1 0  189 1 0  191 1 0  193 1 0  195 1 0  197 1 0  199 1 0  201 1 0  203 1 0  205 1 0  207 1 0  209 1 0  211 1 0  213 1 0  215 1 0  217 1 0  219 1 0  221 1 0  223 1 0  225 1 0  227 1 0  229 1 0  231 1 0  233 1 0  235 1 0  237 1 0  239 1 0  241 1 0  243 1 0  245 1 0  247 1 0  249 1 0  251 1 0  253 1 0  255 1 0  257 1 0  259 1 0  261 1 0  263 1 0  265 1 0  267 1 0  269 1 0  271 1 0  273 1 0  275 1 0  277 1 0  279 1 0  281 1 0  283 1 0  285 1 0  287 1 0  289 1 0  291 1 0  293 1 0  295 1 0  297 1 0  299 1 0  1 3 0  3 3 0  5 3 0  7 3 0  9 3 0  11 3 0  13 3 0  15 3 0  17 3 0  19 3 0  21 3 0  23 3 0  25 3 0  27 3 0  29 3 0  31 3 0  33 3 0  35 3 0  37 3 0  39 3 0  41 3 0  43 3 0  45 3 0  47 3 0  49 3 0  51 3 0  53 3 0  55 3 0  57 3 0  59 3 0  61 3 0  63 3 0  65 3 0  67 3 0  69 3 0  71 3 0  73 3 0  75 3 0  77 3 0  79 3 0  81 3 0  83 3 0  85 3 0  87 3 0  89 3 0  91 3 0  93 3 0  95 3 0  97 3 0  99 3 0  101 3 0  103 3 0  105 3 0  107 3 0  109 3 0  111 3 0  113 3 0  115 3 0  117 3 0  119 3 0  121 3 0  123 3 0  125 3 0
[...]
<PointData  Scalars="pressure"> 
<DataArray  type="Float64"  Name="pressure"  format="ascii">-4.3118776855574479e+03  -4.2202431737324732e+03  -4.1298669149415709e+03  -4.0407483286606894e+03  -3.9528864479439490e+03  -3.8662799203138911e+03  -3.7809270090059531e+03  -3.6968255945650990e+03  -3.6139731767922494e+03  -3.5323668770373197e+03  -3.4520034408354122e+03  -3.3728792408820136e+03  -3.2949902803425675e+03  -3.2183321964913330e+03  -3.1429002646738568e+03  -3.0686894025869842e+03  -2.9956941748698359e+03  -2.9239087979986684e+03  -2.8533271454782093e+03  -2.7839427533215076e+03  -2.7157488258100343e+03  -2.6487382415253360e+03  -2.5829035596431409e+03  -2.5182370264805727e+03  -2.4547305822866660e+03  -2.3923758682661692e+03  -2.3311642338263059e+03  -2.2710867440358520e+03  -2.2121341872857274e+03  -2.1542970831400144e+03  -2.0975656903661379e+03  -2.0419300151327884e+03  -1.9873798193639718e+03  -1.9339046292374883e+03  -1.8814937438160055e+03  -1.8301362437988348e+03  -1.7798210003824324e+03  -1.7305366842176250e+03  -1.6822717744515694e+03  -1.6350145678424178e+03  -1.5887531879347141e+03  -1.5434755942836346e+03  -1.4991695917161867e+03  -1.4558228396176539e+03  -1.4134228612315969e+03  -1.3719570529619848e+03  -1.3314126936660359e+03  -1.2917769539266415e+03  -1.2530369052933590e+03  -1.2151795294812080e+03  -1.1781917275166973e+03  -1.1420603288207901e+03  -1.1067721002186886e+03  -1.0723137548666862e+03  -1.0386719610865405e+03  -1.0058333510981043e+03  -9.7378452964134362e+02  -9.4251208247903878e+02  -9.1200258477193665e+02  -8.8224260931832987e+02  -8.5321873465043882e+02  -8.2491755298030034e+02  -7.9732567798820025e+02  -7.7042975244706633e+02  -7.4421645567653832e+02  -7.1867251082088103e+02  -6.9378469194516333e+02  -6.6953983094456146e+02  -6.4592482426197489e+02  -6.2292663940950206e+02  -6.0053232128969478e+02  -5.7872899831286213e+02  -5.5750388830703287e+02  -5.3684430421757020e+02  -5.1673765959373554e+02  -4.9717147385987693e+02  -4.7813337736923313e+02  -4.5961111623867009e+02  -4.4159255696300625e+02  -4.2406569080788097e+02  -4.0701863798044053e+02  -3.9043965157741161e+02  -3.7431712131041911e+02  -3.5863957700869111e+02  -3.4339569189957291e+02  -3.2857428566752060e+02  -3.1416432729251824e+02  -3.0015493766908378e+02  -2.8653539200728898e+02  -2.7329512201741716e+02  -2.6042371788011087e+02  -2.4791093000406300e+02  -2.3574667057348984e+02  -2.2392101488781486e+02  -2.1242420249615606e+02  -2.0124663812937737e+02  -1.9037889243260514e+02  -1.7981170250126075e+02  -1.6953597222378423e+02  -1.5954277243434711e+02  -1.4982334087895492e+02  -1.4036908199845149e+02  -1.3117156653201693e+02  -1.2222253094483813e+02  -1.1351387668370228e+02  -1.0503766926432812e+02  -9.6786137194298206e+01  -8.8751670735515432e+01  -8.0926820510127740e+01  -7.3304295953914917e+01  -6.5876963621135559e+01  -5.8637845344858142e+01  -5.1580116256799641e+01  -4.4697102670681261e+01  -3.7982279833093635e+01  -3.1429269545788742e+01  -2.5031837663229176e+01  -1.8783891469000057e+01  -1.2679476934340371e+01  -6.7127758613490220e+00  -8.7810291215207104e-01  4.8300974770949843e+00  1.0417254303021341e+01  1.5888673336872140e+01  2.1249540631712986e+01  2.6504926255966520e+01  3.1659788372116882e+01  3.6718977889085309e+01  4.1687244124436944e+01  4.6569242305956067e+01  5.1369544487266538e+01  5.6092656863793032e+01  6.0743049149736493e+01  6.5325206744128934e+01  6.9843726018278531e+01  7.4303491269419510e+01  7.8710006458472151e+01  8.3070020622030071e+01  8.7392711518014636e+01  9.1691934261466812e+01  9.5990516429054182e+01  1.0032854157597745e+02  1.0477961693804978e+02  1.0948390250726439e+02  1.1471905341604040e+02  1.2106536444361379e+02  1.2982264401658807e+02  1.4405864891491655e+02  1.7003888608511676e+02  2.1685978352639535e+02  2.9286075842812249e+02  -4.3118776855574470e+03  -4.2202431737324732e+03  -4.1298669149415691e+03  -4.0407483286606898e+03  -3.9528864479439476e+03  -3.8662799203138916e+03  -3.7809270090059495e+03  -3.6968255945651008e+03  -3.6139731767922508e+03  -3.5323668770373174e+03  -3.4520034408354099e+03  -3.3728792408820113e+03  -3.2949902803425666e+03  -3.2183321964913353e+03  -3.1429002646738572e+03  -3.0686894025869833e+03  -2.9956941748698346e+03  -2.9239087979986671e+03  -2.8533271454782098e+03  -2.7839427533215057e+03  -2.7157488258100357e+03  -2.6487382415253355e+03  -2.5829035596431409e+03  -2.5182370264805754e+03  -2.4547305822866629e+03  -2.3923758682661683e+03  -2.3311642338263068e+03  -2.2710867440358516e+03  -2.2121341872857274e+03  -2.1542970831400125e+03  -2.0975656903661379e+03  -2.0419300151327877e+03  -1.9873798193639711e+03  -1.9339046292374894e+03  -1.8814937438160039e+03  -1.8301362437988344e+03  -1.7798210003824322e+03  -1.7305366842176261e+03  -1.6822717744515721e+03  -1.6350145678424176e+03  -1.5887531879347137e+03  -1.5434755942836341e+03  -1.4991695917161890e+03  -1.4558228396176532e+03  -1.4134228612315960e+03  -1.3719570529619848e+03  -1.3314126936660361e+03  -1.2917769539266408e+03  -1.2530369052933602e+03  -1.2151795294812075e+03  -1.1781917275166991e+03  -1.1420603288207894e+03  -1.1067721002186881e+03  -1.0723137548666864e+03  -1.0386719610865391e+03  -1.0058333510981057e+03  -9.7378452964134283e+02  -9.4251208247903912e+02  -9.1200258477193734e+02  -8.8224260931832998e+02  -8.5321873465043939e+02  -8.2491755298029955e+02  -7.9732567798820082e+02  -7.7042975244706656e+02  -7.4421645567653832e+02  -7.1867251082088080e+02  -6.9378469194516333e+02  -6.6953983094456134e+02  -6.4592482426197466e+02  -6.2292663940950160e+02  -6.0053232128969535e+02  -5.7872899831286156e+02  -5.5750388830703298e+02  -5.3684430421756997e+02  -5.1673765959373509e+02  -4.9717147385987664e+02  -4.7813337736923341e+02  -4.5961111623867021e+02  -4.4159255696300647e+02  -4.2406569080788091e+02  -4.0701863798044047e+02  -3.9043965157741189e+02  -3.7431712131041871e+02  -3.5863957700869139e+02  -3.4339569189957291e+02  -3.2857428566752077e+02  -3.1416432729251790e+02  -3.0015493766908372e+02  -2.8653539200728909e+02  -2.7329512201741755e+02  -2.6042371788011070e+02  -2.4791093000406309e+02  -2.3574667057348978e+02  -2.2392101488781452e+02  -2.1242420249615569e+02  -2.0124663812937743e+02  -1.9037889243260508e+02  -1.7981170250126070e+02  -1.6953597222378437e+02  -1.5954277243434703e+02  -1.4982334087895526e+02  -1.4036908199845186e+02  -1.3117156653201806e+02  -1.2222253094484023e+02  -1.1351387668370586e+02  -1.0503766926433467e+02  -9.6786137194311110e+01  -8.8751670735539406e+01  -8.0926820510173144e+01  -7.3304295954000722e+01  -6.5876963621298202e+01  -5.8637845345166369e+01  -5.1580116257383750e+01  -4.4697102671787682e+01  -3.7982279835189118e+01  -3.1429269549759720e+01  -2.5031837670751727e+01  -1.8783891483250486e+01  -1.2679476961335864e+01  -6.7127759124877455e+00  -8.7810300902683680e-01  4.8300972935797004e+00  1.0417253955379470e+01  1.5888672678316409e+01  2.1249539384177456e+01  2.6504923892697221e+01  3.1659783895257753e+01  3.6718969408346723e+01  4.1687228058946374e+01  4.6569211872270621e+01  5.1369486835095060e+01  5.6092547649862560e+01  6.0742842258065224e+01  6.5324814809748460e+01  6.9842983521215473e+01  7.4302084578718777e+01  7.8707341144918061e+01  8.3064969461288925e+01  8.7383134651465753e+01  9.1673760703407311e+01  9.5955967514844161e+01  1.0026262481926557e+02  1.0465294467369627e+02  1.0923703440512578e+02  1.1422515903735339e+02  1.2003213666574116e+02  1.2752231856915886e+02  1.3870285495530734e+02  1.5953601251960316e+02  2.0151829833812045e+02  2.7566697492771289e+02  -4.3118776855574470e+03  -4.2202431737324750e+03  -4.1298669149415728e+03  -4.0407483286606916e+03  -3.9528864479439499e+03  -3.8662799203138966e+03  -3.7809270090059508e+03  -3.6968255945650994e+03  -3.6139731767922508e+03  -3.5323668770373192e+03  -3.4520034408354113e+03  -3.3728792408820159e+03  -3.2949902803425689e+03  -3.2183321964913366e+03  -3.1429002646738577e+03  -3.0686894025869874e+03  -2.9956941748698350e+03  -2.9239087979986684e+03  -2.8533271454782080e+03  -2.7839427533215107e+03  -2.7157488258100379e+03  -2.6487382415253369e+03  -2.5829035596431445e+03  -2.5182370264805736e+03  -2.4547305822866679e+03  -2.3923758682661710e+03  -2.3311642338263064e+03  -2.2710867440358538e+03  -2.2121341872857270e+03  -2.1542970831400153e+03  -2.0975656903661379e+03  -2.0419300151327893e+03  -1.9873798193639748e+03  -1.9339046292374901e+03  -1.8814937438160066e+03  -1.8301362437988366e+03  -1.7798210003824324e+03  -1.7305366842176263e+03  -1.6822717744515714e+03  -1.6350145678424194e+03  -1.5887531879347150e+03  -1.5434755942836341e+03  -1.4991695917161885e+03  -1.4558228396176544e+03  -1.4134228612315981e+03  -1.3719570529619853e+03  -1.3314126936660368e+03  -1.2917769539266424e+03  -1.2530369052933602e+03  -1.2151795294812077e+03  -1.1781917275166979e+03  -1.1420603288207903e+03  -1.1067721002186879e+03  -1.0723137548666873e+03  -1.0386719610865400e+03  -1.0058333510981054e+03  -9.7378452964134408e+02  -9.4251208247903912e+02  -9.1200258477193802e+02  -8.8224260931833101e+02  -8.5321873465043950e+02  -8.2491755298030057e+02  -7.9732567798820105e+02  -7.7042975244706713e+02  -7.4421645567653843e+02  -7.1867251082088114e+02  -6.9378469194516310e+02  -6.6953983094456180e+02  -6.4592482426197489e+02  -6.2292663940950183e+02  -6.0053232128969512e+02  -5.7872899831286225e+02  -5.5750388830703355e+02  -5.3684430421757065e+02  -5.1673765959373577e+02  -4.9717147385987647e+02  -4.7813337736923251e+02  -4.5961111623867038e+02  -4.4159255696300664e+02  -4.2406569080788040e+02  -4.0701863798044116e+02  -3.9043965157741195e+02  -3.7431712131041911e+02  -3.5863957700869128e+02  -3.4339569189957302e+02  -3.2857428566752088e+02  -3.1416432729251835e+02  -3.0015493766908423e+02  -2.8653539200728989e+02  -2.7329512201741778e+02  -2.6042371788011167e+02  -2.4791093000406340e+02  -2.3574667057349021e+02  -2.2392101488781472e+02  -2.1242420249615583e+02  -2.0124663812937749e+02  -1.9037889243260531e+02  -1.7981170250126081e+02  -1.6953597222378437e+02  -1.5954277243434731e+02  -1.4982334087895589e+02  -1.4036908199845371e+02  -1.3117156653202051e+02  -1.2222253094484543e+02  -1.1351387668371521e+02  -1.0503766926435227e+02  -9.6786137194344306e+01  -8.8751670735601905e+01  -8.0926820510292004e+01  -7.3304295954225822e+01  -6.5876963621724272e+01  -5.8637845345973638e+01  -5.1580116258912760e+01  -4.4697102674684523e+01  -3.7982279840677243e+01  -3.1429269560155838e+01  -2.5031837690445975e+01  -1.8783891520558829e+01  -1.2679477032010738e+01  -6.7127760463709043e+00  -8.7810326264863259e-01  4.8300968131310489e+00  1.0417253045240917e+01  1.5888670954194737e+01  2.1249536118086791e+01  2.6504917705578308e+01  3.1659772174689635e+01  3.6718947205490821e+01  4.1687185998968452e+01  4.6569132195934529e+01  5.1369335900083307e+01  5.6092261725366832e+01  6.0742300613591695e+01  6.5323788731302827e+01  6.9841039712175117e+01  7.4298402097789108e+01  7.8700364354028565e+01  8.3051749551405990e+01  8.7358078268013912e+01  9.1626244014773064e+01  9.5865757140507071e+01  1.0009097519740628e+02  1.0432485505677926e+02  1.0860426364361830e+02  1.1298325625161979e+02  1.1751439260186483e+02  1.2212895812132561e+02  1.2619226593181706e+02  1.2777372966385188e+02  1.5121278129788297e+02  2.2095994974974388e+02  -4.3118776855574488e+03  -4.2202431737324732e+03  -4.1298669149415682e+03  -4.0407483286606916e+03  -3.9528864479439503e+03  -3.8662799203138970e+03  -3.7809270090059522e+03  -3.6968255945651003e+03  -3.6139731767922517e+03  -3.5323668770373215e+03  -3.4520034408354122e+03  -3.3728792408820159e+03  -3.2949902803425675e+03  -3.2183321964913353e+03  -3.1429002646738591e+03  -3.0686894025869874e+03  -2.9956941748698368e+03  -2.9239087979986671e+03  -2.8533271454782098e+03  -2.7839427533215076e+03  -2.7157488258100357e+03  -2.6487382415253373e+03  -2.5829035596431431e+03  -2.5182370264805754e+03  -2.4547305822866656e+03  -2.3923758682661701e+03  -2.3311642338263077e+03  -2.2710867440358525e+03  -2.2121341872857283e+03  -2.1542970831400139e+03  -2.0975656903661379e+03  -2.0419300151327898e+03  -1.9873798193639739e+03  -1.9339046292374885e+03  -1.8814937438160080e+03  -1.8301362437988380e+03  -1.7798210003824338e+03  -1.7305366842176261e+03  -1.6822717744515721e+03  -1.6350145678424196e+03  -1.5887531879347150e+03  -1.5434755942836348e+03  -1.4991695917161883e+03  -1.4558228396176548e+03  -1.4134228612315978e+03  -1.3719570529619857e+03  -1.3314126936660371e+03  -1.2917769539266428e+03  -1.2530369052933602e+03  -1.2151795294812073e+03  -1.1781917275166988e+03  -1.1420603288207903e+03  -1.1067721002186879e+03  -1.0723137548666866e+03  -1.0386719610865398e+03  -1.0058333510981055e+03  -9.7378452964134419e+02  -9.4251208247903890e+02  -9.1200258477193745e+02  -8.8224260931833101e+02  -8.5321873465043973e+02  -8.2491755298030023e+02  -7.9732567798820139e+02  -7.7042975244706656e+02  -7.4421645567653877e+02  -7.1867251082088114e+02  -6.9378469194516333e+02  -6.6953983094456157e+02  -6.4592482426197478e+02  -6.2292663940950172e+02  -6.0053232128969444e+02  -5.7872899831286190e+02  -5.5750388830703298e+02  -5.3684430421757008e+02  -5.1673765959373509e+02  -4.9717147385987681e+02  -4.7813337736923324e+02  -4.5961111623867055e+02  -4.4159255696300698e+02  -4.2406569080788074e+02  -4.0701863798044121e+02  -3.9043965157741212e+02  -3.7431712131041979e+02  -3.5863957700869156e+02  -3.4339569189957302e+02  -3.2857428566752111e+02  -3.1416432729251875e+02  -3.0015493766908457e+02  -2.8653539200729006e+02  -2.7329512201741863e+02  -2.6042371788011224e+02  -2.4791093000406383e+02  -2.3574667057349029e+02  -2.2392101488781472e+02  -2.1242420249615586e+02  -2.0124663812937783e+02  -1.9037889243260551e+02  -1.7981170250126070e+02  -1.6953597222378471e+02  -1.5954277243434805e+02  -1.4982334087895686e+02  -1.4036908199845547e+02  -1.3117156653202409e+02  -1.2222253094485099e+02  -1.1351387668372655e+02  -1.0503766926437372e+02  -9.6786137194385105e+01  -8.8751670735679525e+01  -8.0926820510438603e+01  -7.3304295954504042e+01  -6.5876963622251338e+01  -5.8637845346971751e+01  -5.1580116260803052e+01  -4.4697102678265416e+01  -3.7982279847460667e+01  -3.1429269573006007e+01  -2.5031837714789418e+01  -1.8783891566674363e+01  -1.2679477119369645e+01  -6.7127762118597163e+00  -8.7810357614212886e-01  4.8300962192641022e+00  1.0417251920248031e+01  1.5888668823063396e+01  2.1249532080977424e+01  2.6504910057879748e+01  3.1659757687273547e+01  3.6718919761262583e+01  4.1687134010021204e+01  4.6569033710739845e+01  5.1369149334816790e+01  5.6091908305825363e+01  6.0741631114111314e+01  6.5322520466760267e+01  6.9838637179079242e+01  7.4293850867310866e+01  7.8691742747429259e+01  8.3035417245682666e+01  8.7327139235079528e+01  9.1567634793421291e+01  9.5754730963098623e+01  9.9880652462412186e+01  1.0392642293747245e+02  1.0784941617940231e+02  1.1155255818443931e+02  1.1479698345855417e+02  1.1691328289821325e+02  1.1566817144448579e+02  1.0173920107857823e+02  3.6637359812630178e-14  1.7708381408851119e+02  -4.3118776855574442e+03  -4.2202431737324732e+03  -4.1298669149415664e+03  -4.0407483286606912e+03  -3.9528864479439471e+03  -3.8662799203138929e+03  -3.7809270090059513e+03  -3.6968255945650994e+03  -3.6139731767922508e+03  -3.5323668770373160e+03  -3.4520034408354113e+03  -3.3728792408820113e+03  -3.2949902803425680e+03  -3.2183321964913348e+03  -3.1429002646738572e+03  -3.0686894025869819e+03  -2.9956941748698355e+03  -2.9239087979986684e+03  -2.8533271454782080e+03  -2.7839427533215062e+03  -2.7157488258100357e+03  -2.6487382415253373e+03  -2.5829035596431404e+03  -2.5182370264805741e+03  -2.4547305822866629e+03  -2.3923758682661710e+03  -2.3311642338263055e+03  -2.2710867440358534e+03  -2.2121341872857270e+03  -2.1542970831400112e+03  -2.0975656903661356e+03  -2.0419300151327877e+03  -1.9873798193639718e+03  -1.9339046292374894e+03  -1.8814937438160068e+03  -1.8301362437988359e+03  -1.7798210003824322e+03  -1.7305366842176261e+03  -1.6822717744515708e+03  -1.6350145678424180e+03  -1.5887531879347150e+03  -1.5434755942836348e+03  -1.4991695917161883e+03  -1.4558228396176537e+03  -1.4134228612315967e+03  -1.3719570529619857e+03  -1.3314126936660368e+03  -1.2917769539266417e+03  -1.2530369052933602e+03  -1.2151795294812086e+03  -1.1781917275166984e+03  -1.1420603288207903e+03  -1.1067721002186879e+03  -1.0723137548666868e+03  -1.0386719610865391e+03  -1.0058333510981055e+03  -9.7378452964134351e+02  -9.4251208247903958e+02  -9.1200258477193711e+02  -8.8224260931832998e+02  -8.5321873465043836e+02  -8.2491755298030034e+02  -7.9732567798820014e+02  -7.7042975244706679e+02  -7.4421645567653820e+02  -7.1867251082088114e+02  -6.9378469194516310e+02  -6.6953983094456112e+02  -6.4592482426197398e+02  -6.2292663940950104e+02  -6.0053232128969410e+02  -5.7872899831286156e+02  -5.5750388830703321e+02  -5.3684430421757054e+02  -5.1673765959373475e+02  -4.9717147385987647e+02  -4.7813337736923290e+02  -4.5961111623867049e+02  -4.4159255696300676e+02  -4.2406569080788120e+02  -4.0701863798044036e+02  -3.9043965157741246e+02  -3.7431712131041951e+02  -3.5863957700869145e+02  -3.4339569189957297e+02  -3.2857428566752122e+02  -3.1416432729251892e+02  -3.0015493766908463e+02  -2.8653539200729040e+02  -2.7329512201741863e+02  -2.6042371788011206e+02  -2.4791093000406443e+02  -2.3574667057349046e+02  -2.2392101488781481e+02  -2.1242420249615600e+02  -2.0124663812937783e+02  -1.9037889243260574e+02  -1.7981170250126107e+02  -1.6953597222378468e+02  -1.5954277243434851e+02  -1.4982334087895759e+02  -1.4036908199845664e+02  -1.3117156653202659e+02  -1.2222253094485563e+02  -1.1351387668373542e+02  -1.0503766926439133e+02  -9.6786137194417975e+01  -8.8751670735741925e+01  -8.0926820510557235e+01  -7.3304295954728730e+01  -6.5876963622677707e+01  -5.8637845347779127e+01  -5.1580116262332510e+01  -4.4697102681162562e+01  -3.7982279852948473e+01  -3.1429269583402132e+01  -2.5031837734483521e+01  -1.8783891603982255e+01  -1.2679477190044484e+01  -6.7127763457424185e+00  -8.7810382976377654e-01  4.8300957388156220e+00  1.0417251010109860e+01  1.5888667098941946e+01  2.1249528814887569e+01  2.6504903870762448e+01  3.1659745966710155e+01  3.6718897558424956e+01  4.1687091950115750e+01  4.6568954034683884e+01  5.1368998400885410e+01  5.6091622385491476e+01  6.0741089485670095e+01  6.5321494450069352e+01  6.9836693607911783e+01  7.4290169302639498e+01  7.8684769485835844e+01  8.3022210930099462e+01  8.7302135214590706e+01  9.1520319797593515e+01  9.5665297471618914e+01  9.9711995241077446e+01  1.0360985943876479e+02  1.0726104161101198e+02  1.1048166023426212e+02  1.1293792367747574e+02  1.1405748314097835e+02  1.1294992327504541e+02  1.0842183076630768e+02  1.2675889870543332e+02  1.9451237462087272e+02  -4.3118776855574451e+03  -4.2202431737324696e+03  -4.1298669149415700e+03  -4.0407483286606880e+03  -3.9528864479439480e+03  -3.8662799203138920e+03  -3.7809270090059481e+03  -3.6968255945650990e+03  -3.6139731767922476e+03  -3.5323668770373183e+03  -3.4520034408354113e+03  -3.3728792408820123e+03  -3.2949902803425666e+03  -3.2183321964913339e+03  -3.1429002646738563e+03  -3.0686894025869856e+03  -2.9956941748698341e+03  -2.9239087979986671e+03  -2.8533271454782084e+03  -2.7839427533215057e+03  -2.7157488258100348e+03  -2.6487382415253364e+03  -2.5829035596431422e+03  -2.5182370264805731e+03  -2.4547305822866642e+03  -2.3923758682661683e+03  -2.3311642338263064e+03  -2.2710867440358525e+03  -2.2121341872857256e+03  -2.1542970831400125e+03  -2.0975656903661366e+03  -2.0419300151327886e+03  -1.9873798193639723e+03  -1.9339046292374883e+03  -1.8814937438160075e+03  -1.8301362437988364e+03  -1.7798210003824327e+03  -1.7305366842176256e+03  -1.6822717744515710e+03  -1.6350145678424190e+03  -1.5887531879347141e+03  -1.5434755942836343e+03  -1.4991695917161881e+03  -1.4558228396176537e+03  -1.4134228612315974e+03  -1.3719570529619850e+03  -1.3314126936660361e+03  -1.2917