<?xml version="1.0"?>
<VTKFile type="UnstructuredGrid"  version="0.1"  >
<UnstructuredGrid>
<Piece  NumberOfPoints="1656" NumberOfCells="3000">
<Points>
<DataArray  type="Float64"  NumberOfComponents="3"  format="ascii">0 0 0  2 0 0  4 0 0  6 0 0  8 0 0  10 0 0  12 0 0  14 0 0  16 0 0  18 0 0  20 0 0  22 0 0  24 0 0  26 0 0  28 0 0  30 0 0  32 0 0  34 0 0  36 0 0  38 0 0  40 0 0  42 0 0  44 0 0  46 0 0  48 0 0  50 0 0  52 0 0  54 0 0  56 0 0  58 0 0  60 0 0  62 0 0  64 0 0  66 0 0  68 0 0  70 0 0  72 0 0  74 0 0  76 0 0  78 0 0  80 0 0  82 0 0  84 0 0  86 0 0  88 0 0  90 0 0  92 0 0  94 0 0  96 0 0  98 0 0  100 0 0  102 0 0  104 0 0  106 0 0  108 0 0  110 0 0  112 0 0  114 0 0  116 0 0  118 0 0  120 0 0  122 0 0  124 0 0  126 0 0  128 0 0  130 0 0  132 0 0  134 0 0  136 0 0  138 0 0  140 0 0  142 0 0  144 0 0  146 0 0  148 0 0  150 0 0  152 0 0  154 0 0  156 0 0  158 0 0  160 0 0  162 0 0  164 0 0  166 0 0  168 0 0  170 0 0  172 0 0  174 0 0  176 0 0  178 0 0  180 0 0  182 0 0  184 0 0  186 0 0  188 0 0  190 0 0  192 0 0  194 0 0  196 0 0  198 0 0  200 0 0  202 0 0  204 0 0  206 0 0  208 0 0  210 0 0  212 0 0  214 0 0  216 0 0  218 0 0  220 0 0  222 0 0  224 0 0  226 0 0  228 0 0  230 0 0  232 0 0  234 0 0  236 0 0  238 0 0  240 0 0  242 0 0  244 0 0  246 0 0  248 0 0  250 0 0  252 0 0  254 0 0  256 0 0  258 0 0  260 0 0  262 0 0  264 0 0  266 0 0  268 0 0  270 0 0  272 0 0  274 0 0  276 0 0  278 0 0  280 0 0  282 0 0  284 0 0  286 0 0  288 0 0  290 0 0  292 0 0  294 0 0  296 0 0  298 0 0  300 0 0  0 2 0  2 2 0  4 2 0  6 2 0  8 2 0  10 2 0  12 2 0  14 2 0  16 2 0  18 2 0  20 2 0  22 2 0  24 2 0  26 2 0  28 2 0  30 2 0  32 2 0  34 2 0  36 2 0  38 2 0  40 2 0  42 2 0  44 2 0  46 2 0  48 2 0  50 2 0  52 2 0  54 2 0  56 2 0  58 2 0  60 2 0  62 2 0  64 2 0  66 2 0  68 2 0  70 2 0  72 2 0  74 2 0  76 2 0  78 2 0  80 2 0  82 2 0  84 2 0  86 2 0  88 2 0  90 2 0  92 2 0  94 2 0  96 2 0  98 2 0  100 2 0  102 2 0  104 2 0  106 2 0  108 2 0  110 2 0  112 2 0  114 2 0  116 2 0  118 2 0  120 2 0  122 2 0  124 2 0  126 2 0  128 2 0  130 2 0  132 2 0  134 2 0  136 2 0  138 2 0  140 2 0  142 2 0  144 2 0  146 2 0  148 2 0  150 2 0  152 2 0  154 2 0  156 2 0  158 2 0  160 2 0  162 2 0  164 2 0  166 2 0  168 2 0  170 2 0  172 2 0  174 2 0  176 2 0  178 2 0  180 2 0  182 2 0  184 2 0  186 2 0  188 2 0  190 2 0  192 2 0  194 2 0  196 2 0  198 2 0  200 2 0  202 2 0  204 2 0  206 2 0  208 2 0  210 2 0  212 2 0  214 2 0  216 2 0  218 2 0  220 2 0  222 2 0  224 2 0  226 2 0  228 2 0  230 2 0  232 2 0  234 2 0  236 2 0  238 2 0  240 2 0  242 2 0  244 2 0  246 2 0  248 2 0  250 2 0  252 2 0  254 2 0  256 2 0  258 2 0  260 2 0  262 2 0  264 2 0  266 2 0  268 2 0  270 2 0  272 2 0  274 2 0  276 2 0  278 2 0  280 2 0  282 2 0  284 2 0  286 2 0  288 2 0  290 2 0  292 2 0  294 2 0  296 2 0  298 2 0  300 2 0  0 4 0  2 4 0  4 4 0  6 4 0  8 4 0  10 4 0  12 4 0  14 4 0  16 4 0  18 4 0  20 4 0  22 4 0  24 4 0  26 4 0  28 4 0  30 4 0  32 4 0  34 4 0  36 4 0  38 4 0  40 4 0  42 4 0  44 4 0  46 4 0  48 4 0  50 4 0  52 4 0  54 4 0  56 4 0  58 4 0  60 4 0  62 4 0  64 4 0  66 4 0  68 4 0  70 4 0  72 4 0  74 4 0  76 4 0  78 4 0  80 4 0  82 4 0  84 4 0  86 4 0  88 4 0  90 4 0  92 4 0  94 4 0  96 4 0  98 4 0  100 4 0  102 4 0  104 4 0  106 4 0  108 4 0  110 4 0  112 4 0  114 4 0  116 4 0  118 4 0  120 4 0  122 4 0  124 4 0  126 4 0  128 4 0  130 4 0  132 4 0  134 4 0  136 4 0  138 4 0  140 4 0  142 4 0  144 4 0  146 4 0  148 4 0  150 4 0  152 4 0  154 4 0  156 4 0  158 4 0  160 4 0  162 4 0  164 4 0  166 4 0  168 4 0  170 4 0  172 4 0  174 4 0  176 4 0  178 4 0  180 4 0  182 4 0  184 4 0  186 4 0  188 4 0  190 4 0  192 4 0  194 4 0  196 4 0  198 4 0  200 4 0  202 4 0  204 4 0  206 4 0  208 4 0  210 4 0  212 4 0  214 4 0  216 4 0  218 4 0  220 4 0  222 4 0  224 4 0  226 4 0  228 4 0  230 4 0  232 4 0  234 4 0  236 4 0  238 4 0  240 4 0  242 4 0  244 4 0  246 4 0  248 4 0  250 4 0  252 4 0  254 4 0  256 4 0  258 4 0  260 4 0  262 4 0  264 4 0  266 4 0  268 4 0  270 4 0  272 4 0  274 4 0  276 4 0  278 4 0  280 4 0  282 4 0  284 4 0  286 4 0  288 4 0  290 4 0  292 4 0  294 4 0  296 4 0  298 4 0  300 4 0  0 6 0  2 6 0  4 6 0  6 6 0  8 6 0  10 6 0  12 6 0  14 6 0  16 6 0  18 6 0  20 6 0  22 6 0  24 6 0  26 6 0  28 6 0  30 6 0  32 6 0  34 6 0  36 6 0  38 6 0  40 6 0  42 6 0  44 6 0  46 6 0  48 6 0  50 6 0  52 6 0  54 6 0  56 6 0  58 6 0  60 6 0  62 6 0  64 6 0  66 6 0  68 6 0  70 6 0  72 6 0  74 6 0  76 6 0  78 6 0  80 6 0  82 6 0  84 6 0  86 6 0  88 6 0  90 6 0  92 6 0  94 6 0  96 6 0  98 6 0  100 6 0  102 6 0  104 6 0  106 6 0  108 6 0  110 6 0  112 6 0  114 6 0  116 6 0  118 6 0  120 6 0  122 6 0  124 6 0  126 6 0  128 6 0  130 6 0  132 6 0  134 6 0  136 6 0  138 6 0  140 6 0  142 6 0  144 6 0  146 6 0  148 6 0  150 6 0  152 6 0  154 6 0  156 6 0  158 6 0  160 6 0  162 6 0  164 6 0  166 6 0  168 6 0  170 6 0  172 6 0  174 6 0  176 6 0  178 6 0  180 6 0  182 6 0  184 6 0  186 6 0  188 6 0  190 6 0  192 6 0  194 6 0  196 6 0  198 6 0  200 6 0  202 6 0  204 6 0  206 6 0  208 6 0  210 6 0  212 6 0  214 6 0  216 6 0  218 6 0  220 6 0  222 6 0  224 6 0  226 6 0  228 6 0  230 6 0  232 6 0  234 6 0  236 6 0  238 6 0  240 6 0  242 6 0  244 6 0  246 6 0  248 6 0  250 6 0  252 6 0  254 6 0  256 6 0  258 6 0  260 6 0  262 6 0  264 6 0  266 6 0  268 6 0  270 6 0  272 6 0  274 6 0  276 6 0  278 6 0  280 6 0  282 6 0  284 6 0  286 6 0  288 6 0  290 6 0  292 6 0  294 6 0  296 6 0  298 6 0  300 6 0  0 8 0  2 8 0  4 8 0  6 8 0  8 8 0  10 8 0  12 8 0  14 8 0  16 8 0  18 8 0  20 8 0  22 8 0  24 8 0  26 8 0  28 8 0  30 8 0  32 8 0  34 8 0  36 8 0  38 8 0  40 8 0  42 8 0  44 8 0  46 8 0  48 8 0  50 8 0  52 8 0  54 8 0  56 8 0  58 8 0  60 8 0  62 8 0  64 8 0  66 8 0  68 8 0  70 8 0  72 8 0  74 8 0  76 8 0  78 8 0  80 8 0  82 8 0  84 8 0  86 8 0  88 8 0  90 8 0  92 8 0  94 8 0  96 8 0  98 8 0  100 8 0  102 8 0  104 8 0  106 8 0  108 8 0  110 8 0  112 8 0  114 8 0  116 8 0  118 8 0  120 8 0  122 8 0  124 8 0  126 8 0  128 8 0  130 8 0  132 8 0  134 8 0  136 8 0  138 8 0  140 8 0  142 8 0  144 8 0  146 8 0  148 8 0  150 8 0  152 8 0  154 8 0  156 8 0  158 8 0  160 8 0  162 8 0  164 8 0  166 8 0  168 8 0  170 8 0  172 8 0  174 8 0  176 8 0  178 8 0  180 8 0  182 8 0  184 8 0  186 8 0  188 8 0  190 8 0  192 8 0  194 8 0  196 8 0  198 8 0  200 8 0  202 8 0  204 8 0  206 8 0  208 8 0  210 8 0  212 8 0  214 8 0  216 8 0  218 8 0  220 8 0  222 8 0  224 8 0  226 8 0  228 8 0  230 8 0  232 8 0  234 8 0  236 8 0  238 8 0  240 8 0  242 8 0  244 8 0  246 8 0  248 8 0  250 8 0  252 8 0  254 8 0  256 8 0  258 8 0  260 8 0  262 8 0  264 8 0  266 8 0  268 8 0  270 8 0  272 8 0  274 8 0  276 8 0  278 8 0  280 8 0  282 8 0  284 8 0  286 8 0  288 8 0  290 8 0  292 8 0  294 8 0  296 8 0  298 8 0  300 8 0  0 10 0  2 10 0  4 10 0  6 10 0  8 10 0  10 10 0  12 10 0  14 10 0  16 10 0  18 10 0  20 10 0  22 10 0  24 10 0  26 10 0  28 10 0  30 10 0  32 10 0  34 10 0  36 10 0  38 10 0  40 10 0  42 10 0  44 10 0  46 10 0  48 10 0  50 10 0  52 10 0  54 10 0  56 10 0  58 10 0  60 10 0  62 10 0  64 10 0  66 10 0  68 10 0  70 10 0  72 10 0  74 10 0  76 10 0  78 10 0  80 10 0  82 10 0  84 10 0  86 10 0  88 10 0  90 10 0  92 10 0  94 10 0  96 10 0  98 10 0  100 10 0  102 10 0  104 10 0  106 10 0  108 10 0  110 10 0  112 10 0  114 10 0  116 10 0  118 10 0  120 10 0  122 10 0  124 10 0  126 10 0  128 10 0  130 10 0  132 10 0  134 10 0  136 10 0  138 10 0  140 10 0  142 10 0  144 10 0  146 10 0  148 10 0  150 10 0  152 10 0  154 10 0  156 10 0  158 10 0  160 10 0  162 10 0  164 10 0  166 10 0  168 10 0  170 10 0  172 10 0  174 10 0  176 10 0  178 10 0  180 10 0  182 10 0  184 10 0  186 10 0  188 10 0  190 10 0  192 10 0  194 10 0  196 10 0  198 10 0  200 10 0  202 10 0  204 10 0  206 10 0  208 10 0  210 10 0  212 10 0  214 10 0  216 10 0  218 10 0  220 10 0  222 10 0  224 10 0  226 10 0  228 10 0  230 10 0  232 10 0  234 10 0  236 10 0  238 10 0  240 10 0  242 10 0  244 10 0  246 10 0  248 10 0  250 10 0  252 10 0  254 10 0  256 10 0  258 10 0  260 10 0  262 10 0  264 10 0  266 10 0  268 10 0  270 10 0  272 10 0  274 10 0  276 10 0  278 10 0  280 10 0  282 10 0  284 10 0  286 10 0  288 10 0  290 10 0  292 10 0  294 10 0  296 10 0  298 10 0  300 10 0  1 1 0  3 1 0  5 1 0  7 1 0  9 1 0  11 1 0  13 1 0  15 1 0  17 1 0  19 1 0  21 1 0  23 1 0  25 1 0  27 1 0  29 1 0  31 1 0  33 1 0  35 1 0  37 1 0  39 1 0  41 1 0  43 1 0  45 1 0  47 1 0  49 1 0  51 1 0  53 1 0  55 1 0  57 1 0  59 1 0  61 1 0  63 1 0  65 1 0  67 1 0  69 1 0  71 1 0  73 1 0  75 1 0  77 1 0  79 1 0  81 1 0  83 1 0  85 1 0  87 1 0  89 1 0  91 1 0  93 1 0  95 1 0  97 1 0  99 1 0  101 1 0  103 1 0  105 1 0  107 1 0  109 1 0  111 1 0  113 1 0  115 1 0  117 1 0  119 1 0  121 1 0  123 1 0  125 1 0  127 1 0  129 1 0  131 1 0  133 1 0  135 1 0  137 1 0  139 1 0  141 1 0  143 1 0  145 1 0  147 1 0  149 1 0  151 1 0  153 1 0  155 1 0  157 1 0  159 1 0  161 1 0  163 1 0  165 1 0  167 1 0  169 1 0  171 1 0  173 1 0  175 1 0  177 1 0  179 1 0  181 1 0  183 1 0  185 1 0  187 1 0  189 1 0  191 1 0  193 1 0  195 1 0  197 1 0  199 1 0  201 1 0  203 1 0  205 1 0  207 1 0  209 1 0  211 1 0  213 1 0  215 1 0  217 1 0  219 1 0  221 1 0  223 1 0  225 1 0  227 1 0  229 1 0  231 1 0  233 1 0  235 1 0  237 1 0  239 1 0  241 1 0  243 1 0  245 1 0  247 1 0  249 1 0  251 1 0  253 1 0  255 1 0  257 1 0  259 1 0  261 1 0  263 1 0  265 1 0  267 1 0  269 1 0  271 1 0  273 1 0  275 1 0  277 1 0  279 1 0  281 1 0  283 1 0  285 1 0  287 1 0  289 1 0  291 1 0  293 1 0  295 1 0  297 1 0  299 1 0  1 3 0  3 3 0  5 3 0  7 3 0  9 3 0  11 3 0  13 3 0  15 3 0  17 3 0  19 3 0  21 3 0  23 3 0  25 3 0  27 3 0  29 3 0  31 3 0  33 3 0  35 3 0  37 3 0  39 3 0  41 3 0  43 3 0  45 3 0  47 3 0  49 3 0  51 3 0  53 3 0  55 3 0  57 3 0  59 3 0  61 3 0  63 3 0  65 3 0  67 3 0  69 3 0  71 3 0  73 3 0  75 3 0  77 3 0  79 3 0  81 3 0  83 3 0  85 3 0  87 3 0  89 3 0  91 3 0  93 3 0  95 3 0  97 3 0  99 3 0  101 3 0  103 3 0  105 3 0  107 3 0  109 3 0  111 3 0  113 3 0  115 3 0  117 3 0  119 3 0  121 3 0  123 3 0  125 3 0
[...]
<PointData  Scalars="pressure"> 
<DataArray  type="Float64"  Name="pressure"  format="ascii">-3.0821860195118684e+03  -2.9908127805390959e+03  -2.9012199876093437e+03  -2.8134060029865550e+03  -2.7273681006158658e+03  -2.6431024713687170e+03  -2.5606042303606418e+03  -2.4798674263164849e+03  -2.4008850529508850e+03  -2.3236490623249538e+03  -2.2481503801335534e+03  -2.1743789228711075e+03  -2.1023236168178382e+03  -2.0319724187824345e+03  -1.9633123385316621e+03  -1.8963294628323119e+03  -1.8310089810260133e+03  -1.7673352120531085e+03  -1.7052916328377551e+03  -1.6448609079428447e+03  -1.5860249204002384e+03  -1.5287648036190531e+03  -1.4730609742725721e+03  -1.4188931660625078e+03  -1.3662404642580491e+03  -1.3150813409062503e+03  -1.2653936906098902e+03  -1.2171548667689481e+03  -1.1703417181823277e+03  -1.1249306259073096e+03  -1.0808975402755318e+03  -1.0382180179659558e+03  -9.9686725903737124e+02  -9.5682014382538534e+02  -9.1805126961158976e+02  -8.8053498697571479e+02  -8.4424543574485278e+02  -8.0915658045755299e+02  -7.7524224526435933e+02  -7.4247614819051364e+02  -7.1083193469074945e+02  -6.8028321043056576e+02  -6.5080357323291219e+02  -6.2236664413387325e+02  -5.9494609749571441e+02  -5.6851569013042422e+02  -5.4304928939174692e+02  -5.1852090019852540e+02  -4.9490469095701854e+02  -4.7217501835461474e+02  -4.5030645100212325e+02  -4.2927379190644479e+02  -4.0905209975998628e+02  -3.8961670903760091e+02  -3.7094324889614853e+02  -3.5300766087589977e+02  -3.3578621540701346e+02  -3.1925552712812083e+02  -3.0339256902767596e+02  -2.8817468542218739e+02  -2.7357960378865698e+02  -2.5958544547160113e+02  -2.4617073528784039e+02  -2.3331441005483316e+02  -2.2099582607073546e+02  -2.0919476557650887e+02  -1.9789144223235510e+02  -1.8706650564248389e+02  -1.7670104496371658e+02  -1.6677659163474186e+02  -1.5727512126391150e+02  -1.4817905471435580e+02  -1.3947125842587738e+02  -1.3113504401357588e+02  -1.2315416718345415e+02  -1.1551282600539136e+02  -1.0819565858381306e+02  -1.0118774016618872e+02  -9.4474579729118773e+01  -8.8042116081267864e+01  -8.1876713521757210e+01  -7.5965157091853669e+01  -7.0294647456911747e+01  -6.4852795454512403e+01  -5.9627616343664826e+01  -5.4607523788728528e+01  -4.9781323610462174e+01  -4.5138207335260788e+01  -4.0667745572237315e+01  -3.6359881246358697e+01  -3.2204922714338551e+01  -2.8193536788463135e+01  -2.4316741691951819e+01  -2.0565899967886654e+01  -1.6932711362136260e+01  -1.3409205699112206e+01  -9.9877357675941685e+00  -6.6609702322775961e+00  -3.4218865851293838e+00  -2.6376414908979506e-01  2.8198228548576338e+00  5.8350121677048410e+00  8.7876602714302106e+00  1.1683349080295741e+01  1.4527392539073933e+01  1.7324843124143523e+01  2.0080498244618550e+01  2.2798906541854095e+01  2.5484374086777628e+01  2.8140970475533592e+01  3.0772534824900198e+01  3.3382681669832635e+01  3.5974806766321336e+01  3.8552092803505161e+01  4.1117515029677605e+01  4.3673846797463447e+01  4.6223665034057660e+01  4.8769355643025314e+01  5.1313118844882538e+01  5.3856974464619476e+01  5.6402767175796569e+01  5.8952171713377837e+01  6.1506698072068509e+01  6.4067696715528726e+01  6.6636363838083170e+01  6.9213746751324962e+01  7.1800749526397951e+01  7.4398139133469797e+01  7.7006552529862418e+01  7.9626505546285983e+01  8.2258405174889361e+01  8.4902568292156843e+01  8.7559252558155592e+01  9.0228710366413267e+01  9.2911286447844276e+01  9.5607598183083468e+01  9.8318872705843518e+01  1.0104758152242403e+02  1.0379864071262031e+02  1.0658169020897054e+02  1.0941544674084275e+02  1.1233609842799444e+02  1.1541379058131318e+02  1.1878609841192048e+02  1.2272992479678774e+02  1.2782887455280789e+02  1.3539576925994595e+02  1.4853529902150518e+02  1.7359332124704522e+02  2.1978553935017101e+02  2.9556197398174612e+02  -3.0821860195118707e+03  -2.9908127805390959e+03  -2.9012199876093455e+03  -2.8134060029865568e+03  -2.7273681006158663e+03  -2.6431024713687189e+03  -2.5606042303606432e+03  -2.4798674263164853e+03  -2.4008850529508832e+03  -2.3236490623249533e+03  -2.2481503801335543e+03  -2.1743789228711084e+03  -2.1023236168178396e+03  -2.0319724187824343e+03  -1.9633123385316628e+03  -1.8963294628323117e+03  -1.8310089810260131e+03  -1.7673352120531097e+03  -1.7052916328377535e+03  -1.6448609079428456e+03  -1.5860249204002382e+03  -1.5287648036190537e+03  -1.4730609742725724e+03  -1.4188931660625085e+03  -1.3662404642580498e+03  -1.3150813409062505e+03  -1.2653936906098904e+03  -1.2171548667689478e+03  -1.1703417181823263e+03  -1.1249306259073101e+03  -1.0808975402755320e+03  -1.0382180179659554e+03  -9.9686725903737215e+02  -9.5682014382538375e+02  -9.1805126961158930e+02  -8.8053498697571490e+02  -8.4424543574485392e+02  -8.0915658045755220e+02  -7.7524224526435989e+02  -7.4247614819051353e+02  -7.1083193469074956e+02  -6.8028321043056599e+02  -6.5080357323291230e+02  -6.2236664413387348e+02  -5.9494609749571441e+02  -5.6851569013042479e+02  -5.4304928939174647e+02  -5.1852090019852540e+02  -4.9490469095701854e+02  -4.7217501835461462e+02  -4.5030645100212234e+02  -4.2927379190644501e+02  -4.0905209975998611e+02  -3.8961670903760142e+02  -3.7094324889614848e+02  -3.5300766087589949e+02  -3.3578621540701374e+02  -3.1925552712812083e+02  -3.0339256902767613e+02  -2.8817468542218768e+02  -2.7357960378865675e+02  -2.5958544547160125e+02  -2.4617073528784044e+02  -2.3331441005483308e+02  -2.2099582607073552e+02  -2.0919476557650898e+02  -1.9789144223235539e+02  -1.8706650564248378e+02  -1.7670104496371687e+02  -1.6677659163474181e+02  -1.5727512126391159e+02  -1.4817905471435554e+02  -1.3947125842587735e+02  -1.3113504401357574e+02  -1.2315416718345419e+02  -1.1551282600539123e+02  -1.0819565858381303e+02  -1.0118774016618876e+02  -9.4474579729118759e+01  -8.8042116081267920e+01  -8.1876713521757125e+01  -7.5965157091853555e+01  -7.0294647456911477e+01  -6.4852795454512290e+01  -5.9627616343664862e+01  -5.4607523788728521e+01  -4.9781323610462266e+01  -4.5138207335260844e+01  -4.0667745572237344e+01  -3.6359881246358746e+01  -3.2204922714338714e+01  -2.8193536788463209e+01  -2.4316741691951851e+01  -2.0565899967886651e+01  -1.6932711362136118e+01  -1.3409205699112228e+01  -9.9877357675942449e+00  -6.6609702322776299e+00  -3.4218865851292488e+00  -2.6376414909006429e-01  2.8198228548572235e+00  5.8350121677043099e+00  8.7876602714294414e+00  1.1683349080293951e+01  1.4527392539070428e+01  1.7324843124136866e+01  2.0080498244605806e+01  2.2798906541829798e+01  2.5484374086731719e+01  2.8140970475446682e+01  3.0772534824735533e+01  3.3382681669520771e+01  3.5974806765730463e+01  3.8552092802385999e+01  4.1117515027557104e+01  4.3673846793446472e+01  4.6223665026448046e+01  4.8769355628609340e+01  5.1313118817572104e+01  5.3856974412881080e+01  5.6402767077780481e+01  5.8952171527690986e+01  6.1506697720293310e+01  6.4067696049107624e+01  6.6636362575579653e+01  6.9213744359571578e+01  7.1800744995333417e+01  7.4398130549578738e+01  7.7006536268074399e+01  7.9626474739051972e+01  8.2258346811868194e+01  8.4902457725509521e+01  8.7559043092319854e+01  9.0228313533471493e+01  9.2910534628771060e+01  9.5606173751665494e+01  9.8316173626454344e+01  1.0104246608144901e+02  1.0378894142108346e+02  1.0656328327530720e+02  1.0938045213302006e+02  1.1226932735682895e+02  1.1528546870334621e+02  1.1853599928877740e+02  1.2222953186651200e+02  1.2678197511699882e+02  1.3306483288889305e+02  1.4310787490272952e+02  1.6294962283034505e+02  2.0423822144099259e+02  2.7813753293402857e+02  -3.0821860195118716e+03  -2.9908127805390977e+03  -2.9012199876093464e+03  -2.8134060029865568e+03  -2.7273681006158663e+03  -2.6431024713687184e+03  -2.5606042303606428e+03  -2.4798674263164862e+03  -2.4008850529508845e+03  -2.3236490623249547e+03  -2.2481503801335552e+03  -2.1743789228711089e+03  -2.1023236168178405e+03  -2.0319724187824372e+03  -1.9633123385316628e+03  -1.8963294628323140e+03  -1.8310089810260135e+03  -1.7673352120531097e+03  -1.7052916328377555e+03  -1.6448609079428452e+03  -1.5860249204002389e+03  -1.5287648036190535e+03  -1.4730609742725744e+03  -1.4188931660625078e+03  -1.3662404642580498e+03  -1.3150813409062516e+03  -1.2653936906098909e+03  -1.2171548667689485e+03  -1.1703417181823283e+03  -1.1249306259073101e+03  -1.0808975402755320e+03  -1.0382180179659563e+03  -9.9686725903737170e+02  -9.5682014382538591e+02  -9.1805126961159067e+02  -8.8053498697571501e+02  -8.4424543574485426e+02  -8.0915658045755390e+02  -7.7524224526435921e+02  -7.4247614819051364e+02  -7.1083193469075002e+02  -6.8028321043056644e+02  -6.5080357323291207e+02  -6.2236664413387371e+02  -5.9494609749571509e+02  -5.6851569013042467e+02  -5.4304928939174738e+02  -5.1852090019852585e+02  -4.9490469095701923e+02  -4.7217501835461513e+02  -4.5030645100212348e+02  -4.2927379190644558e+02  -4.0905209975998667e+02  -3.8961670903760114e+02  -3.7094324889614870e+02  -3.5300766087589989e+02  -3.3578621540701397e+02  -3.1925552712812112e+02  -3.0339256902767653e+02  -2.8817468542218779e+02  -2.7357960378865727e+02  -2.5958544547160153e+02  -2.4617073528784019e+02  -2.3331441005483310e+02  -2.2099582607073552e+02  -2.0919476557650910e+02  -1.9789144223235576e+02  -1.8706650564248417e+02  -1.7670104496371678e+02  -1.6677659163474189e+02  -1.5727512126391147e+02  -1.4817905471435566e+02  -1.3947125842587732e+02  -1.3113504401357568e+02  -1.2315416718345408e+02  -1.1551282600539115e+02  -1.0819565858381303e+02  -1.0118774016618892e+02  -9.4474579729118844e+01  -8.8042116081268006e+01  -8.1876713521756997e+01  -7.5965157091853442e+01  -7.0294647456911463e+01  -6.4852795454512091e+01  -5.9627616343664805e+01  -5.4607523788728656e+01  -4.9781323610462508e+01  -4.5138207335261022e+01  -4.0667745572237671e+01  -3.6359881246358967e+01  -3.2204922714338849e+01  -2.8193536788463259e+01  -2.4316741691951993e+01  -2.0565899967886772e+01  -1.6932711362136196e+01  -1.3409205699112183e+01  -9.9877357675943230e+00  -6.6609702322777977e+00  -3.4218865851298705e+00  -2.6376414909059598e-01  2.8198228548562567e+00  5.8350121677028310e+00  8.7876602714267840e+00  1.1683349080288911e+01  1.4527392539061102e+01  1.7324843124119212e+01  2.0080498244572325e+01  2.2798906541766478e+01  2.5484374086611581e+01  2.8140970475219110e+01  3.0772534824304490e+01  3.3382681668704400e+01  3.5974806764183882e+01  3.8552092799455799e+01  4.1117515022005968e+01  4.3673846782930305e+01  4.6223665006525891e+01  4.8769355590867789e+01  5.1313118746072348e+01  5.3856974277428058e+01  5.6402766821171063e+01  5.8952171041556454e+01  6.1506696799334613e+01  6.4067694304394493e+01  6.6636359270302876e+01  6.9213738097880352e+01  7.1800733132853750e+01  7.4398108076666162e+01  7.7006493694183675e+01  7.9626394084754196e+01  8.2258194015833467e+01  8.4902168259572335e+01  8.7558494708662835e+01  9.0227274630680228e+01  9.2908566415371979e+01  9.5602444828710077e+01  9.8309108449995065e+01  1.0102907793970266e+02  1.0376356474047442e+02  1.0651515643215087e+02  1.0928907811801264e+02  1.1209545343274722e+02  1.1495310770246569e+02  1.1789495080808931e+02  1.2097130087896454e+02  1.2423095146517160e+02  1.2759978327635622e+02  1.3043006958204819e+02  1.3076065766406384e+02  1.5325625304728527e+02  2.2269501274372385e+02  -3.0821860195118707e+03  -2.9908127805390973e+03  -2.9012199876093446e+03  -2.8134060029865568e+03  -2.7273681006158663e+03  -2.6431024713687175e+03  -2.5606042303606428e+03  -2.4798674263164839e+03  -2.4008850529508832e+03  -2.3236490623249556e+03  -2.2481503801335534e+03  -2.1743789228711084e+03  -2.1023236168178414e+03  -2.0319724187824356e+03  -1.9633123385316655e+03  -1.8963294628323124e+03  -1.8310089810260138e+03  -1.7673352120531104e+03  -1.7052916328377551e+03  -1.6448609079428459e+03  -1.5860249204002391e+03  -1.5287648036190537e+03  -1.4730609742725737e+03  -1.4188931660625087e+03  -1.3662404642580495e+03  -1.3150813409062525e+03  -1.2653936906098911e+03  -1.2171548667689488e+03  -1.1703417181823281e+03  -1.1249306259073105e+03  -1.0808975402755320e+03  -1.0382180179659563e+03  -9.9686725903737181e+02  -9.5682014382538478e+02  -9.1805126961159033e+02  -8.8053498697571592e+02  -8.4424543574485426e+02  -8.0915658045755322e+02  -7.7524224526435921e+02  -7.4247614819051410e+02  -7.1083193469074990e+02  -6.8028321043056644e+02  -6.5080357323291264e+02  -6.2236664413387450e+02  -5.9494609749571487e+02  -5.6851569013042536e+02  -5.4304928939174681e+02  -5.1852090019852596e+02  -4.9490469095701906e+02  -4.7217501835461542e+02  -4.5030645100212365e+02  -4.2927379190644552e+02  -4.0905209975998702e+02  -3.8961670903760131e+02  -3.7094324889614916e+02  -3.5300766087590000e+02  -3.3578621540701431e+02  -3.1925552712812129e+02  -3.0339256902767642e+02  -2.8817468542218785e+02  -2.7357960378865755e+02  -2.5958544547160159e+02  -2.4617073528784070e+02  -2.3331441005483316e+02  -2.2099582607073569e+02  -2.0919476557650916e+02  -1.9789144223235542e+02  -1.8706650564248451e+02  -1.7670104496371681e+02  -1.6677659163474198e+02  -1.5727512126391133e+02  -1.4817905471435552e+02  -1.3947125842587727e+02  -1.3113504401357554e+02  -1.2315416718345395e+02  -1.1551282600539139e+02  -1.0819565858381300e+02  -1.0118774016618872e+02  -9.4474579729118986e+01  -8.8042116081267849e+01  -8.1876713521757097e+01  -7.5965157091853428e+01  -7.0294647456911193e+01  -6.4852795454511963e+01  -5.9627616343664677e+01  -5.4607523788728585e+01  -4.9781323610462543e+01  -4.5138207335261214e+01  -4.0667745572237777e+01  -3.6359881246359009e+01  -3.2204922714339055e+01  -2.8193536788463391e+01  -2.4316741691952085e+01  -2.0565899967886835e+01  -1.6932711362136413e+01  -1.3409205699112407e+01  -9.9877357675945024e+00  -6.6609702322780109e+00  -3.4218865851302356e+00  -2.6376414909113055e-01  2.8198228548553881e+00  5.8350121677011382e+00  8.7876602714235883e+00  1.1683349080282918e+01  1.4527392539049544e+01  1.7324843124097363e+01  2.0080498244531061e+01  2.2798906541688027e+01  2.5484374086463028e+01  2.8140970474937813e+01  3.0772534823771689e+01  3.3382681667695110e+01  3.5974806762272081e+01  3.8552092795833900e+01  4.1117515015144470e+01  4.3673846769931764e+01  4.6223664981900782e+01  4.8769355544216531e+01  5.1313118657693742e+01  5.3856974109998937e+01  5.6402766503984402e+01  5.8952170440661291e+01  6.1506695660966919e+01  6.4067692147810533e+01  6.6636355184756297e+01  6.9213730358005137e+01  7.1800718470025501e+01  7.4398080298630376e+01  7.7006441070006048e+01  7.9626294390734913e+01  8.2258005150224449e+01  8.4901810462603422e+01  8.7557816879226095e+01  9.0225990514884671e+01  9.2906133718791708e+01  9.5597836200281122e+01  9.8300377621891585e+01  1.0101253779991310e+02  1.0373223022977446e+02  1.0645579468022777e+02  1.0917662000611737e+02  1.1188240598793858e+02  1.1454949090802941e+02  1.1713023697436523e+02  1.1952181922168013e+02  1.2147770511698988e+02  1.2231500285918005e+02  1.1976579906035562e+02  1.0437706080093888e+02  3.7969627442180366e-14  1.7822981601467038e+02  -3.0821860195118725e+03  -2.9908127805390964e+03  -2.9012199876093428e+03  -2.8134060029865564e+03  -2.7273681006158649e+03  -2.6431024713687166e+03  -2.5606042303606414e+03  -2.4798674263164826e+03  -2.4008850529508845e+03  -2.3236490623249547e+03  -2.2481503801335552e+03  -2.1743789228711080e+03  -2.1023236168178391e+03  -2.0319724187824352e+03  -1.9633123385316626e+03  -1.8963294628323099e+03  -1.8310089810260135e+03  -1.7673352120531092e+03  -1.7052916328377548e+03  -1.6448609079428450e+03  -1.5860249204002369e+03  -1.5287648036190551e+03  -1.4730609742725733e+03  -1.4188931660625090e+03  -1.3662404642580498e+03  -1.3150813409062509e+03  -1.2653936906098900e+03  -1.2171548667689478e+03  -1.1703417181823270e+03  -1.1249306259073101e+03  -1.0808975402755320e+03  -1.0382180179659551e+03  -9.9686725903737113e+02  -9.5682014382538443e+02  -9.1805126961159033e+02  -8.8053498697571558e+02  -8.4424543574485324e+02  -8.0915658045755242e+02  -7.7524224526435898e+02  -7.4247614819051375e+02  -7.1083193469074911e+02  -6.8028321043056610e+02  -6.5080357323291241e+02  -6.2236664413387393e+02  -5.9494609749571475e+02  -5.6851569013042524e+02  -5.4304928939174704e+02  -5.1852090019852619e+02  -4.9490469095701906e+02  -4.7217501835461513e+02  -4.5030645100212388e+02  -4.2927379190644575e+02  -4.0905209975998696e+02  -3.8961670903760159e+02  -3.7094324889614921e+02  -3.5300766087590006e+02  -3.3578621540701408e+02  -3.1925552712812100e+02  -3.0339256902767625e+02  -2.8817468542218774e+02  -2.7357960378865727e+02  -2.5958544547160187e+02  -2.4617073528784064e+02  -2.3331441005483327e+02  -2.2099582607073569e+02  -2.0919476557650918e+02  -1.9789144223235590e+02  -1.8706650564248400e+02  -1.7670104496371675e+02  -1.6677659163474181e+02  -1.5727512126391161e+02  -1.4817905471435560e+02  -1.3947125842587718e+02  -1.3113504401357577e+02  -1.2315416718345404e+02  -1.1551282600539122e+02  -1.0819565858381290e+02  -1.0118774016618872e+02  -9.4474579729118801e+01  -8.8042116081268176e+01  -8.1876713521756997e+01  -7.5965157091853641e+01  -7.0294647456911107e+01  -6.4852795454511877e+01  -5.9627616343664627e+01  -5.4607523788728571e+01  -4.9781323610462671e+01  -4.5138207335261278e+01  -4.0667745572237735e+01  -3.6359881246359024e+01  -3.2204922714338956e+01  -2.8193536788463270e+01  -2.4316741691952025e+01  -2.0565899967886995e+01  -1.6932711362136743e+01  -1.3409205699112796e+01  -9.9877357675947440e+00  -6.6609702322781761e+00  -3.4218865851302249e+00  -2.6376414909140744e-01  2.8198228548548108e+00  5.8350121676998343e+00  8.7876602714210073e+00  1.1683349080277969e+01  1.4527392539040143e+01  1.7324843124079553e+01  2.0080498244497470e+01  2.2798906541624724e+01  2.5484374086342925e+01  2.8140970474710386e+01  3.0772534823340585e+01  3.3382681666878575e+01  3.5974806760725336e+01  3.8552092792903792e+01  4.1117515009593646e+01  4.3673846759415873e+01  4.6223664961978571e+01  4.8769355506474909e+01  5.1313118586194172e+01  5.3856973974545845e+01  5.6402766247374849e+01  5.8952169954526795e+01  6.1506694740008044e+01  6.4067690403097473e+01  6.6636351879480003e+01  6.9213724096315460e+01  7.1800706607550921e+01  7.4398057825736757e+01  7.7006398496189121e+01  7.9626213736721496e+01  8.2257852355284442e+01  8.4901521000884145e+01  8.7557268511815963e+01  9.0224951674673207e+01  9.2904165746440029e+01  9.5594108205800211e+01  9.8293316021762521e+01  1.0099916343361519e+02  1.0370690661002234e+02  1.0640787221929413e+02  1.0908603324040729e+02  1.1171156443055298e+02  1.1422881013732052e+02  1.1653417904962691e+02  1.1843688568146169e+02  1.1959421021011174e+02  1.1942164358228632e+02  1.1701227093404263e+02  1.1115194619263229e+02  1.2847763686722618e+02  1.9589618974639291e+02  -3.0821860195118684e+03  -2.9908127805390959e+03  -2.9012199876093437e+03  -2.8134060029865554e+03  -2.7273681006158654e+03  -2.6431024713687179e+03  -2.5606042303606396e+03  -2.4798674263164839e+03  -2.4008850529508823e+03  -2.3236490623249556e+03  -2.2481503801335543e+03  -2.1743789228711084e+03  -2.1023236168178387e+03  -2.0319724187824345e+03  -1.9633123385316615e+03  -1.8963294628323126e+03  -1.8310089810260115e+03  -1.7673352120531088e+03  -1.7052916328377539e+03  -1.6448609079428459e+03  -1.5860249204002387e+03  -1.5287648036190540e+03  -1.4730609742725740e+03  -1.4188931660625087e+03  -1.3662404642580489e+03  -1.3150813409062507e+03  -1.2653936906098904e+03  -1.2171548667689481e+03  -1.1703417181823268e+03  -1.1249306259073107e+03  -1.0808975402755320e+03  -1.0382180179659554e+03  -9.9686725903737158e+02  -9.5682014382538443e+02  -9.1805126961158999e+02  -8.8053498697571536e+02  -8.4424543574485369e+02  -8.0915658045755299e+02  -7.7524224526435944e+02  -7.4247614819051341e+02  -7.1083193469074922e+02  -6.8028321043056621e+02  -6.5080357323291264e+02  -6.2236664413387359e+02  -5.9494609749571509e+02  -5.6851569013042490e+02  -5.4304928939174670e+02  -5.1852090019852585e+02  -4.9490469095701894e+02  -4.7217501835461530e+02  -4.5030645100212388e+02  -4.292737919