<?xml version="1.0"?>
<VTKFile type="UnstructuredGrid"  version="0.1"  >
<UnstructuredGrid>
<Piece  NumberOfPoints="1656" NumberOfCells="3000">
<Points>
<DataArray  type="Float64"  NumberOfComponents="3"  format="ascii">0 0 0  2 0 0  4 0 0  6 0 0  8 0 0  10 0 0  12 0 0  14 0 0  16 0 0  18 0 0  20 0 0  22 0 0  24 0 0  26 0 0  28 0 0  30 0 0  32 0 0  34 0 0  36 0 0  38 0 0  40 0 0  42 0 0  44 0 0  46 0 0  48 0 0  50 0 0  52 0 0  54 0 0  56 0 0  58 0 0  60 0 0  62 0 0  64 0 0  66 0 0  68 0 0  70 0 0  72 0 0  74 0 0  76 0 0  78 0 0  80 0 0  82 0 0  84 0 0  86 0 0  88 0 0  90 0 0  92 0 0  94 0 0  96 0 0  98 0 0  100 0 0  102 0 0  104 0 0  106 0 0  108 0 0  110 0 0  112 0 0  114 0 0  116 0 0  118 0 0  120 0 0  122 0 0  124 0 0  126 0 0  128 0 0  130 0 0  132 0 0  134 0 0  136 0 0  138 0 0  140 0 0  142 0 0  144 0 0  146 0 0  148 0 0  150 0 0  152 0 0  154 0 0  156 0 0  158 0 0  160 0 0  162 0 0  164 0 0  166 0 0  168 0 0  170 0 0  172 0 0  174 0 0  176 0 0  178 0 0  180 0 0  182 0 0  184 0 0  186 0 0  188 0 0  190 0 0  192 0 0  194 0 0  196 0 0  198 0 0  200 0 0  202 0 0  204 0 0  206 0 0  208 0 0  210 0 0  212 0 0  214 0 0  216 0 0  218 0 0  220 0 0  222 0 0  224 0 0  226 0 0  228 0 0  230 0 0  232 0 0  234 0 0  236 0 0  238 0 0  240 0 0  242 0 0  244 0 0  246 0 0  248 0 0  250 0 0  252 0 0  254 0 0  256 0 0  258 0 0  260 0 0  262 0 0  264 0 0  266 0 0  268 0 0  270 0 0  272 0 0  274 0 0  276 0 0  278 0 0  280 0 0  282 0 0  284 0 0  286 0 0  288 0 0  290 0 0  292 0 0  294 0 0  296 0 0  298 0 0  300 0 0  0 2 0  2 2 0  4 2 0  6 2 0  8 2 0  10 2 0  12 2 0  14 2 0  16 2 0  18 2 0  20 2 0  22 2 0  24 2 0  26 2 0  28 2 0  30 2 0  32 2 0  34 2 0  36 2 0  38 2 0  40 2 0  42 2 0  44 2 0  46 2 0  48 2 0  50 2 0  52 2 0  54 2 0  56 2 0  58 2 0  60 2 0  62 2 0  64 2 0  66 2 0  68 2 0  70 2 0  72 2 0  74 2 0  76 2 0  78 2 0  80 2 0  82 2 0  84 2 0  86 2 0  88 2 0  90 2 0  92 2 0  94 2 0  96 2 0  98 2 0  100 2 0  102 2 0  104 2 0  106 2 0  108 2 0  110 2 0  112 2 0  114 2 0  116 2 0  118 2 0  120 2 0  122 2 0  124 2 0  126 2 0  128 2 0  130 2 0  132 2 0  134 2 0  136 2 0  138 2 0  140 2 0  142 2 0  144 2 0  146 2 0  148 2 0  150 2 0  152 2 0  154 2 0  156 2 0  158 2 0  160 2 0  162 2 0  164 2 0  166 2 0  168 2 0  170 2 0  172 2 0  174 2 0  176 2 0  178 2 0  180 2 0  182 2 0  184 2 0  186 2 0  188 2 0  190 2 0  192 2 0  194 2 0  196 2 0  198 2 0  200 2 0  202 2 0  204 2 0  206 2 0  208 2 0  210 2 0  212 2 0  214 2 0  216 2 0  218 2 0  220 2 0  222 2 0  224 2 0  226 2 0  228 2 0  230 2 0  232 2 0  234 2 0  236 2 0  238 2 0  240 2 0  242 2 0  244 2 0  246 2 0  248 2 0  250 2 0  252 2 0  254 2 0  256 2 0  258 2 0  260 2 0  262 2 0  264 2 0  266 2 0  268 2 0  270 2 0  272 2 0  274 2 0  276 2 0  278 2 0  280 2 0  282 2 0  284 2 0  286 2 0  288 2 0  290 2 0  292 2 0  294 2 0  296 2 0  298 2 0  300 2 0  0 4 0  2 4 0  4 4 0  6 4 0  8 4 0  10 4 0  12 4 0  14 4 0  16 4 0  18 4 0  20 4 0  22 4 0  24 4 0  26 4 0  28 4 0  30 4 0  32 4 0  34 4 0  36 4 0  38 4 0  40 4 0  42 4 0  44 4 0  46 4 0  48 4 0  50 4 0  52 4 0  54 4 0  56 4 0  58 4 0  60 4 0  62 4 0  64 4 0  66 4 0  68 4 0  70 4 0  72 4 0  74 4 0  76 4 0  78 4 0  80 4 0  82 4 0  84 4 0  86 4 0  88 4 0  90 4 0  92 4 0  94 4 0  96 4 0  98 4 0  100 4 0  102 4 0  104 4 0  106 4 0  108 4 0  110 4 0  112 4 0  114 4 0  116 4 0  118 4 0  120 4 0  122 4 0  124 4 0  126 4 0  128 4 0  130 4 0  132 4 0  134 4 0  136 4 0  138 4 0  140 4 0  142 4 0  144 4 0  146 4 0  148 4 0  150 4 0  152 4 0  154 4 0  156 4 0  158 4 0  160 4 0  162 4 0  164 4 0  166 4 0  168 4 0  170 4 0  172 4 0  174 4 0  176 4 0  178 4 0  180 4 0  182 4 0  184 4 0  186 4 0  188 4 0  190 4 0  192 4 0  194 4 0  196 4 0  198 4 0  200 4 0  202 4 0  204 4 0  206 4 0  208 4 0  210 4 0  212 4 0  214 4 0  216 4 0  218 4 0  220 4 0  222 4 0  224 4 0  226 4 0  228 4 0  230 4 0  232 4 0  234 4 0  236 4 0  238 4 0  240 4 0  242 4 0  244 4 0  246 4 0  248 4 0  250 4 0  252 4 0  254 4 0  256 4 0  258 4 0  260 4 0  262 4 0  264 4 0  266 4 0  268 4 0  270 4 0  272 4 0  274 4 0  276 4 0  278 4 0  280 4 0  282 4 0  284 4 0  286 4 0  288 4 0  290 4 0  292 4 0  294 4 0  296 4 0  298 4 0  300 4 0  0 6 0  2 6 0  4 6 0  6 6 0  8 6 0  10 6 0  12 6 0  14 6 0  16 6 0  18 6 0  20 6 0  22 6 0  24 6 0  26 6 0  28 6 0  30 6 0  32 6 0  34 6 0  36 6 0  38 6 0  40 6 0  42 6 0  44 6 0  46 6 0  48 6 0  50 6 0  52 6 0  54 6 0  56 6 0  58 6 0  60 6 0  62 6 0  64 6 0  66 6 0  68 6 0  70 6 0  72 6 0  74 6 0  76 6 0  78 6 0  80 6 0  82 6 0  84 6 0  86 6 0  88 6 0  90 6 0  92 6 0  94 6 0  96 6 0  98 6 0  100 6 0  102 6 0  104 6 0  106 6 0  108 6 0  110 6 0  112 6 0  114 6 0  116 6 0  118 6 0  120 6 0  122 6 0  124 6 0  126 6 0  128 6 0  130 6 0  132 6 0  134 6 0  136 6 0  138 6 0  140 6 0  142 6 0  144 6 0  146 6 0  148 6 0  150 6 0  152 6 0  154 6 0  156 6 0  158 6 0  160 6 0  162 6 0  164 6 0  166 6 0  168 6 0  170 6 0  172 6 0  174 6 0  176 6 0  178 6 0  180 6 0  182 6 0  184 6 0  186 6 0  188 6 0  190 6 0  192 6 0  194 6 0  196 6 0  198 6 0  200 6 0  202 6 0  204 6 0  206 6 0  208 6 0  210 6 0  212 6 0  214 6 0  216 6 0  218 6 0  220 6 0  222 6 0  224 6 0  226 6 0  228 6 0  230 6 0  232 6 0  234 6 0  236 6 0  238 6 0  240 6 0  242 6 0  244 6 0  246 6 0  248 6 0  250 6 0  252 6 0  254 6 0  256 6 0  258 6 0  260 6 0  262 6 0  264 6 0  266 6 0  268 6 0  270 6 0  272 6 0  274 6 0  276 6 0  278 6 0  280 6 0  282 6 0  284 6 0  286 6 0  288 6 0  290 6 0  292 6 0  294 6 0  296 6 0  298 6 0  300 6 0  0 8 0  2 8 0  4 8 0  6 8 0  8 8 0  10 8 0  12 8 0  14 8 0  16 8 0  18 8 0  20 8 0  22 8 0  24 8 0  26 8 0  28 8 0  30 8 0  32 8 0  34 8 0  36 8 0  38 8 0  40 8 0  42 8 0  44 8 0  46 8 0  48 8 0  50 8 0  52 8 0  54 8 0  56 8 0  58 8 0  60 8 0  62 8 0  64 8 0  66 8 0  68 8 0  70 8 0  72 8 0  74 8 0  76 8 0  78 8 0  80 8 0  82 8 0  84 8 0  86 8 0  88 8 0  90 8 0  92 8 0  94 8 0  96 8 0  98 8 0  100 8 0  102 8 0  104 8 0  106 8 0  108 8 0  110 8 0  112 8 0  114 8 0  116 8 0  118 8 0  120 8 0  122 8 0  124 8 0  126 8 0  128 8 0  130 8 0  132 8 0  134 8 0  136 8 0  138 8 0  140 8 0  142 8 0  144 8 0  146 8 0  148 8 0  150 8 0  152 8 0  154 8 0  156 8 0  158 8 0  160 8 0  162 8 0  164 8 0  166 8 0  168 8 0  170 8 0  172 8 0  174 8 0  176 8 0  178 8 0  180 8 0  182 8 0  184 8 0  186 8 0  188 8 0  190 8 0  192 8 0  194 8 0  196 8 0  198 8 0  200 8 0  202 8 0  204 8 0  206 8 0  208 8 0  210 8 0  212 8 0  214 8 0  216 8 0  218 8 0  220 8 0  222 8 0  224 8 0  226 8 0  228 8 0  230 8 0  232 8 0  234 8 0  236 8 0  238 8 0  240 8 0  242 8 0  244 8 0  246 8 0  248 8 0  250 8 0  252 8 0  254 8 0  256 8 0  258 8 0  260 8 0  262 8 0  264 8 0  266 8 0  268 8 0  270 8 0  272 8 0  274 8 0  276 8 0  278 8 0  280 8 0  282 8 0  284 8 0  286 8 0  288 8 0  290 8 0  292 8 0  294 8 0  296 8 0  298 8 0  300 8 0  0 10 0  2 10 0  4 10 0  6 10 0  8 10 0  10 10 0  12 10 0  14 10 0  16 10 0  18 10 0  20 10 0  22 10 0  24 10 0  26 10 0  28 10 0  30 10 0  32 10 0  34 10 0  36 10 0  38 10 0  40 10 0  42 10 0  44 10 0  46 10 0  48 10 0  50 10 0  52 10 0  54 10 0  56 10 0  58 10 0  60 10 0  62 10 0  64 10 0  66 10 0  68 10 0  70 10 0  72 10 0  74 10 0  76 10 0  78 10 0  80 10 0  82 10 0  84 10 0  86 10 0  88 10 0  90 10 0  92 10 0  94 10 0  96 10 0  98 10 0  100 10 0  102 10 0  104 10 0  106 10 0  108 10 0  110 10 0  112 10 0  114 10 0  116 10 0  118 10 0  120 10 0  122 10 0  124 10 0  126 10 0  128 10 0  130 10 0  132 10 0  134 10 0  136 10 0  138 10 0  140 10 0  142 10 0  144 10 0  146 10 0  148 10 0  150 10 0  152 10 0  154 10 0  156 10 0  158 10 0  160 10 0  162 10 0  164 10 0  166 10 0  168 10 0  170 10 0  172 10 0  174 10 0  176 10 0  178 10 0  180 10 0  182 10 0  184 10 0  186 10 0  188 10 0  190 10 0  192 10 0  194 10 0  196 10 0  198 10 0  200 10 0  202 10 0  204 10 0  206 10 0  208 10 0  210 10 0  212 10 0  214 10 0  216 10 0  218 10 0  220 10 0  222 10 0  224 10 0  226 10 0  228 10 0  230 10 0  232 10 0  234 10 0  236 10 0  238 10 0  240 10 0  242 10 0  244 10 0  246 10 0  248 10 0  250 10 0  252 10 0  254 10 0  256 10 0  258 10 0  260 10 0  262 10 0  264 10 0  266 10 0  268 10 0  270 10 0  272 10 0  274 10 0  276 10 0  278 10 0  280 10 0  282 10 0  284 10 0  286 10 0  288 10 0  290 10 0  292 10 0  294 10 0  296 10 0  298 10 0  300 10 0  1 1 0  3 1 0  5 1 0  7 1 0  9 1 0  11 1 0  13 1 0  15 1 0  17 1 0  19 1 0  21 1 0  23 1 0  25 1 0  27 1 0  29 1 0  31 1 0  33 1 0  35 1 0  37 1 0  39 1 0  41 1 0  43 1 0  45 1 0  47 1 0  49 1 0  51 1 0  53 1 0  55 1 0  57 1 0  59 1 0  61 1 0  63 1 0  65 1 0  67 1 0  69 1 0  71 1 0  73 1 0  75 1 0  77 1 0  79 1 0  81 1 0  83 1 0  85 1 0  87 1 0  89 1 0  91 1 0  93 1 0  95 1 0  97 1 0  99 1 0  101 1 0  103 1 0  105 1 0  107 1 0  109 1 0  111 1 0  113 1 0  115 1 0  117 1 0  119 1 0  121 1 0  123 1 0  125 1 0  127 1 0  129 1 0  131 1 0  133 1 0  135 1 0  137 1 0  139 1 0  141 1 0  143 1 0  145 1 0  147 1 0  149 1 0  151 1 0  153 1 0  155 1 0  157 1 0  159 1 0  161 1 0  163 1 0  165 1 0  167 1 0  169 1 0  171 1 0  173 1 0  175 1 0  177 1 0  179 1 0  181 1 0  183 1 0  185 1 0  187 1 0  189 1 0  191 1 0  193 1 0  195 1 0  197 1 0  199 1 0  201 1 0  203 1 0  205 1 0  207 1 0  209 1 0  211 1 0  213 1 0  215 1 0  217 1 0  219 1 0  221 1 0  223 1 0  225 1 0  227 1 0  229 1 0  231 1 0  233 1 0  235 1 0  237 1 0  239 1 0  241 1 0  243 1 0  245 1 0  247 1 0  249 1 0  251 1 0  253 1 0  255 1 0  257 1 0  259 1 0  261 1 0  263 1 0  265 1 0  267 1 0  269 1 0  271 1 0  273 1 0  275 1 0  277 1 0  279 1 0  281 1 0  283 1 0  285 1 0  287 1 0  289 1 0  291 1 0  293 1 0  295 1 0  297 1 0  299 1 0  1 3 0  3 3 0  5 3 0  7 3 0  9 3 0  11 3 0  13 3 0  15 3 0  17 3 0  19 3 0  21 3 0  23 3 0  25 3 0  27 3 0  29 3 0  31 3 0  33 3 0  35 3 0  37 3 0  39 3 0  41 3 0  43 3 0  45 3 0  47 3 0  49 3 0  51 3 0  53 3 0  55 3 0  57 3 0  59 3 0  61 3 0  63 3 0  65 3 0  67 3 0  69 3 0  71 3 0  73 3 0  75 3 0  77 3 0  79 3 0  81 3 0  83 3 0  85 3 0  87 3 0  89 3 0  91 3 0  93 3 0  95 3 0  97 3 0  99 3 0  101 3 0  103 3 0  105 3 0  107 3 0  109 3 0  111 3 0  113 3 0  115 3 0  117 3 0  119 3 0  121 3 0  123 3 0  125 3 0
[...]
<PointData  Vectors="displacement"> 
<DataArray  type="Float64"  Name="displacement"  NumberOfComponents="3" format="ascii">1.6517142471458851e-20 -1.9748305093814423e-36 0.0000000000000000e+00  -1.5598822499532391e-04 -2.8211864419734900e-37 0.0000000000000000e+00  -3.0881498792652295e-04 6.4895396362099452e-36 0.0000000000000000e+00  -4.5852168491863628e-04 -8.4635593259204701e-37 0.0000000000000000e+00  -6.0514968916009306e-04 5.0621391775823291e-36 0.0000000000000000e+00  -7.4874033945815041e-04 2.8211864419734900e-36 0.0000000000000000e+00  -8.8933492882279220e-04 -3.1033050861708390e-36 0.0000000000000000e+00  -1.0269746930885114e-03 -2.8211864419734900e-36 0.0000000000000000e+00  -1.1617007995833352e-03 -2.1968194076900995e-36 0.0000000000000000e+00  -1.2935543358544195e-03 -1.0156271191104564e-35 0.0000000000000000e+00  -1.4225762984594193e-03 1.1665170702406323e-35 0.0000000000000000e+00  -1.5488075818327733e-03 -1.5798644075051544e-35 0.0000000000000000e+00  -1.6722889672359370e-03 -1.1282019105739989e-35 0.0000000000000000e+00  -1.7930611118004780e-03 7.8993220375257721e-36 0.0000000000000000e+00  -1.9111645376728020e-03 5.2897245787002938e-37 0.0000000000000000e+00  -2.0266396212691791e-03 -2.2569491535787920e-36 0.0000000000000000e+00  -2.1395265826495277e-03 1.1040595894190637e-36 0.0000000000000000e+00  -2.2498654750183131e-03 1.3541694921472752e-35 0.0000000000000000e+00  -2.3576961743606998e-03 -3.2102016036987408e-35 0.0000000000000000e+00  -2.4630583692218967e-03 3.6393305101458021e-35 0.0000000000000000e+00  -2.5659915506375435e-03 1.8139210868018725e-35 0.0000000000000000e+00  -2.6665350022225982e-03 2.2569491535787920e-36 0.0000000000000000e+00  -2.7647277904261592e-03 1.6221822041347568e-35 0.0000000000000000e+00  -2.8606087549593109e-03 -2.9340338996524296e-35 0.0000000000000000e+00  -2.9542164994028923e-03 -3.3404281242815416e-36 0.0000000000000000e+00  -3.0455893820018273e-03 -1.5798644075051544e-35 0.0000000000000000e+00  -3.1347655066524486e-03 8.7291475808093806e-36 0.0000000000000000e+00  -3.2217827140889285e-03 2.2569491535787920e-36 0.0000000000000000e+00  -3.3066785732747232e-03 -2.0275459776915147e-35 0.0000000000000000e+00  -3.3894903730046127e-03 1.3541694921472752e-35 0.0000000000000000e+00  -3.4702551137227302e-03 7.1940254270323995e-36 0.0000000000000000e+00  -3.5490094995615619e-03 -9.7330932248085406e-36 0.0000000000000000e+00  -3.6257899306067626e-03 -4.5362569368201313e-36 0.0000000000000000e+00  -3.7006324953922269e-03 2.4826440689366712e-35 0.0000000000000000e+00  -3.7735729636295865e-03 -4.3375741545342409e-36 0.0000000000000000e+00  -3.8446467791760884e-03 1.3541694921472752e-35 0.0000000000000000e+00  -3.9138890532443901e-03 -2.0245648270698418e-35 0.0000000000000000e+00  -3.9813345578575514e-03 1.5093347464558172e-35 0.0000000000000000e+00  -4.0470177195522997e-03 1.2977457633078054e-35 0.0000000000000000e+00  -4.1109726133331031e-03 -1.4670169498262148e-35 0.0000000000000000e+00  -4.1732329568795589e-03 -1.1704740853173011e-35 0.0000000000000000e+00  -4.2338321050091141e-03 -1.5798644075051544e-35 0.0000000000000000e+00  -4.2928030443968321e-03 -8.1479046544136266e-35 0.0000000000000000e+00  -4.3501783885537852e-03 2.3627436451527979e-35 0.0000000000000000e+00  -4.4059903730650704e-03 -1.3463167051438438e-35 0.0000000000000000e+00  -4.4602708510884641e-03 9.0277966143151681e-36 0.0000000000000000e+00  -4.5130512891141126e-03 1.5234406786656846e-35 0.0000000000000000e+00  -4.5643627629857030e-03 2.7083389842945504e-35 0.0000000000000000e+00  -4.6142359541828017e-03 -2.3410439588441260e-36 0.0000000000000000e+00  -4.6627011463643547e-03 -1.4670169498262148e-35 0.0000000000000000e+00  -4.7097882221724960e-03 -1.6314392221474823e-35 0.0000000000000000e+00  -4.7555266602958661e-03 -7.6172033933284231e-36 0.0000000000000000e+00  -4.7999455327912399e-03 -4.4550024046318488e-36 0.0000000000000000e+00  -4.8430735026620490e-03 1.8055593228630336e-35 0.0000000000000000e+00  -4.8849388216920331e-03 1.1425805089992635e-35 0.0000000000000000e+00  -4.9255693285321367e-03 -1.0156271191104564e-35 0.0000000000000000e+00  -4.9649924470382724e-03 -1.2423922493637685e-35 0.0000000000000000e+00  -5.0032351848576587e-03 -1.5375466108755521e-35 0.0000000000000000e+00  -5.0403241322608573e-03 -2.0762168971398653e-36 0.0000000000000000e+00  -5.0762854612166610e-03 1.1284745767893960e-35 0.0000000000000000e+00  -5.1111449247065515e-03 -1.3317745069893412e-35 0.0000000000000000e+00  -5.1449278562754443e-03 -1.1284745767893960e-35 0.0000000000000000e+00  -5.1776591698150095e-03 4.3446271206391746e-35 0.0000000000000000e+00  -5.2093633595757614e-03 -6.7708474607363760e-36 0.0000000000000000e+00  -5.2400645004039717e-03 -4.4362847797259097e-36 0.0000000000000000e+00  -5.2697862481991178e-03 -1.8055593228630336e-35 0.0000000000000000e+00  -5.2985518405874810e-03 1.5057024321744878e-35 0.0000000000000000e+00  -5.3263840978074496e-03 -1.1284745767893960e-35 0.0000000000000000e+00  -5.3533054238016180e-03 9.5338651100918562e-36 0.0000000000000000e+00  -5.3793378075109848e-03 2.3556906790478642e-35 0.0000000000000000e+00  -5.4045028243661173e-03 -1.1284745767893960e-35 0.0000000000000000e+00  -5.4288216379701363e-03 -1.8055593228630336e-35 0.0000000000000000e+00  -5.4523150019682443e-03 4.7500228456383343e-35 0.0000000000000000e+00  -5.4750032620984306e-03 -1.5798644075051544e-35 0.0000000000000000e+00  -5.4969063584176733e-03 2.0233468858369187e-35 0.0000000000000000e+00  -5.5180438276982279e-03 -2.2569491535787920e-36 0.0000000000000000e+00  -5.5384348059880750e-03 -2.7186639449842470e-35 0.0000000000000000e+00  -5.5580980313298537e-03 -1.3541694921472752e-35 0.0000000000000000e+00  -5.5770518466323150e-03 -2.0030423738011779e-35 0.0000000000000000e+00  -5.5953142026883736e-03 6.2066101723416780e-36 0.0000000000000000e+00  -5.6129026613337260e-03 8.7855326819350033e-36 0.0000000000000000e+00  -5.6298343987399545e-03 2.0312542382209128e-35 0.0000000000000000e+00  -5.6461262088359975e-03 -4.6999202881752110e-35 0.0000000000000000e+00  -5.6617945068518517e-03 2.2569491535787920e-36 0.0000000000000000e+00  -5.6768553329782593e-03 1.8139937977926453e-35 0.0000000000000000e+00  -5.6913243561362587e-03 4.0625084764418256e-35 0.0000000000000000e+00  -5.7052168778502898e-03 1.6362881363446242e-35 0.0000000000000000e+00  -5.7185478362186482e-03 1.3541694921472752e-35 0.0000000000000000e+00  -5.7313318099750923e-03 -1.8010411109936748e-35 0.0000000000000000e+00  -5.7435830226352999e-03 3.3854237303681880e-35 0.0000000000000000e+00  -5.7553153467220144e-03 8.7653310265557079e-36 0.0000000000000000e+00  -5.7665423080626938e-03 -2.7365508487142853e-35 0.0000000000000000e+00  -5.7772770901534038e-03 -2.2249563176388862e-35 0.0000000000000000e+00  -5.7875325385829315e-03 -2.4826440689366712e-35 0.0000000000000000e+00  -5.7973211655109056e-03 6.2066101723416780e-35 0.0000000000000000e+00  -5.8066551541939545e-03 -4.5138983071575840e-36 0.0000000000000000e+00  -5.8155463635538186e-03 2.2605765629708128e-35 0.0000000000000000e+00  -5.8240063327814843e-03 -4.0625084764418256e-35 0.0000000000000000e+00  -5.8320462859714432e-03 7.0371742205197663e-36 0.0000000000000000e+00  -5.8396771367802119e-03 -1.1284745767893960e-35 0.0000000000000000e+00  -5.8469094931033628e-03 1.0703057841713833e-36 0.0000000000000000e+00  -5.8537536617653454e-03 0.0000000000000000e+00 0.0000000000000000e+00  -5.8602196532164860e-03 2.0763932212924887e-34 0.0000000000000000e+00  -5.8663171862315643e-03 -5.7777898331617076e-34 0.0000000000000000e+00  -5.8720556926046569e-03 3.0896945230738812e-34 0.0000000000000000e+00  -5.8774443218345693e-03 -7.2222372914521344e-34 0.0000000000000000e+00  -5.8824919457959503e-03 3.8955123659647475e-33 0.0000000000000000e+00  -5.8872071633905391e-03 -1.1555579666323415e-33 0.0000000000000000e+00  -5.8915983051736533e-03 3.5828253449966670e-33 0.0000000000000000e+00  -5.8956734379508585e-03 0.0000000000000000e+00 0.0000000000000000e+00  -5.8994403693398466e-03 2.2533380349330659e-32 0.0000000000000000e+00  -5.9029066522928320e-03 -1.3866695599588098e-32 0.0000000000000000e+00  -5.9060795895746632e-03 -5.5758650132192521e-32 0.0000000000000000e+00  -5.9089662381921326e-03 1.2942249226282225e-31 0.0000000000000000e+00  -5.9115734137699313e-03 -5.6622340364984734e-32 0.0000000000000000e+00  -5.9139076948689553e-03 3.6977854932234928e-31 0.0000000000000000e+00  -5.9159754272426826e-03 1.4894070022705347e-30 0.0000000000000000e+00  -5.9177827280275010e-03 -5.9164567891575885e-31 0.0000000000000000e+00  -5.9193354898630420e-03 1.9968041663406861e-30 0.0000000000000000e+00  -5.9206393849387997e-03 -2.3665827156630354e-30 0.0000000000000000e+00  -5.9216998689633586e-03 -5.0282258407853472e-30 0.0000000000000000e+00  -5.9225221850532275e-03 2.8398992587956425e-29 0.0000000000000000e+00  -5.9231113675383132e-03 -5.7241719435099669e-29 0.0000000000000000e+00  -5.9234722456823798e-03 8.5196977763869275e-29 0.0000000000000000e+00  -5.9236094473175006e-03 -1.5858543970937872e-29 0.0000000000000000e+00  -5.9235274023939806e-03 1.1359597035182570e-28 0.0000000000000000e+00  -5.9232303464501661e-03 5.9637884434708492e-28 0.0000000000000000e+00  -5.9227223240121835e-03 2.2719194070365140e-28 0.0000000000000000e+00  -5.9220071919418634e-03 -1.2135201824161208e-27 0.0000000000000000e+00  -5.9210886227646798e-03 3.0292258760486853e-28 0.0000000000000000e+00  -5.9199701080294830e-03 -3.5498740734945531e-28 0.0000000000000000e+00  -5.9186549617802949e-03 1.2116903504194741e-27 0.0000000000000000e+00  -5.9171463242563924e-03 7.2076838370313051e-27 0.0000000000000000e+00  -5.9154471659722558e-03 2.1810426307550534e-26 0.0000000000000000e+00  -5.9135602923341734e-03 -1.2116903504194741e-26 0.0000000000000000e+00  -5.9114883488484860e-03 -6.7854659623490551e-26 0.0000000000000000e+00  -5.9092338265772006e-03 4.1048352805415386e-26 0.0000000000000000e+00  -5.9067990663768102e-03 -7.7548182426846345e-26 0.0000000000000000e+00  -5.9041862577065146e-03 4.4120674884649102e-25 0.0000000000000000e+00  -5.9013974215811416e-03 7.7548182426846345e-25 0.0000000000000000e+00  -5.8984343540823027e-03 -1.2315770621500700e-24 0.0000000000000000e+00  -5.8952984805261564e-03 -1.5509636485369269e-24 0.0000000000000000e+00  -5.8919905203595252e-03 1.7836081958174659e-24 0.0000000000000000e+00  -5.8885097682823805e-03 2.4815418376590830e-24 0.0000000000000000e+00  -5.8848525858702146e-03 -4.9426645556698260e-24 0.0000000000000000e+00  -5.8810089875537550e-03 9.9261673506363321e-24 0.0000000000000000e+00  -5.8769528194722691e-03 3.9613092117780032e-24 0.0000000000000000e+00  -5.8726053802470677e-03 9.9261673506363321e-24 0.0000000000000000e+00  -5.8676994709982964e-03 -1.3648480107124957e-22 0.0000000000000000e+00  -5.8615945992340820e-03 3.1763735522036263e-22 0.0000000000000000e+00  -5.8533647931884912e-03 2.3822801641527206e-22 0.0000000000000000e+00  -2.5410988417629010e-20 -1.1284745767893960e-36 0.0000000000000000e+00  -1.5598822499532380e-04 4.3737321252491305e-20 0.0000000000000000e+00  -3.0881498792652290e-04 2.3566813426332772e-20 0.0000000000000000e+00  -4.5852168491863633e-04 4.3769432325859738e-20 0.0000000000000000e+00  -6.0514968916009252e-04 3.1832314418807075e-20 0.0000000000000000e+00  -7.4874033945815019e-04 1.1368683721002523e-20 0.0000000000000000e+00  -8.8933492882279242e-04 -2.4442670000155412e-20 0.0000000000000000e+00  -1.0269746930885108e-03 -5.6843418605012617e-20 0.0000000000000000e+00  -1.1617007995833341e-03 -5.5073507458480016e-20 0.0000000000000000e+00  -1.2935543358544199e-03 -8.9812601395919946e-20 0.0000000000000000e+00  -1.4225762984594189e-03 1.7621459767553909e-20 0.0000000000000000e+00  -1.5488075818327735e-03 9.9788967215869900e-20 0.0000000000000000e+00  -1.6722889672359373e-03 1.5901946354752284e-19 0.0000000000000000e+00  -1.7930611118004765e-03 1.1368683721002521e-19 0.0000000000000000e+00  -1.9111645376728005e-03 9.4360074884320985e-20 0.0000000000000000e+00  -2.0266396212691769e-03 -4.5474734884010029e-21 0.0000000000000000e+00  -2.1395265826495268e-03 -2.9024842403174390e-20 0.0000000000000000e+00  -2.2498654750183135e-03 1.1368683721002505e-20 0.0000000000000000e+00  -2.3576961743606954e-03 -1.8644641302444134e-19 0.0000000000000000e+00  -2.4630583692218972e-03 -1.4039815658965330e-19 0.0000000000000000e+00  -2.5659915506375430e-03 3.5242919535107836e-20 0.0000000000000000e+00  -2.6665350022225974e-03 9.4360074884320949e-20 0.0000000000000000e+00  -2.7647277904261584e-03 1.0288658767507285e-19 0.0000000000000000e+00  -2.8606087549593114e-03 -7.2759575814416143e-20 0.0000000000000000e+00  -2.9542164994028892e-03 -8.9868737603478134e-20 0.0000000000000000e+00  -3.0455893820018234e-03 -1.0061285093087232e-19 0.0000000000000000e+00  -3.1347655066524460e-03 -1.0283379874262974e-19 0.0000000000000000e+00  -3.2217827140889289e-03 -1.3024735177626611e-19 0.0000000000000000e+00  -3.3066785732747224e-03 -1.8644641302444149e-19 0.0000000000000000e+00  -3.3894903730046127e-03 1.6200374302428596e-19 0.0000000000000000e+00  -3.4702551137227250e-03 3.1832314418807069e-20 0.0000000000000000e+00  -3.5490094995615585e-03 -5.0022208372411096e-20 0.0000000000000000e+00  -3.6257899306067617e-03 -1.7114529778360359e-20 0.0000000000000000e+00  -3.7006324953922274e-03 2.5100236658394614e-19 0.0000000000000000e+00  -3.7735729636295813e-03 4.2632563953759484e-20 0.0000000000000000e+00  -3.8446467791760884e-03 2.7139632087879600e-20 0.0000000000000000e+00  -3.9138890532443883e-03 1.1908696197750157e-19 0.0000000000000000e+00  -3.9813345578575540e-03 2.0349943860594512e-19 0.0000000000000000e+00  -4.0470177195522971e-03 -1.1084466627977465e-20 0.0000000000000000e+00  -4.1109726133330988e-03 -2.6489033069935884e-19 0.0000000000000000e+00  -4.1732329568795589e-03 -1.3266544512696326e-19 0.0000000000000000e+00  -4.2338321050091107e-03 -1.5404566441958428e-19 0.0000000000000000e+00  -4.2928030443968356e-03 -2.4158452907130357e-19 0.0000000000000000e+00  -4.3501783885537826e-03 -2.4965965332326847e-19 0.0000000000000000e+00  -4.4059903730650695e-03 3.9790393023509025e-21 0.0000000000000000e+00  -4.4602708510884555e-03 2.2225776674559930e-19 0.0000000000000000e+00  -4.5130512891141160e-03 2.1088908302459682e-19 0.0000000000000000e+00  -4.5643627629857030e-03 2.4442670000155432e-19 0.0000000000000000e+00  -4.6142359541828000e-03 9.6822547408322364e-20 0.0000000000000000e+00  -4.6627011463643529e-03 -6.9348970698115395e-20 0.0000000000000000e+00  -4.7097882221724969e-03 -1.4154011232648140e-19 0.0000000000000000e+00  -4.7555266602958635e-03 -1.9809931383846903e-19 0.0000000000000000e+00  -4.7999455327912399e-03 1.8189893953604039e-20 0.0000000000000000e+00  -4.8430735026620429e-03 2.1827872744324849e-19 0.0000000000000000e+00  -4.8849388216920349e-03 1.6711965069873715e-19 0.0000000000000000e+00  -4.9255693285321350e-03 -1.9781509674544393e-19 0.0000000000000000e+00  -4.9649924470382689e-03 -7.0230376129928927e-20 0.0000000000000000e+00  -5.0032351848576543e-03 -7.2759575814416179e-20 0.0000000000000000e+00  -5.0403241322608599e-03 -1.6689747333405860e-20 0.0000000000000000e+00  -5.0762854612166576e-03 3.2578867912768540e-20 0.0000000000000000e+00  -5.1111449247065472e-03 2.1827872744324873e-19 0.0000000000000000e+00  -5.1449278562754469e-03 2.9501734256001553e-19 0.0000000000000000e+00  -5.1776591698150052e-03 2.1088908302459675e-19 0.0000000000000000e+00  -5.2093633595757596e-03 2.0691004372224610e-19 0.0000000000000000e+00  -5.2400645004039752e-03 -1.1431066024718145e-19 0.0000000000000000e+00  -5.2697862481991108e-03 -6.4801497209714404e-20 0.0000000000000000e+00  -5.2985518405874862e-03 -1.0459189023322325e-19 0.0000000000000000e+00  -5.3263840978074444e-03 -1.4544010175823481e-19 0.0000000000000000e+00  -5.3533054238016171e-03 -1.1933565193389839e-19 0.0000000000000000e+00  -5.3793378075109857e-03 5.3148596395686817e-20 0.0000000000000000e+00  -5.4045028243661164e-03 -7.3896444186516586e-21 0.0000000000000000e+00  -5.4288216379701259e-03 -1.7536194639646388e-19 0.0000000000000000e+00  -5.4523150019682469e-03 -3.8758966752563218e-19 0.0000000000000000e+00  -5.4750032620984263e-03 -2.4513724273411691e-19 0.0000000000000000e+00  -5.4969063584176742e-03 -2.3646862139685255e-19 0.0000000000000000e+00  -5.5180438276982244e-03 -4.0084513447799241e-19 0.0000000000000000e+00  -5.5384348059880750e-03 -2.5082158459461813e-19 0.0000000000000000e+00  -5.5580980313298476e-03 -1.4551915162883236e-19 0.0000000000000000e+00  -5.5770518466323089e-03 -3.9435121657227535e-19 0.0000000000000000e+00  -5.5953142026883710e-03 2.2737367442005056e-20 0.0000000000000000e+00  -5.6129026613337225e-03 6.9703550308486388e-20 0.0000000000000000e+00  -5.6298343987399519e-03 -2.9103830325766481e-19 0.0000000000000000e+00  -5.6461262088359993e-03 -2.8194335628086254e-19 0.0000000000000000e+00  -5.6617945068518456e-03 -1.2596415068673827e-19 0.0000000000000000e+00  -5.6768553329782584e-03 2.7398527767616091e-19 0.0000000000000000e+00  -5.6913243561362578e-03 3.0397018099030488e-19 0.0000000000000000e+00  -5.7052168778502863e-03 4.3179681857832711e-19 0.0000000000000000e+00  -5.7185478362186508e-03 3.1320723651361973e-19 0.0000000000000000e+00  -5.7313318099750897e-03 4.7571932234366725e-19 0.0000000000000000e+00  -5.7435830226352964e-03 5.6851050073196804e-19 0.0000000000000000e+00  -5.7553153467220152e-03 2.2174262326449131e-19 0.0000000000000000e+00  -5.7665423080626912e-03 -3.0193623095699354e-20 0.0000000000000000e+00  -5.7772770901534020e-03 -2.5561774803941650e-20 0.0000000000000000e+00  -5.7875325385829245e-03 2.5380586407138152e-19 0.0000000000000000e+00  -5.7973211655109030e-03 1.8264500940523113e-19 0.0000000000000000e+00  -5.8066551541939510e-03 -2.3618440430382742e-19 0.0000000000000000e+00  -5.8155463635538168e-03 -3.3032981012434093e-19 0.0000000000000000e+00  -5.8240063327814808e-03 -3.0311752971122965e-19 0.0000000000000000e+00  -5.8320462859714423e-03 -3.7900349354892171e-19 0.0000000000000000e+00  -5.8396771367802101e-03 5.0199844055551810e-20 0.0000000000000000e+00  -5.8469094931033593e-03 2.4883206494344280e-19 0.0000000000000000e+00  -5.8537536617653410e-03 8.0184747369695967e-19 0.0000000000000000e+00  -5.8602196532164747e-03 1.3995560203286674e-18 0.0000000000000000e+00  -5.8663171862315703e-03 2.4495250162365089e-18 0.0000000000000000e+00  -5.8720556926046491e-03 3.8913586856520594e-18 0.0000000000000000e+00  -5.8774443218345658e-03 7.1899463836649045e-18 0.0000000000000000e+00  -5.8824919457959503e-03 1.3789520574411806e-17 0.0000000000000000e+00  -5.8872071633905339e-03 2.5339925770253818e-17 0.0000000000000000e+00  -5.8915983051736447e-03 4.6802597142623205e-17 0.0000000000000000e+00  -5.8956734379508324e-03 8.6656654794969650e-17 0.0000000000000000e+00  -5.8994403693397963e-03 1.5952178173230803e-16 0.0000000000000000e+00  -5.9029066522927462e-03 2.9289935678279291e-16 0.0000000000000000e+00  -5.9060795895745201e-03 5.3859476276146960e-16 0.0000000000000000e+00  -5.9089662381918671e-03 9.9025782683420380e-16 0.0000000000000000e+00  -5.9115734137694534e-03 1.8204878945883492e-15 0.0000000000000000e+00  -5.9139076948680896e-03 3.3427410265215768e-15 0.0000000000000000e+00  -5.9159754272411153e-03 6.1348691539441243e-15 0.0000000000000000e+00  -5.9177827280246526e-03 1.1252248930828588e-14 0.0000000000000000e+00  -5.9193354898579003e-03 2.0624918990910523e-14 0.0000000000000000e+00  -5.9206393849294990e-03 3.7777979454563857e-14 0.0000000000000000e+00  -5.9216998689465960e-03 6.9146073087612931e-14 0.0000000000000000e+00  -5.9225221850230311e-03 1.2646223921765981e-13 0.0000000000000000e+00  -5.9231113674840684e-03 2.3110011748627832e-13 0.0000000000000000e+00  -5.9234722455851251e-03 4.2195341445577166e-13 0.0000000000000000e+00  -5.9236094471435876e-03 7.6971298639335479e-13 0.0000000000000000e+00  -5.9235274020837921e-03 1.4027071764061060e-12 0.0000000000000000e+00  -5.9232303458986299e-03 2.5535880099455349e-12 0.0000000000000000e+00  -5.922722323