<?xml version="1.0"?>
<VTKFile type="UnstructuredGrid"  version="0.1"  >
<UnstructuredGrid>
<Piece  NumberOfPoints="1656" NumberOfCells="3000">
<Points>
<DataArray  type="Float64"  NumberOfComponents="3"  format="ascii">0 0 0  2 0 0  4 0 0  6 0 0  8 0 0  10 0 0  12 0 0  14 0 0  16 0 0  18 0 0  20 0 0  22 0 0  24 0 0  26 0 0  28 0 0  30 0 0  32 0 0  34 0 0  36 0 0  38 0 0  40 0 0  42 0 0  44 0 0  46 0 0  48 0 0  50 0 0  52 0 0  54 0 0  56 0 0  58 0 0  60 0 0  62 0 0  64 0 0  66 0 0  68 0 0  70 0 0  72 0 0  74 0 0  76 0 0  78 0 0  80 0 0  82 0 0  84 0 0  86 0 0  88 0 0  90 0 0  92 0 0  94 0 0  96 0 0  98 0 0  100 0 0  102 0 0  104 0 0  106 0 0  108 0 0  110 0 0  112 0 0  114 0 0  116 0 0  118 0 0  120 0 0  122 0 0  124 0 0  126 0 0  128 0 0  130 0 0  132 0 0  134 0 0  136 0 0  138 0 0  140 0 0  142 0 0  144 0 0  146 0 0  148 0 0  150 0 0  152 0 0  154 0 0  156 0 0  158 0 0  160 0 0  162 0 0  164 0 0  166 0 0  168 0 0  170 0 0  172 0 0  174 0 0  176 0 0  178 0 0  180 0 0  182 0 0  184 0 0  186 0 0  188 0 0  190 0 0  192 0 0  194 0 0  196 0 0  198 0 0  200 0 0  202 0 0  204 0 0  206 0 0  208 0 0  210 0 0  212 0 0  214 0 0  216 0 0  218 0 0  220 0 0  222 0 0  224 0 0  226 0 0  228 0 0  230 0 0  232 0 0  234 0 0  236 0 0  238 0 0  240 0 0  242 0 0  244 0 0  246 0 0  248 0 0  250 0 0  252 0 0  254 0 0  256 0 0  258 0 0  260 0 0  262 0 0  264 0 0  266 0 0  268 0 0  270 0 0  272 0 0  274 0 0  276 0 0  278 0 0  280 0 0  282 0 0  284 0 0  286 0 0  288 0 0  290 0 0  292 0 0  294 0 0  296 0 0  298 0 0  300 0 0  0 2 0  2 2 0  4 2 0  6 2 0  8 2 0  10 2 0  12 2 0  14 2 0  16 2 0  18 2 0  20 2 0  22 2 0  24 2 0  26 2 0  28 2 0  30 2 0  32 2 0  34 2 0  36 2 0  38 2 0  40 2 0  42 2 0  44 2 0  46 2 0  48 2 0  50 2 0  52 2 0  54 2 0  56 2 0  58 2 0  60 2 0  62 2 0  64 2 0  66 2 0  68 2 0  70 2 0  72 2 0  74 2 0  76 2 0  78 2 0  80 2 0  82 2 0  84 2 0  86 2 0  88 2 0  90 2 0  92 2 0  94 2 0  96 2 0  98 2 0  100 2 0  102 2 0  104 2 0  106 2 0  108 2 0  110 2 0  112 2 0  114 2 0  116 2 0  118 2 0  120 2 0  122 2 0  124 2 0  126 2 0  128 2 0  130 2 0  132 2 0  134 2 0  136 2 0  138 2 0  140 2 0  142 2 0  144 2 0  146 2 0  148 2 0  150 2 0  152 2 0  154 2 0  156 2 0  158 2 0  160 2 0  162 2 0  164 2 0  166 2 0  168 2 0  170 2 0  172 2 0  174 2 0  176 2 0  178 2 0  180 2 0  182 2 0  184 2 0  186 2 0  188 2 0  190 2 0  192 2 0  194 2 0  196 2 0  198 2 0  200 2 0  202 2 0  204 2 0  206 2 0  208 2 0  210 2 0  212 2 0  214 2 0  216 2 0  218 2 0  220 2 0  222 2 0  224 2 0  226 2 0  228 2 0  230 2 0  232 2 0  234 2 0  236 2 0  238 2 0  240 2 0  242 2 0  244 2 0  246 2 0  248 2 0  250 2 0  252 2 0  254 2 0  256 2 0  258 2 0  260 2 0  262 2 0  264 2 0  266 2 0  268 2 0  270 2 0  272 2 0  274 2 0  276 2 0  278 2 0  280 2 0  282 2 0  284 2 0  286 2 0  288 2 0  290 2 0  292 2 0  294 2 0  296 2 0  298 2 0  300 2 0  0 4 0  2 4 0  4 4 0  6 4 0  8 4 0  10 4 0  12 4 0  14 4 0  16 4 0  18 4 0  20 4 0  22 4 0  24 4 0  26 4 0  28 4 0  30 4 0  32 4 0  34 4 0  36 4 0  38 4 0  40 4 0  42 4 0  44 4 0  46 4 0  48 4 0  50 4 0  52 4 0  54 4 0  56 4 0  58 4 0  60 4 0  62 4 0  64 4 0  66 4 0  68 4 0  70 4 0  72 4 0  74 4 0  76 4 0  78 4 0  80 4 0  82 4 0  84 4 0  86 4 0  88 4 0  90 4 0  92 4 0  94 4 0  96 4 0  98 4 0  100 4 0  102 4 0  104 4 0  106 4 0  108 4 0  110 4 0  112 4 0  114 4 0  116 4 0  118 4 0  120 4 0  122 4 0  124 4 0  126 4 0  128 4 0  130 4 0  132 4 0  134 4 0  136 4 0  138 4 0  140 4 0  142 4 0  144 4 0  146 4 0  148 4 0  150 4 0  152 4 0  154 4 0  156 4 0  158 4 0  160 4 0  162 4 0  164 4 0  166 4 0  168 4 0  170 4 0  172 4 0  174 4 0  176 4 0  178 4 0  180 4 0  182 4 0  184 4 0  186 4 0  188 4 0  190 4 0  192 4 0  194 4 0  196 4 0  198 4 0  200 4 0  202 4 0  204 4 0  206 4 0  208 4 0  210 4 0  212 4 0  214 4 0  216 4 0  218 4 0  220 4 0  222 4 0  224 4 0  226 4 0  228 4 0  230 4 0  232 4 0  234 4 0  236 4 0  238 4 0  240 4 0  242 4 0  244 4 0  246 4 0  248 4 0  250 4 0  252 4 0  254 4 0  256 4 0  258 4 0  260 4 0  262 4 0  264 4 0  266 4 0  268 4 0  270 4 0  272 4 0  274 4 0  276 4 0  278 4 0  280 4 0  282 4 0  284 4 0  286 4 0  288 4 0  290 4 0  292 4 0  294 4 0  296 4 0  298 4 0  300 4 0  0 6 0  2 6 0  4 6 0  6 6 0  8 6 0  10 6 0  12 6 0  14 6 0  16 6 0  18 6 0  20 6 0  22 6 0  24 6 0  26 6 0  28 6 0  30 6 0  32 6 0  34 6 0  36 6 0  38 6 0  40 6 0  42 6 0  44 6 0  46 6 0  48 6 0  50 6 0  52 6 0  54 6 0  56 6 0  58 6 0  60 6 0  62 6 0  64 6 0  66 6 0  68 6 0  70 6 0  72 6 0  74 6 0  76 6 0  78 6 0  80 6 0  82 6 0  84 6 0  86 6 0  88 6 0  90 6 0  92 6 0  94 6 0  96 6 0  98 6 0  100 6 0  102 6 0  104 6 0  106 6 0  108 6 0  110 6 0  112 6 0  114 6 0  116 6 0  118 6 0  120 6 0  122 6 0  124 6 0  126 6 0  128 6 0  130 6 0  132 6 0  134 6 0  136 6 0  138 6 0  140 6 0  142 6 0  144 6 0  146 6 0  148 6 0  150 6 0  152 6 0  154 6 0  156 6 0  158 6 0  160 6 0  162 6 0  164 6 0  166 6 0  168 6 0  170 6 0  172 6 0  174 6 0  176 6 0  178 6 0  180 6 0  182 6 0  184 6 0  186 6 0  188 6 0  190 6 0  192 6 0  194 6 0  196 6 0  198 6 0  200 6 0  202 6 0  204 6 0  206 6 0  208 6 0  210 6 0  212 6 0  214 6 0  216 6 0  218 6 0  220 6 0  222 6 0  224 6 0  226 6 0  228 6 0  230 6 0  232 6 0  234 6 0  236 6 0  238 6 0  240 6 0  242 6 0  244 6 0  246 6 0  248 6 0  250 6 0  252 6 0  254 6 0  256 6 0  258 6 0  260 6 0  262 6 0  264 6 0  266 6 0  268 6 0  270 6 0  272 6 0  274 6 0  276 6 0  278 6 0  280 6 0  282 6 0  284 6 0  286 6 0  288 6 0  290 6 0  292 6 0  294 6 0  296 6 0  298 6 0  300 6 0  0 8 0  2 8 0  4 8 0  6 8 0  8 8 0  10 8 0  12 8 0  14 8 0  16 8 0  18 8 0  20 8 0  22 8 0  24 8 0  26 8 0  28 8 0  30 8 0  32 8 0  34 8 0  36 8 0  38 8 0  40 8 0  42 8 0  44 8 0  46 8 0  48 8 0  50 8 0  52 8 0  54 8 0  56 8 0  58 8 0  60 8 0  62 8 0  64 8 0  66 8 0  68 8 0  70 8 0  72 8 0  74 8 0  76 8 0  78 8 0  80 8 0  82 8 0  84 8 0  86 8 0  88 8 0  90 8 0  92 8 0  94 8 0  96 8 0  98 8 0  100 8 0  102 8 0  104 8 0  106 8 0  108 8 0  110 8 0  112 8 0  114 8 0  116 8 0  118 8 0  120 8 0  122 8 0  124 8 0  126 8 0  128 8 0  130 8 0  132 8 0  134 8 0  136 8 0  138 8 0  140 8 0  142 8 0  144 8 0  146 8 0  148 8 0  150 8 0  152 8 0  154 8 0  156 8 0  158 8 0  160 8 0  162 8 0  164 8 0  166 8 0  168 8 0  170 8 0  172 8 0  174 8 0  176 8 0  178 8 0  180 8 0  182 8 0  184 8 0  186 8 0  188 8 0  190 8 0  192 8 0  194 8 0  196 8 0  198 8 0  200 8 0  202 8 0  204 8 0  206 8 0  208 8 0  210 8 0  212 8 0  214 8 0  216 8 0  218 8 0  220 8 0  222 8 0  224 8 0  226 8 0  228 8 0  230 8 0  232 8 0  234 8 0  236 8 0  238 8 0  240 8 0  242 8 0  244 8 0  246 8 0  248 8 0  250 8 0  252 8 0  254 8 0  256 8 0  258 8 0  260 8 0  262 8 0  264 8 0  266 8 0  268 8 0  270 8 0  272 8 0  274 8 0  276 8 0  278 8 0  280 8 0  282 8 0  284 8 0  286 8 0  288 8 0  290 8 0  292 8 0  294 8 0  296 8 0  298 8 0  300 8 0  0 10 0  2 10 0  4 10 0  6 10 0  8 10 0  10 10 0  12 10 0  14 10 0  16 10 0  18 10 0  20 10 0  22 10 0  24 10 0  26 10 0  28 10 0  30 10 0  32 10 0  34 10 0  36 10 0  38 10 0  40 10 0  42 10 0  44 10 0  46 10 0  48 10 0  50 10 0  52 10 0  54 10 0  56 10 0  58 10 0  60 10 0  62 10 0  64 10 0  66 10 0  68 10 0  70 10 0  72 10 0  74 10 0  76 10 0  78 10 0  80 10 0  82 10 0  84 10 0  86 10 0  88 10 0  90 10 0  92 10 0  94 10 0  96 10 0  98 10 0  100 10 0  102 10 0  104 10 0  106 10 0  108 10 0  110 10 0  112 10 0  114 10 0  116 10 0  118 10 0  120 10 0  122 10 0  124 10 0  126 10 0  128 10 0  130 10 0  132 10 0  134 10 0  136 10 0  138 10 0  140 10 0  142 10 0  144 10 0  146 10 0  148 10 0  150 10 0  152 10 0  154 10 0  156 10 0  158 10 0  160 10 0  162 10 0  164 10 0  166 10 0  168 10 0  170 10 0  172 10 0  174 10 0  176 10 0  178 10 0  180 10 0  182 10 0  184 10 0  186 10 0  188 10 0  190 10 0  192 10 0  194 10 0  196 10 0  198 10 0  200 10 0  202 10 0  204 10 0  206 10 0  208 10 0  210 10 0  212 10 0  214 10 0  216 10 0  218 10 0  220 10 0  222 10 0  224 10 0  226 10 0  228 10 0  230 10 0  232 10 0  234 10 0  236 10 0  238 10 0  240 10 0  242 10 0  244 10 0  246 10 0  248 10 0  250 10 0  252 10 0  254 10 0  256 10 0  258 10 0  260 10 0  262 10 0  264 10 0  266 10 0  268 10 0  270 10 0  272 10 0  274 10 0  276 10 0  278 10 0  280 10 0  282 10 0  284 10 0  286 10 0  288 10 0  290 10 0  292 10 0  294 10 0  296 10 0  298 10 0  300 10 0  1 1 0  3 1 0  5 1 0  7 1 0  9 1 0  11 1 0  13 1 0  15 1 0  17 1 0  19 1 0  21 1 0  23 1 0  25 1 0  27 1 0  29 1 0  31 1 0  33 1 0  35 1 0  37 1 0  39 1 0  41 1 0  43 1 0  45 1 0  47 1 0  49 1 0  51 1 0  53 1 0  55 1 0  57 1 0  59 1 0  61 1 0  63 1 0  65 1 0  67 1 0  69 1 0  71 1 0  73 1 0  75 1 0  77 1 0  79 1 0  81 1 0  83 1 0  85 1 0  87 1 0  89 1 0  91 1 0  93 1 0  95 1 0  97 1 0  99 1 0  101 1 0  103 1 0  105 1 0  107 1 0  109 1 0  111 1 0  113 1 0  115 1 0  117 1 0  119 1 0  121 1 0  123 1 0  125 1 0  127 1 0  129 1 0  131 1 0  133 1 0  135 1 0  137 1 0  139 1 0  141 1 0  143 1 0  145 1 0  147 1 0  149 1 0  151 1 0  153 1 0  155 1 0  157 1 0  159 1 0  161 1 0  163 1 0  165 1 0  167 1 0  169 1 0  171 1 0  173 1 0  175 1 0  177 1 0  179 1 0  181 1 0  183 1 0  185 1 0  187 1 0  189 1 0  191 1 0  193 1 0  195 1 0  197 1 0  199 1 0  201 1 0  203 1 0  205 1 0  207 1 0  209 1 0  211 1 0  213 1 0  215 1 0  217 1 0  219 1 0  221 1 0  223 1 0  225 1 0  227 1 0  229 1 0  231 1 0  233 1 0  235 1 0  237 1 0  239 1 0  241 1 0  243 1 0  245 1 0  247 1 0  249 1 0  251 1 0  253 1 0  255 1 0  257 1 0  259 1 0  261 1 0  263 1 0  265 1 0  267 1 0  269 1 0  271 1 0  273 1 0  275 1 0  277 1 0  279 1 0  281 1 0  283 1 0  285 1 0  287 1 0  289 1 0  291 1 0  293 1 0  295 1 0  297 1 0  299 1 0  1 3 0  3 3 0  5 3 0  7 3 0  9 3 0  11 3 0  13 3 0  15 3 0  17 3 0  19 3 0  21 3 0  23 3 0  25 3 0  27 3 0  29 3 0  31 3 0  33 3 0  35 3 0  37 3 0  39 3 0  41 3 0  43 3 0  45 3 0  47 3 0  49 3 0  51 3 0  53 3 0  55 3 0  57 3 0  59 3 0  61 3 0  63 3 0  65 3 0  67 3 0  69 3 0  71 3 0  73 3 0  75 3 0  77 3 0  79 3 0  81 3 0  83 3 0  85 3 0  87 3 0  89 3 0  91 3 0  93 3 0  95 3 0  97 3 0  99 3 0  101 3 0  103 3 0  105 3 0  107 3 0  109 3 0  111 3 0  113 3 0  115 3 0  117 3 0  119 3 0  121 3 0  123 3 0  125 3 0
[...]
<PointData  Vectors="displacement"> 
<DataArray  type="Float64"  Name="displacement"  NumberOfComponents="3" format="ascii">7.6232965252887000e-21 1.8337711872827682e-36 0.0000000000000000e+00  -1.7414110380597231e-04 1.4105932209867450e-36 0.0000000000000000e+00  -3.4511629276901321e-04 -2.5646460360772063e-36 0.0000000000000000e+00  -5.1296251350281541e-04 8.4635593259204701e-37 0.0000000000000000e+00  -6.7771669621527540e-04 -3.9623854421480754e-36 0.0000000000000000e+00  -8.3941574651908899e-04 1.0720508479499262e-35 0.0000000000000000e+00  -9.9809653725851759e-04 -2.4685381367268038e-36 0.0000000000000000e+00  -1.1537959003577007e-03 -9.0277966143151681e-36 0.0000000000000000e+00  -1.3065506186958258e-03 1.3504783646829220e-35 0.0000000000000000e+00  -1.4563974180145059e-03 2.2393167383164577e-36 0.0000000000000000e+00  -1.6033729588625842e-03 -7.1607872808451362e-36 0.0000000000000000e+00  -1.7475138285836457e-03 -3.3854237303681880e-36 0.0000000000000000e+00  -1.8888565333513730e-03 -7.8252418576130542e-36 0.0000000000000000e+00  -2.0274374902578994e-03 4.5138983071575840e-36 0.0000000000000000e+00  -2.1632930194602162e-03 1.4371554903067420e-35 0.0000000000000000e+00  -2.2964593363896391e-03 -2.9829087507077125e-36 0.0000000000000000e+00  -2.4269725440292460e-03 -7.3432988188699060e-36 0.0000000000000000e+00  -2.5548686252641652e-03 4.5138983071575840e-36 0.0000000000000000e+00  -2.6801834353094652e-03 -1.5935295293334635e-36 0.0000000000000000e+00  -2.8029526942203392e-03 1.7491355940235638e-35 0.0000000000000000e+00  -2.9232119794891701e-03 -4.4600921739859250e-36 0.0000000000000000e+00  -3.0409967187339754e-03 6.7708474607363760e-36 0.0000000000000000e+00  -3.1563421824826257e-03 1.0438389835301913e-35 0.0000000000000000e+00  -3.2692834770571095e-03 1.4670169498262148e-35 0.0000000000000000e+00  -3.3798555375620315e-03 3.2759709670709319e-38 0.0000000000000000e+00  -3.4880931209814278e-03 -1.3541694921472752e-35 0.0000000000000000e+00  -3.5940307993877745e-03 6.3553836761176238e-36 0.0000000000000000e+00  -3.6977029532670766e-03 4.2882033917997048e-35 0.0000000000000000e+00  -3.7991437649636693e-03 -3.2725035616984762e-35 0.0000000000000000e+00  -3.8983872122483531e-03 3.1315169505905739e-35 0.0000000000000000e+00  -3.9954670620132226e-03 1.4105932209867450e-37 0.0000000000000000e+00  -4.0904168640965057e-03 1.1284745767893960e-36 0.0000000000000000e+00  -4.1832699452405940e-03 -1.4709194850340831e-35 0.0000000000000000e+00  -4.2740594031861964e-03 5.6423728839469800e-36 0.0000000000000000e+00  -4.3628181009055461e-03 -7.5709183032647955e-36 0.0000000000000000e+00  -4.4495786609773016e-03 1.1284745767893960e-35 0.0000000000000000e+00  -4.5343734601057794e-03 2.2517139622431709e-35 0.0000000000000000e+00  -4.6172346237868473e-03 1.1284745767893960e-35 0.0000000000000000e+00  -4.6981940211227903e-03 -1.0156271191104564e-35 0.0000000000000000e+00  -4.7772832597881955e-03 -4.5138983071575840e-35 0.0000000000000000e+00  -4.8545336811488659e-03 1.3261614883276458e-35 0.0000000000000000e+00  -4.9299763555354457e-03 2.7083389842945504e-35 0.0000000000000000e+00  -5.0036420776734709e-03 -5.4335527410081317e-35 0.0000000000000000e+00  -5.0755613622712661e-03 -6.7708474607363760e-36 0.0000000000000000e+00  -5.1457644397669387e-03 -2.1827839429908292e-36 0.0000000000000000e+00  -5.2142812522357673e-03 0.0000000000000000e+00 0.0000000000000000e+00  -5.2811414494587320e-03 1.4388050854064799e-35 0.0000000000000000e+00  -5.3463743851532332e-03 3.9496610187628860e-35 0.0000000000000000e+00  -5.4100091133664832e-03 9.0266377828997317e-36 0.0000000000000000e+00  -5.4720743850321888e-03 -4.5138983071575840e-36 0.0000000000000000e+00  -5.5325986446907536e-03 -2.2481329459476249e-37 0.0000000000000000e+00  -5.5916100273733019e-03 -1.0156271191104564e-35 0.0000000000000000e+00  -5.6491363556493987e-03 1.8169840372881648e-35 0.0000000000000000e+00  -5.7052051368385003e-03 0.0000000000000000e+00 0.0000000000000000e+00  -5.7598435603846525e-03 2.2163945984754231e-35 0.0000000000000000e+00  -5.8130784953942093e-03 -3.9496610187628860e-36 0.0000000000000000e+00  -5.8649364883357463e-03 -3.3991842853718861e-35 0.0000000000000000e+00  -5.9154437609016310e-03 1.7632415262334313e-36 0.0000000000000000e+00  -5.9646262080302144e-03 -2.6695476707174149e-35 0.0000000000000000e+00  -6.0125093960876931e-03 -1.1284745767893960e-35 0.0000000000000000e+00  -6.0591185612083823e-03 -1.7060906874862364e-35 0.0000000000000000e+00  -6.1044786077922037e-03 2.8211864419734900e-35 0.0000000000000000e+00  -6.1486141071577551e-03 -2.5954915266156108e-35 0.0000000000000000e+00  -6.1915492963495293e-03 6.7708474607363760e-35 0.0000000000000000e+00  -6.2333080770975071e-03 -3.6150985591040356e-35 0.0000000000000000e+00  -6.2739140149272194e-03 2.3980084756774665e-36 0.0000000000000000e+00  -6.3133903384183241e-03 -7.7210319532595787e-36 0.0000000000000000e+00  -6.3517599386097422e-03 -3.8368135610839464e-35 0.0000000000000000e+00  -6.3890453685488124e-03 -1.8068681206969388e-35 0.0000000000000000e+00  -6.4252688429825037e-03 -2.7083389842945504e-35 0.0000000000000000e+00  -6.4604522381879782e-03 -2.5390677977761410e-36 0.0000000000000000e+00  -6.4946170919400487e-03 1.1284745767893960e-35 0.0000000000000000e+00  -6.5277846036128932e-03 4.5550584473137299e-36 0.0000000000000000e+00  -6.5599756344131939e-03 1.1284745767893960e-35 0.0000000000000000e+00  -6.5912107077419606e-03 7.9850671902923065e-36 0.0000000000000000e+00  -6.6215100096819589e-03 3.1597288150103088e-35 0.0000000000000000e+00  -6.6508933896078587e-03 -4.9789578041385741e-35 0.0000000000000000e+00  -6.6793803609158393e-03 1.3541694921472752e-35 0.0000000000000000e+00  -6.7069901018695574e-03 -2.6519152554550806e-35 0.0000000000000000e+00  -6.7337414565592155e-03 -4.5138983071575840e-36 0.0000000000000000e+00  -6.7596529359702203e-03 -3.6600099703651964e-35 0.0000000000000000e+00  -6.7847427191583100e-03 3.1597288150103088e-35 0.0000000000000000e+00  -6.8090286545273567e-03 -9.4849169799911851e-35 0.0000000000000000e+00  -6.8325282612065807e-03 2.4826440689366712e-35 0.0000000000000000e+00  -6.8552587305233895e-03 -1.8270817761316975e-35 0.0000000000000000e+00  -6.8772369275683243e-03 1.2187525429325477e-34 0.0000000000000000e+00  -6.8984793928484056e-03 -4.1753559341207652e-35 0.0000000000000000e+00  -6.9190023440250815e-03 9.0277966143151681e-35 0.0000000000000000e+00  -6.9388216777331140e-03 -5.3914026875740405e-35 0.0000000000000000e+00  -6.9579529714765328e-03 -2.7083389842945504e-35 0.0000000000000000e+00  -6.9764114855978753e-03 4.9034045169218987e-35 0.0000000000000000e+00  -6.9942121653168007e-03 -1.4105932209867450e-35 0.0000000000000000e+00  -7.0113696428342883e-03 -3.1560205544809107e-35 0.0000000000000000e+00  -7.0278982394984361e-03 2.7083389842945504e-35 0.0000000000000000e+00  -7.0438119680280185e-03 7.1940254270323995e-36 0.0000000000000000e+00  -7.0591245347898478e-03 4.5138983071575840e-36 0.0000000000000000e+00  -7.0738493421260836e-03 -2.7458688323931229e-35 0.0000000000000000e+00  -7.0879994907274459e-03 2.2569491535787920e-35 0.0000000000000000e+00  -7.1015877820485712e-03 -7.2807905311230864e-35 0.0000000000000000e+00  -7.1146267207614286e-03 1.8055593228630336e-35 0.0000000000000000e+00  -7.1271285172430573e-03 5.4934607748448736e-35 0.0000000000000000e+00  -7.1391050900936103e-03 -1.2638915260041235e-34 0.0000000000000000e+00  -7.1505680686808409e-03 1.4895864413620027e-34 0.0000000000000000e+00  -7.1615287957072730e-03 -1.8055593228630336e-34 0.0000000000000000e+00  -7.1719983297961511e-03 -4.3402067444452846e-34 0.0000000000000000e+00  -7.1819874480923028e-03 1.4444474582904269e-34 0.0000000000000000e+00  -7.1915066488742879e-03 -1.3316876973567265e-34 0.0000000000000000e+00  -7.2005661541740019e-03 4.0444528832131953e-33 0.0000000000000000e+00  -7.2091759123999715e-03 -5.6705731146081917e-33 0.0000000000000000e+00  -7.2173456009608956e-03 2.3111159332646830e-33 0.0000000000000000e+00  -7.2250846288854902e-03 2.0800043399382147e-32 0.0000000000000000e+00  -7.2324021394353641e-03 2.7733391199176196e-32 0.0000000000000000e+00  -7.2393070127072159e-03 5.6406417806786678e-32 0.0000000000000000e+00  -7.2458078682209239e-03 7.3955709864469857e-32 0.0000000000000000e+00  -7.2519130674901363e-03 1.8228926923625187e-31 0.0000000000000000e+00  -7.2576307165719799e-03 2.9582283945787943e-31 0.0000000000000000e+00  -7.2629686685926204e-03 -7.3574494865168467e-31 0.0000000000000000e+00  -7.2679345262454381e-03 2.6624055551209148e-30 0.0000000000000000e+00  -7.2725356442587914e-03 7.3955709864469857e-31 0.0000000000000000e+00  -7.2767791318303103e-03 -6.5081024680733474e-30 0.0000000000000000e+00  -7.2806718550250202e-03 1.0868820845081958e-29 0.0000000000000000e+00  -7.2842204391347469e-03 -1.8932661725304283e-29 0.0000000000000000e+00  -7.2874312709967836e-03 4.2524533172070168e-29 0.0000000000000000e+00  -7.2903105012704266e-03 4.7331654313260708e-29 0.0000000000000000e+00  -7.2928640466712489e-03 1.9225434844767751e-29 0.0000000000000000e+00  -7.2950975921647118e-03 1.8932661725304283e-28 0.0000000000000000e+00  -7.2970165931241469e-03 5.6797985175912850e-29 0.0000000000000000e+00  -7.2986262774630117e-03 0.0000000000000000e+00 0.0000000000000000e+00  -7.2999316477597338e-03 -7.6904179155066532e-28 0.0000000000000000e+00  -7.3009374834063969e-03 3.6350710512584224e-27 0.0000000000000000e+00  -7.3016483428319737e-03 -2.2766525724678401e-27 0.0000000000000000e+00  -7.3020685658784865e-03 8.4818324529363189e-27 0.0000000000000000e+00  -7.3022022764435198e-03 -1.2273049167908590e-26 0.0000000000000000e+00  -7.3020533855366210e-03 2.9080568410067379e-26 0.0000000000000000e+00  -7.3016255949026679e-03 -3.0292258760486853e-26 0.0000000000000000e+00  -7.3009224012655664e-03 1.3570931924698110e-25 0.0000000000000000e+00  -7.2999471008578388e-03 -2.8869108144982902e-25 0.0000000000000000e+00  -7.2987027928116382e-03 7.7548182426846345e-26 0.0000000000000000e+00  -7.2971923773121720e-03 4.1023291426389321e-25 0.0000000000000000e+00  -7.2954185383723013e-03 -8.5303000669530979e-25 0.0000000000000000e+00  -7.2933836882838575e-03 2.1761459027409873e-24 0.0000000000000000e+00  -7.2910898252031417e-03 -2.7917345673664684e-24 0.0000000000000000e+00  -7.2885382066660235e-03 9.3057818912215613e-25 0.0000000000000000e+00  -7.2857286498375614e-03 4.9630836753181660e-24 0.0000000000000000e+00  -7.2826580638555849e-03 -2.2169534984511642e-24 0.0000000000000000e+00  -7.2793171286775135e-03 -7.4446255129772491e-24 0.0000000000000000e+00  -7.2756807423091825e-03 5.1330137806336346e-23 0.0000000000000000e+00  -7.2716726379437342e-03 -3.9704669402545328e-23 0.0000000000000000e+00  -7.2670331607669128e-03 9.8641288046948550e-23 0.0000000000000000e+00  -7.2611395418082300e-03 1.5881867761018131e-22 0.0000000000000000e+00  -7.2530913224457408e-03 0.0000000000000000e+00 0.0000000000000000e+00  -1.0164395367051604e-20 1.6927118651840940e-36 0.0000000000000000e+00  -1.7414110380597225e-04 4.6688806448779206e-20 0.0000000000000000e+00  -3.4511629276901326e-04 1.9390032123149633e-20 0.0000000000000000e+00  -5.1296251350281552e-04 3.1832314418807075e-20 0.0000000000000000e+00  -6.7771669621527486e-04 9.0949469768020179e-21 0.0000000000000000e+00  -8.3941574651908845e-04 5.4569681860812110e-20 0.0000000000000000e+00  -9.9809653725851802e-04 -1.6484591395453655e-20 0.0000000000000000e+00  -1.1537959003576996e-03 -6.1390892093413608e-20 0.0000000000000000e+00  -1.3065506186958262e-03 -6.0342287130879440e-20 0.0000000000000000e+00  -1.4563974180145046e-03 -6.7075233953914911e-20 0.0000000000000000e+00  -1.6033729588625857e-03 1.1368683721002667e-21 0.0000000000000000e+00  -1.7475138285836455e-03 3.1767064748260111e-20 0.0000000000000000e+00  -1.8888565333513719e-03 1.4054535250089373e-19 0.0000000000000000e+00  -2.0274374902578963e-03 1.1141310046582473e-19 0.0000000000000000e+00  -2.1632930194602153e-03 9.7202245814571595e-20 0.0000000000000000e+00  -2.2964593363896391e-03 1.1368683721002542e-20 0.0000000000000000e+00  -2.4269725440292456e-03 -2.2926946935887988e-23 0.0000000000000000e+00  -2.5548686252641626e-03 3.9790393023508814e-20 0.0000000000000000e+00  -2.6801834353094626e-03 -2.3192114790845148e-19 0.0000000000000000e+00  -2.8029526942203379e-03 -1.6516694654450016e-19 0.0000000000000000e+00  -2.9232119794891692e-03 6.2527760465513921e-20 0.0000000000000000e+00  -3.0409967187339749e-03 1.6143530883823579e-19 0.0000000000000000e+00  -3.1563421824826266e-03 1.8587797883839134e-19 0.0000000000000000e+00  -3.2692834770571087e-03 5.2295945116611651e-20 0.0000000000000000e+00  -3.3798555375620307e-03 -8.5112951432778144e-20 0.0000000000000000e+00  -3.4880931209814244e-03 -1.3812950721018071e-19 0.0000000000000000e+00  -3.5940307993877732e-03 -1.0004226288356258e-19 0.0000000000000000e+00  -3.6977029532670744e-03 -1.9794462512533885e-19 0.0000000000000000e+00  -3.7991437649636671e-03 -1.8189893953604030e-19 0.0000000000000000e+00  -3.8983872122483540e-03 1.2164491581472699e-19 0.0000000000000000e+00  -3.9954670620132200e-03 3.0695446046706828e-20 0.0000000000000000e+00  -4.0904168640965065e-03 -4.3200998139809593e-20 0.0000000000000000e+00  -4.1832699452405914e-03 -1.1757955625255507e-19 0.0000000000000000e+00  -4.2740594031861947e-03 8.5479074732448154e-20 0.0000000000000000e+00  -4.3628181009055427e-03 2.4158452907130382e-20 0.0000000000000000e+00  -4.4495786609773016e-03 4.4851784701394065e-20 0.0000000000000000e+00  -4.5343734601057785e-03 7.4749095465591563e-20 0.0000000000000000e+00  -4.6172346237868473e-03 -2.5011104186205548e-20 0.0000000000000000e+00  -4.6981940211227877e-03 -1.8047785407091510e-19 0.0000000000000000e+00  -4.7772832597881929e-03 -3.2628122279277243e-19 0.0000000000000000e+00  -4.8545336811488616e-03 -2.0898290782647556e-19 0.0000000000000000e+00  -4.9299763555354439e-03 -3.6152414232788044e-19 0.0000000000000000e+00  -5.0036420776734753e-03 -3.4617641930452665e-19 0.0000000000000000e+00  -5.0755613622712635e-03 -3.8465982403379421e-19 0.0000000000000000e+00  -5.1457644397669387e-03 -1.4381384907068191e-19 0.0000000000000000e+00  -5.2142812522357638e-03 1.7053025581503777e-19 0.0000000000000000e+00  -5.2811414494587268e-03 2.7256419221103558e-19 0.0000000000000000e+00  -5.3463743851532323e-03 1.9781509674544393e-19 0.0000000000000000e+00  -5.4100091133664806e-03 6.0286819904183651e-20 0.0000000000000000e+00  -5.4720743850321871e-03 -1.3073986279152901e-19 0.0000000000000000e+00  -5.5325986446907553e-03 -1.2136069872170198e-19 0.0000000000000000e+00  -5.5916100273732967e-03 1.3642420465203046e-20 0.0000000000000000e+00  -5.6491363556494005e-03 9.0949469768020164e-20 0.0000000000000000e+00  -5.7052051368384916e-03 3.6379787907208094e-19 0.0000000000000000e+00  -5.7598435603846533e-03 1.5518253279168454e-19 0.0000000000000000e+00  -5.8130784953942085e-03 -1.7450929511738880e-19 0.0000000000000000e+00  -5.8649364883357454e-03 1.2549264949577080e-20 0.0000000000000000e+00  -5.9154437609016250e-03 7.2759575814416083e-20 0.0000000000000000e+00  -5.9646262080302083e-03 5.1687535029771934e-21 0.0000000000000000e+00  -6.0125093960876870e-03 -6.0057159077500235e-20 0.0000000000000000e+00  -6.0591185612083841e-03 1.8189893953604047e-19 0.0000000000000000e+00  -6.1044786077922011e-03 8.1854522791218087e-20 0.0000000000000000e+00  -6.1486141071577507e-03 1.1723955087283861e-19 0.0000000000000000e+00  -6.1915492963495241e-03 1.3983480976833102e-19 0.0000000000000000e+00  -6.2333080770975062e-03 -3.7194799348804759e-19 0.0000000000000000e+00  -6.2739140149272116e-03 -1.8928858395469212e-19 0.0000000000000000e+00  -6.3133903384183275e-03 -1.3642420465203046e-20 0.0000000000000000e+00  -6.3517599386097422e-03 -1.0755649939501351e-19 0.0000000000000000e+00  -6.3890453685488046e-03 1.3926637558228046e-20 0.0000000000000000e+00  -6.4252688429824976e-03 3.0183855279261710e-19 0.0000000000000000e+00  -6.4604522381879774e-03 8.1570305698193180e-20 0.0000000000000000e+00  -6.4946170919400496e-03 -4.9283243930545960e-19 0.0000000000000000e+00  -6.5277846036128863e-03 -2.0726881794827755e-19 0.0000000000000000e+00  -6.5599756344131956e-03 3.7829295081635902e-19 0.0000000000000000e+00  -6.5912107077419468e-03 -2.6375346232725863e-19 0.0000000000000000e+00  -6.6215100096819563e-03 -6.1300661031432279e-19 0.0000000000000000e+00  -6.6508933896078579e-03 -3.8198777302568466e-19 0.0000000000000000e+00  -6.6793803609158280e-03 -1.4551915162883229e-19 0.0000000000000000e+00  -6.7069901018695669e-03 -4.2660985663061987e-19 0.0000000000000000e+00  -6.7337414565592120e-03 -2.6460611360633391e-19 0.0000000000000000e+00  -6.7596529359702220e-03 -1.6795110377507842e-19 0.0000000000000000e+00  -6.7847427191583013e-03 -4.3655745488649717e-19 0.0000000000000000e+00  -6.8090286545273602e-03 -4.6384229581690268e-19 0.0000000000000000e+00  -6.8325282612065816e-03 -4.6305301425340615e-19 0.0000000000000000e+00  -6.8552587305233861e-03 1.8928858395469212e-19 0.0000000000000000e+00  -6.8772369275683269e-03 5.3276494087548077e-19 0.0000000000000000e+00  -6.8984793928484004e-03 5.0015102945085529e-19 0.0000000000000000e+00  -6.9190023440250841e-03 4.0472514046768978e-19 0.0000000000000000e+00  -6.9388216777331131e-03 4.5100470718767044e-19 0.0000000000000000e+00  -6.9579529714765284e-03 4.3160674473890896e-19 0.0000000000000000e+00  -6.9764114855978710e-03 2.7363000630987952e-19 0.0000000000000000e+00  -6.9942121653167946e-03 -3.0302778229073784e-20 0.0000000000000000e+00  -7.0113696428342849e-03 -2.6521007492901183e-20 0.0000000000000000e+00  -7.0278982394984283e-03 3.2713387407184766e-19 0.0000000000000000e+00  -7.0438119680280142e-03 3.0269120407169228e-19 0.0000000000000000e+00  -7.0591245347898495e-03 -1.4551915162883238e-19 0.0000000000000000e+00  -7.0738493421260793e-03 -1.1444660640181851e-19 0.0000000000000000e+00  -7.0879994907274441e-03 -3.6237679360695576e-19 0.0000000000000000e+00  -7.1015877820485643e-03 -4.1239900197936648e-19 0.0000000000000000e+00  -7.1146267207614251e-03 1.7124079854760050e-19 0.0000000000000000e+00  -7.1271285172430573e-03 3.3836044924633756e-19 0.0000000000000000e+00  -7.1391050900936033e-03 8.0589756727256680e-19 0.0000000000000000e+00  -7.1505680686808348e-03 1.3523404557498779e-18 0.0000000000000000e+00  -7.1615287957072791e-03 2.3479174054800468e-18 0.0000000000000000e+00  -7.1719983297961493e-03 3.9309610209043278e-18 0.0000000000000000e+00  -7.1819874480923010e-03 6.9992722413817126e-18 0.0000000000000000e+00  -7.1915066488742827e-03 1.3422614070884769e-17 0.0000000000000000e+00  -7.2005661541739837e-03 2.4586711005035679e-17 0.0000000000000000e+00  -7.2091759123999628e-03 4.5547494459824528e-17 0.0000000000000000e+00  -7.2173456009608670e-03 8.4328348368908318e-17 0.0000000000000000e+00  -7.2250846288854460e-03 1.5514263581725101e-16 0.0000000000000000e+00  -7.2324021394352843e-03 2.8526556988123266e-16 0.0000000000000000e+00  -7.2393070127070762e-03 5.2486864580483764e-16 0.0000000000000000e+00  -7.2458078682206646e-03 9.6399161996519961e-16 0.0000000000000000e+00  -7.2519130674896662e-03 1.7722208185527170e-15 0.0000000000000000e+00  -7.2576307165711437e-03 3.2538786882839832e-15 0.0000000000000000e+00  -7.2629686685910843e-03 5.9718877041198384e-15 0.0000000000000000e+00  -7.2679345262426642e-03 1.0953083084524501e-14 0.0000000000000000e+00  -7.2725356442537832e-03 2.0076242071705086e-14 0.0000000000000000e+00  -7.2767791318212585e-03 3.6771813233199595e-14 0.0000000000000000e+00  -7.2806718550086922e-03 6.7301982289342490e-14 0.0000000000000000e+00  -7.2842204391053529e-03 1.2308656774384717e-13 0.0000000000000000e+00  -7.2874312709439735e-03 2.2492614233407026e-13 0.0000000000000000e+00  -7.2903105011757610e-03 4.1067042349644252e-13 0.0000000000000000e+00  -7.2928640465019434e-03 7.4911178305122692e-13 0.0000000000000000e+00  -7.2950975918627753e-03 1.3651290913006038e-12 0.0000000000000000e+00  -7.2970165925872969e-03 2.4851135639450301e-12 0.0000000000000000e+00  -7.2986262765117214e-03 4