<?xml version="1.0"?>
<VTKFile type="UnstructuredGrid"  version="0.1"  >
<UnstructuredGrid>
<Piece  NumberOfPoints="1656" NumberOfCells="3000">
<Points>
<DataArray  type="Float64"  NumberOfComponents="3"  format="ascii">0 0 0  2 0 0  4 0 0  6 0 0  8 0 0  10 0 0  12 0 0  14 0 0  16 0 0  18 0 0  20 0 0  22 0 0  24 0 0  26 0 0  28 0 0  30 0 0  32 0 0  34 0 0  36 0 0  38 0 0  40 0 0  42 0 0  44 0 0  46 0 0  48 0 0  50 0 0  52 0 0  54 0 0  56 0 0  58 0 0  60 0 0  62 0 0  64 0 0  66 0 0  68 0 0  70 0 0  72 0 0  74 0 0  76 0 0  78 0 0  80 0 0  82 0 0  84 0 0  86 0 0  88 0 0  90 0 0  92 0 0  94 0 0  96 0 0  98 0 0  100 0 0  102 0 0  104 0 0  106 0 0  108 0 0  110 0 0  112 0 0  114 0 0  116 0 0  118 0 0  120 0 0  122 0 0  124 0 0  126 0 0  128 0 0  130 0 0  132 0 0  134 0 0  136 0 0  138 0 0  140 0 0  142 0 0  144 0 0  146 0 0  148 0 0  150 0 0  152 0 0  154 0 0  156 0 0  158 0 0  160 0 0  162 0 0  164 0 0  166 0 0  168 0 0  170 0 0  172 0 0  174 0 0  176 0 0  178 0 0  180 0 0  182 0 0  184 0 0  186 0 0  188 0 0  190 0 0  192 0 0  194 0 0  196 0 0  198 0 0  200 0 0  202 0 0  204 0 0  206 0 0  208 0 0  210 0 0  212 0 0  214 0 0  216 0 0  218 0 0  220 0 0  222 0 0  224 0 0  226 0 0  228 0 0  230 0 0  232 0 0  234 0 0  236 0 0  238 0 0  240 0 0  242 0 0  244 0 0  246 0 0  248 0 0  250 0 0  252 0 0  254 0 0  256 0 0  258 0 0  260 0 0  262 0 0  264 0 0  266 0 0  268 0 0  270 0 0  272 0 0  274 0 0  276 0 0  278 0 0  280 0 0  282 0 0  284 0 0  286 0 0  288 0 0  290 0 0  292 0 0  294 0 0  296 0 0  298 0 0  300 0 0  0 2 0  2 2 0  4 2 0  6 2 0  8 2 0  10 2 0  12 2 0  14 2 0  16 2 0  18 2 0  20 2 0  22 2 0  24 2 0  26 2 0  28 2 0  30 2 0  32 2 0  34 2 0  36 2 0  38 2 0  40 2 0  42 2 0  44 2 0  46 2 0  48 2 0  50 2 0  52 2 0  54 2 0  56 2 0  58 2 0  60 2 0  62 2 0  64 2 0  66 2 0  68 2 0  70 2 0  72 2 0  74 2 0  76 2 0  78 2 0  80 2 0  82 2 0  84 2 0  86 2 0  88 2 0  90 2 0  92 2 0  94 2 0  96 2 0  98 2 0  100 2 0  102 2 0  104 2 0  106 2 0  108 2 0  110 2 0  112 2 0  114 2 0  116 2 0  118 2 0  120 2 0  122 2 0  124 2 0  126 2 0  128 2 0  130 2 0  132 2 0  134 2 0  136 2 0  138 2 0  140 2 0  142 2 0  144 2 0  146 2 0  148 2 0  150 2 0  152 2 0  154 2 0  156 2 0  158 2 0  160 2 0  162 2 0  164 2 0  166 2 0  168 2 0  170 2 0  172 2 0  174 2 0  176 2 0  178 2 0  180 2 0  182 2 0  184 2 0  186 2 0  188 2 0  190 2 0  192 2 0  194 2 0  196 2 0  198 2 0  200 2 0  202 2 0  204 2 0  206 2 0  208 2 0  210 2 0  212 2 0  214 2 0  216 2 0  218 2 0  220 2 0  222 2 0  224 2 0  226 2 0  228 2 0  230 2 0  232 2 0  234 2 0  236 2 0  238 2 0  240 2 0  242 2 0  244 2 0  246 2 0  248 2 0  250 2 0  252 2 0  254 2 0  256 2 0  258 2 0  260 2 0  262 2 0  264 2 0  266 2 0  268 2 0  270 2 0  272 2 0  274 2 0  276 2 0  278 2 0  280 2 0  282 2 0  284 2 0  286 2 0  288 2 0  290 2 0  292 2 0  294 2 0  296 2 0  298 2 0  300 2 0  0 4 0  2 4 0  4 4 0  6 4 0  8 4 0  10 4 0  12 4 0  14 4 0  16 4 0  18 4 0  20 4 0  22 4 0  24 4 0  26 4 0  28 4 0  30 4 0  32 4 0  34 4 0  36 4 0  38 4 0  40 4 0  42 4 0  44 4 0  46 4 0  48 4 0  50 4 0  52 4 0  54 4 0  56 4 0  58 4 0  60 4 0  62 4 0  64 4 0  66 4 0  68 4 0  70 4 0  72 4 0  74 4 0  76 4 0  78 4 0  80 4 0  82 4 0  84 4 0  86 4 0  88 4 0  90 4 0  92 4 0  94 4 0  96 4 0  98 4 0  100 4 0  102 4 0  104 4 0  106 4 0  108 4 0  110 4 0  112 4 0  114 4 0  116 4 0  118 4 0  120 4 0  122 4 0  124 4 0  126 4 0  128 4 0  130 4 0  132 4 0  134 4 0  136 4 0  138 4 0  140 4 0  142 4 0  144 4 0  146 4 0  148 4 0  150 4 0  152 4 0  154 4 0  156 4 0  158 4 0  160 4 0  162 4 0  164 4 0  166 4 0  168 4 0  170 4 0  172 4 0  174 4 0  176 4 0  178 4 0  180 4 0  182 4 0  184 4 0  186 4 0  188 4 0  190 4 0  192 4 0  194 4 0  196 4 0  198 4 0  200 4 0  202 4 0  204 4 0  206 4 0  208 4 0  210 4 0  212 4 0  214 4 0  216 4 0  218 4 0  220 4 0  222 4 0  224 4 0  226 4 0  228 4 0  230 4 0  232 4 0  234 4 0  236 4 0  238 4 0  240 4 0  242 4 0  244 4 0  246 4 0  248 4 0  250 4 0  252 4 0  254 4 0  256 4 0  258 4 0  260 4 0  262 4 0  264 4 0  266 4 0  268 4 0  270 4 0  272 4 0  274 4 0  276 4 0  278 4 0  280 4 0  282 4 0  284 4 0  286 4 0  288 4 0  290 4 0  292 4 0  294 4 0  296 4 0  298 4 0  300 4 0  0 6 0  2 6 0  4 6 0  6 6 0  8 6 0  10 6 0  12 6 0  14 6 0  16 6 0  18 6 0  20 6 0  22 6 0  24 6 0  26 6 0  28 6 0  30 6 0  32 6 0  34 6 0  36 6 0  38 6 0  40 6 0  42 6 0  44 6 0  46 6 0  48 6 0  50 6 0  52 6 0  54 6 0  56 6 0  58 6 0  60 6 0  62 6 0  64 6 0  66 6 0  68 6 0  70 6 0  72 6 0  74 6 0  76 6 0  78 6 0  80 6 0  82 6 0  84 6 0  86 6 0  88 6 0  90 6 0  92 6 0  94 6 0  96 6 0  98 6 0  100 6 0  102 6 0  104 6 0  106 6 0  108 6 0  110 6 0  112 6 0  114 6 0  116 6 0  118 6 0  120 6 0  122 6 0  124 6 0  126 6 0  128 6 0  130 6 0  132 6 0  134 6 0  136 6 0  138 6 0  140 6 0  142 6 0  144 6 0  146 6 0  148 6 0  150 6 0  152 6 0  154 6 0  156 6 0  158 6 0  160 6 0  162 6 0  164 6 0  166 6 0  168 6 0  170 6 0  172 6 0  174 6 0  176 6 0  178 6 0  180 6 0  182 6 0  184 6 0  186 6 0  188 6 0  190 6 0  192 6 0  194 6 0  196 6 0  198 6 0  200 6 0  202 6 0  204 6 0  206 6 0  208 6 0  210 6 0  212 6 0  214 6 0  216 6 0  218 6 0  220 6 0  222 6 0  224 6 0  226 6 0  228 6 0  230 6 0  232 6 0  234 6 0  236 6 0  238 6 0  240 6 0  242 6 0  244 6 0  246 6 0  248 6 0  250 6 0  252 6 0  254 6 0  256 6 0  258 6 0  260 6 0  262 6 0  264 6 0  266 6 0  268 6 0  270 6 0  272 6 0  274 6 0  276 6 0  278 6 0  280 6 0  282 6 0  284 6 0  286 6 0  288 6 0  290 6 0  292 6 0  294 6 0  296 6 0  298 6 0  300 6 0  0 8 0  2 8 0  4 8 0  6 8 0  8 8 0  10 8 0  12 8 0  14 8 0  16 8 0  18 8 0  20 8 0  22 8 0  24 8 0  26 8 0  28 8 0  30 8 0  32 8 0  34 8 0  36 8 0  38 8 0  40 8 0  42 8 0  44 8 0  46 8 0  48 8 0  50 8 0  52 8 0  54 8 0  56 8 0  58 8 0  60 8 0  62 8 0  64 8 0  66 8 0  68 8 0  70 8 0  72 8 0  74 8 0  76 8 0  78 8 0  80 8 0  82 8 0  84 8 0  86 8 0  88 8 0  90 8 0  92 8 0  94 8 0  96 8 0  98 8 0  100 8 0  102 8 0  104 8 0  106 8 0  108 8 0  110 8 0  112 8 0  114 8 0  116 8 0  118 8 0  120 8 0  122 8 0  124 8 0  126 8 0  128 8 0  130 8 0  132 8 0  134 8 0  136 8 0  138 8 0  140 8 0  142 8 0  144 8 0  146 8 0  148 8 0  150 8 0  152 8 0  154 8 0  156 8 0  158 8 0  160 8 0  162 8 0  164 8 0  166 8 0  168 8 0  170 8 0  172 8 0  174 8 0  176 8 0  178 8 0  180 8 0  182 8 0  184 8 0  186 8 0  188 8 0  190 8 0  192 8 0  194 8 0  196 8 0  198 8 0  200 8 0  202 8 0  204 8 0  206 8 0  208 8 0  210 8 0  212 8 0  214 8 0  216 8 0  218 8 0  220 8 0  222 8 0  224 8 0  226 8 0  228 8 0  230 8 0  232 8 0  234 8 0  236 8 0  238 8 0  240 8 0  242 8 0  244 8 0  246 8 0  248 8 0  250 8 0  252 8 0  254 8 0  256 8 0  258 8 0  260 8 0  262 8 0  264 8 0  266 8 0  268 8 0  270 8 0  272 8 0  274 8 0  276 8 0  278 8 0  280 8 0  282 8 0  284 8 0  286 8 0  288 8 0  290 8 0  292 8 0  294 8 0  296 8 0  298 8 0  300 8 0  0 10 0  2 10 0  4 10 0  6 10 0  8 10 0  10 10 0  12 10 0  14 10 0  16 10 0  18 10 0  20 10 0  22 10 0  24 10 0  26 10 0  28 10 0  30 10 0  32 10 0  34 10 0  36 10 0  38 10 0  40 10 0  42 10 0  44 10 0  46 10 0  48 10 0  50 10 0  52 10 0  54 10 0  56 10 0  58 10 0  60 10 0  62 10 0  64 10 0  66 10 0  68 10 0  70 10 0  72 10 0  74 10 0  76 10 0  78 10 0  80 10 0  82 10 0  84 10 0  86 10 0  88 10 0  90 10 0  92 10 0  94 10 0  96 10 0  98 10 0  100 10 0  102 10 0  104 10 0  106 10 0  108 10 0  110 10 0  112 10 0  114 10 0  116 10 0  118 10 0  120 10 0  122 10 0  124 10 0  126 10 0  128 10 0  130 10 0  132 10 0  134 10 0  136 10 0  138 10 0  140 10 0  142 10 0  144 10 0  146 10 0  148 10 0  150 10 0  152 10 0  154 10 0  156 10 0  158 10 0  160 10 0  162 10 0  164 10 0  166 10 0  168 10 0  170 10 0  172 10 0  174 10 0  176 10 0  178 10 0  180 10 0  182 10 0  184 10 0  186 10 0  188 10 0  190 10 0  192 10 0  194 10 0  196 10 0  198 10 0  200 10 0  202 10 0  204 10 0  206 10 0  208 10 0  210 10 0  212 10 0  214 10 0  216 10 0  218 10 0  220 10 0  222 10 0  224 10 0  226 10 0  228 10 0  230 10 0  232 10 0  234 10 0  236 10 0  238 10 0  240 10 0  242 10 0  244 10 0  246 10 0  248 10 0  250 10 0  252 10 0  254 10 0  256 10 0  258 10 0  260 10 0  262 10 0  264 10 0  266 10 0  268 10 0  270 10 0  272 10 0  274 10 0  276 10 0  278 10 0  280 10 0  282 10 0  284 10 0  286 10 0  288 10 0  290 10 0  292 10 0  294 10 0  296 10 0  298 10 0  300 10 0  1 1 0  3 1 0  5 1 0  7 1 0  9 1 0  11 1 0  13 1 0  15 1 0  17 1 0  19 1 0  21 1 0  23 1 0  25 1 0  27 1 0  29 1 0  31 1 0  33 1 0  35 1 0  37 1 0  39 1 0  41 1 0  43 1 0  45 1 0  47 1 0  49 1 0  51 1 0  53 1 0  55 1 0  57 1 0  59 1 0  61 1 0  63 1 0  65 1 0  67 1 0  69 1 0  71 1 0  73 1 0  75 1 0  77 1 0  79 1 0  81 1 0  83 1 0  85 1 0  87 1 0  89 1 0  91 1 0  93 1 0  95 1 0  97 1 0  99 1 0  101 1 0  103 1 0  105 1 0  107 1 0  109 1 0  111 1 0  113 1 0  115 1 0  117 1 0  119 1 0  121 1 0  123 1 0  125 1 0  127 1 0  129 1 0  131 1 0  133 1 0  135 1 0  137 1 0  139 1 0  141 1 0  143 1 0  145 1 0  147 1 0  149 1 0  151 1 0  153 1 0  155 1 0  157 1 0  159 1 0  161 1 0  163 1 0  165 1 0  167 1 0  169 1 0  171 1 0  173 1 0  175 1 0  177 1 0  179 1 0  181 1 0  183 1 0  185 1 0  187 1 0  189 1 0  191 1 0  193 1 0  195 1 0  197 1 0  199 1 0  201 1 0  203 1 0  205 1 0  207 1 0  209 1 0  211 1 0  213 1 0  215 1 0  217 1 0  219 1 0  221 1 0  223 1 0  225 1 0  227 1 0  229 1 0  231 1 0  233 1 0  235 1 0  237 1 0  239 1 0  241 1 0  243 1 0  245 1 0  247 1 0  249 1 0  251 1 0  253 1 0  255 1 0  257 1 0  259 1 0  261 1 0  263 1 0  265 1 0  267 1 0  269 1 0  271 1 0  273 1 0  275 1 0  277 1 0  279 1 0  281 1 0  283 1 0  285 1 0  287 1 0  289 1 0  291 1 0  293 1 0  295 1 0  297 1 0  299 1 0  1 3 0  3 3 0  5 3 0  7 3 0  9 3 0  11 3 0  13 3 0  15 3 0  17 3 0  19 3 0  21 3 0  23 3 0  25 3 0  27 3 0  29 3 0  31 3 0  33 3 0  35 3 0  37 3 0  39 3 0  41 3 0  43 3 0  45 3 0  47 3 0  49 3 0  51 3 0  53 3 0  55 3 0  57 3 0  59 3 0  61 3 0  63 3 0  65 3 0  67 3 0  69 3 0  71 3 0  73 3 0  75 3 0  77 3 0  79 3 0  81 3 0  83 3 0  85 3 0  87 3 0  89 3 0  91 3 0  93 3 0  95 3 0  97 3 0  99 3 0  101 3 0  103 3 0  105 3 0  107 3 0  109 3 0  111 3 0  113 3 0  115 3 0  117 3 0  119 3 0  121 3 0  123 3 0  125 3 0
[...]
<PointData  Vectors="displacement"> 
<DataArray  type="Float64"  Name="displacement"  NumberOfComponents="3" format="ascii">-3.6845933205562053e-20 -2.2569491535787910e-36 0.0000000000000000e+00  -1.8737199572176744e-04 2.2569491535787920e-36 0.0000000000000000e+00  -3.7157536958305282e-04 4.3925169120615575e-37 0.0000000000000000e+00  -5.5264436280722039e-04 -1.4105932209867450e-36 0.0000000000000000e+00  -7.3061320346454292e-04 -2.5085291816516789e-38 0.0000000000000000e+00  -9.0551609990481043e-04 2.3980084756774665e-36 0.0000000000000000e+00  -1.0773872342009043e-03 -4.8665466124042703e-36 0.0000000000000000e+00  -1.2462607556069870e-03 0.0000000000000000e+00 0.0000000000000000e+00  -1.4121707740349244e-03 2.2999335169964112e-36 0.0000000000000000e+00  -1.5751513535525506e-03 -3.5264830524668625e-36 0.0000000000000000e+00  -1.7352365059073610e-03 8.3389665030181848e-36 0.0000000000000000e+00  -1.8924601840791849e-03 3.3854237303681880e-36 0.0000000000000000e+00  -2.0468562758653810e-03 1.1268204017493214e-35 0.0000000000000000e+00  -2.1984585975020335e-03 3.3854237303681880e-36 0.0000000000000000e+00  -2.3473008873246314e-03 -3.2090995777448449e-36 0.0000000000000000e+00  -2.4934167994716278e-03 5.0781355955522820e-36 0.0000000000000000e+00  -2.6368398976342757e-03 -2.6807462994056131e-36 0.0000000000000000e+00  -2.7776036488560605e-03 -1.3541694921472752e-35 0.0000000000000000e+00  -2.9157414173850071e-03 2.7245387658168201e-35 0.0000000000000000e+00  -3.0512864585821222e-03 -2.1441016958998524e-35 0.0000000000000000e+00  -3.1842719128890723e-03 1.5813913383113772e-35 0.0000000000000000e+00  -3.3147307998583030e-03 -6.7708474607363760e-36 0.0000000000000000e+00  -3.4426960122485566e-03 2.9622457640721645e-36 0.0000000000000000e+00  -3.5682003101888699e-03 0.0000000000000000e+00 0.0000000000000000e+00  -3.6912763154138654e-03 -2.2571371796564929e-35 0.0000000000000000e+00  -3.8119565055732764e-03 -5.6423728839469800e-36 0.0000000000000000e+00  -3.9302732086184192e-03 -3.6477059073954109e-37 0.0000000000000000e+00  -4.0462585972683186e-03 -1.3541694921472752e-35 0.0000000000000000e+00  -4.1599446835581593e-03 5.5751152174824056e-36 0.0000000000000000e+00  -4.2713633134724913e-03 2.9058220352326947e-35 0.0000000000000000e+00  -4.3805461616657805e-03 -1.3047987294127391e-35 0.0000000000000000e+00  -4.4875247262725348e-03 -2.2569491535787920e-36 0.0000000000000000e+00  -4.5923303238094154e-03 -5.6914812054491827e-38 0.0000000000000000e+00  -4.6949940841714451e-03 5.1345593243917518e-35 0.0000000000000000e+00  -4.7955469457244080e-03 -1.1041473538571441e-35 0.0000000000000000e+00  -4.8940196504955397e-03 1.0156271191104564e-35 0.0000000000000000e+00  -4.9904427394642939e-03 1.5753563260772587e-35 0.0000000000000000e+00  -5.0848465479551514e-03 1.4864126066147826e-35 0.0000000000000000e+00  -5.1772612011340086e-03 -8.7456779701178191e-36 0.0000000000000000e+00  -5.2677166096099818e-03 2.2569491535787920e-36 0.0000000000000000e+00  -5.3562424651439414e-03 -1.8120449444208263e-35 0.0000000000000000e+00  -5.4428682364653759e-03 2.2569491535787920e-35 0.0000000000000000e+00  -5.5276231651987659e-03 -1.2582105822117902e-35 0.0000000000000000e+00  -5.6105362619007513e-03 1.3541694921472752e-35 0.0000000000000000e+00  -5.6916363022092393e-03 -1.7776383024063889e-35 0.0000000000000000e+00  -5.7709518231053702e-03 4.5138983071575840e-36 0.0000000000000000e+00  -5.8485111192893117e-03 5.4166779685891008e-35 0.0000000000000000e+00  -5.9243422396706730e-03 -1.8055593228630336e-35 0.0000000000000000e+00  -5.9984729839742228e-03 -2.9427592185451314e-35 0.0000000000000000e+00  -6.0709308994615317e-03 -4.0625084764418256e-35 0.0000000000000000e+00  -6.1417432777689275e-03 -1.6927118651840940e-35 0.0000000000000000e+00  -6.2109371518623020e-03 3.3854237303681880e-36 0.0000000000000000e+00  -6.2785392931089239e-03 -4.3902896228443132e-36 0.0000000000000000e+00  -6.3445762084664500e-03 -1.8055593228630336e-35 0.0000000000000000e+00  -6.4090741377892391e-03 2.3980084756774665e-35 0.0000000000000000e+00  -6.4720590512519086e-03 -5.4166779685891008e-35 0.0000000000000000e+00  -6.5335566468900340e-03 5.4023175479115294e-35 0.0000000000000000e+00  -6.5935923482576472e-03 -6.0937627146627384e-35 0.0000000000000000e+00  -6.6521913022013473e-03 -2.7859216114488214e-35 0.0000000000000000e+00  -6.7093783767504713e-03 1.8055593228630336e-35 0.0000000000000000e+00  -6.7651781591228140e-03 3.1635824975212520e-35 0.0000000000000000e+00  -6.8196149538452908e-03 -2.2569491535787920e-35 0.0000000000000000e+00  -6.8727127809887888e-03 7.4761440712297486e-36 0.0000000000000000e+00  -6.9244953745163660e-03 1.5798644075051544e-35 0.0000000000000000e+00  -6.9749861807439553e-03 -4.8702612078100937e-35 0.0000000000000000e+00  -7.0242083569124376e-03 5.1909830532312216e-35 0.0000000000000000e+00  -7.0721847698700779e-03 -3.4571823574440430e-35 0.0000000000000000e+00  -7.1189379948641916e-03 -2.4826440689366712e-35 0.0000000000000000e+00  -7.1644903144405395e-03 2.2872696367309297e-35 0.0000000000000000e+00  -7.2088637174494057e-03 -2.8211864419734900e-35 0.0000000000000000e+00  -7.2520798981566253e-03 4.0907203408615605e-36 0.0000000000000000e+00  -7.2941602554582778e-03 5.6423728839469800e-36 0.0000000000000000e+00  -7.3351258921972671e-03 -9.0423426765272853e-36 0.0000000000000000e+00  -7.3749976145802455e-03 -2.7083389842945504e-35 0.0000000000000000e+00  -7.4137959316930378e-03 -2.8219360691507720e-36 0.0000000000000000e+00  -7.4515410551128074e-03 9.0277966143151681e-36 0.0000000000000000e+00  -7.4882528986150790e-03 4.4877223504794791e-35 0.0000000000000000e+00  -7.5239510779736033e-03 4.5138983071575840e-36 0.0000000000000000e+00  -7.5586549108510731e-03 -5.0781355955522820e-35 0.0000000000000000e+00  -7.5923834167787169e-03 -2.2569491535787920e-35 0.0000000000000000e+00  -7.6251553172223784e-03 -1.0557863082014972e-37 0.0000000000000000e+00  -7.6569890357332041e-03 1.3541694921472752e-35 0.0000000000000000e+00  -7.6879026981804145e-03 -2.0482254379109096e-35 0.0000000000000000e+00  -7.7179141330640140e-03 -4.9652881378733424e-35 0.0000000000000000e+00  -7.7470408719050830e-03 7.8527870034313444e-38 0.0000000000000000e+00  -7.7753001497111477e-03 -2.7083389842945504e-35 0.0000000000000000e+00  -7.8027089055143486e-03 1.5234406786656846e-35 0.0000000000000000e+00  -7.8292837829798158e-03 1.8055593228630336e-35 0.0000000000000000e+00  -7.8550411310817272e-03 -5.4395362116596587e-35 0.0000000000000000e+00  -7.8799970048446417e-03 1.1284745767893960e-34 0.0000000000000000e+00  -7.9041671661473252e-03 -4.4344991556882407e-35 0.0000000000000000e+00  -7.9275670845866467e-03 2.1441016958998524e-35 0.0000000000000000e+00  -7.9502119383987758e-03 -1.3436991094760336e-35 0.0000000000000000e+00  -7.9721166154350671e-03 1.8055593228630336e-35 0.0000000000000000e+00  -7.9932957141899911e-03 2.0312542382209128e-35 0.0000000000000000e+00  -8.0137635448783405e-03 -6.3194576300206176e-35 0.0000000000000000e+00  -8.0335341305590412e-03 4.4986841869645936e-35 0.0000000000000000e+00  -8.0526212083029073e-03 -1.0833355937178202e-34 0.0000000000000000e+00  -8.0710382304013620e-03 -2.9515393174401291e-35 0.0000000000000000e+00  -8.0887983656137731e-03 2.2569491535787920e-36 0.0000000000000000e+00  -8.1059145004502772e-03 9.0975991654567799e-36 0.0000000000000000e+00  -8.1223992404875819e-03 7.2222372914521344e-35 0.0000000000000000e+00  -8.1382649117149024e-03 1.3541694921472752e-35 0.0000000000000000e+00  -8.1535235619073533e-03 4.3333423748712807e-34 0.0000000000000000e+00  -8.1681869620239805e-03 -5.7058671104228573e-34 0.0000000000000000e+00  -8.1822666076277854e-03 -1.1555579666323415e-33 0.0000000000000000e+00  -8.1957737203249628e-03 1.3953008211337056e-33 0.0000000000000000e+00  -8.2087192492207497e-03 2.3111159332646830e-33 0.0000000000000000e+00  -8.2211138723890867e-03 2.3706807769055252e-33 0.0000000000000000e+00  -8.2329679983534979e-03 -9.2444637330587321e-33 0.0000000000000000e+00  -8.2442917675765604e-03 1.1555579666323415e-32 0.0000000000000000e+00  -8.2550950539553060e-03 -2.3111159332646830e-32 0.0000000000000000e+00  -8.2653874663200216e-03 2.9037861274910575e-34 0.0000000000000000e+00  -8.2751783499338313e-03 -3.6977854932234928e-32 0.0000000000000000e+00  -8.2844767879905849e-03 5.6333450873326649e-32 0.0000000000000000e+00  -8.2932916031085782e-03 -1.4791141972893971e-31 0.0000000000000000e+00  -8.3016313588176356e-03 3.0420956944251000e-31 0.0000000000000000e+00  -8.3095043610372232e-03 1.1832913578315177e-30 0.0000000000000000e+00  -8.3169186595432702e-03 1.6270256170183368e-30 0.0000000000000000e+00  -8.3238820494215167e-03 -1.1832913578315177e-30 0.0000000000000000e+00  -8.3304020725054016e-03 2.4780881029586918e-30 0.0000000000000000e+00  -8.3364860187966402e-03 -7.0997481469891062e-30 0.0000000000000000e+00  -8.3421409278672323e-03 2.1632045135357433e-29 0.0000000000000000e+00  -8.3473735902421138e-03 9.4663308626521417e-30 0.0000000000000000e+00  -8.3521905487628015e-03 1.1442549419030552e-28 0.0000000000000000e+00  -8.3565980999345604e-03 -3.7865323450608567e-29 0.0000000000000000e+00  -8.3606022952619451e-03 1.6092762466508641e-28 0.0000000000000000e+00  -8.3642089425834208e-03 9.0876776281460560e-28 0.0000000000000000e+00  -8.3674236074230569e-03 -1.1393753899119945e-29 0.0000000000000000e+00  -8.3702516143903706e-03 3.0292258760486853e-28 0.0000000000000000e+00  -8.3726980486780143e-03 -2.2103882564292751e-27 0.0000000000000000e+00  -8.3747677577340560e-03 4.8467614016778965e-27 0.0000000000000000e+00  -8.3764653532196042e-03 -1.4565267511227905e-26 0.0000000000000000e+00  -8.3777952133958170e-03 9.6935228033557931e-27 0.0000000000000000e+00  -8.3787614860894831e-03 -4.8467614016778965e-27 0.0000000000000000e+00  -8.3793680922894763e-03 0.0000000000000000e+00 0.0000000000000000e+00  -8.3796187300492833e-03 -1.8153885227531460e-26 0.0000000000000000e+00  -8.3795168773097908e-03 -3.8774091213423172e-26 0.0000000000000000e+00  -8.3790657896553496e-03 2.3923311356094492e-25 0.0000000000000000e+00  -8.3782684831376283e-03 -4.6528909456107807e-25 0.0000000000000000e+00  -8.3771276798474403e-03 -2.8620875576093809e-25 0.0000000000000000e+00  -8.3756456690126935e-03 1.2407709188295415e-24 0.0000000000000000e+00  -8.3738239890650407e-03 4.6528909456107807e-24 0.0000000000000000e+00  -8.3716627466339025e-03 -4.9630836753181660e-24 0.0000000000000000e+00  -8.3691591885872545e-03 1.4994512379936957e-23 0.0000000000000000e+00  -8.3663044711576717e-03 2.2333876538931747e-23 0.0000000000000000e+00  -8.3630743676067158e-03 2.0420702672597161e-23 0.0000000000000000e+00  -8.3593948513649499e-03 4.9630836753181660e-23 0.0000000000000000e+00  -8.3550134846869344e-03 8.7474349777482677e-23 0.0000000000000000e+00  -8.3493246043254872e-03 1.1911400820763599e-22 0.0000000000000000e+00  -8.3414524223946445e-03 0.0000000000000000e+00 0.0000000000000000e+00  2.5410988417629010e-20 4.5138983071575840e-36 0.0000000000000000e+00  -1.8737199572176744e-04 4.1247005618123379e-20 0.0000000000000000e+00  -3.7157536958305293e-04 2.8614927086624571e-20 0.0000000000000000e+00  -5.5264436280722006e-04 2.6716406744355952e-20 0.0000000000000000e+00  -7.3061320346454281e-04 1.8189893953604048e-20 0.0000000000000000e+00  -9.0551609990480923e-04 7.9580786047017676e-20 0.0000000000000000e+00  -1.0773872342009034e-03 -6.2527760465513840e-21 0.0000000000000000e+00  -1.2462607556069866e-03 -2.9558577674606562e-20 0.0000000000000000e+00  -1.4121707740349240e-03 -3.9539024430361324e-20 0.0000000000000000e+00  -1.5751513535525515e-03 -1.0572875860532347e-19 0.0000000000000000e+00  -1.7352365059073618e-03 1.3073986279152899e-20 0.0000000000000000e+00  -1.8924601840791858e-03 9.7689403123260922e-20 0.0000000000000000e+00  -2.0468562758653788e-03 1.4040324395438112e-19 0.0000000000000000e+00  -2.1984585975020339e-03 1.2732925767522830e-19 0.0000000000000000e+00  -2.3473008873246305e-03 7.8443917674917459e-20 0.0000000000000000e+00  -2.4934167994716274e-03 9.0949469768020104e-21 0.0000000000000000e+00  -2.6368398976342753e-03 -3.5318745692214648e-20 0.0000000000000000e+00  -2.7776036488560566e-03 -4.2064129767709357e-20 0.0000000000000000e+00  -2.9157414173850067e-03 -2.3646862139685269e-19 0.0000000000000000e+00  -3.0512864585821200e-03 -1.5964057729661661e-19 0.0000000000000000e+00  -3.1842719128890732e-03 1.1141310046582473e-19 0.0000000000000000e+00  -3.3147307998582982e-03 1.6825651907083741e-19 0.0000000000000000e+00  -3.4426960122485527e-03 2.2907897697820083e-19 0.0000000000000000e+00  -3.5682003101888704e-03 1.3642420465203016e-20 0.0000000000000000e+00  -3.6912763154138620e-03 -1.8410398349795630e-19 0.0000000000000000e+00  -3.8119565055732729e-03 -1.9099388651284243e-19 0.0000000000000000e+00  -3.9302732086184157e-03 -7.0047332980235007e-20 0.0000000000000000e+00  -4.0462585972683169e-03 -1.5002445260085183e-19 0.0000000000000000e+00  -4.1599446835581567e-03 -1.6029844046613556e-19 0.0000000000000000e+00  -4.2713633134724930e-03 1.0118128511692247e-19 0.0000000000000000e+00  -4.3805461616657788e-03 2.1600499069904802e-20 0.0000000000000000e+00  -4.4875247262725314e-03 -6.8212102326015108e-21 0.0000000000000000e+00  -4.5923303238094154e-03 9.4127489750897592e-20 0.0000000000000000e+00  -4.6949940841714416e-03 3.4278258915428361e-19 0.0000000000000000e+00  -4.7955469457244063e-03 5.4001247674762014e-20 0.0000000000000000e+00  -4.8940196504955328e-03 2.4363868955677197e-20 0.0000000000000000e+00  -4.9904427394642939e-03 1.3471890209387990e-19 0.0000000000000000e+00  -5.0848465479551470e-03 1.2050804744262673e-19 0.0000000000000000e+00  -5.1772612011340051e-03 -1.9895196511754411e-21 0.0000000000000000e+00  -5.2677166096099801e-03 -1.7962520279183997e-19 0.0000000000000000e+00  -5.3562424651439405e-03 -2.8133903107977631e-19 0.0000000000000000e+00  -5.4428682364653777e-03 -1.4949819093118325e-19 0.0000000000000000e+00  -5.5276231651987650e-03 -3.0638602628101812e-19 0.0000000000000000e+00  -5.6105362619007478e-03 -3.6934350969146786e-19 0.0000000000000000e+00  -5.6916363022092393e-03 -4.8885340000310819e-20 0.0000000000000000e+00  -5.7709518231053667e-03 2.2509993767584996e-19 0.0000000000000000e+00  -5.8485111192893091e-03 3.2912339372302309e-19 0.0000000000000000e+00  -5.9243422396706678e-03 1.7166712418713819e-19 0.0000000000000000e+00  -5.9984729839742262e-03 -4.4952448769164815e-19 0.0000000000000000e+00  -6.0709308994615274e-03 -1.2391865255892752e-19 0.0000000000000000e+00  -6.1417432777689258e-03 -1.5404566441958436e-19 0.0000000000000000e+00  -6.2109371518623002e-03 -3.0638602628101826e-19 0.0000000000000000e+00  -6.2785392931089283e-03 -1.0913936372162427e-19 0.0000000000000000e+00  -6.3445762084664466e-03 1.4551915162883231e-19 0.0000000000000000e+00  -6.4090741377892339e-03 8.5549345000544032e-20 0.0000000000000000e+00  -6.4720590512519095e-03 -2.5693225209465697e-19 0.0000000000000000e+00  -6.5335566468900331e-03 1.7136541362685947e-19 0.0000000000000000e+00  -6.5935923482576455e-03 1.4551915162883236e-19 0.0000000000000000e+00  -6.6521913022013464e-03 3.7243767471559851e-20 0.0000000000000000e+00  -6.7093783767504722e-03 9.7084174474045117e-20 0.0000000000000000e+00  -6.7651781591228132e-03 3.2741809116487269e-19 0.0000000000000000e+00  -6.8196149538452848e-03 1.3130829697757917e-19 0.0000000000000000e+00  -6.8727127809887819e-03 1.7962520279183987e-19 0.0000000000000000e+00  -6.9244953745163677e-03 9.0381035581970037e-20 0.0000000000000000e+00  -6.9749861807439544e-03 -1.7731326955846302e-19 0.0000000000000000e+00  -7.0242083569124333e-03 1.1965539616355151e-19 0.0000000000000000e+00  -7.0721847698700857e-03 -1.8644641302444134e-19 0.0000000000000000e+00  -7.1189379948641846e-03 -1.9842055196744841e-19 0.0000000000000000e+00  -7.1644903144405378e-03 -2.2538415476887528e-19 0.0000000000000000e+00  -7.2088637174493988e-03 -2.6147972558305753e-20 0.0000000000000000e+00  -7.2520798981566244e-03 -2.6005864011793267e-20 0.0000000000000000e+00  -7.2941602554582718e-03 -1.6825651907083741e-19 0.0000000000000000e+00  -7.3351258921972714e-03 -1.2406337894526631e-19 0.0000000000000000e+00  -7.3749976145802429e-03 -2.2708945732702535e-19 0.0000000000000000e+00  -7.4137959316930265e-03 -3.0013325023446660e-19 0.0000000000000000e+00  -7.4515410551128022e-03 -5.6207610962767206e-19 0.0000000000000000e+00  -7.4882528986150755e-03 -2.3902657523407803e-19 0.0000000000000000e+00  -7.5239510779735990e-03 -1.4551915162883238e-19 0.0000000000000000e+00  -7.5586549108510740e-03 -4.2561509680503220e-19 0.0000000000000000e+00  -7.5923834167787108e-03 -1.8758328139654138e-20 0.0000000000000000e+00  -7.6251553172223784e-03 -4.4364915680410509e-19 0.0000000000000000e+00  -7.6569890357331988e-03 -5.0931703070091321e-19 0.0000000000000000e+00  -7.6879026981804101e-03 -4.7293724279370500e-19 0.0000000000000000e+00  -7.7179141330640088e-03 -2.1302571185679090e-19 0.0000000000000000e+00  -7.7470408719050744e-03 3.4930280732780253e-19 0.0000000000000000e+00  -7.7753001497111434e-03 7.3725913930701359e-19 0.0000000000000000e+00  -7.8027089055143417e-03 7.6539663151649519e-19 0.0000000000000000e+00  -7.8292837829798123e-03 5.0334847174738691e-19 0.0000000000000000e+00  -7.8550411310817289e-03 5.1673651208755677e-19 0.0000000000000000e+00  -7.8799970048446313e-03 1.0922605679263221e-18 0.0000000000000000e+00  -7.9041671661473235e-03 3.5832670003134877e-19 0.0000000000000000e+00  -7.9275670845866415e-03 -6.4544641332309200e-20 0.0000000000000000e+00  -7.9502119383987671e-03 7.2191141628366077e-20 0.0000000000000000e+00  -7.9721166154350636e-03 3.9875658151416358e-19 0.0000000000000000e+00  -7.9932957141899894e-03 2.6382451660051485e-19 0.0000000000000000e+00  -8.0137635448783301e-03 -4.1836756093289292e-19 0.0000000000000000e+00  -8.0335341305590498e-03 -7.9812218204880404e-19 0.0000000000000000e+00  -8.0526212083029004e-03 -7.1921135389992207e-19 0.0000000000000000e+00  -8.0710382304013620e-03 -5.2764903320102970e-19 0.0000000000000000e+00  -8.0887983656137783e-03 9.3010043692451864e-20 0.0000000000000000e+00  -8.1059145004502790e-03 2.3973711796664082e-19 0.0000000000000000e+00  -8.1223992404875749e-03 9.3677953861060835e-19 0.0000000000000000e+00  -8.1382649117148938e-03 1.2389023084962506e-18 0.0000000000000000e+00  -8.1535235619073533e-03 2.3297275115264412e-18 0.0000000000000000e+00  -8.1681869620239770e-03 3.8540923747909417e-18 0.0000000000000000e+00  -8.1822666076277733e-03 6.8015281989095298e-18 0.0000000000000000e+00  -8.1957737203249507e-03 1.3139214102002152e-17 0.0000000000000000e+00  -8.2087192492207427e-03 2.4073215306387159e-17 0.0000000000000000e+00  -8.2211138723890746e-03 4.4492480610515497e-17 0.0000000000000000e+00  -8.2329679983534649e-03 8.2291080246104688e-17 0.0000000000000000e+00  -8.2442917675765118e-03 1.5113826566648429e-16 0.0000000000000000e+00  -8.2550950539552314e-03 2.7721668391530935e-16 0.0000000000000000e+00  -8.2653874663198915e-03 5.1034625551309375e-16 0.0000000000000000e+00  -8.2751783499335832e-03 9.3830748970271078e-16 0.0000000000000000e+00  -8.2844767879901304e-03 1.7248173914114242e-15 0.0000000000000000e+00  -8.2932916031077612e-03 3.1668175344271948e-15 0.0000000000000000e+00  -8.3016313588161472e-03 5.8117074979643992e-15 0.0000000000000000e+00  -8.3095043610345257e-03 1.0658863468290340e-14 0.0000000000000000e+00  -8.3169186595383783e-03 1.9536896279439863e-14 0.0000000000000000e+00  -8.3238820494127060e-03 3.5783811450595552e-14 0.0000000000000000e+00  -8.3304020724895029e-03 6.5493087227362663e-14 0.0000000000000000e+00  -8.3364860187680363e-03 1.1977614035987139e-13 0.0000000000000000e+00  -8.3421409278158533e-03 2.1887337781395915e-13 0.0000000000000000e+00  -8.3473735901499722e-03 3.9961344535045774e-13 0.0000000000000000e+00  -8.3521905485980531e-03 7.2893184706209141e-13 0.0000000000000000e+00  -8.3565980996407295e-03 1.3283344983160891e-12 0.0000000000000000e+00  -8.3606022947395105e-03 2.4180951117434912e-12 0.0000000000000000e+00  -8.3642089416576769