<?xml version="1.0"?>
<VTKFile type="UnstructuredGrid"  version="0.1"  >
<UnstructuredGrid>
<Piece  NumberOfPoints="1656" NumberOfCells="3000">
<Points>
<DataArray  type="Float64"  NumberOfComponents="3"  format="ascii">0 0 0  2 0 0  4 0 0  6 0 0  8 0 0  10 0 0  12 0 0  14 0 0  16 0 0  18 0 0  20 0 0  22 0 0  24 0 0  26 0 0  28 0 0  30 0 0  32 0 0  34 0 0  36 0 0  38 0 0  40 0 0  42 0 0  44 0 0  46 0 0  48 0 0  50 0 0  52 0 0  54 0 0  56 0 0  58 0 0  60 0 0  62 0 0  64 0 0  66 0 0  68 0 0  70 0 0  72 0 0  74 0 0  76 0 0  78 0 0  80 0 0  82 0 0  84 0 0  86 0 0  88 0 0  90 0 0  92 0 0  94 0 0  96 0 0  98 0 0  100 0 0  102 0 0  104 0 0  106 0 0  108 0 0  110 0 0  112 0 0  114 0 0  116 0 0  118 0 0  120 0 0  122 0 0  124 0 0  126 0 0  128 0 0  130 0 0  132 0 0  134 0 0  136 0 0  138 0 0  140 0 0  142 0 0  144 0 0  146 0 0  148 0 0  150 0 0  152 0 0  154 0 0  156 0 0  158 0 0  160 0 0  162 0 0  164 0 0  166 0 0  168 0 0  170 0 0  172 0 0  174 0 0  176 0 0  178 0 0  180 0 0  182 0 0  184 0 0  186 0 0  188 0 0  190 0 0  192 0 0  194 0 0  196 0 0  198 0 0  200 0 0  202 0 0  204 0 0  206 0 0  208 0 0  210 0 0  212 0 0  214 0 0  216 0 0  218 0 0  220 0 0  222 0 0  224 0 0  226 0 0  228 0 0  230 0 0  232 0 0  234 0 0  236 0 0  238 0 0  240 0 0  242 0 0  244 0 0  246 0 0  248 0 0  250 0 0  252 0 0  254 0 0  256 0 0  258 0 0  260 0 0  262 0 0  264 0 0  266 0 0  268 0 0  270 0 0  272 0 0  274 0 0  276 0 0  278 0 0  280 0 0  282 0 0  284 0 0  286 0 0  288 0 0  290 0 0  292 0 0  294 0 0  296 0 0  298 0 0  300 0 0  0 2 0  2 2 0  4 2 0  6 2 0  8 2 0  10 2 0  12 2 0  14 2 0  16 2 0  18 2 0  20 2 0  22 2 0  24 2 0  26 2 0  28 2 0  30 2 0  32 2 0  34 2 0  36 2 0  38 2 0  40 2 0  42 2 0  44 2 0  46 2 0  48 2 0  50 2 0  52 2 0  54 2 0  56 2 0  58 2 0  60 2 0  62 2 0  64 2 0  66 2 0  68 2 0  70 2 0  72 2 0  74 2 0  76 2 0  78 2 0  80 2 0  82 2 0  84 2 0  86 2 0  88 2 0  90 2 0  92 2 0  94 2 0  96 2 0  98 2 0  100 2 0  102 2 0  104 2 0  106 2 0  108 2 0  110 2 0  112 2 0  114 2 0  116 2 0  118 2 0  120 2 0  122 2 0  124 2 0  126 2 0  128 2 0  130 2 0  132 2 0  134 2 0  136 2 0  138 2 0  140 2 0  142 2 0  144 2 0  146 2 0  148 2 0  150 2 0  152 2 0  154 2 0  156 2 0  158 2 0  160 2 0  162 2 0  164 2 0  166 2 0  168 2 0  170 2 0  172 2 0  174 2 0  176 2 0  178 2 0  180 2 0  182 2 0  184 2 0  186 2 0  188 2 0  190 2 0  192 2 0  194 2 0  196 2 0  198 2 0  200 2 0  202 2 0  204 2 0  206 2 0  208 2 0  210 2 0  212 2 0  214 2 0  216 2 0  218 2 0  220 2 0  222 2 0  224 2 0  226 2 0  228 2 0  230 2 0  232 2 0  234 2 0  236 2 0  238 2 0  240 2 0  242 2 0  244 2 0  246 2 0  248 2 0  250 2 0  252 2 0  254 2 0  256 2 0  258 2 0  260 2 0  262 2 0  264 2 0  266 2 0  268 2 0  270 2 0  272 2 0  274 2 0  276 2 0  278 2 0  280 2 0  282 2 0  284 2 0  286 2 0  288 2 0  290 2 0  292 2 0  294 2 0  296 2 0  298 2 0  300 2 0  0 4 0  2 4 0  4 4 0  6 4 0  8 4 0  10 4 0  12 4 0  14 4 0  16 4 0  18 4 0  20 4 0  22 4 0  24 4 0  26 4 0  28 4 0  30 4 0  32 4 0  34 4 0  36 4 0  38 4 0  40 4 0  42 4 0  44 4 0  46 4 0  48 4 0  50 4 0  52 4 0  54 4 0  56 4 0  58 4 0  60 4 0  62 4 0  64 4 0  66 4 0  68 4 0  70 4 0  72 4 0  74 4 0  76 4 0  78 4 0  80 4 0  82 4 0  84 4 0  86 4 0  88 4 0  90 4 0  92 4 0  94 4 0  96 4 0  98 4 0  100 4 0  102 4 0  104 4 0  106 4 0  108 4 0  110 4 0  112 4 0  114 4 0  116 4 0  118 4 0  120 4 0  122 4 0  124 4 0  126 4 0  128 4 0  130 4 0  132 4 0  134 4 0  136 4 0  138 4 0  140 4 0  142 4 0  144 4 0  146 4 0  148 4 0  150 4 0  152 4 0  154 4 0  156 4 0  158 4 0  160 4 0  162 4 0  164 4 0  166 4 0  168 4 0  170 4 0  172 4 0  174 4 0  176 4 0  178 4 0  180 4 0  182 4 0  184 4 0  186 4 0  188 4 0  190 4 0  192 4 0  194 4 0  196 4 0  198 4 0  200 4 0  202 4 0  204 4 0  206 4 0  208 4 0  210 4 0  212 4 0  214 4 0  216 4 0  218 4 0  220 4 0  222 4 0  224 4 0  226 4 0  228 4 0  230 4 0  232 4 0  234 4 0  236 4 0  238 4 0  240 4 0  242 4 0  244 4 0  246 4 0  248 4 0  250 4 0  252 4 0  254 4 0  256 4 0  258 4 0  260 4 0  262 4 0  264 4 0  266 4 0  268 4 0  270 4 0  272 4 0  274 4 0  276 4 0  278 4 0  280 4 0  282 4 0  284 4 0  286 4 0  288 4 0  290 4 0  292 4 0  294 4 0  296 4 0  298 4 0  300 4 0  0 6 0  2 6 0  4 6 0  6 6 0  8 6 0  10 6 0  12 6 0  14 6 0  16 6 0  18 6 0  20 6 0  22 6 0  24 6 0  26 6 0  28 6 0  30 6 0  32 6 0  34 6 0  36 6 0  38 6 0  40 6 0  42 6 0  44 6 0  46 6 0  48 6 0  50 6 0  52 6 0  54 6 0  56 6 0  58 6 0  60 6 0  62 6 0  64 6 0  66 6 0  68 6 0  70 6 0  72 6 0  74 6 0  76 6 0  78 6 0  80 6 0  82 6 0  84 6 0  86 6 0  88 6 0  90 6 0  92 6 0  94 6 0  96 6 0  98 6 0  100 6 0  102 6 0  104 6 0  106 6 0  108 6 0  110 6 0  112 6 0  114 6 0  116 6 0  118 6 0  120 6 0  122 6 0  124 6 0  126 6 0  128 6 0  130 6 0  132 6 0  134 6 0  136 6 0  138 6 0  140 6 0  142 6 0  144 6 0  146 6 0  148 6 0  150 6 0  152 6 0  154 6 0  156 6 0  158 6 0  160 6 0  162 6 0  164 6 0  166 6 0  168 6 0  170 6 0  172 6 0  174 6 0  176 6 0  178 6 0  180 6 0  182 6 0  184 6 0  186 6 0  188 6 0  190 6 0  192 6 0  194 6 0  196 6 0  198 6 0  200 6 0  202 6 0  204 6 0  206 6 0  208 6 0  210 6 0  212 6 0  214 6 0  216 6 0  218 6 0  220 6 0  222 6 0  224 6 0  226 6 0  228 6 0  230 6 0  232 6 0  234 6 0  236 6 0  238 6 0  240 6 0  242 6 0  244 6 0  246 6 0  248 6 0  250 6 0  252 6 0  254 6 0  256 6 0  258 6 0  260 6 0  262 6 0  264 6 0  266 6 0  268 6 0  270 6 0  272 6 0  274 6 0  276 6 0  278 6 0  280 6 0  282 6 0  284 6 0  286 6 0  288 6 0  290 6 0  292 6 0  294 6 0  296 6 0  298 6 0  300 6 0  0 8 0  2 8 0  4 8 0  6 8 0  8 8 0  10 8 0  12 8 0  14 8 0  16 8 0  18 8 0  20 8 0  22 8 0  24 8 0  26 8 0  28 8 0  30 8 0  32 8 0  34 8 0  36 8 0  38 8 0  40 8 0  42 8 0  44 8 0  46 8 0  48 8 0  50 8 0  52 8 0  54 8 0  56 8 0  58 8 0  60 8 0  62 8 0  64 8 0  66 8 0  68 8 0  70 8 0  72 8 0  74 8 0  76 8 0  78 8 0  80 8 0  82 8 0  84 8 0  86 8 0  88 8 0  90 8 0  92 8 0  94 8 0  96 8 0  98 8 0  100 8 0  102 8 0  104 8 0  106 8 0  108 8 0  110 8 0  112 8 0  114 8 0  116 8 0  118 8 0  120 8 0  122 8 0  124 8 0  126 8 0  128 8 0  130 8 0  132 8 0  134 8 0  136 8 0  138 8 0  140 8 0  142 8 0  144 8 0  146 8 0  148 8 0  150 8 0  152 8 0  154 8 0  156 8 0  158 8 0  160 8 0  162 8 0  164 8 0  166 8 0  168 8 0  170 8 0  172 8 0  174 8 0  176 8 0  178 8 0  180 8 0  182 8 0  184 8 0  186 8 0  188 8 0  190 8 0  192 8 0  194 8 0  196 8 0  198 8 0  200 8 0  202 8 0  204 8 0  206 8 0  208 8 0  210 8 0  212 8 0  214 8 0  216 8 0  218 8 0  220 8 0  222 8 0  224 8 0  226 8 0  228 8 0  230 8 0  232 8 0  234 8 0  236 8 0  238 8 0  240 8 0  242 8 0  244 8 0  246 8 0  248 8 0  250 8 0  252 8 0  254 8 0  256 8 0  258 8 0  260 8 0  262 8 0  264 8 0  266 8 0  268 8 0  270 8 0  272 8 0  274 8 0  276 8 0  278 8 0  280 8 0  282 8 0  284 8 0  286 8 0  288 8 0  290 8 0  292 8 0  294 8 0  296 8 0  298 8 0  300 8 0  0 10 0  2 10 0  4 10 0  6 10 0  8 10 0  10 10 0  12 10 0  14 10 0  16 10 0  18 10 0  20 10 0  22 10 0  24 10 0  26 10 0  28 10 0  30 10 0  32 10 0  34 10 0  36 10 0  38 10 0  40 10 0  42 10 0  44 10 0  46 10 0  48 10 0  50 10 0  52 10 0  54 10 0  56 10 0  58 10 0  60 10 0  62 10 0  64 10 0  66 10 0  68 10 0  70 10 0  72 10 0  74 10 0  76 10 0  78 10 0  80 10 0  82 10 0  84 10 0  86 10 0  88 10 0  90 10 0  92 10 0  94 10 0  96 10 0  98 10 0  100 10 0  102 10 0  104 10 0  106 10 0  108 10 0  110 10 0  112 10 0  114 10 0  116 10 0  118 10 0  120 10 0  122 10 0  124 10 0  126 10 0  128 10 0  130 10 0  132 10 0  134 10 0  136 10 0  138 10 0  140 10 0  142 10 0  144 10 0  146 10 0  148 10 0  150 10 0  152 10 0  154 10 0  156 10 0  158 10 0  160 10 0  162 10 0  164 10 0  166 10 0  168 10 0  170 10 0  172 10 0  174 10 0  176 10 0  178 10 0  180 10 0  182 10 0  184 10 0  186 10 0  188 10 0  190 10 0  192 10 0  194 10 0  196 10 0  198 10 0  200 10 0  202 10 0  204 10 0  206 10 0  208 10 0  210 10 0  212 10 0  214 10 0  216 10 0  218 10 0  220 10 0  222 10 0  224 10 0  226 10 0  228 10 0  230 10 0  232 10 0  234 10 0  236 10 0  238 10 0  240 10 0  242 10 0  244 10 0  246 10 0  248 10 0  250 10 0  252 10 0  254 10 0  256 10 0  258 10 0  260 10 0  262 10 0  264 10 0  266 10 0  268 10 0  270 10 0  272 10 0  274 10 0  276 10 0  278 10 0  280 10 0  282 10 0  284 10 0  286 10 0  288 10 0  290 10 0  292 10 0  294 10 0  296 10 0  298 10 0  300 10 0  1 1 0  3 1 0  5 1 0  7 1 0  9 1 0  11 1 0  13 1 0  15 1 0  17 1 0  19 1 0  21 1 0  23 1 0  25 1 0  27 1 0  29 1 0  31 1 0  33 1 0  35 1 0  37 1 0  39 1 0  41 1 0  43 1 0  45 1 0  47 1 0  49 1 0  51 1 0  53 1 0  55 1 0  57 1 0  59 1 0  61 1 0  63 1 0  65 1 0  67 1 0  69 1 0  71 1 0  73 1 0  75 1 0  77 1 0  79 1 0  81 1 0  83 1 0  85 1 0  87 1 0  89 1 0  91 1 0  93 1 0  95 1 0  97 1 0  99 1 0  101 1 0  103 1 0  105 1 0  107 1 0  109 1 0  111 1 0  113 1 0  115 1 0  117 1 0  119 1 0  121 1 0  123 1 0  125 1 0  127 1 0  129 1 0  131 1 0  133 1 0  135 1 0  137 1 0  139 1 0  141 1 0  143 1 0  145 1 0  147 1 0  149 1 0  151 1 0  153 1 0  155 1 0  157 1 0  159 1 0  161 1 0  163 1 0  165 1 0  167 1 0  169 1 0  171 1 0  173 1 0  175 1 0  177 1 0  179 1 0  181 1 0  183 1 0  185 1 0  187 1 0  189 1 0  191 1 0  193 1 0  195 1 0  197 1 0  199 1 0  201 1 0  203 1 0  205 1 0  207 1 0  209 1 0  211 1 0  213 1 0  215 1 0  217 1 0  219 1 0  221 1 0  223 1 0  225 1 0  227 1 0  229 1 0  231 1 0  233 1 0  235 1 0  237 1 0  239 1 0  241 1 0  243 1 0  245 1 0  247 1 0  249 1 0  251 1 0  253 1 0  255 1 0  257 1 0  259 1 0  261 1 0  263 1 0  265 1 0  267 1 0  269 1 0  271 1 0  273 1 0  275 1 0  277 1 0  279 1 0  281 1 0  283 1 0  285 1 0  287 1 0  289 1 0  291 1 0  293 1 0  295 1 0  297 1 0  299 1 0  1 3 0  3 3 0  5 3 0  7 3 0  9 3 0  11 3 0  13 3 0  15 3 0  17 3 0  19 3 0  21 3 0  23 3 0  25 3 0  27 3 0  29 3 0  31 3 0  33 3 0  35 3 0  37 3 0  39 3 0  41 3 0  43 3 0  45 3 0  47 3 0  49 3 0  51 3 0  53 3 0  55 3 0  57 3 0  59 3 0  61 3 0  63 3 0  65 3 0  67 3 0  69 3 0  71 3 0  73 3 0  75 3 0  77 3 0  79 3 0  81 3 0  83 3 0  85 3 0  87 3 0  89 3 0  91 3 0  93 3 0  95 3 0  97 3 0  99 3 0  101 3 0  103 3 0  105 3 0  107 3 0  109 3 0  111 3 0  113 3 0  115 3 0  117 3 0  119 3 0  121 3 0  123 3 0  125 3 0
[...]
<PointData  Vectors="displacement"> 
<DataArray  type="Float64"  Name="displacement"  NumberOfComponents="3" format="ascii">7.6232965252887015e-21 -1.1848983056288654e-35 0.0000000000000000e+00  -2.3759371040696988e-04 1.1284745767893960e-35 0.0000000000000000e+00  -4.7201104201072112e-04 3.2490650154832974e-36 0.0000000000000000e+00  -7.0327848223335199e-04 3.9496610187628860e-36 0.0000000000000000e+00  -9.3142251162406722e-04 -1.1314080108233745e-35 0.0000000000000000e+00  -1.1564696004250246e-03 1.6080762719248893e-35 0.0000000000000000e+00  -1.3784462051399235e-03 -5.6908620259183994e-36 0.0000000000000000e+00  -1.5973787651062620e-03 2.0806250009554489e-36 0.0000000000000000e+00  -1.8132936990721601e-03 6.7576882894534207e-36 0.0000000000000000e+00  -2.0262174017786601e-03 -1.4811228820360823e-35 0.0000000000000000e+00  -2.2361762405484127e-03 -2.5528792288932419e-36 0.0000000000000000e+00  -2.4431965518816453e-03 2.4826440689366712e-35 0.0000000000000000e+00  -2.6473046380602891e-03 2.2672741142684886e-35 0.0000000000000000e+00  -2.8485267637612028e-03 -3.3854237303681880e-36 0.0000000000000000e+00  -3.0468891526792942e-03 2.0030423738011779e-35 0.0000000000000000e+00  -3.2424179841615119e-03 -2.2569491535787920e-36 0.0000000000000000e+00  -3.4351393898524839e-03 2.1848289396063063e-36 0.0000000000000000e+00  -3.6250794503527349e-03 4.5138983071575840e-36 0.0000000000000000e+00  -3.8122641918902720e-03 -1.3991321510662277e-35 0.0000000000000000e+00  -3.9967195830064384e-03 -4.2882033917997048e-35 0.0000000000000000e+00  -4.1784715312568211e-03 4.0456395265826020e-36 0.0000000000000000e+00  -4.3575458799280653e-03 0.0000000000000000e+00 0.0000000000000000e+00  -4.5339684047713685e-03 1.8619830517025034e-35 0.0000000000000000e+00  -4.7077648107535291e-03 -1.6927118651840940e-35 0.0000000000000000e+00  -4.8789607288262076e-03 -2.4583188341955724e-36 0.0000000000000000e+00  -5.0475817127143465e-03 -6.7708474607363760e-36 0.0000000000000000e+00  -5.2136532357243406e-03 -3.9065718039655566e-35 0.0000000000000000e+00  -5.3772006875728367e-03 3.6111186457260672e-35 0.0000000000000000e+00  -5.5382493712367812e-03 -5.9794337705468093e-35 0.0000000000000000e+00  -5.6968244998256085e-03 3.8368135610839464e-35 0.0000000000000000e+00  -5.8529511934760307e-03 2.8740836877604930e-36 0.0000000000000000e+00  -6.0066544762703619e-03 5.0781355955522820e-36 0.0000000000000000e+00  -6.1579592731788937e-03 -1.3493773834116743e-35 0.0000000000000000e+00  -6.3068904070270326e-03 1.1284745767893960e-36 0.0000000000000000e+00  -6.4534725954878561e-03 9.2966909470657663e-36 0.0000000000000000e+00  -6.5977304481006785e-03 1.5798644075051544e-35 0.0000000000000000e+00  -6.7396884633162558e-03 1.7869453092252704e-35 0.0000000000000000e+00  -6.8793710255692329e-03 1.9184067805419732e-35 0.0000000000000000e+00  -7.0168024023783450e-03 -3.6111186457260672e-35 0.0000000000000000e+00  -7.1520067414750157e-03 4.5138983071575840e-36 0.0000000000000000e+00  -7.2850080679608114e-03 -4.9929982680540166e-35 0.0000000000000000e+00  -7.4158302814942914e-03 4.9652881378733424e-35 0.0000000000000000e+00  -7.5444971535078148e-03 -5.3757652550507158e-35 0.0000000000000000e+00  -7.6710323244546449e-03 -6.9965423760942552e-35 0.0000000000000000e+00  -7.7954593010869603e-03 -3.6206437855172667e-35 0.0000000000000000e+00  -7.9178014537650936e-03 7.2222372914521344e-35 0.0000000000000000e+00  -8.0380820137985146e-03 -1.8478771194926360e-35 0.0000000000000000e+00  -8.1563240708188503e-03 3.3854237303681880e-35 0.0000000000000000e+00  -8.2725505701854406e-03 -4.9191530142281831e-35 0.0000000000000000e+00  -8.3867843104237019e-03 -2.2569491535787920e-36 0.0000000000000000e+00  -8.4990479406966274e-03 -1.9959894076962442e-35 0.0000000000000000e+00  -8.6093639583098569e-03 1.1284745767893960e-36 0.0000000000000000e+00  -8.7177547062504673e-03 -4.5931532870996231e-36 0.0000000000000000e+00  -8.8242423707598546e-03 5.6423728839469800e-35 0.0000000000000000e+00  -8.9288489789409176e-03 -1.5375466108755521e-35 0.0000000000000000e+00  -9.0315963963998637e-03 -3.4982711880471276e-35 0.0000000000000000e+00  -9.1325063249226429e-03 2.4730053182223902e-35 0.0000000000000000e+00  -9.2316003001865331e-03 -3.6111186457260672e-35 0.0000000000000000e+00  -9.3288996895067103e-03 -1.8699176385705539e-35 0.0000000000000000e+00  -9.4244256896181631e-03 2.7083389842945504e-35 0.0000000000000000e+00  -9.5181993244930745e-03 8.4948250519526505e-36 0.0000000000000000e+00  -9.6102414431936678e-03 -2.0312542382209128e-35 0.0000000000000000e+00  -9.7005727177606801e-03 6.0655508502430035e-36 0.0000000000000000e+00  -9.7892136411376254e-03 2.7083389842945504e-35 0.0000000000000000e+00  -9.8761845251307025e-03 -2.9230852941557590e-35 0.0000000000000000e+00  -9.9615054984045180e-03 6.7708474607363760e-36 0.0000000000000000e+00  -1.0045196504513628e-02 2.1240294663540891e-35 0.0000000000000000e+00  -1.0127277299969841e-02 -4.5138983071575840e-35 0.0000000000000000e+00  -1.0207767452345272e-02 3.3966939339379273e-35 0.0000000000000000e+00  -1.0286686338411156e-02 6.2066101723416780e-36 0.0000000000000000e+00  -1.0364053142312243e-02 2.1864194925294548e-35 0.0000000000000000e+00  -1.0439886853776803e-02 -5.6423728839469800e-35 0.0000000000000000e+00  -1.0514206266362109e-02 7.2155342689255919e-35 0.0000000000000000e+00  -1.0587029975735233e-02 -7.6736271221678929e-35 0.0000000000000000e+00  -1.0658376377989061e-02 -1.3003863701492400e-35 0.0000000000000000e+00  -1.0728263667993416e-02 -9.9305762757466849e-35 0.0000000000000000e+00  -1.0796709837780964e-02 8.5551751742938362e-35 0.0000000000000000e+00  -1.0863732674967961e-02 1.8055593228630336e-35 0.0000000000000000e+00  -1.0929349761209340e-02 -4.1189322052812954e-35 0.0000000000000000e+00  -1.0993578470688270e-02 -2.7083389842945504e-35 0.0000000000000000e+00  -1.1056435968639542e-02 2.6555508049937064e-35 0.0000000000000000e+00  -1.1117939209906972e-02 9.0277966143151681e-36 0.0000000000000000e+00  -1.1178104937534152e-02 -1.0240906784363769e-34 0.0000000000000000e+00  -1.1236949681388636e-02 -6.7708474607363760e-35 0.0000000000000000e+00  -1.1294489756818918e-02 1.7741481748493037e-37 0.0000000000000000e+00  -1.1350741263344248e-02 9.9305762757466849e-35 0.0000000000000000e+00  -1.1405720083376650e-02 3.4418474592076578e-35 0.0000000000000000e+00  -1.1459441880975084e-02 4.5138983071575840e-35 0.0000000000000000e+00  -1.1511922100631188e-02 -2.1660052603071494e-34 0.0000000000000000e+00  -1.1563175966086442e-02 2.4375050858650954e-34 0.0000000000000000e+00  -1.1613218479180258e-02 1.2918986292723813e-35 0.0000000000000000e+00  -1.1662064418728619e-02 2.4826440689366712e-35 0.0000000000000000e+00  -1.1709728339433090e-02 -3.5945405398299340e-35 0.0000000000000000e+00  -1.1756224570819488e-02 -2.7083389842945504e-35 0.0000000000000000e+00  -1.1801567216206073e-02 3.2161525438497786e-35 0.0000000000000000e+00  -1.1845770151700755e-02 -9.0277966143151681e-36 0.0000000000000000e+00  -1.1888847025226898e-02 5.4230971138206871e-35 0.0000000000000000e+00  -1.1930811255577340e-02 -7.2222372914521344e-35 0.0000000000000000e+00  -1.1971676031496169e-02 1.2453141749277978e-35 0.0000000000000000e+00  -1.2011454310787727e-02 -7.2222372914521344e-35 0.0000000000000000e+00  -1.2050158819452775e-02 3.6367129144779918e-35 0.0000000000000000e+00  -1.2087802050850773e-02 7.2222372914521344e-35 0.0000000000000000e+00  -1.2124396264888430e-02 4.9652881378733424e-35 0.0000000000000000e+00  -1.2159953487233682e-02 -7.2222372914521344e-35 0.0000000000000000e+00  -1.2194485508554837e-02 7.8784732285290361e-36 0.0000000000000000e+00  -1.2228003883784332e-02 -1.1555579666323415e-33 0.0000000000000000e+00  -1.2260519931406691e-02 1.5284238063346368e-33 0.0000000000000000e+00  -1.2292044732770232e-02 3.4666738998970245e-33 0.0000000000000000e+00  -1.2322589131422097e-02 8.9347265461263298e-35 0.0000000000000000e+00  -1.2352163732465993e-02 1.1555579666323415e-33 0.0000000000000000e+00  -1.2380778901942436e-02 1.7333369499485123e-32 0.0000000000000000e+00  -1.2408444766230800e-02 9.2444637330587321e-33 0.0000000000000000e+00  -1.2435171211472924e-02 -7.6540824078482220e-34 0.0000000000000000e+00  -1.2460967883017655e-02 1.4791141972893971e-31 0.0000000000000000e+00  -1.2485844184885950e-02 -1.4848919871225588e-31 0.0000000000000000e+00  -1.2509809279256255e-02 5.9164567891575885e-31 0.0000000000000000e+00  -1.2532872085969430e-02 4.5097734417354559e-31 0.0000000000000000e+00  -1.2555041282053129e-02 -7.3955709864469857e-31 0.0000000000000000e+00  -1.2576325301265068e-02 1.4051584874249273e-30 0.0000000000000000e+00  -1.2596732333655034e-02 1.1832913578315177e-30 0.0000000000000000e+00  -1.2616270325145331e-02 -9.4510822626800864e-30 0.0000000000000000e+00  -1.2634946977129680e-02 2.1299244440967319e-29 0.0000000000000000e+00  -1.2652769746090996e-02 2.9582283945787943e-30 0.0000000000000000e+00  -1.2669745843238725e-02 5.6797985175912850e-29 0.0000000000000000e+00  -1.2685882234167500e-02 -5.6797985175912850e-29 0.0000000000000000e+00  -1.2701185638540613e-02 1.8932661725304283e-29 0.0000000000000000e+00  -1.2715662529803867e-02 0.0000000000000000e+00 0.0000000000000000e+00  -1.2729319134940065e-02 1.5146129380243427e-28 0.0000000000000000e+00  -1.2742161434281120e-02 -1.4419076133575817e-28 0.0000000000000000e+00  -1.2754195161405146e-02 0.0000000000000000e+00 0.0000000000000000e+00  -1.2765425803162558e-02 1.4104832985351691e-27 0.0000000000000000e+00  -1.2775858599897964e-02 2.4233807008389483e-27 0.0000000000000000e+00  -1.2785498545963198e-02 -8.1258203396687435e-27 0.0000000000000000e+00  -1.2794350390646617e-02 1.4540284205033690e-26 0.0000000000000000e+00  -1.2802418639646370e-02 6.9066349973910026e-26 0.0000000000000000e+00  -1.2809707557134028e-02 -7.7548182426846345e-26 0.0000000000000000e+00  -1.2816221168131151e-02 1.1797702731147704e-25 0.0000000000000000e+00  -1.2821963260014876e-02 -1.9387045606711586e-25 0.0000000000000000e+00  -1.2826937379742567e-02 3.2102221221425943e-25 0.0000000000000000e+00  -1.2831146818359203e-02 2.3264454728053903e-25 0.0000000000000000e+00  -1.2834594563698001e-02 2.7981302937521806e-26 0.0000000000000000e+00  -1.2837283180889766e-02 -1.8611563782443123e-24 0.0000000000000000e+00  -1.2839214539813418e-02 5.4283727698792441e-24 0.0000000000000000e+00  -1.2840389232098752e-02 -3.1019272970738538e-24 0.0000000000000000e+00  -1.2840805349407285e-02 -2.7755018593488492e-25 0.0000000000000000e+00  -1.2840455720044027e-02 1.9852334701272664e-23 0.0000000000000000e+00  -1.2839319962581724e-02 -5.3844736071367811e-23 0.0000000000000000e+00  -1.2837335056657632e-02 5.9557004103817993e-23 0.0000000000000000e+00  -1.2834285373420219e-02 6.2658931400891846e-23 0.0000000000000000e+00  -1.2829653204151189e-02 1.9852334701272664e-22 0.0000000000000000e+00  -1.2822689833236079e-02 -7.9409338805090680e-23 0.0000000000000000e+00  1.0164395367051604e-20 1.1284745767893960e-35 0.0000000000000000e+00  -2.3759371040696985e-04 9.1016424740528077e-20 0.0000000000000000e+00  -4.7201104201072085e-04 4.8224555332038409e-20 0.0000000000000000e+00  -7.0327848223335231e-04 6.4801497209714404e-20 0.0000000000000000e+00  -9.3142251162406711e-04 6.3664628837614163e-20 0.0000000000000000e+00  -1.1564696004250240e-03 9.5496943256421178e-20 0.0000000000000000e+00  -1.3784462051399243e-03 2.3874235814105313e-20 0.0000000000000000e+00  -1.5973787651062622e-03 4.5474734884010105e-21 0.0000000000000000e+00  -1.8132936990721594e-03 -3.8851214951134914e-21 0.0000000000000000e+00  -2.0262174017786606e-03 -6.3664628837614127e-20 0.0000000000000000e+00  -2.2361762405484140e-03 4.5474734884010127e-21 0.0000000000000000e+00  -2.4431965518816432e-03 1.1022267885165910e-19 0.0000000000000000e+00  -2.6473046380602896e-03 2.5153212732718101e-19 0.0000000000000000e+00  -2.8485267637611972e-03 2.4783730511785523e-19 0.0000000000000000e+00  -3.0468891526792908e-03 1.2391865255892752e-19 0.0000000000000000e+00  -3.2424179841615093e-03 -1.3642420465203037e-20 0.0000000000000000e+00  -3.4351393898524817e-03 9.2768933899676237e-20 0.0000000000000000e+00  -3.6250794503527315e-03 1.3528733627993003e-19 0.0000000000000000e+00  -3.8122641918902707e-03 -2.9103830325766491e-19 0.0000000000000000e+00  -3.9967195830064341e-03 -3.0067678349228564e-19 0.0000000000000000e+00  -4.1784715312568228e-03 4.5474734884010082e-20 0.0000000000000000e+00  -4.3575458799280618e-03 4.0927261395609062e-20 0.0000000000000000e+00  -4.5339684047713694e-03 1.6427747976848654e-19 0.0000000000000000e+00  -4.7077648107535274e-03 -1.5916157209403533e-19 0.0000000000000000e+00  -4.8789607288262033e-03 -1.2337632249559096e-19 0.0000000000000000e+00  -5.0475817127143439e-03 -2.2623680604795026e-19 0.0000000000000000e+00  -5.2136532357243467e-03 -1.9226628688660354e-19 0.0000000000000000e+00  -5.3772006875728315e-03 -2.6590040781042851e-19 0.0000000000000000e+00  -5.5382493712367838e-03 -4.2064129767709343e-19 0.0000000000000000e+00  -5.6968244998256068e-03 -6.4801497209714440e-20 0.0000000000000000e+00  -5.8529511934760324e-03 8.5833562093569083e-20 0.0000000000000000e+00  -6.0066544762703636e-03 7.5033312558616674e-20 0.0000000000000000e+00  -6.1579592731788937e-03 2.1645713515527479e-20 0.0000000000000000e+00  -6.3068904070270318e-03 1.5504505247817350e-19 0.0000000000000000e+00  -6.4534725954878526e-03 4.9169557093335942e-20 0.0000000000000000e+00  -6.5977304481006690e-03 6.8700247007995288e-20 0.0000000000000000e+00  -6.7396884633162497e-03 2.0492052407107055e-19 0.0000000000000000e+00  -6.8793710255692225e-03 1.7735146604763943e-19 0.0000000000000000e+00  -7.0168024023783459e-03 -1.3983480976833107e-19 0.0000000000000000e+00  -7.1520067414750149e-03 -4.3655745488649717e-19 0.0000000000000000e+00  -7.2850080679608036e-03 -3.9300609757948695e-19 0.0000000000000000e+00  -7.4158302814942914e-03 6.8212102326015057e-20 0.0000000000000000e+00  -7.5444971535078079e-03 -5.5933923907332427e-19 0.0000000000000000e+00  -7.6710323244546423e-03 -5.9574723083288758e-19 0.0000000000000000e+00  -7.7954593010869594e-03 -1.2050804744262668e-19 0.0000000000000000e+00  -7.9178014537650918e-03 3.6607161581628116e-19 0.0000000000000000e+00  -8.0380820137985094e-03 6.3437255163194110e-19 0.0000000000000000e+00  -8.1563240708188468e-03 2.2737367442005047e-19 0.0000000000000000e+00  -8.2725505701854423e-03 -1.9268952376939690e-19 0.0000000000000000e+00  -8.3867843104236898e-03 -5.1159076744511410e-20 0.0000000000000000e+00  -8.4990479406966291e-03 -2.3192114790845153e-19 0.0000000000000000e+00  -8.6093639583098534e-03 -2.9331204000186503e-19 0.0000000000000000e+00  -8.7177547062504638e-03 -1.0913936372162417e-19 0.0000000000000000e+00  -8.8242423707598425e-03 4.3655745488649698e-19 0.0000000000000000e+00  -8.9288489789409158e-03 2.6602719907145919e-19 0.0000000000000000e+00  -9.0315963963998585e-03 -2.8990143488556442e-19 0.0000000000000000e+00  -9.1325063249226394e-03 8.9641683160259245e-20 0.0000000000000000e+00  -9.2316003001865349e-03 -1.4551915162883233e-19 0.0000000000000000e+00  -9.3288996895067033e-03 5.5606433424046237e-20 0.0000000000000000e+00  -9.4244256896181631e-03 1.9663276568091530e-19 0.0000000000000000e+00  -9.5181993244930745e-03 3.6379787907208090e-19 0.0000000000000000e+00  -9.6102414431936574e-03 3.5242919535107818e-20 0.0000000000000000e+00  -9.7005727177606731e-03 1.7848833441973964e-19 0.0000000000000000e+00  -9.7892136411376236e-03 1.7735146604763936e-19 0.0000000000000000e+00  -9.8761845251306990e-03 -1.7702895746268263e-19 0.0000000000000000e+00  -9.9615054984045180e-03 1.0970779790767440e-19 0.0000000000000000e+00  -1.0045196504513618e-02 -2.1373125395484752e-19 0.0000000000000000e+00  -1.0127277299969836e-02 -4.1629238161626016e-19 0.0000000000000000e+00  -1.0207767452345272e-02 -3.8184566447917256e-19 0.0000000000000000e+00  -1.0286686338411153e-02 1.4551915162883231e-19 0.0000000000000000e+00  -1.0364053142312243e-02 -5.3148596395686836e-20 0.0000000000000000e+00  -1.0439886853776803e-02 -3.5925040558367974e-19 0.0000000000000000e+00  -1.0514206266362104e-02 1.4206109895872272e-19 0.0000000000000000e+00  -1.0587029975735227e-02 -2.5977442302490758e-19 0.0000000000000000e+00  -1.0658376377989066e-02 -4.5474734884010132e-19 0.0000000000000000e+00  -1.0728263667993405e-02 -9.8204732034437195e-19 0.0000000000000000e+00  -1.0796709837780969e-02 -5.2807535884056703e-19 0.0000000000000000e+00  -1.0863732674967954e-02 -4.3655745488649698e-19 0.0000000000000000e+00  -1.0929349761209349e-02 -8.7908346872652035e-19 0.0000000000000000e+00  -1.0993578470688267e-02 -4.2746250790969481e-19 0.0000000000000000e+00  -1.1056435968639547e-02 -4.4257035264661049e-19 0.0000000000000000e+00  -1.1117939209906958e-02 -7.2759575814416189e-19 0.0000000000000000e+00  -1.1178104937534145e-02 -6.3664628837614160e-19 0.0000000000000000e+00  -1.1236949681388627e-02 -3.0942701171020726e-19 0.0000000000000000e+00  -1.1294489756818921e-02 4.4678927023539931e-19 0.0000000000000000e+00  -1.1350741263344236e-02 9.2370555233145546e-19 0.0000000000000000e+00  -1.1405720083376654e-02 1.0231815348902274e-18 0.0000000000000000e+00  -1.1459441880975078e-02 9.1972651302910402e-19 0.0000000000000000e+00  -1.1511922100631185e-02 6.8949783717956290e-19 0.0000000000000000e+00  -1.1563175966086440e-02 1.4022234558637713e-18 0.0000000000000000e+00  -1.1613218479180251e-02 5.3219650668943091e-19 0.0000000000000000e+00  -1.1662064418728611e-02 3.4071258605963875e-20 0.0000000000000000e+00  -1.1709728339433087e-02 2.1948665008860506e-19 0.0000000000000000e+00  -1.1756224570819478e-02 1.0618350595416361e-18 0.0000000000000000e+00  -1.1801567216206069e-02 5.2438053663124153e-19 0.0000000000000000e+00  -1.1845770151700748e-02 -3.2230218349042152e-19 0.0000000000000000e+00  -1.1888847025226888e-02 -5.4481110368058158e-19 0.0000000000000000e+00  -1.1930811255577344e-02 -7.2674310686508637e-19 0.0000000000000000e+00  -1.1971676031496157e-02 -7.4521721791171608e-19 0.0000000000000000e+00  -1.2011454310787735e-02 -9.2370555233145433e-20 0.0000000000000000e+00  -1.2050158819452780e-02 1.9696244546636872e-19 0.0000000000000000e+00  -1.2087802050850768e-02 8.5606188419149020e-19 0.0000000000000000e+00  -1.2124396264888425e-02 1.1509371182049934e-18 0.0000000000000000e+00  -1.2159953487233675e-02 1.8917489711748200e-18 0.0000000000000000e+00  -1.2194485508554828e-02 3.6125141629796799e-18 0.0000000000000000e+00  -1.2228003883784318e-02 6.0012439192242111e-18 0.0000000000000000e+00  -1.2260519931406682e-02 1.1374368062863018e-17 0.0000000000000000e+00  -1.2292044732770223e-02 2.0662144417647958e-17 0.0000000000000000e+00  -1.2322589131422078e-02 3.7980498575125234e-17 0.0000000000000000e+00  -1.2352163732465980e-02 7.0867826843241362e-17 0.0000000000000000e+00  -1.2380778901942398e-02 1.2986561101338396e-16 0.0000000000000000e+00  -1.2408444766230736e-02 2.3731558833406720e-16 0.0000000000000000e+00  -1.2435171211472813e-02 4.3648308384797320e-16 0.0000000000000000e+00  -1.2460967883017423e-02 8.0253812123301046e-16 0.0000000000000000e+00  -1.2485844184885558e-02 1.4765259620901598e-15 0.0000000000000000e+00  -1.2509809279255549e-02 2.7105492329151865e-15 0.0000000000000000e+00  -1.2532872085968150e-02 4.9742811601283767e-15 0.0000000000000000e+00  -1.2555041282050821e-02 9.1229253074394113e-15 0.0000000000000000e+00  -1.2576325301260884e-02 1.6721564715353454e-14 0.0000000000000000e+00  -1.2596732333647501e-02 3.0626207636457894e-14 0.0000000000000000e+00  -1.2616270325131719e-02 5.6051168065132411e-14 0.0000000000000000e+00  -1.2634946977105196e-02 1.0250582132500437e-13 0.0000000000000000e+00  -1.2652769746047015e-02 1.8730931885623303e-13 0.0000000000000000e+00  -1.2669745843159854e-02 3.4197484123174362e-13 0.0000000000000000e+00  -1.2685882234026483e-02 6.2377447898464335e-13 0.0000000000000000e+00  -1.2701185638289123e-02 1.1366711552804883e-12 0.0000000000000000e+00  -1.2715662529356709e-02 2.0691260844045006e-12 0.0000000000000000e+00  -1.2729319134147751e-02 3.76229