<?xml version="1.0"?>
<VTKFile type="UnstructuredGrid"  version="0.1"  >
<UnstructuredGrid>
<Piece  NumberOfPoints="1656" NumberOfCells="3000">
<Points>
<DataArray  type="Float64"  NumberOfComponents="3"  format="ascii">0 0 0  2 0 0  4 0 0  6 0 0  8 0 0  10 0 0  12 0 0  14 0 0  16 0 0  18 0 0  20 0 0  22 0 0  24 0 0  26 0 0  28 0 0  30 0 0  32 0 0  34 0 0  36 0 0  38 0 0  40 0 0  42 0 0  44 0 0  46 0 0  48 0 0  50 0 0  52 0 0  54 0 0  56 0 0  58 0 0  60 0 0  62 0 0  64 0 0  66 0 0  68 0 0  70 0 0  72 0 0  74 0 0  76 0 0  78 0 0  80 0 0  82 0 0  84 0 0  86 0 0  88 0 0  90 0 0  92 0 0  94 0 0  96 0 0  98 0 0  100 0 0  102 0 0  104 0 0  106 0 0  108 0 0  110 0 0  112 0 0  114 0 0  116 0 0  118 0 0  120 0 0  122 0 0  124 0 0  126 0 0  128 0 0  130 0 0  132 0 0  134 0 0  136 0 0  138 0 0  140 0 0  142 0 0  144 0 0  146 0 0  148 0 0  150 0 0  152 0 0  154 0 0  156 0 0  158 0 0  160 0 0  162 0 0  164 0 0  166 0 0  168 0 0  170 0 0  172 0 0  174 0 0  176 0 0  178 0 0  180 0 0  182 0 0  184 0 0  186 0 0  188 0 0  190 0 0  192 0 0  194 0 0  196 0 0  198 0 0  200 0 0  202 0 0  204 0 0  206 0 0  208 0 0  210 0 0  212 0 0  214 0 0  216 0 0  218 0 0  220 0 0  222 0 0  224 0 0  226 0 0  228 0 0  230 0 0  232 0 0  234 0 0  236 0 0  238 0 0  240 0 0  242 0 0  244 0 0  246 0 0  248 0 0  250 0 0  252 0 0  254 0 0  256 0 0  258 0 0  260 0 0  262 0 0  264 0 0  266 0 0  268 0 0  270 0 0  272 0 0  274 0 0  276 0 0  278 0 0  280 0 0  282 0 0  284 0 0  286 0 0  288 0 0  290 0 0  292 0 0  294 0 0  296 0 0  298 0 0  300 0 0  0 2 0  2 2 0  4 2 0  6 2 0  8 2 0  10 2 0  12 2 0  14 2 0  16 2 0  18 2 0  20 2 0  22 2 0  24 2 0  26 2 0  28 2 0  30 2 0  32 2 0  34 2 0  36 2 0  38 2 0  40 2 0  42 2 0  44 2 0  46 2 0  48 2 0  50 2 0  52 2 0  54 2 0  56 2 0  58 2 0  60 2 0  62 2 0  64 2 0  66 2 0  68 2 0  70 2 0  72 2 0  74 2 0  76 2 0  78 2 0  80 2 0  82 2 0  84 2 0  86 2 0  88 2 0  90 2 0  92 2 0  94 2 0  96 2 0  98 2 0  100 2 0  102 2 0  104 2 0  106 2 0  108 2 0  110 2 0  112 2 0  114 2 0  116 2 0  118 2 0  120 2 0  122 2 0  124 2 0  126 2 0  128 2 0  130 2 0  132 2 0  134 2 0  136 2 0  138 2 0  140 2 0  142 2 0  144 2 0  146 2 0  148 2 0  150 2 0  152 2 0  154 2 0  156 2 0  158 2 0  160 2 0  162 2 0  164 2 0  166 2 0  168 2 0  170 2 0  172 2 0  174 2 0  176 2 0  178 2 0  180 2 0  182 2 0  184 2 0  186 2 0  188 2 0  190 2 0  192 2 0  194 2 0  196 2 0  198 2 0  200 2 0  202 2 0  204 2 0  206 2 0  208 2 0  210 2 0  212 2 0  214 2 0  216 2 0  218 2 0  220 2 0  222 2 0  224 2 0  226 2 0  228 2 0  230 2 0  232 2 0  234 2 0  236 2 0  238 2 0  240 2 0  242 2 0  244 2 0  246 2 0  248 2 0  250 2 0  252 2 0  254 2 0  256 2 0  258 2 0  260 2 0  262 2 0  264 2 0  266 2 0  268 2 0  270 2 0  272 2 0  274 2 0  276 2 0  278 2 0  280 2 0  282 2 0  284 2 0  286 2 0  288 2 0  290 2 0  292 2 0  294 2 0  296 2 0  298 2 0  300 2 0  0 4 0  2 4 0  4 4 0  6 4 0  8 4 0  10 4 0  12 4 0  14 4 0  16 4 0  18 4 0  20 4 0  22 4 0  24 4 0  26 4 0  28 4 0  30 4 0  32 4 0  34 4 0  36 4 0  38 4 0  40 4 0  42 4 0  44 4 0  46 4 0  48 4 0  50 4 0  52 4 0  54 4 0  56 4 0  58 4 0  60 4 0  62 4 0  64 4 0  66 4 0  68 4 0  70 4 0  72 4 0  74 4 0  76 4 0  78 4 0  80 4 0  82 4 0  84 4 0  86 4 0  88 4 0  90 4 0  92 4 0  94 4 0  96 4 0  98 4 0  100 4 0  102 4 0  104 4 0  106 4 0  108 4 0  110 4 0  112 4 0  114 4 0  116 4 0  118 4 0  120 4 0  122 4 0  124 4 0  126 4 0  128 4 0  130 4 0  132 4 0  134 4 0  136 4 0  138 4 0  140 4 0  142 4 0  144 4 0  146 4 0  148 4 0  150 4 0  152 4 0  154 4 0  156 4 0  158 4 0  160 4 0  162 4 0  164 4 0  166 4 0  168 4 0  170 4 0  172 4 0  174 4 0  176 4 0  178 4 0  180 4 0  182 4 0  184 4 0  186 4 0  188 4 0  190 4 0  192 4 0  194 4 0  196 4 0  198 4 0  200 4 0  202 4 0  204 4 0  206 4 0  208 4 0  210 4 0  212 4 0  214 4 0  216 4 0  218 4 0  220 4 0  222 4 0  224 4 0  226 4 0  228 4 0  230 4 0  232 4 0  234 4 0  236 4 0  238 4 0  240 4 0  242 4 0  244 4 0  246 4 0  248 4 0  250 4 0  252 4 0  254 4 0  256 4 0  258 4 0  260 4 0  262 4 0  264 4 0  266 4 0  268 4 0  270 4 0  272 4 0  274 4 0  276 4 0  278 4 0  280 4 0  282 4 0  284 4 0  286 4 0  288 4 0  290 4 0  292 4 0  294 4 0  296 4 0  298 4 0  300 4 0  0 6 0  2 6 0  4 6 0  6 6 0  8 6 0  10 6 0  12 6 0  14 6 0  16 6 0  18 6 0  20 6 0  22 6 0  24 6 0  26 6 0  28 6 0  30 6 0  32 6 0  34 6 0  36 6 0  38 6 0  40 6 0  42 6 0  44 6 0  46 6 0  48 6 0  50 6 0  52 6 0  54 6 0  56 6 0  58 6 0  60 6 0  62 6 0  64 6 0  66 6 0  68 6 0  70 6 0  72 6 0  74 6 0  76 6 0  78 6 0  80 6 0  82 6 0  84 6 0  86 6 0  88 6 0  90 6 0  92 6 0  94 6 0  96 6 0  98 6 0  100 6 0  102 6 0  104 6 0  106 6 0  108 6 0  110 6 0  112 6 0  114 6 0  116 6 0  118 6 0  120 6 0  122 6 0  124 6 0  126 6 0  128 6 0  130 6 0  132 6 0  134 6 0  136 6 0  138 6 0  140 6 0  142 6 0  144 6 0  146 6 0  148 6 0  150 6 0  152 6 0  154 6 0  156 6 0  158 6 0  160 6 0  162 6 0  164 6 0  166 6 0  168 6 0  170 6 0  172 6 0  174 6 0  176 6 0  178 6 0  180 6 0  182 6 0  184 6 0  186 6 0  188 6 0  190 6 0  192 6 0  194 6 0  196 6 0  198 6 0  200 6 0  202 6 0  204 6 0  206 6 0  208 6 0  210 6 0  212 6 0  214 6 0  216 6 0  218 6 0  220 6 0  222 6 0  224 6 0  226 6 0  228 6 0  230 6 0  232 6 0  234 6 0  236 6 0  238 6 0  240 6 0  242 6 0  244 6 0  246 6 0  248 6 0  250 6 0  252 6 0  254 6 0  256 6 0  258 6 0  260 6 0  262 6 0  264 6 0  266 6 0  268 6 0  270 6 0  272 6 0  274 6 0  276 6 0  278 6 0  280 6 0  282 6 0  284 6 0  286 6 0  288 6 0  290 6 0  292 6 0  294 6 0  296 6 0  298 6 0  300 6 0  0 8 0  2 8 0  4 8 0  6 8 0  8 8 0  10 8 0  12 8 0  14 8 0  16 8 0  18 8 0  20 8 0  22 8 0  24 8 0  26 8 0  28 8 0  30 8 0  32 8 0  34 8 0  36 8 0  38 8 0  40 8 0  42 8 0  44 8 0  46 8 0  48 8 0  50 8 0  52 8 0  54 8 0  56 8 0  58 8 0  60 8 0  62 8 0  64 8 0  66 8 0  68 8 0  70 8 0  72 8 0  74 8 0  76 8 0  78 8 0  80 8 0  82 8 0  84 8 0  86 8 0  88 8 0  90 8 0  92 8 0  94 8 0  96 8 0  98 8 0  100 8 0  102 8 0  104 8 0  106 8 0  108 8 0  110 8 0  112 8 0  114 8 0  116 8 0  118 8 0  120 8 0  122 8 0  124 8 0  126 8 0  128 8 0  130 8 0  132 8 0  134 8 0  136 8 0  138 8 0  140 8 0  142 8 0  144 8 0  146 8 0  148 8 0  150 8 0  152 8 0  154 8 0  156 8 0  158 8 0  160 8 0  162 8 0  164 8 0  166 8 0  168 8 0  170 8 0  172 8 0  174 8 0  176 8 0  178 8 0  180 8 0  182 8 0  184 8 0  186 8 0  188 8 0  190 8 0  192 8 0  194 8 0  196 8 0  198 8 0  200 8 0  202 8 0  204 8 0  206 8 0  208 8 0  210 8 0  212 8 0  214 8 0  216 8 0  218 8 0  220 8 0  222 8 0  224 8 0  226 8 0  228 8 0  230 8 0  232 8 0  234 8 0  236 8 0  238 8 0  240 8 0  242 8 0  244 8 0  246 8 0  248 8 0  250 8 0  252 8 0  254 8 0  256 8 0  258 8 0  260 8 0  262 8 0  264 8 0  266 8 0  268 8 0  270 8 0  272 8 0  274 8 0  276 8 0  278 8 0  280 8 0  282 8 0  284 8 0  286 8 0  288 8 0  290 8 0  292 8 0  294 8 0  296 8 0  298 8 0  300 8 0  0 10 0  2 10 0  4 10 0  6 10 0  8 10 0  10 10 0  12 10 0  14 10 0  16 10 0  18 10 0  20 10 0  22 10 0  24 10 0  26 10 0  28 10 0  30 10 0  32 10 0  34 10 0  36 10 0  38 10 0  40 10 0  42 10 0  44 10 0  46 10 0  48 10 0  50 10 0  52 10 0  54 10 0  56 10 0  58 10 0  60 10 0  62 10 0  64 10 0  66 10 0  68 10 0  70 10 0  72 10 0  74 10 0  76 10 0  78 10 0  80 10 0  82 10 0  84 10 0  86 10 0  88 10 0  90 10 0  92 10 0  94 10 0  96 10 0  98 10 0  100 10 0  102 10 0  104 10 0  106 10 0  108 10 0  110 10 0  112 10 0  114 10 0  116 10 0  118 10 0  120 10 0  122 10 0  124 10 0  126 10 0  128 10 0  130 10 0  132 10 0  134 10 0  136 10 0  138 10 0  140 10 0  142 10 0  144 10 0  146 10 0  148 10 0  150 10 0  152 10 0  154 10 0  156 10 0  158 10 0  160 10 0  162 10 0  164 10 0  166 10 0  168 10 0  170 10 0  172 10 0  174 10 0  176 10 0  178 10 0  180 10 0  182 10 0  184 10 0  186 10 0  188 10 0  190 10 0  192 10 0  194 10 0  196 10 0  198 10 0  200 10 0  202 10 0  204 10 0  206 10 0  208 10 0  210 10 0  212 10 0  214 10 0  216 10 0  218 10 0  220 10 0  222 10 0  224 10 0  226 10 0  228 10 0  230 10 0  232 10 0  234 10 0  236 10 0  238 10 0  240 10 0  242 10 0  244 10 0  246 10 0  248 10 0  250 10 0  252 10 0  254 10 0  256 10 0  258 10 0  260 10 0  262 10 0  264 10 0  266 10 0  268 10 0  270 10 0  272 10 0  274 10 0  276 10 0  278 10 0  280 10 0  282 10 0  284 10 0  286 10 0  288 10 0  290 10 0  292 10 0  294 10 0  296 10 0  298 10 0  300 10 0  1 1 0  3 1 0  5 1 0  7 1 0  9 1 0  11 1 0  13 1 0  15 1 0  17 1 0  19 1 0  21 1 0  23 1 0  25 1 0  27 1 0  29 1 0  31 1 0  33 1 0  35 1 0  37 1 0  39 1 0  41 1 0  43 1 0  45 1 0  47 1 0  49 1 0  51 1 0  53 1 0  55 1 0  57 1 0  59 1 0  61 1 0  63 1 0  65 1 0  67 1 0  69 1 0  71 1 0  73 1 0  75 1 0  77 1 0  79 1 0  81 1 0  83 1 0  85 1 0  87 1 0  89 1 0  91 1 0  93 1 0  95 1 0  97 1 0  99 1 0  101 1 0  103 1 0  105 1 0  107 1 0  109 1 0  111 1 0  113 1 0  115 1 0  117 1 0  119 1 0  121 1 0  123 1 0  125 1 0  127 1 0  129 1 0  131 1 0  133 1 0  135 1 0  137 1 0  139 1 0  141 1 0  143 1 0  145 1 0  147 1 0  149 1 0  151 1 0  153 1 0  155 1 0  157 1 0  159 1 0  161 1 0  163 1 0  165 1 0  167 1 0  169 1 0  171 1 0  173 1 0  175 1 0  177 1 0  179 1 0  181 1 0  183 1 0  185 1 0  187 1 0  189 1 0  191 1 0  193 1 0  195 1 0  197 1 0  199 1 0  201 1 0  203 1 0  205 1 0  207 1 0  209 1 0  211 1 0  213 1 0  215 1 0  217 1 0  219 1 0  221 1 0  223 1 0  225 1 0  227 1 0  229 1 0  231 1 0  233 1 0  235 1 0  237 1 0  239 1 0  241 1 0  243 1 0  245 1 0  247 1 0  249 1 0  251 1 0  253 1 0  255 1 0  257 1 0  259 1 0  261 1 0  263 1 0  265 1 0  267 1 0  269 1 0  271 1 0  273 1 0  275 1 0  277 1 0  279 1 0  281 1 0  283 1 0  285 1 0  287 1 0  289 1 0  291 1 0  293 1 0  295 1 0  297 1 0  299 1 0  1 3 0  3 3 0  5 3 0  7 3 0  9 3 0  11 3 0  13 3 0  15 3 0  17 3 0  19 3 0  21 3 0  23 3 0  25 3 0  27 3 0  29 3 0  31 3 0  33 3 0  35 3 0  37 3 0  39 3 0  41 3 0  43 3 0  45 3 0  47 3 0  49 3 0  51 3 0  53 3 0  55 3 0  57 3 0  59 3 0  61 3 0  63 3 0  65 3 0  67 3 0  69 3 0  71 3 0  73 3 0  75 3 0  77 3 0  79 3 0  81 3 0  83 3 0  85 3 0  87 3 0  89 3 0  91 3 0  93 3 0  95 3 0  97 3 0  99 3 0  101 3 0  103 3 0  105 3 0  107 3 0  109 3 0  111 3 0  113 3 0  115 3 0  117 3 0  119 3 0  121 3 0  123 3 0  125 3 0
[...]
<PointData  Vectors="displacement"> 
<DataArray  type="Float64"  Name="displacement"  NumberOfComponents="3" format="ascii">3.0493186101154800e-20 -2.2569491535787913e-36 0.0000000000000000e+00  -1.5209224193933737e-04 -2.5390677977761410e-36 0.0000000000000000e+00  -3.0102411522792366e-04 3.1376714416763702e-36 0.0000000000000000e+00  -4.4683810848642478e-04 -3.6675423745655370e-36 0.0000000000000000e+00  -5.8957668556470545e-04 -1.9086635077784518e-38 0.0000000000000000e+00  -7.2928227318343523e-04 2.6801271198748155e-36 0.0000000000000000e+00  -8.6599724860805067e-04 -3.7028072050902057e-36 0.0000000000000000e+00  -9.9976392736579947e-04 -9.8741525469072151e-37 0.0000000000000000e+00  -1.1306245510164996e-03 3.9574812695433707e-36 0.0000000000000000e+00  -1.2586212749875977e-03 -3.3854237303681880e-36 0.0000000000000000e+00  -1.3837961564839890e-03 1.5171286514140173e-36 0.0000000000000000e+00  -1.5061911424829807e-03 5.6423728839469800e-36 0.0000000000000000e+00  -1.6258480578246132e-03 4.4031049349679685e-36 0.0000000000000000e+00  -1.7428085934074703e-03 1.5798644075051544e-35 0.0000000000000000e+00  -1.8571142944999036e-03 -2.1493914204785527e-35 0.0000000000000000e+00  -1.9688065491764483e-03 9.1688559364138426e-36 0.0000000000000000e+00  -2.0779265768890395e-03 -7.1643104901002885e-36 0.0000000000000000e+00  -2.1845154171824168e-03 0.0000000000000000e+00 0.0000000000000000e+00  -2.2886139185629211e-03 -7.9180564787420023e-36 0.0000000000000000e+00  -2.3902627275296292e-03 1.2413220344683356e-35 0.0000000000000000e+00  -2.4895022777765832e-03 6.8108385056612583e-36 0.0000000000000000e+00  -2.5863727795746214e-03 1.1284745767893960e-35 0.0000000000000000e+00  -2.6809142093409824e-03 7.7582627154270976e-36 0.0000000000000000e+00  -2.7731662994047459e-03 -9.0277966143151681e-36 0.0000000000000000e+00  -2.8631685279757024e-03 2.2291968175747979e-36 0.0000000000000000e+00  -2.9509601093241290e-03 -1.6927118651840940e-35 0.0000000000000000e+00  -3.0365799841785548e-03 -5.3839531847749131e-36 0.0000000000000000e+00  -3.1200668103483209e-03 1.1284745767893960e-35 0.0000000000000000e+00  -3.2014589535774075e-03 -4.1721566505267747e-35 0.0000000000000000e+00  -3.2807944786357813e-03 2.5672796621958759e-35 0.0000000000000000e+00  -3.3581111406539889e-03 6.2066101723416780e-36 0.0000000000000000e+00  -3.4334463767066660e-03 7.8993220375257721e-36 0.0000000000000000e+00  -3.5068372976499911e-03 -2.0214729057981636e-35 0.0000000000000000e+00  -3.5783206802180497e-03 2.2569491535787920e-35 0.0000000000000000e+00  -3.6479329593825560e-03 1.8975784900133408e-35 0.0000000000000000e+00  -3.7157102209800412e-03 1.5798644075051544e-35 0.0000000000000000e+00  -3.7816881946104086e-03 1.1381451385621400e-35 0.0000000000000000e+00  -3.8459022468101990e-03 4.0625084764418256e-35 0.0000000000000000e+00  -3.9083873745036964e-03 1.8760889839123709e-35 0.0000000000000000e+00  -3.9691781987346384e-03 -5.8680677993048592e-35 0.0000000000000000e+00  -4.0283089586808738e-03 -9.6449283082237658e-38 0.0000000000000000e+00  -4.0858135059539877e-03 -4.5138983071575840e-36 0.0000000000000000e+00  -4.1417252991855884e-03 -1.8711160917954156e-35 0.0000000000000000e+00  -4.1960773989015840e-03 4.2670444934849037e-35 0.0000000000000000e+00  -4.2489024626853715e-03 -2.2523274612278142e-35 0.0000000000000000e+00  -4.3002327406306100e-03 1.8055593228630336e-35 0.0000000000000000e+00  -4.3501000710838272e-03 8.9660831608969980e-36 0.0000000000000000e+00  -4.3985358766767905e-03 1.7420826279186301e-35 0.0000000000000000e+00  -4.4455711606483017e-03 -1.4700594503463522e-35 0.0000000000000000e+00  -4.4912365034545784e-03 -9.0277966143151681e-36 0.0000000000000000e+00  -4.5355620596673153e-03 -5.9024510090664111e-36 0.0000000000000000e+00  -4.5785775551578879e-03 -1.8088339142688956e-35 0.0000000000000000e+00  -4.6203122845661568e-03 -5.4172960120106673e-35 0.0000000000000000e+00  -4.6607951090518263e-03 6.7708474607363760e-35 0.0000000000000000e+00  -4.7000544543259852e-03 -1.1990042378387333e-36 0.0000000000000000e+00  -4.7381183089604331e-03 -1.6927118651840940e-35 0.0000000000000000e+00  -4.7750142229717194e-03 9.1098918673342590e-36 0.0000000000000000e+00  -4.8107693066769238e-03 -3.8368135610839464e-35 0.0000000000000000e+00  -4.8454102298176437e-03 1.5926479085703468e-35 0.0000000000000000e+00  -4.8789632209486180e-03 1.1284745767893960e-35 0.0000000000000000e+00  -4.9114540670869887e-03 -4.0747239228916076e-35 0.0000000000000000e+00  -4.9429081136181307e-03 4.5138983071575840e-36 0.0000000000000000e+00  -4.9733502644535767e-03 -2.3697966112577316e-35 0.0000000000000000e+00  -5.0028049824365033e-03 3.1597288150103088e-35 0.0000000000000000e+00  -5.0312962899899047e-03 -3.1663547175962000e-35 0.0000000000000000e+00  -5.0588477700025071e-03 6.2066101723416780e-36 0.0000000000000000e+00  -5.0854825669471200e-03 -1.2854251016628468e-35 0.0000000000000000e+00  -5.1112233882261307e-03 -9.0277966143151681e-36 0.0000000000000000e+00  -5.1360925057385076e-03 1.1302923515587089e-35 0.0000000000000000e+00  -5.1601117576626603e-03 -8.4635593259204701e-37 0.0000000000000000e+00  -5.1833025504492234e-03 3.5264830524668625e-36 0.0000000000000000e+00  -5.2056858610178098e-03 -2.7083389842945504e-35 0.0000000000000000e+00  -5.2272822391515802e-03 4.1899649308438766e-35 0.0000000000000000e+00  -5.2481118100833370e-03 -1.1284745767893960e-36 0.0000000000000000e+00  -5.2681942772668626e-03 2.8341453642836068e-35 0.0000000000000000e+00  -5.2875489253269492e-03 -1.5798644075051544e-35 0.0000000000000000e+00  -5.3061946231816306e-03 1.5620365814551190e-35 0.0000000000000000e+00  -5.3241498273299721e-03 2.2569491535787920e-35 0.0000000000000000e+00  -5.3414325852987159e-03 -3.4585982537068754e-35 0.0000000000000000e+00  -5.3580605392410177e-03 1.2836398310979380e-35 0.0000000000000000e+00  -5.3740509296805114e-03 6.6205174873142077e-36 0.0000000000000000e+00  -5.3894205993937766e-03 3.8368135610839464e-35 0.0000000000000000e+00  -5.4041859974244474e-03 -2.9164014843900953e-35 0.0000000000000000e+00  -5.4183631832219400e-03 1.8055593228630336e-35 0.0000000000000000e+00  -5.4319678308979635e-03 -4.5150616830099446e-35 0.0000000000000000e+00  -5.4450152335938813e-03 -7.6736271221678929e-35 0.0000000000000000e+00  -5.4575203079519959e-03 -2.2569491535787920e-36 0.0000000000000000e+00  -5.4694975986838527e-03 9.0277966143151681e-36 0.0000000000000000e+00  -5.4809612832286986e-03 3.5983135282460139e-35 0.0000000000000000e+00  -5.4919251764951865e-03 -1.3541694921472752e-35 0.0000000000000000e+00  -5.5024027356795702e-03 -2.4841927911302969e-35 0.0000000000000000e+00  -5.5124070651535149e-03 -2.8211864419734900e-36 0.0000000000000000e+00  -5.5219509214148761e-03 -3.6015207949440955e-35 0.0000000000000000e+00  -5.5310467180946614e-03 3.3854237303681880e-35 0.0000000000000000e+00  -5.5397065310136386e-03 1.8619830517025034e-35 0.0000000000000000e+00  -5.5479421032819378e-03 4.5138983071575840e-36 0.0000000000000000e+00  -5.5557648504352521e-03 -5.4397695997947944e-35 0.0000000000000000e+00  -5.5631858656010951e-03 -2.2569491535787920e-35 0.0000000000000000e+00  -5.5702159246888783e-03 -4.4797764539046306e-35 0.0000000000000000e+00  -5.5768654915975156e-03 2.2569491535787920e-35 0.0000000000000000e+00  -5.5831447234343662e-03 8.3995736540406598e-36 0.0000000000000000e+00  -5.5890634757394739e-03 1.8055593228630336e-35 0.0000000000000000e+00  -5.5946313077091378e-03 -1.2187525429325477e-34 0.0000000000000000e+00  -5.5998574874128876e-03 3.6111186457260672e-35 0.0000000000000000e+00  -5.6047509969981086e-03 2.9152771277567478e-34 0.0000000000000000e+00  -5.6093205378767129e-03 -2.8888949165808538e-34 0.0000000000000000e+00  -5.6135745358882215e-03 5.1181489681235443e-34 0.0000000000000000e+00  -5.6175211464338090e-03 6.3555688164778783e-33 0.0000000000000000e+00  -5.6211682595760735e-03 -1.5060970714586989e-32 0.0000000000000000e+00  -5.6245235050991996e-03 3.2355623065705562e-32 0.0000000000000000e+00  -5.6275942575245291e-03 -7.5111267831102198e-33 0.0000000000000000e+00  -5.6303876410764373e-03 -1.8488927466117464e-32 0.0000000000000000e+00  -5.6329105345938211e-03 -1.6760057879442019e-32 0.0000000000000000e+00  -5.6351695763822924e-03 -7.3955709864469857e-32 0.0000000000000000e+00  -5.6371711690026303e-03 3.3540069981503712e-31 0.0000000000000000e+00  -5.6389214839909114e-03 -2.2186712959340957e-31 0.0000000000000000e+00  -5.6404264665060400e-03 3.0154106444740027e-31 0.0000000000000000e+00  -5.6416918399004711e-03 8.8746851837363828e-31 0.0000000000000000e+00  -5.6427231102100968e-03 1.1093356479670479e-30 0.0000000000000000e+00  -5.6435255705595076e-03 0.0000000000000000e+00 0.0000000000000000e+00  -5.6441043054789820e-03 4.9693281233932825e-30 0.0000000000000000e+00  -5.6444641951300650e-03 -1.6566079009641248e-29 0.0000000000000000e+00  -5.6446099194369052e-03 4.5815562261039076e-29 0.0000000000000000e+00  -5.6445459621214762e-03 -1.2306230121447784e-28 0.0000000000000000e+00  -5.6442766146419365e-03 2.4422157715244312e-28 0.0000000000000000e+00  -5.6438059800354443e-03 2.2719194070365140e-28 0.0000000000000000e+00  -5.6431379766700221e-03 -3.6918690364343352e-28 0.0000000000000000e+00  -5.6422763419154750e-03 -1.5146129380243427e-28 0.0000000000000000e+00  -5.6412246357518125e-03 -6.0618674384911105e-28 0.0000000000000000e+00  -5.6399862443471489e-03 1.8175355256292112e-27 0.0000000000000000e+00  -5.6385643836572002e-03 -6.6264316038564992e-29 0.0000000000000000e+00  -5.6369621031268852e-03 1.2116903504194741e-27 0.0000000000000000e+00  -5.6351822896110269e-03 2.3421849557077467e-27 0.0000000000000000e+00  -5.6332276716661925e-03 1.6963664905872638e-26 0.0000000000000000e+00  -5.6311008243714851e-03 -1.5751974555453164e-26 0.0000000000000000e+00  -5.6288041747332863e-03 1.0662875083691372e-25 0.0000000000000000e+00  -5.6263400073284387e-03 -1.3562539095273490e-25 0.0000000000000000e+00  -5.6237104687152590e-03 0.0000000000000000e+00 0.0000000000000000e+00  -5.6209175663802097e-03 1.6282089083761684e-26 0.0000000000000000e+00  -5.6179631517500068e-03 3.1019272970738538e-25 0.0000000000000000e+00  -5.6148488635792814e-03 -1.8387713358942902e-26 0.0000000000000000e+00  -5.6115759815932847e-03 1.8611563782443123e-24 0.0000000000000000e+00  -5.6081450900182499e-03 -3.5672163916349318e-24 0.0000000000000000e+00  -5.6045553556414336e-03 6.2038545941477076e-24 0.0000000000000000e+00  -5.6008030128847320e-03 3.4468784418880925e-25 0.0000000000000000e+00  -5.5968779348123067e-03 -1.9852334701272664e-23 0.0000000000000000e+00  -5.5927537686413760e-03 6.6869441772629167e-23 0.0000000000000000e+00  -5.5883513954481136e-03 -3.9704669402545328e-23 0.0000000000000000e+00  -5.5834023774760030e-03 1.0360437172226672e-22 0.0000000000000000e+00  -5.5772633417433401e-03 -7.9409338805090657e-23 0.0000000000000000e+00  -5.5690041793668640e-03 -7.9409338805090680e-23 0.0000000000000000e+00  0.0000000000000000e+00 -2.2569491535787920e-36 0.0000000000000000e+00  -1.5209224193933737e-04 3.6081906524619565e-20 0.0000000000000000e+00  -3.0102411522792355e-04 2.0425562496586458e-20 0.0000000000000000e+00  -4.4683810848642424e-04 1.7621459767553918e-20 0.0000000000000000e+00  -5.8957668556470567e-04 2.2737367442005056e-20 0.0000000000000000e+00  -7.2928227318343490e-04 2.0463630697804540e-20 0.0000000000000000e+00  -8.6599724860805024e-04 -7.9580786047017734e-21 0.0000000000000000e+00  -9.9976392736579904e-04 4.5474734884010044e-21 0.0000000000000000e+00  -1.1306245510164996e-03 1.5567799206150255e-20 0.0000000000000000e+00  -1.2586212749875968e-03 -4.5474734884010100e-20 0.0000000000000000e+00  -1.3837961564839882e-03 -1.4779288837303275e-20 0.0000000000000000e+00  -1.5061911424829779e-03 4.3476262932626800e-21 0.0000000000000000e+00  -1.6258480578246117e-03 7.8870243314455012e-20 0.0000000000000000e+00  -1.7428085934074701e-03 8.6401996279619186e-20 0.0000000000000000e+00  -1.8571142944999041e-03 1.0288658767507291e-19 0.0000000000000000e+00  -1.9688065491764470e-03 6.8212102326015141e-20 0.0000000000000000e+00  -2.0779265768890377e-03 -1.2400672168541621e-20 0.0000000000000000e+00  -2.1845154171824164e-03 -3.9790393023509070e-21 0.0000000000000000e+00  -2.2886139185629220e-03 -1.6370904558243634e-19 0.0000000000000000e+00  -2.3902627275296288e-03 -1.1952915168314429e-19 0.0000000000000000e+00  -2.4895022777765849e-03 4.8885340000310855e-20 0.0000000000000000e+00  -2.5863727795746184e-03 7.0485839070215648e-20 0.0000000000000000e+00  -2.6809142093409816e-03 1.0487610732624833e-19 0.0000000000000000e+00  -2.7731662994047459e-03 -6.8212102326015141e-20 0.0000000000000000e+00  -2.8631685279757015e-03 -1.4386095756904789e-19 0.0000000000000000e+00  -2.9509601093241286e-03 -1.5631940116378472e-19 0.0000000000000000e+00  -3.0365799841785587e-03 -6.7721970002039879e-20 0.0000000000000000e+00  -3.1200668103483170e-03 -4.1164137049662454e-20 0.0000000000000000e+00  -3.2014589535774097e-03 -2.0293100441989509e-19 0.0000000000000000e+00  -3.2807944786357760e-03 5.5706550232912352e-20 0.0000000000000000e+00  -3.3581111406539876e-03 2.2453150348980011e-20 0.0000000000000000e+00  -3.4334463767066656e-03 1.1368683721002526e-19 0.0000000000000000e+00  -3.5068372976499885e-03 1.0323289778947026e-19 0.0000000000000000e+00  -3.5783206802180480e-03 1.1213163871583828e-19 0.0000000000000000e+00  -3.6479329593825582e-03 7.6880723663279592e-20 0.0000000000000000e+00  -3.7157102209800434e-03 4.4191169209791681e-20 0.0000000000000000e+00  -3.7816881946104099e-03 1.8928858395469212e-19 0.0000000000000000e+00  -3.8459022468101964e-03 2.3987922651315326e-19 0.0000000000000000e+00  -3.9083873745036956e-03 -6.9633187791140458e-20 0.0000000000000000e+00  -3.9691781987346349e-03 -2.8762769814136381e-19 0.0000000000000000e+00  -4.0283089586808747e-03 -1.8937237291632189e-19 0.0000000000000000e+00  -4.0858135059539842e-03 -1.9554136000124344e-19 0.0000000000000000e+00  -4.1417252991855866e-03 -2.5579538372255671e-19 0.0000000000000000e+00  -4.1960773989015814e-03 -3.3702891075743167e-19 0.0000000000000000e+00  -4.2489024626853732e-03 -4.5474734884010074e-21 0.0000000000000000e+00  -4.3002327406306082e-03 2.3703705558290270e-19 0.0000000000000000e+00  -4.3501000710838237e-03 3.3367086721142430e-19 0.0000000000000000e+00  -4.3985358766767905e-03 2.2282620093164946e-19 0.0000000000000000e+00  -4.4455711606482982e-03 8.1288930714631231e-21 0.0000000000000000e+00  -4.4912365034545775e-03 -3.4674485349057691e-20 0.0000000000000000e+00  -4.5355620596673118e-03 -8.4696693721468866e-20 0.0000000000000000e+00  -4.5785775551578827e-03 -1.1368683721002531e-19 0.0000000000000000e+00  -4.6203122845661602e-03 4.6937489428333956e-35 0.0000000000000000e+00  -4.6607951090518228e-03 3.6379787907208075e-19 0.0000000000000000e+00  -4.7000544543259904e-03 1.2462919529149023e-19 0.0000000000000000e+00  -4.7381183089604314e-03 -1.5404566441958419e-19 0.0000000000000000e+00  -4.7750142229717202e-03 7.5942970773206519e-20 0.0000000000000000e+00  -4.8107693066769186e-03 -7.2759575814416143e-20 0.0000000000000000e+00  -4.8454102298176446e-03 7.9545555281887549e-20 0.0000000000000000e+00  -4.8789632209486128e-03 1.8210016441628027e-19 0.0000000000000000e+00  -4.9114540670869879e-03 2.1827872744324854e-19 0.0000000000000000e+00  -4.9429081136181307e-03 2.5295321279230610e-19 0.0000000000000000e+00  -4.9733502644535759e-03 2.0875745482690906e-19 0.0000000000000000e+00  -5.0028049824365015e-03 1.2960299441942876e-19 0.0000000000000000e+00  -5.0312962899899021e-03 -1.4012254092164405e-19 0.0000000000000000e+00  -5.0588477700025027e-03 -5.2722270756149246e-20 0.0000000000000000e+00  -5.0854825669471174e-03 -1.8189893953604027e-20 0.0000000000000000e+00  -5.1112233882261281e-03 2.4222545239207084e-20 0.0000000000000000e+00  -5.1360925057385085e-03 5.3077542122430585e-20 0.0000000000000000e+00  -5.1601117576626550e-03 2.4414248290852929e-19 0.0000000000000000e+00  -5.1833025504492199e-03 2.7213786657149810e-20 0.0000000000000000e+00  -5.2056858610178098e-03 -3.2400748604857188e-19 0.0000000000000000e+00  -5.2272822391515768e-03 1.1607244284477075e-19 0.0000000000000000e+00  -5.2481118100833344e-03 9.9618091105284639e-20 0.0000000000000000e+00  -5.2681942772668626e-03 -1.3642420465203026e-19 0.0000000000000000e+00  -5.2875489253269492e-03 -2.3946169527818719e-19 0.0000000000000000e+00  -5.3061946231816280e-03 -7.6312289477229526e-20 0.0000000000000000e+00  -5.3241498273299669e-03 1.4551915162883231e-19 0.0000000000000000e+00  -5.3414325852987150e-03 -1.5845102936147266e-19 0.0000000000000000e+00  -5.3580605392410160e-03 -5.5138116046862237e-20 0.0000000000000000e+00  -5.3740509296805062e-03 -3.1762163685818266e-21 0.0000000000000000e+00  -5.3894205993937731e-03 -1.4551915162883233e-19 0.0000000000000000e+00  -5.4041859974244474e-03 -2.6375346232725849e-19 0.0000000000000000e+00  -5.4183631832219400e-03 -1.1709667983626098e-19 0.0000000000000000e+00  -5.4319678308979644e-03 2.2652102314097539e-19 0.0000000000000000e+00  -5.4450152335938778e-03 2.5238477860625610e-19 0.0000000000000000e+00  -5.4575203079519933e-03 3.4326319410102011e-19 0.0000000000000000e+00  -5.4694975986838510e-03 2.0150991895476981e-19 0.0000000000000000e+00  -5.4809612832286943e-03 3.8935815258290554e-19 0.0000000000000000e+00  -5.4919251764951830e-03 4.9040471819026752e-19 0.0000000000000000e+00  -5.5024027356795702e-03 2.3517188090992578e-19 0.0000000000000000e+00  -5.5124070651535141e-03 -3.2771604331774803e-20 0.0000000000000000e+00  -5.5219509214148744e-03 3.1707969440608641e-20 0.0000000000000000e+00  -5.5310467180946571e-03 2.9643842802514072e-19 0.0000000000000000e+00  -5.5397065310136299e-03 2.0719426081527103e-19 0.0000000000000000e+00  -5.5479421032819352e-03 -2.0790480354783367e-19 0.0000000000000000e+00  -5.5557648504352486e-03 -3.5151578889014894e-19 0.0000000000000000e+00  -5.5631858656010934e-03 -1.8559376174536612e-19 0.0000000000000000e+00  -5.5702159246888800e-03 -3.4351188405741700e-19 0.0000000000000000e+00  -5.5768654915975173e-03 1.1400658143967847e-19 0.0000000000000000e+00  -5.5831447234343618e-03 2.9217517162976502e-19 0.0000000000000000e+00  -5.5890634757394704e-03 6.9533711808581718e-19 0.0000000000000000e+00  -5.5946313077091421e-03 1.3764278543837526e-18 0.0000000000000000e+00  -5.5998574874128832e-03 2.5094237685915386e-18 0.0000000000000000e+00  -5.6047509969981068e-03 4.0943481480775207e-18 0.0000000000000000e+00  -5.6093205378767086e-03 7.5445427343503036e-18 0.0000000000000000e+00  -5.6135745358882154e-03 1.3874252795269906e-17 0.0000000000000000e+00  -5.6175211464337994e-03 2.5482216504781080e-17 0.0000000000000000e+00  -5.6211682595760561e-03 4.7202774809602524e-17 0.0000000000000000e+00  -5.6245235050991719e-03 8.7238731401484906e-17 0.0000000000000000e+00  -5.6275942575244806e-03 1.6016555121157819e-16 0.0000000000000000e+00  -5.6303876410763566e-03 2.9411449143688494e-16 0.0000000000000000e+00  -5.6329105345936754e-03 5.4099875929743569e-16 0.0000000000000000e+00  -5.6351695763820278e-03 9.9476892053469780e-16 0.0000000000000000e+00  -5.6371711690021550e-03 1.8282422467056824e-15 0.0000000000000000e+00  -5.6389214839900467e-03 3.3570019139885919e-15 0.0000000000000000e+00  -5.6404264665044666e-03 6.1609898416615043e-15 0.0000000000000000e+00  -5.6416918398976106e-03 1.1300110929421888e-14 0.0000000000000000e+00  -5.6427231102049282e-03 2.0712428325850371e-14 0.0000000000000000e+00  -5.6435255705501661e-03 3.7938363408847837e-14 0.0000000000000000e+00  -5.6441043054621413e-03 6.9439570127372619e-14 0.0000000000000000e+00  -5.6444641950997463e-03 1.2699994890173902e-13 0.0000000000000000e+00  -5.6446099193824305e-03 2.3208473644598643e-13 0.0000000000000000e+00  -5.6445459620238130e-03 4.2375375901862560e-13 0.0000000000000000e+00  -5.6442766144672819e-03 7.7300176830590069e-13 0.0000000000000000e+00  -5.6438059797239417e-03 1.4087093801708619e-12 0.0000000000000000e+00  -5.6431379761161535e-03 2.5645312147274848e-12 0.0000000000000000e+00  -5.6422763409340005e-03 4