<?xml version="1.0"?>
<VTKFile type="UnstructuredGrid"  version="0.1"  >
<UnstructuredGrid>
<Piece  NumberOfPoints="1656" NumberOfCells="3000">
<Points>
<DataArray  type="Float64"  NumberOfComponents="3"  format="ascii">0 0 0  2 0 0  4 0 0  6 0 0  8 0 0  10 0 0  12 0 0  14 0 0  16 0 0  18 0 0  20 0 0  22 0 0  24 0 0  26 0 0  28 0 0  30 0 0  32 0 0  34 0 0  36 0 0  38 0 0  40 0 0  42 0 0  44 0 0  46 0 0  48 0 0  50 0 0  52 0 0  54 0 0  56 0 0  58 0 0  60 0 0  62 0 0  64 0 0  66 0 0  68 0 0  70 0 0  72 0 0  74 0 0  76 0 0  78 0 0  80 0 0  82 0 0  84 0 0  86 0 0  88 0 0  90 0 0  92 0 0  94 0 0  96 0 0  98 0 0  100 0 0  102 0 0  104 0 0  106 0 0  108 0 0  110 0 0  112 0 0  114 0 0  116 0 0  118 0 0  120 0 0  122 0 0  124 0 0  126 0 0  128 0 0  130 0 0  132 0 0  134 0 0  136 0 0  138 0 0  140 0 0  142 0 0  144 0 0  146 0 0  148 0 0  150 0 0  152 0 0  154 0 0  156 0 0  158 0 0  160 0 0  162 0 0  164 0 0  166 0 0  168 0 0  170 0 0  172 0 0  174 0 0  176 0 0  178 0 0  180 0 0  182 0 0  184 0 0  186 0 0  188 0 0  190 0 0  192 0 0  194 0 0  196 0 0  198 0 0  200 0 0  202 0 0  204 0 0  206 0 0  208 0 0  210 0 0  212 0 0  214 0 0  216 0 0  218 0 0  220 0 0  222 0 0  224 0 0  226 0 0  228 0 0  230 0 0  232 0 0  234 0 0  236 0 0  238 0 0  240 0 0  242 0 0  244 0 0  246 0 0  248 0 0  250 0 0  252 0 0  254 0 0  256 0 0  258 0 0  260 0 0  262 0 0  264 0 0  266 0 0  268 0 0  270 0 0  272 0 0  274 0 0  276 0 0  278 0 0  280 0 0  282 0 0  284 0 0  286 0 0  288 0 0  290 0 0  292 0 0  294 0 0  296 0 0  298 0 0  300 0 0  0 2 0  2 2 0  4 2 0  6 2 0  8 2 0  10 2 0  12 2 0  14 2 0  16 2 0  18 2 0  20 2 0  22 2 0  24 2 0  26 2 0  28 2 0  30 2 0  32 2 0  34 2 0  36 2 0  38 2 0  40 2 0  42 2 0  44 2 0  46 2 0  48 2 0  50 2 0  52 2 0  54 2 0  56 2 0  58 2 0  60 2 0  62 2 0  64 2 0  66 2 0  68 2 0  70 2 0  72 2 0  74 2 0  76 2 0  78 2 0  80 2 0  82 2 0  84 2 0  86 2 0  88 2 0  90 2 0  92 2 0  94 2 0  96 2 0  98 2 0  100 2 0  102 2 0  104 2 0  106 2 0  108 2 0  110 2 0  112 2 0  114 2 0  116 2 0  118 2 0  120 2 0  122 2 0  124 2 0  126 2 0  128 2 0  130 2 0  132 2 0  134 2 0  136 2 0  138 2 0  140 2 0  142 2 0  144 2 0  146 2 0  148 2 0  150 2 0  152 2 0  154 2 0  156 2 0  158 2 0  160 2 0  162 2 0  164 2 0  166 2 0  168 2 0  170 2 0  172 2 0  174 2 0  176 2 0  178 2 0  180 2 0  182 2 0  184 2 0  186 2 0  188 2 0  190 2 0  192 2 0  194 2 0  196 2 0  198 2 0  200 2 0  202 2 0  204 2 0  206 2 0  208 2 0  210 2 0  212 2 0  214 2 0  216 2 0  218 2 0  220 2 0  222 2 0  224 2 0  226 2 0  228 2 0  230 2 0  232 2 0  234 2 0  236 2 0  238 2 0  240 2 0  242 2 0  244 2 0  246 2 0  248 2 0  250 2 0  252 2 0  254 2 0  256 2 0  258 2 0  260 2 0  262 2 0  264 2 0  266 2 0  268 2 0  270 2 0  272 2 0  274 2 0  276 2 0  278 2 0  280 2 0  282 2 0  284 2 0  286 2 0  288 2 0  290 2 0  292 2 0  294 2 0  296 2 0  298 2 0  300 2 0  0 4 0  2 4 0  4 4 0  6 4 0  8 4 0  10 4 0  12 4 0  14 4 0  16 4 0  18 4 0  20 4 0  22 4 0  24 4 0  26 4 0  28 4 0  30 4 0  32 4 0  34 4 0  36 4 0  38 4 0  40 4 0  42 4 0  44 4 0  46 4 0  48 4 0  50 4 0  52 4 0  54 4 0  56 4 0  58 4 0  60 4 0  62 4 0  64 4 0  66 4 0  68 4 0  70 4 0  72 4 0  74 4 0  76 4 0  78 4 0  80 4 0  82 4 0  84 4 0  86 4 0  88 4 0  90 4 0  92 4 0  94 4 0  96 4 0  98 4 0  100 4 0  102 4 0  104 4 0  106 4 0  108 4 0  110 4 0  112 4 0  114 4 0  116 4 0  118 4 0  120 4 0  122 4 0  124 4 0  126 4 0  128 4 0  130 4 0  132 4 0  134 4 0  136 4 0  138 4 0  140 4 0  142 4 0  144 4 0  146 4 0  148 4 0  150 4 0  152 4 0  154 4 0  156 4 0  158 4 0  160 4 0  162 4 0  164 4 0  166 4 0  168 4 0  170 4 0  172 4 0  174 4 0  176 4 0  178 4 0  180 4 0  182 4 0  184 4 0  186 4 0  188 4 0  190 4 0  192 4 0  194 4 0  196 4 0  198 4 0  200 4 0  202 4 0  204 4 0  206 4 0  208 4 0  210 4 0  212 4 0  214 4 0  216 4 0  218 4 0  220 4 0  222 4 0  224 4 0  226 4 0  228 4 0  230 4 0  232 4 0  234 4 0  236 4 0  238 4 0  240 4 0  242 4 0  244 4 0  246 4 0  248 4 0  250 4 0  252 4 0  254 4 0  256 4 0  258 4 0  260 4 0  262 4 0  264 4 0  266 4 0  268 4 0  270 4 0  272 4 0  274 4 0  276 4 0  278 4 0  280 4 0  282 4 0  284 4 0  286 4 0  288 4 0  290 4 0  292 4 0  294 4 0  296 4 0  298 4 0  300 4 0  0 6 0  2 6 0  4 6 0  6 6 0  8 6 0  10 6 0  12 6 0  14 6 0  16 6 0  18 6 0  20 6 0  22 6 0  24 6 0  26 6 0  28 6 0  30 6 0  32 6 0  34 6 0  36 6 0  38 6 0  40 6 0  42 6 0  44 6 0  46 6 0  48 6 0  50 6 0  52 6 0  54 6 0  56 6 0  58 6 0  60 6 0  62 6 0  64 6 0  66 6 0  68 6 0  70 6 0  72 6 0  74 6 0  76 6 0  78 6 0  80 6 0  82 6 0  84 6 0  86 6 0  88 6 0  90 6 0  92 6 0  94 6 0  96 6 0  98 6 0  100 6 0  102 6 0  104 6 0  106 6 0  108 6 0  110 6 0  112 6 0  114 6 0  116 6 0  118 6 0  120 6 0  122 6 0  124 6 0  126 6 0  128 6 0  130 6 0  132 6 0  134 6 0  136 6 0  138 6 0  140 6 0  142 6 0  144 6 0  146 6 0  148 6 0  150 6 0  152 6 0  154 6 0  156 6 0  158 6 0  160 6 0  162 6 0  164 6 0  166 6 0  168 6 0  170 6 0  172 6 0  174 6 0  176 6 0  178 6 0  180 6 0  182 6 0  184 6 0  186 6 0  188 6 0  190 6 0  192 6 0  194 6 0  196 6 0  198 6 0  200 6 0  202 6 0  204 6 0  206 6 0  208 6 0  210 6 0  212 6 0  214 6 0  216 6 0  218 6 0  220 6 0  222 6 0  224 6 0  226 6 0  228 6 0  230 6 0  232 6 0  234 6 0  236 6 0  238 6 0  240 6 0  242 6 0  244 6 0  246 6 0  248 6 0  250 6 0  252 6 0  254 6 0  256 6 0  258 6 0  260 6 0  262 6 0  264 6 0  266 6 0  268 6 0  270 6 0  272 6 0  274 6 0  276 6 0  278 6 0  280 6 0  282 6 0  284 6 0  286 6 0  288 6 0  290 6 0  292 6 0  294 6 0  296 6 0  298 6 0  300 6 0  0 8 0  2 8 0  4 8 0  6 8 0  8 8 0  10 8 0  12 8 0  14 8 0  16 8 0  18 8 0  20 8 0  22 8 0  24 8 0  26 8 0  28 8 0  30 8 0  32 8 0  34 8 0  36 8 0  38 8 0  40 8 0  42 8 0  44 8 0  46 8 0  48 8 0  50 8 0  52 8 0  54 8 0  56 8 0  58 8 0  60 8 0  62 8 0  64 8 0  66 8 0  68 8 0  70 8 0  72 8 0  74 8 0  76 8 0  78 8 0  80 8 0  82 8 0  84 8 0  86 8 0  88 8 0  90 8 0  92 8 0  94 8 0  96 8 0  98 8 0  100 8 0  102 8 0  104 8 0  106 8 0  108 8 0  110 8 0  112 8 0  114 8 0  116 8 0  118 8 0  120 8 0  122 8 0  124 8 0  126 8 0  128 8 0  130 8 0  132 8 0  134 8 0  136 8 0  138 8 0  140 8 0  142 8 0  144 8 0  146 8 0  148 8 0  150 8 0  152 8 0  154 8 0  156 8 0  158 8 0  160 8 0  162 8 0  164 8 0  166 8 0  168 8 0  170 8 0  172 8 0  174 8 0  176 8 0  178 8 0  180 8 0  182 8 0  184 8 0  186 8 0  188 8 0  190 8 0  192 8 0  194 8 0  196 8 0  198 8 0  200 8 0  202 8 0  204 8 0  206 8 0  208 8 0  210 8 0  212 8 0  214 8 0  216 8 0  218 8 0  220 8 0  222 8 0  224 8 0  226 8 0  228 8 0  230 8 0  232 8 0  234 8 0  236 8 0  238 8 0  240 8 0  242 8 0  244 8 0  246 8 0  248 8 0  250 8 0  252 8 0  254 8 0  256 8 0  258 8 0  260 8 0  262 8 0  264 8 0  266 8 0  268 8 0  270 8 0  272 8 0  274 8 0  276 8 0  278 8 0  280 8 0  282 8 0  284 8 0  286 8 0  288 8 0  290 8 0  292 8 0  294 8 0  296 8 0  298 8 0  300 8 0  0 10 0  2 10 0  4 10 0  6 10 0  8 10 0  10 10 0  12 10 0  14 10 0  16 10 0  18 10 0  20 10 0  22 10 0  24 10 0  26 10 0  28 10 0  30 10 0  32 10 0  34 10 0  36 10 0  38 10 0  40 10 0  42 10 0  44 10 0  46 10 0  48 10 0  50 10 0  52 10 0  54 10 0  56 10 0  58 10 0  60 10 0  62 10 0  64 10 0  66 10 0  68 10 0  70 10 0  72 10 0  74 10 0  76 10 0  78 10 0  80 10 0  82 10 0  84 10 0  86 10 0  88 10 0  90 10 0  92 10 0  94 10 0  96 10 0  98 10 0  100 10 0  102 10 0  104 10 0  106 10 0  108 10 0  110 10 0  112 10 0  114 10 0  116 10 0  118 10 0  120 10 0  122 10 0  124 10 0  126 10 0  128 10 0  130 10 0  132 10 0  134 10 0  136 10 0  138 10 0  140 10 0  142 10 0  144 10 0  146 10 0  148 10 0  150 10 0  152 10 0  154 10 0  156 10 0  158 10 0  160 10 0  162 10 0  164 10 0  166 10 0  168 10 0  170 10 0  172 10 0  174 10 0  176 10 0  178 10 0  180 10 0  182 10 0  184 10 0  186 10 0  188 10 0  190 10 0  192 10 0  194 10 0  196 10 0  198 10 0  200 10 0  202 10 0  204 10 0  206 10 0  208 10 0  210 10 0  212 10 0  214 10 0  216 10 0  218 10 0  220 10 0  222 10 0  224 10 0  226 10 0  228 10 0  230 10 0  232 10 0  234 10 0  236 10 0  238 10 0  240 10 0  242 10 0  244 10 0  246 10 0  248 10 0  250 10 0  252 10 0  254 10 0  256 10 0  258 10 0  260 10 0  262 10 0  264 10 0  266 10 0  268 10 0  270 10 0  272 10 0  274 10 0  276 10 0  278 10 0  280 10 0  282 10 0  284 10 0  286 10 0  288 10 0  290 10 0  292 10 0  294 10 0  296 10 0  298 10 0  300 10 0  1 1 0  3 1 0  5 1 0  7 1 0  9 1 0  11 1 0  13 1 0  15 1 0  17 1 0  19 1 0  21 1 0  23 1 0  25 1 0  27 1 0  29 1 0  31 1 0  33 1 0  35 1 0  37 1 0  39 1 0  41 1 0  43 1 0  45 1 0  47 1 0  49 1 0  51 1 0  53 1 0  55 1 0  57 1 0  59 1 0  61 1 0  63 1 0  65 1 0  67 1 0  69 1 0  71 1 0  73 1 0  75 1 0  77 1 0  79 1 0  81 1 0  83 1 0  85 1 0  87 1 0  89 1 0  91 1 0  93 1 0  95 1 0  97 1 0  99 1 0  101 1 0  103 1 0  105 1 0  107 1 0  109 1 0  111 1 0  113 1 0  115 1 0  117 1 0  119 1 0  121 1 0  123 1 0  125 1 0  127 1 0  129 1 0  131 1 0  133 1 0  135 1 0  137 1 0  139 1 0  141 1 0  143 1 0  145 1 0  147 1 0  149 1 0  151 1 0  153 1 0  155 1 0  157 1 0  159 1 0  161 1 0  163 1 0  165 1 0  167 1 0  169 1 0  171 1 0  173 1 0  175 1 0  177 1 0  179 1 0  181 1 0  183 1 0  185 1 0  187 1 0  189 1 0  191 1 0  193 1 0  195 1 0  197 1 0  199 1 0  201 1 0  203 1 0  205 1 0  207 1 0  209 1 0  211 1 0  213 1 0  215 1 0  217 1 0  219 1 0  221 1 0  223 1 0  225 1 0  227 1 0  229 1 0  231 1 0  233 1 0  235 1 0  237 1 0  239 1 0  241 1 0  243 1 0  245 1 0  247 1 0  249 1 0  251 1 0  253 1 0  255 1 0  257 1 0  259 1 0  261 1 0  263 1 0  265 1 0  267 1 0  269 1 0  271 1 0  273 1 0  275 1 0  277 1 0  279 1 0  281 1 0  283 1 0  285 1 0  287 1 0  289 1 0  291 1 0  293 1 0  295 1 0  297 1 0  299 1 0  1 3 0  3 3 0  5 3 0  7 3 0  9 3 0  11 3 0  13 3 0  15 3 0  17 3 0  19 3 0  21 3 0  23 3 0  25 3 0  27 3 0  29 3 0  31 3 0  33 3 0  35 3 0  37 3 0  39 3 0  41 3 0  43 3 0  45 3 0  47 3 0  49 3 0  51 3 0  53 3 0  55 3 0  57 3 0  59 3 0  61 3 0  63 3 0  65 3 0  67 3 0  69 3 0  71 3 0  73 3 0  75 3 0  77 3 0  79 3 0  81 3 0  83 3 0  85 3 0  87 3 0  89 3 0  91 3 0  93 3 0  95 3 0  97 3 0  99 3 0  101 3 0  103 3 0  105 3 0  107 3 0  109 3 0  111 3 0  113 3 0  115 3 0  117 3 0  119 3 0  121 3 0  123 3 0  125 3 0
[...]
<PointData  Vectors="displacement"> 
<DataArray  type="Float64"  Name="displacement"  NumberOfComponents="3" format="ascii">-1.9058241313221752e-20 -5.6423728839469759e-37 0.0000000000000000e+00  -2.0557596419489702e-04 -1.1284745767893960e-36 0.0000000000000000e+00  -4.0798012803391556e-04 -1.3470447097297081e-35 0.0000000000000000e+00  -6.0724355580605172e-04 1.1848983056288658e-35 0.0000000000000000e+00  -8.0339730176778716e-04 -1.2434306532007384e-35 0.0000000000000000e+00  -9.9647240513229206e-04 1.1848983056288658e-35 0.0000000000000000e+00  -1.1864998850651663e-03 -4.0907203408615605e-36 0.0000000000000000e+00  -1.3735107356888949e-03 -4.5138983071575840e-36 0.0000000000000000e+00  -1.5575359210981872e-03 2.2112239975437167e-36 0.0000000000000000e+00  -1.7386063703883424e-03 -1.4952288142459497e-35 0.0000000000000000e+00  -1.9167529726987903e-03 -8.8706802708046556e-36 0.0000000000000000e+00  -2.0920065722739517e-03 -1.1284745767893960e-36 0.0000000000000000e+00  -2.2643979635434863e-03 6.3403529509938688e-36 0.0000000000000000e+00  -2.4339578862240894e-03 -1.1284745767893960e-35 0.0000000000000000e+00  -2.6007170204448713e-03 2.5946099058524941e-35 0.0000000000000000e+00  -2.7647059818983718e-03 -1.3823813565670101e-35 0.0000000000000000e+00  -2.9259553170192802e-03 -4.6110697296696619e-36 0.0000000000000000e+00  -3.0844954981928351e-03 4.5138983071575840e-36 0.0000000000000000e+00  -3.2403569189949121e-03 -1.8851255967343172e-35 0.0000000000000000e+00  -3.3935698894657267e-03 -6.7708474607363760e-36 0.0000000000000000e+00  -3.5441646314191329e-03 3.5155764038509853e-36 0.0000000000000000e+00  -3.6921712737893325e-03 0.0000000000000000e+00 0.0000000000000000e+00  -3.8376198480169167e-03 2.5249618655662736e-35 0.0000000000000000e+00  -3.9805402834760624e-03 -1.0156271191104564e-35 0.0000000000000000e+00  -4.1209624029446487e-03 -1.1139551008195071e-37 0.0000000000000000e+00  -4.2589159181190663e-03 1.4670169498262148e-35 0.0000000000000000e+00  -4.3944304251754230e-03 -2.1610728955898492e-35 0.0000000000000000e+00  -4.5275354003788326e-03 2.9340338996524296e-35 0.0000000000000000e+00  -4.6582601957424049e-03 -8.1217267805511951e-36 0.0000000000000000e+00  -4.7866340347375485e-03 1.6927118651840940e-35 0.0000000000000000e+00  -4.9126860080571022e-03 1.1584496827353643e-35 0.0000000000000000e+00  -5.0364450694328055e-03 3.6675423745655370e-36 0.0000000000000000e+00  -5.1579400315085707e-03 -8.9676566721816856e-36 0.0000000000000000e+00  -5.2771995617709767e-03 6.2066101723416780e-36 0.0000000000000000e+00  -5.3942521785382558e-03 1.1667148773895835e-35 0.0000000000000000e+00  -5.5091262470091931e-03 -9.0277966143151681e-36 0.0000000000000000e+00  -5.6218499753731303e-03 3.3711723761767755e-35 0.0000000000000000e+00  -5.7324514109822486e-03 4.0060847476023558e-35 0.0000000000000000e+00  -5.8409584365873551e-03 -2.7647627131340202e-35 0.0000000000000000e+00  -5.9473987666381891e-03 1.8055593228630336e-35 0.0000000000000000e+00  -6.0517999436493827e-03 -2.2259954315441260e-35 0.0000000000000000e+00  -6.1541893346329177e-03 -5.8680677993048592e-35 0.0000000000000000e+00  -6.2545941275981773e-03 6.0050220747252715e-35 0.0000000000000000e+00  -6.3530413281203367e-03 -3.7063336881426725e-35 0.0000000000000000e+00  -6.4495577559779676e-03 -4.4211917939226309e-36 0.0000000000000000e+00  -6.5441700418606003e-03 4.9652881378733424e-35 0.0000000000000000e+00  -6.6369046241469415e-03 1.7985063567580999e-35 0.0000000000000000e+00  -6.7277877457543765e-03 -1.3541694921472752e-35 0.0000000000000000e+00  -6.8168454510604323e-03 1.8462911110064103e-35 0.0000000000000000e+00  -6.9041035828965253e-03 -8.1250169528836513e-35 0.0000000000000000e+00  -6.9895877796147081e-03 7.9019668998151222e-35 0.0000000000000000e+00  -7.0733234722275933e-03 -2.4826440689366712e-35 0.0000000000000000e+00  -7.1553358816219973e-03 3.6468924531861439e-35 0.0000000000000000e+00  -7.2356500158464593e-03 1.3541694921472752e-35 0.0000000000000000e+00  -7.3142906674728871e-03 6.9401186472547854e-35 0.0000000000000000e+00  -7.3912824110325707e-03 9.0277966143151681e-36 0.0000000000000000e+00  -7.4666496005266082e-03 2.1535177692048929e-36 0.0000000000000000e+00  -7.5404163670107840e-03 7.8993220375257721e-36 0.0000000000000000e+00  -7.6126066162550098e-03 -2.0065688568536448e-35 0.0000000000000000e+00  -7.6832440264770572e-03 0.0000000000000000e+00 0.0000000000000000e+00  -7.7523520461507400e-03 8.8158440762132950e-36 0.0000000000000000e+00  -7.8199538918880800e-03 -2.2569491535787920e-35 0.0000000000000000e+00  -7.8860725463954662e-03 -4.1118792391763617e-35 0.0000000000000000e+00  -7.9507307565033075e-03 5.7552203416259196e-35 0.0000000000000000e+00  -8.0139510312690794e-03 -5.3715616294017376e-35 0.0000000000000000e+00  -8.0757556401530890e-03 -1.2413220344683356e-35 0.0000000000000000e+00  -8.1361666112667215e-03 5.4291725620561713e-36 0.0000000000000000e+00  -8.1952057296925812e-03 -5.6423728839469800e-36 0.0000000000000000e+00  -8.2528945358759341e-03 -3.1625281881550508e-35 0.0000000000000000e+00  -8.3092543240869416e-03 2.7647627131340202e-35 0.0000000000000000e+00  -8.3643061409528780e-03 -5.4307839007989683e-36 0.0000000000000000e+00  -8.4180707840598428e-03 -3.4982711880471276e-35 0.0000000000000000e+00  -8.4705688006229286e-03 2.1205661318254352e-35 0.0000000000000000e+00  -8.5218204862243397e-03 4.5138983071575840e-36 0.0000000000000000e+00  -8.5718458836183190e-03 -4.5658994304369540e-35 0.0000000000000000e+00  -8.6206647816022604e-03 -1.2638915260041235e-34 0.0000000000000000e+00  -8.6682967139528541e-03 4.2695893781619425e-36 0.0000000000000000e+00  -8.7147609584264044e-03 -2.7083389842945504e-35 0.0000000000000000e+00  -8.7600765358222428e-03 -4.7395932225154632e-35 0.0000000000000000e+00  -8.8042622091082171e-03 4.5138983071575840e-36 0.0000000000000000e+00  -8.8473364826070697e-03 1.8304037595226167e-35 0.0000000000000000e+00  -8.8893176012427022e-03 -4.9652881378733424e-35 0.0000000000000000e+00  -8.9302235498450021e-03 4.8198207119590844e-35 0.0000000000000000e+00  -8.9700720525121378e-03 -4.9652881378733424e-35 0.0000000000000000e+00  -9.0088805720289610e-03 3.6628888711560962e-35 0.0000000000000000e+00  -9.0466663093404318e-03 7.2222372914521344e-35 0.0000000000000000e+00  -9.0834462030785351e-03 1.0043423733425624e-34 0.0000000000000000e+00  -9.1192369291414749e-03 -4.0625084764418256e-35 0.0000000000000000e+00  -9.1540549003238242e-03 7.2195012676711665e-35 0.0000000000000000e+00  -9.1879162659961496e-03 -4.5138983071575840e-35 0.0000000000000000e+00  -9.2208369118327565e-03 -5.3078861350771788e-36 0.0000000000000000e+00  -9.2528324595860280e-03 1.0156271191104564e-35 0.0000000000000000e+00  -9.2839182669062058e-03 -4.5150616830099446e-35 0.0000000000000000e+00  -9.3141094272045886e-03 8.5764067835994097e-35 0.0000000000000000e+00  -9.3434207695592547e-03 -2.2569491535787920e-36 0.0000000000000000e+00  -9.3718668586614349e-03 -9.0277966143151681e-36 0.0000000000000000e+00  -9.3994619948010900e-03 -5.3670993951160450e-35 0.0000000000000000e+00  -9.4262202138901911e-03 -3.6111186457260672e-35 0.0000000000000000e+00  -9.4521552875222094e-03 9.6182432537727547e-35 0.0000000000000000e+00  -9.4772807230661046e-03 9.0277966143151681e-36 0.0000000000000000e+00  -9.5016097637934272e-03 -1.7217962614930994e-35 0.0000000000000000e+00  -9.5251553890368292e-03 5.4166779685891008e-35 0.0000000000000000e+00  -9.5479303143785246e-03 1.6250033905767303e-34 0.0000000000000000e+00  -9.5699469918670444e-03 1.0833355937178202e-34 0.0000000000000000e+00  -9.5912176102606571e-03 1.4566033685313271e-34 0.0000000000000000e+00  -9.6117540952961582e-03 -8.6666847497425613e-34 0.0000000000000000e+00  -9.6315681099809966e-03 2.3582465867346489e-34 0.0000000000000000e+00  -9.6506710549076787e-03 -1.1555579666323415e-33 0.0000000000000000e+00  -9.6690740685884281e-03 3.4845433529892772e-33 0.0000000000000000e+00  -9.6867880278089218e-03 2.3111159332646830e-33 0.0000000000000000e+00  -9.7038235479992435e-03 3.4666738998970245e-33 0.0000000000000000e+00  -9.7201909836207787e-03 0.0000000000000000e+00 0.0000000000000000e+00  -9.7359004285673661e-03 -6.6146758863155488e-33 0.0000000000000000e+00  -9.7509617165792133e-03 -7.3955709864469857e-32 0.0000000000000000e+00  -9.7653844216681693e-03 5.1017884226817878e-31 0.0000000000000000e+00  -9.7791778585527844e-03 0.0000000000000000e+00 0.0000000000000000e+00  -9.7923510831018461e-03 1.2580094976945909e-31 0.0000000000000000e+00  -9.8049128927848676e-03 -4.4373425918681914e-31 0.0000000000000000e+00  -9.8168718271281537e-03 -4.2894311721392517e-30 0.0000000000000000e+00  -9.8282361681755366e-03 6.5081024680733474e-30 0.0000000000000000e+00  -9.8390139409520582e-03 -6.0818087951045662e-30 0.0000000000000000e+00  -9.8492129139303268e-03 1.6566079009641248e-29 0.0000000000000000e+00  -9.8588405994986059e-03 -3.2078289153713800e-29 0.0000000000000000e+00  -9.8679042544308308e-03 9.4663308626521417e-30 0.0000000000000000e+00  -9.8764108803597317e-03 -3.9768348727121104e-29 0.0000000000000000e+00  -9.8843672242559157e-03 2.0825927897834712e-28 0.0000000000000000e+00  -9.8917797789184365e-03 -3.6918690364343352e-28 0.0000000000000000e+00  -9.8986547834877103e-03 5.3011452830851993e-28 0.0000000000000000e+00  -9.9049982239984083e-03 -1.4792361860891736e-28 0.0000000000000000e+00  -9.9108158340028684e-03 2.1204581132340797e-27 0.0000000000000000e+00  -9.9161130953127220e-03 6.8630898754228027e-28 0.0000000000000000e+00  -9.9208952389327303e-03 -1.2116903504194741e-27 0.0000000000000000e+00  -9.9251672462928164e-03 2.3983973946447324e-27 0.0000000000000000e+00  -9.9289338509163626e-03 -1.9387045606711586e-26 0.0000000000000000e+00  -9.9321995406672463e-03 -4.8467614016778965e-27 0.0000000000000000e+00  -9.9349685606264122e-03 1.0662875083691372e-25 0.0000000000000000e+00  -9.9372449162881665e-03 -9.7166713980013710e-26 0.0000000000000000e+00  -9.9390323757560118e-03 0.0000000000000000e+00 0.0000000000000000e+00  -9.9403344671365277e-03 -4.4908273612421760e-26 0.0000000000000000e+00  -9.9411544617261285e-03 3.1019272970738538e-25 0.0000000000000000e+00  -9.9414953217108158e-03 -1.6149209123941195e-25 0.0000000000000000e+00  -9.9413595673584609e-03 4.3426982159033953e-24 0.0000000000000000e+00  -9.9407489735542989e-03 -1.2407709188295415e-24 0.0000000000000000e+00  -9.9396639202210639e-03 3.7223127564886245e-24 0.0000000000000000e+00  -9.9381020306542663e-03 4.9349716491828034e-24 0.0000000000000000e+00  -9.9360550911094699e-03 -9.9261673506363321e-24 0.0000000000000000e+00  -9.9335001919883294e-03 -5.4537330702602892e-24 0.0000000000000000e+00  -9.9303669180300647e-03 -9.9261673506363321e-24 0.0000000000000000e+00  -9.9264147442787460e-03 8.5613193399238364e-23 0.0000000000000000e+00  -9.9210663894915493e-03 2.1837568171399931e-22 0.0000000000000000e+00  -9.9134870450633510e-03 3.1763735522036272e-22 0.0000000000000000e+00  -5.0821976835258020e-21 2.2569491535787920e-36 0.0000000000000000e+00  -2.0557596419489699e-04 8.3158095405411562e-20 0.0000000000000000e+00  -4.0798012803391524e-04 4.4156338590863745e-20 0.0000000000000000e+00  -6.0724355580605140e-04 4.7748471628210565e-20 0.0000000000000000e+00  -8.0339730176778705e-04 3.6379787907208102e-20 0.0000000000000000e+00  -9.9647240513229228e-04 7.0485839070215612e-20 0.0000000000000000e+00  -1.1864998850651661e-03 2.0463630697804549e-20 0.0000000000000000e+00  -1.3735107356888944e-03 -2.9558577674606562e-20 0.0000000000000000e+00  -1.5575359210981863e-03 -2.9653634771244660e-20 0.0000000000000000e+00  -1.7386063703883432e-03 -1.1254996883792498e-19 0.0000000000000000e+00  -1.9167529726987918e-03 -2.3874235814105322e-20 0.0000000000000000e+00  -2.0920065722739496e-03 2.4064358140899140e-20 0.0000000000000000e+00  -2.2643979635434837e-03 1.3272938244270452e-19 0.0000000000000000e+00  -2.4339578862240872e-03 2.7284840930406073e-20 0.0000000000000000e+00  -2.6007170204448708e-03 1.3585577046598008e-19 0.0000000000000000e+00  -2.7647059818983713e-03 3.1832314418807093e-20 0.0000000000000000e+00  -2.9259553170192785e-03 -6.3884510558710309e-21 0.0000000000000000e+00  -3.0844954981928308e-03 3.1832314418807057e-20 0.0000000000000000e+00  -3.2403569189949060e-03 -2.9558577674606563e-19 0.0000000000000000e+00  -3.3935698894657267e-03 -2.8344597173466079e-19 0.0000000000000000e+00  -3.5441646314191347e-03 6.8212102326015078e-21 0.0000000000000000e+00  -3.6921712737893299e-03 5.2295945116611627e-20 0.0000000000000000e+00  -3.8376198480169149e-03 2.9672264511816603e-19 0.0000000000000000e+00  -3.9805402834760606e-03 4.5474734884010120e-21 0.0000000000000000e+00  -4.1209624029446505e-03 -5.6441534790006020e-20 0.0000000000000000e+00  -4.2589159181190672e-03 -2.3419488465265214e-19 0.0000000000000000e+00  -4.3944304251754230e-03 -9.2588943453153844e-20 0.0000000000000000e+00  -4.5275354003788300e-03 -1.7992615835612478e-19 0.0000000000000000e+00  -4.6582601957424032e-03 -1.4324541488463178e-19 0.0000000000000000e+00  -4.7866340347375476e-03 1.9326762325704289e-20 0.0000000000000000e+00  -4.9126860080571022e-03 1.2846612604732848e-19 0.0000000000000000e+00  -5.0364450694328020e-03 1.4097167814043132e-19 0.0000000000000000e+00  -5.1579400315085715e-03 1.8684765495540015e-20 0.0000000000000000e+00  -5.2771995617709733e-03 1.8316909051744865e-19 0.0000000000000000e+00  -5.3942521785382506e-03 4.8885340000310891e-20 0.0000000000000000e+00  -5.5091262470091931e-03 7.3725461836485948e-20 0.0000000000000000e+00  -5.6218499753731303e-03 2.4925839058298046e-19 0.0000000000000000e+00  -5.7324514109822495e-03 2.0463630697804537e-19 0.0000000000000000e+00  -5.8409584365873507e-03 -6.7643668139965002e-20 0.0000000000000000e+00  -5.9473987666381952e-03 -1.7166712418713824e-19 0.0000000000000000e+00  -6.0517999436493809e-03 -1.4444564642787583e-19 0.0000000000000000e+00  -6.1541893346329177e-03 -4.3314684977019622e-19 0.0000000000000000e+00  -6.2545941275981764e-03 -3.9449332511878803e-19 0.0000000000000000e+00  -6.3530413281203324e-03 -4.9138507305518753e-19 0.0000000000000000e+00  -6.4495577559779737e-03 -2.2737367442004842e-21 0.0000000000000000e+00  -6.5441700418605994e-03 4.7634784791000561e-19 0.0000000000000000e+00  -6.6369046241469267e-03 4.5247361209590043e-19 0.0000000000000000e+00  -6.7277877457543747e-03 2.8990143488556451e-19 0.0000000000000000e+00  -6.8168454510604349e-03 -7.4897287064236033e-20 0.0000000000000000e+00  -6.9041035828965270e-03 -3.0013325023446650e-19 0.0000000000000000e+00  -6.9895877796147072e-03 -2.0804691209434642e-19 0.0000000000000000e+00  -7.0733234722275854e-03 -2.7853275116456174e-19 0.0000000000000000e+00  -7.1553358816220016e-03 -3.6379787907208072e-20 0.0000000000000000e+00  -7.2356500158464549e-03 5.0931703070091321e-19 0.0000000000000000e+00  -7.3142906674728810e-03 3.2741809116487269e-19 0.0000000000000000e+00  -7.3912824110325733e-03 -2.0463630697804525e-20 0.0000000000000000e+00  -7.4666496005266030e-03 -2.9855521632163696e-19 0.0000000000000000e+00  -7.5404163670107849e-03 -7.2759575814416203e-20 0.0000000000000000e+00  -7.6126066162550072e-03 4.6031899803748042e-20 0.0000000000000000e+00  -7.6832440264770511e-03 2.4373524961491775e-19 0.0000000000000000e+00  -7.7523520461507409e-03 4.7293724279370490e-19 0.0000000000000000e+00  -7.8199538918880800e-03 5.3205439814291780e-19 0.0000000000000000e+00  -7.8860725463954576e-03 2.9018565197858954e-19 0.0000000000000000e+00  -7.9507307565033093e-03 3.0240698697866706e-19 0.0000000000000000e+00  -8.0139510312690759e-03 -8.1606818164976702e-20 0.0000000000000000e+00  -8.0757556401530872e-03 -1.3073986279152929e-20 0.0000000000000000e+00  -8.1361666112667302e-03 -1.3187673116362939e-19 0.0000000000000000e+00  -8.1952057296925760e-03 -1.4215649697960204e-19 0.0000000000000000e+00  -8.2528945358759393e-03 -1.3045564569850396e-19 0.0000000000000000e+00  -8.3092543240869312e-03 2.9615421093211574e-19 0.0000000000000000e+00  -8.3643061409528745e-03 -5.1159076744511380e-20 0.0000000000000000e+00  -8.4180707840598307e-03 -4.4110492837489799e-19 0.0000000000000000e+00  -8.4705688006229286e-03 -6.3059274410427059e-20 0.0000000000000000e+00  -8.5218204862243310e-03 2.0179413604779437e-20 0.0000000000000000e+00  -8.5718458836183155e-03 -4.0927261395609089e-19 0.0000000000000000e+00  -8.6206647816022535e-03 -8.6535835214670154e-19 0.0000000000000000e+00  -8.6682967139528489e-03 -4.6043169070060235e-19 0.0000000000000000e+00  -8.7147609584263975e-03 -3.6379787907208066e-19 0.0000000000000000e+00  -8.7600765358222376e-03 -3.9221958837458685e-19 0.0000000000000000e+00  -8.8042622091082118e-03 -1.7621459767553918e-19 0.0000000000000000e+00  -8.8473364826070662e-03 -4.4534243905909213e-19 0.0000000000000000e+00  -8.8893176012427057e-03 -5.8207660651532934e-19 0.0000000000000000e+00  -8.9302235498450004e-03 -4.8203218977050731e-19 0.0000000000000000e+00  -8.9700720525121343e-03 -3.4118194831533156e-19 0.0000000000000000e+00  -9.0088805720289610e-03 3.3907099197890035e-19 0.0000000000000000e+00  -9.0466663093404301e-03 5.3148596395686803e-19 0.0000000000000000e+00  -9.0834462030785230e-03 6.5355720541113253e-19 0.0000000000000000e+00  -9.1192369291414662e-03 1.8587797883839143e-19 0.0000000000000000e+00  -9.1540549003238259e-03 3.3283645535218026e-19 0.0000000000000000e+00  -9.1879162659961496e-03 6.6486735294199941e-19 0.0000000000000000e+00  -9.2208369118327426e-03 4.6817660648553527e-19 0.0000000000000000e+00  -9.2528324595860436e-03 1.5609507121800150e-19 0.0000000000000000e+00  -9.2839182669062024e-03 9.2938989419195680e-20 0.0000000000000000e+00  -9.3141094272045782e-03 5.3432813488711869e-19 0.0000000000000000e+00  -9.3434207695592564e-03 3.5768721157204206e-19 0.0000000000000000e+00  -9.3718668586614366e-03 -4.0643044302584009e-19 0.0000000000000000e+00  -9.3994619948010866e-03 -6.8897947988350385e-19 0.0000000000000000e+00  -9.4262202138901945e-03 -5.4839688099185944e-19 0.0000000000000000e+00  -9.4521552875222042e-03 -5.5194959465467279e-19 0.0000000000000000e+00  -9.4772807230661098e-03 8.0149220233067815e-20 0.0000000000000000e+00  -9.5016097637934220e-03 3.6692426709535668e-19 0.0000000000000000e+00  -9.5251553890368223e-03 8.0348172198185375e-19 0.0000000000000000e+00  -9.5479303143785228e-03 1.5415935125679423e-18 0.0000000000000000e+00  -9.5699469918670375e-03 2.3811708053639798e-18 0.0000000000000000e+00  -9.5912176102606553e-03 3.3360190542166233e-18 0.0000000000000000e+00  -9.6117540952961478e-03 7.0471628215564401e-18 0.0000000000000000e+00  -9.6315681099809914e-03 1.2572627327056680e-17 0.0000000000000000e+00  -9.6506710549076717e-03 2.2902744022658946e-17 0.0000000000000000e+00  -9.6690740685884159e-03 4.2455212487711830e-17 0.0000000000000000e+00  -9.6867880278088923e-03 7.8580341879569439e-17 0.0000000000000000e+00  -9.7038235479991984e-03 1.4429239960106292e-16 0.0000000000000000e+00  -9.7201909836207058e-03 2.6437504510970449e-16 0.0000000000000000e+00  -9.7359004285672360e-03 4.8706939123123069e-16 0.0000000000000000e+00  -9.7509617165789722e-03 8.9508830166894768e-16 0.0000000000000000e+00  -9.7653844216677322e-03 1.6451224813941781e-15 0.0000000000000000e+00  -9.7791778585519986e-03 3.0202383209401954e-15 0.0000000000000000e+00  -9.7923510831004392e-03 5.5428972451180372e-15 0.0000000000000000e+00  -9.8049128927822846e-03 1.0165867462047842e-14 0.0000000000000000e+00  -9.8168718271235134e-03 1.8633606040900389e-14 0.0000000000000000e+00  -9.8282361681671301e-03 3.4128542256338464e-14 0.0000000000000000e+00  -9.8390139409368985e-03 6.2462731720663678e-14 0.0000000000000000e+00  -9.8492129139030465e-03 1.1423235887984979e-13 0.0000000000000000e+00  -9.8588405994495878e-03 2.0873960599346708e-13 0.0000000000000000e+00  -9.8679042543429515e-03 3.8110572203259819e-13 0.0000000000000000e+00  -9.8764108802025987e-03 6.9516155907927579e-13 0.0000000000000000e+00  -9.8843672239756607e-03 1.2667747668454001e-12 0.0000000000000000e+00  -9.8917797784201754e-03 2.3059961364393883e-12 0.0000000000000000e+00  -9.8986547826047