<?xml version="1.0"?>
<VTKFile type="UnstructuredGrid"  version="0.1"  >
<UnstructuredGrid>
<Piece  NumberOfPoints="1656" NumberOfCells="3000">
<Points>
<DataArray  type="Float64"  NumberOfComponents="3"  format="ascii">0 0 0  2 0 0  4 0 0  6 0 0  8 0 0  10 0 0  12 0 0  14 0 0  16 0 0  18 0 0  20 0 0  22 0 0  24 0 0  26 0 0  28 0 0  30 0 0  32 0 0  34 0 0  36 0 0  38 0 0  40 0 0  42 0 0  44 0 0  46 0 0  48 0 0  50 0 0  52 0 0  54 0 0  56 0 0  58 0 0  60 0 0  62 0 0  64 0 0  66 0 0  68 0 0  70 0 0  72 0 0  74 0 0  76 0 0  78 0 0  80 0 0  82 0 0  84 0 0  86 0 0  88 0 0  90 0 0  92 0 0  94 0 0  96 0 0  98 0 0  100 0 0  102 0 0  104 0 0  106 0 0  108 0 0  110 0 0  112 0 0  114 0 0  116 0 0  118 0 0  120 0 0  122 0 0  124 0 0  126 0 0  128 0 0  130 0 0  132 0 0  134 0 0  136 0 0  138 0 0  140 0 0  142 0 0  144 0 0  146 0 0  148 0 0  150 0 0  152 0 0  154 0 0  156 0 0  158 0 0  160 0 0  162 0 0  164 0 0  166 0 0  168 0 0  170 0 0  172 0 0  174 0 0  176 0 0  178 0 0  180 0 0  182 0 0  184 0 0  186 0 0  188 0 0  190 0 0  192 0 0  194 0 0  196 0 0  198 0 0  200 0 0  202 0 0  204 0 0  206 0 0  208 0 0  210 0 0  212 0 0  214 0 0  216 0 0  218 0 0  220 0 0  222 0 0  224 0 0  226 0 0  228 0 0  230 0 0  232 0 0  234 0 0  236 0 0  238 0 0  240 0 0  242 0 0  244 0 0  246 0 0  248 0 0  250 0 0  252 0 0  254 0 0  256 0 0  258 0 0  260 0 0  262 0 0  264 0 0  266 0 0  268 0 0  270 0 0  272 0 0  274 0 0  276 0 0  278 0 0  280 0 0  282 0 0  284 0 0  286 0 0  288 0 0  290 0 0  292 0 0  294 0 0  296 0 0  298 0 0  300 0 0  0 2 0  2 2 0  4 2 0  6 2 0  8 2 0  10 2 0  12 2 0  14 2 0  16 2 0  18 2 0  20 2 0  22 2 0  24 2 0  26 2 0  28 2 0  30 2 0  32 2 0  34 2 0  36 2 0  38 2 0  40 2 0  42 2 0  44 2 0  46 2 0  48 2 0  50 2 0  52 2 0  54 2 0  56 2 0  58 2 0  60 2 0  62 2 0  64 2 0  66 2 0  68 2 0  70 2 0  72 2 0  74 2 0  76 2 0  78 2 0  80 2 0  82 2 0  84 2 0  86 2 0  88 2 0  90 2 0  92 2 0  94 2 0  96 2 0  98 2 0  100 2 0  102 2 0  104 2 0  106 2 0  108 2 0  110 2 0  112 2 0  114 2 0  116 2 0  118 2 0  120 2 0  122 2 0  124 2 0  126 2 0  128 2 0  130 2 0  132 2 0  134 2 0  136 2 0  138 2 0  140 2 0  142 2 0  144 2 0  146 2 0  148 2 0  150 2 0  152 2 0  154 2 0  156 2 0  158 2 0  160 2 0  162 2 0  164 2 0  166 2 0  168 2 0  170 2 0  172 2 0  174 2 0  176 2 0  178 2 0  180 2 0  182 2 0  184 2 0  186 2 0  188 2 0  190 2 0  192 2 0  194 2 0  196 2 0  198 2 0  200 2 0  202 2 0  204 2 0  206 2 0  208 2 0  210 2 0  212 2 0  214 2 0  216 2 0  218 2 0  220 2 0  222 2 0  224 2 0  226 2 0  228 2 0  230 2 0  232 2 0  234 2 0  236 2 0  238 2 0  240 2 0  242 2 0  244 2 0  246 2 0  248 2 0  250 2 0  252 2 0  254 2 0  256 2 0  258 2 0  260 2 0  262 2 0  264 2 0  266 2 0  268 2 0  270 2 0  272 2 0  274 2 0  276 2 0  278 2 0  280 2 0  282 2 0  284 2 0  286 2 0  288 2 0  290 2 0  292 2 0  294 2 0  296 2 0  298 2 0  300 2 0  0 4 0  2 4 0  4 4 0  6 4 0  8 4 0  10 4 0  12 4 0  14 4 0  16 4 0  18 4 0  20 4 0  22 4 0  24 4 0  26 4 0  28 4 0  30 4 0  32 4 0  34 4 0  36 4 0  38 4 0  40 4 0  42 4 0  44 4 0  46 4 0  48 4 0  50 4 0  52 4 0  54 4 0  56 4 0  58 4 0  60 4 0  62 4 0  64 4 0  66 4 0  68 4 0  70 4 0  72 4 0  74 4 0  76 4 0  78 4 0  80 4 0  82 4 0  84 4 0  86 4 0  88 4 0  90 4 0  92 4 0  94 4 0  96 4 0  98 4 0  100 4 0  102 4 0  104 4 0  106 4 0  108 4 0  110 4 0  112 4 0  114 4 0  116 4 0  118 4 0  120 4 0  122 4 0  124 4 0  126 4 0  128 4 0  130 4 0  132 4 0  134 4 0  136 4 0  138 4 0  140 4 0  142 4 0  144 4 0  146 4 0  148 4 0  150 4 0  152 4 0  154 4 0  156 4 0  158 4 0  160 4 0  162 4 0  164 4 0  166 4 0  168 4 0  170 4 0  172 4 0  174 4 0  176 4 0  178 4 0  180 4 0  182 4 0  184 4 0  186 4 0  188 4 0  190 4 0  192 4 0  194 4 0  196 4 0  198 4 0  200 4 0  202 4 0  204 4 0  206 4 0  208 4 0  210 4 0  212 4 0  214 4 0  216 4 0  218 4 0  220 4 0  222 4 0  224 4 0  226 4 0  228 4 0  230 4 0  232 4 0  234 4 0  236 4 0  238 4 0  240 4 0  242 4 0  244 4 0  246 4 0  248 4 0  250 4 0  252 4 0  254 4 0  256 4 0  258 4 0  260 4 0  262 4 0  264 4 0  266 4 0  268 4 0  270 4 0  272 4 0  274 4 0  276 4 0  278 4 0  280 4 0  282 4 0  284 4 0  286 4 0  288 4 0  290 4 0  292 4 0  294 4 0  296 4 0  298 4 0  300 4 0  0 6 0  2 6 0  4 6 0  6 6 0  8 6 0  10 6 0  12 6 0  14 6 0  16 6 0  18 6 0  20 6 0  22 6 0  24 6 0  26 6 0  28 6 0  30 6 0  32 6 0  34 6 0  36 6 0  38 6 0  40 6 0  42 6 0  44 6 0  46 6 0  48 6 0  50 6 0  52 6 0  54 6 0  56 6 0  58 6 0  60 6 0  62 6 0  64 6 0  66 6 0  68 6 0  70 6 0  72 6 0  74 6 0  76 6 0  78 6 0  80 6 0  82 6 0  84 6 0  86 6 0  88 6 0  90 6 0  92 6 0  94 6 0  96 6 0  98 6 0  100 6 0  102 6 0  104 6 0  106 6 0  108 6 0  110 6 0  112 6 0  114 6 0  116 6 0  118 6 0  120 6 0  122 6 0  124 6 0  126 6 0  128 6 0  130 6 0  132 6 0  134 6 0  136 6 0  138 6 0  140 6 0  142 6 0  144 6 0  146 6 0  148 6 0  150 6 0  152 6 0  154 6 0  156 6 0  158 6 0  160 6 0  162 6 0  164 6 0  166 6 0  168 6 0  170 6 0  172 6 0  174 6 0  176 6 0  178 6 0  180 6 0  182 6 0  184 6 0  186 6 0  188 6 0  190 6 0  192 6 0  194 6 0  196 6 0  198 6 0  200 6 0  202 6 0  204 6 0  206 6 0  208 6 0  210 6 0  212 6 0  214 6 0  216 6 0  218 6 0  220 6 0  222 6 0  224 6 0  226 6 0  228 6 0  230 6 0  232 6 0  234 6 0  236 6 0  238 6 0  240 6 0  242 6 0  244 6 0  246 6 0  248 6 0  250 6 0  252 6 0  254 6 0  256 6 0  258 6 0  260 6 0  262 6 0  264 6 0  266 6 0  268 6 0  270 6 0  272 6 0  274 6 0  276 6 0  278 6 0  280 6 0  282 6 0  284 6 0  286 6 0  288 6 0  290 6 0  292 6 0  294 6 0  296 6 0  298 6 0  300 6 0  0 8 0  2 8 0  4 8 0  6 8 0  8 8 0  10 8 0  12 8 0  14 8 0  16 8 0  18 8 0  20 8 0  22 8 0  24 8 0  26 8 0  28 8 0  30 8 0  32 8 0  34 8 0  36 8 0  38 8 0  40 8 0  42 8 0  44 8 0  46 8 0  48 8 0  50 8 0  52 8 0  54 8 0  56 8 0  58 8 0  60 8 0  62 8 0  64 8 0  66 8 0  68 8 0  70 8 0  72 8 0  74 8 0  76 8 0  78 8 0  80 8 0  82 8 0  84 8 0  86 8 0  88 8 0  90 8 0  92 8 0  94 8 0  96 8 0  98 8 0  100 8 0  102 8 0  104 8 0  106 8 0  108 8 0  110 8 0  112 8 0  114 8 0  116 8 0  118 8 0  120 8 0  122 8 0  124 8 0  126 8 0  128 8 0  130 8 0  132 8 0  134 8 0  136 8 0  138 8 0  140 8 0  142 8 0  144 8 0  146 8 0  148 8 0  150 8 0  152 8 0  154 8 0  156 8 0  158 8 0  160 8 0  162 8 0  164 8 0  166 8 0  168 8 0  170 8 0  172 8 0  174 8 0  176 8 0  178 8 0  180 8 0  182 8 0  184 8 0  186 8 0  188 8 0  190 8 0  192 8 0  194 8 0  196 8 0  198 8 0  200 8 0  202 8 0  204 8 0  206 8 0  208 8 0  210 8 0  212 8 0  214 8 0  216 8 0  218 8 0  220 8 0  222 8 0  224 8 0  226 8 0  228 8 0  230 8 0  232 8 0  234 8 0  236 8 0  238 8 0  240 8 0  242 8 0  244 8 0  246 8 0  248 8 0  250 8 0  252 8 0  254 8 0  256 8 0  258 8 0  260 8 0  262 8 0  264 8 0  266 8 0  268 8 0  270 8 0  272 8 0  274 8 0  276 8 0  278 8 0  280 8 0  282 8 0  284 8 0  286 8 0  288 8 0  290 8 0  292 8 0  294 8 0  296 8 0  298 8 0  300 8 0  0 10 0  2 10 0  4 10 0  6 10 0  8 10 0  10 10 0  12 10 0  14 10 0  16 10 0  18 10 0  20 10 0  22 10 0  24 10 0  26 10 0  28 10 0  30 10 0  32 10 0  34 10 0  36 10 0  38 10 0  40 10 0  42 10 0  44 10 0  46 10 0  48 10 0  50 10 0  52 10 0  54 10 0  56 10 0  58 10 0  60 10 0  62 10 0  64 10 0  66 10 0  68 10 0  70 10 0  72 10 0  74 10 0  76 10 0  78 10 0  80 10 0  82 10 0  84 10 0  86 10 0  88 10 0  90 10 0  92 10 0  94 10 0  96 10 0  98 10 0  100 10 0  102 10 0  104 10 0  106 10 0  108 10 0  110 10 0  112 10 0  114 10 0  116 10 0  118 10 0  120 10 0  122 10 0  124 10 0  126 10 0  128 10 0  130 10 0  132 10 0  134 10 0  136 10 0  138 10 0  140 10 0  142 10 0  144 10 0  146 10 0  148 10 0  150 10 0  152 10 0  154 10 0  156 10 0  158 10 0  160 10 0  162 10 0  164 10 0  166 10 0  168 10 0  170 10 0  172 10 0  174 10 0  176 10 0  178 10 0  180 10 0  182 10 0  184 10 0  186 10 0  188 10 0  190 10 0  192 10 0  194 10 0  196 10 0  198 10 0  200 10 0  202 10 0  204 10 0  206 10 0  208 10 0  210 10 0  212 10 0  214 10 0  216 10 0  218 10 0  220 10 0  222 10 0  224 10 0  226 10 0  228 10 0  230 10 0  232 10 0  234 10 0  236 10 0  238 10 0  240 10 0  242 10 0  244 10 0  246 10 0  248 10 0  250 10 0  252 10 0  254 10 0  256 10 0  258 10 0  260 10 0  262 10 0  264 10 0  266 10 0  268 10 0  270 10 0  272 10 0  274 10 0  276 10 0  278 10 0  280 10 0  282 10 0  284 10 0  286 10 0  288 10 0  290 10 0  292 10 0  294 10 0  296 10 0  298 10 0  300 10 0  1 1 0  3 1 0  5 1 0  7 1 0  9 1 0  11 1 0  13 1 0  15 1 0  17 1 0  19 1 0  21 1 0  23 1 0  25 1 0  27 1 0  29 1 0  31 1 0  33 1 0  35 1 0  37 1 0  39 1 0  41 1 0  43 1 0  45 1 0  47 1 0  49 1 0  51 1 0  53 1 0  55 1 0  57 1 0  59 1 0  61 1 0  63 1 0  65 1 0  67 1 0  69 1 0  71 1 0  73 1 0  75 1 0  77 1 0  79 1 0  81 1 0  83 1 0  85 1 0  87 1 0  89 1 0  91 1 0  93 1 0  95 1 0  97 1 0  99 1 0  101 1 0  103 1 0  105 1 0  107 1 0  109 1 0  111 1 0  113 1 0  115 1 0  117 1 0  119 1 0  121 1 0  123 1 0  125 1 0  127 1 0  129 1 0  131 1 0  133 1 0  135 1 0  137 1 0  139 1 0  141 1 0  143 1 0  145 1 0  147 1 0  149 1 0  151 1 0  153 1 0  155 1 0  157 1 0  159 1 0  161 1 0  163 1 0  165 1 0  167 1 0  169 1 0  171 1 0  173 1 0  175 1 0  177 1 0  179 1 0  181 1 0  183 1 0  185 1 0  187 1 0  189 1 0  191 1 0  193 1 0  195 1 0  197 1 0  199 1 0  201 1 0  203 1 0  205 1 0  207 1 0  209 1 0  211 1 0  213 1 0  215 1 0  217 1 0  219 1 0  221 1 0  223 1 0  225 1 0  227 1 0  229 1 0  231 1 0  233 1 0  235 1 0  237 1 0  239 1 0  241 1 0  243 1 0  245 1 0  247 1 0  249 1 0  251 1 0  253 1 0  255 1 0  257 1 0  259 1 0  261 1 0  263 1 0  265 1 0  267 1 0  269 1 0  271 1 0  273 1 0  275 1 0  277 1 0  279 1 0  281 1 0  283 1 0  285 1 0  287 1 0  289 1 0  291 1 0  293 1 0  295 1 0  297 1 0  299 1 0  1 3 0  3 3 0  5 3 0  7 3 0  9 3 0  11 3 0  13 3 0  15 3 0  17 3 0  19 3 0  21 3 0  23 3 0  25 3 0  27 3 0  29 3 0  31 3 0  33 3 0  35 3 0  37 3 0  39 3 0  41 3 0  43 3 0  45 3 0  47 3 0  49 3 0  51 3 0  53 3 0  55 3 0  57 3 0  59 3 0  61 3 0  63 3 0  65 3 0  67 3 0  69 3 0  71 3 0  73 3 0  75 3 0  77 3 0  79 3 0  81 3 0  83 3 0  85 3 0  87 3 0  89 3 0  91 3 0  93 3 0  95 3 0  97 3 0  99 3 0  101 3 0  103 3 0  105 3 0  107 3 0  109 3 0  111 3 0  113 3 0  115 3 0  117 3 0  119 3 0  121 3 0  123 3 0  125 3 0
[...]
<PointData  Vectors="displacement"> 
<DataArray  type="Float64"  Name="displacement"  NumberOfComponents="3" format="ascii">-1.0164395367051601e-20 1.4105932209867442e-36 0.0000000000000000e+00  -2.3005000614003985e-04 -1.4105932209867450e-36 0.0000000000000000e+00  -4.5692462874748289e-04 -7.6851742479508829e-37 0.0000000000000000e+00  -6.8065135023574665e-04 2.2569491535787920e-36 0.0000000000000000e+00  -9.0125764558695177e-04 -1.1810082676225363e-36 0.0000000000000000e+00  -1.1187709786390620e-03 -1.4105932209867450e-36 0.0000000000000000e+00  -1.3332187983763797e-03 -1.0191536021629233e-35 0.0000000000000000e+00  -1.5446285352244853e-03 -3.9496610187628860e-36 0.0000000000000000e+00  -1.7530275973507616e-03 2.3251467598050091e-38 0.0000000000000000e+00  -1.9584433669715788e-03 -2.1299957636899850e-35 0.0000000000000000e+00  -2.1609031966672585e-03 4.5107847140217285e-36 0.0000000000000000e+00  -2.3604344057058880e-03 1.1284745767893960e-35 0.0000000000000000e+00  -2.5570642763771113e-03 5.6892714729952506e-36 0.0000000000000000e+00  -2.7508200503369232e-03 -2.0312542382209128e-35 0.0000000000000000e+00  -2.9417289249646025e-03 9.0983262753645053e-36 0.0000000000000000e+00  -3.1298180497327651e-03 6.7708474607363760e-36 0.0000000000000000e+00  -3.3151145225916775e-03 -1.3733634895473724e-35 0.0000000000000000e+00  -3.4976453863688230e-03 2.2569491535787920e-35 0.0000000000000000e+00  -3.6774376251847291e-03 -3.7236354956188381e-35 0.0000000000000000e+00  -3.8545181608861468e-03 -1.1284745767893960e-36 0.0000000000000000e+00  -4.0289138494975264e-03 9.1034160447185803e-36 0.0000000000000000e+00  -4.2006514776918120e-03 1.8055593228630336e-35 0.0000000000000000e+00  -4.3697577592815128e-03 1.4670169498262148e-35 0.0000000000000000e+00  -4.5362593317310393e-03 2.2569491535787920e-36 0.0000000000000000e+00  -4.7001827526912399e-03 -9.0893680540794856e-36 0.0000000000000000e+00  -4.8615544965570660e-03 3.9496610187628860e-35 0.0000000000000000e+00  -5.0204009510492736e-03 -1.1944859314277601e-35 0.0000000000000000e+00  -5.1767484138211103e-03 4.5138983071575840e-36 0.0000000000000000e+00  -5.3306230890907778e-03 -4.3476082712608479e-35 0.0000000000000000e+00  -5.4820510843006159e-03 3.2725762726892484e-35 0.0000000000000000e+00  -5.6310584068037959e-03 -5.7834322060456545e-36 0.0000000000000000e+00  -5.7776709605793621e-03 0.0000000000000000e+00 0.0000000000000000e+00  -5.9219145429764645e-03 -2.7209657022858896e-35 0.0000000000000000e+00  -6.0638148414884430e-03 8.1250169528836513e-35 0.0000000000000000e+00  -6.2033974305576653e-03 -2.4495832903197944e-35 0.0000000000000000e+00  -6.3406877684117954e-03 2.0312542382209128e-35 0.0000000000000000e+00  -6.4757111939321389e-03 4.5168067467884842e-36 0.0000000000000000e+00  -6.6084929235548859e-03 2.3697966112577316e-35 0.0000000000000000e+00  -6.7390580482058308e-03 5.6423728839469800e-37 0.0000000000000000e+00  -6.8674315302692402e-03 -1.3541694921472752e-35 0.0000000000000000e+00  -6.9936382005914600e-03 -1.5912183991306668e-35 0.0000000000000000e+00  -7.1177027555199583e-03 4.5138983071575840e-36 0.0000000000000000e+00  -7.2396497539781984e-03 -2.2026743753494192e-35 0.0000000000000000e+00  -7.3595036145771217e-03 2.4826440689366712e-35 0.0000000000000000e+00  -7.4772886127634913e-03 -5.4059167419547696e-35 0.0000000000000000e+00  -7.5930288780058858e-03 4.5138983071575840e-35 0.0000000000000000e+00  -7.7067483910185121e-03 2.0876779670603826e-35 0.0000000000000000e+00  -7.8184709810235724e-03 4.0625084764418256e-35 0.0000000000000000e+00  -7.9282203230523554e-03 -1.8147663520696031e-35 0.0000000000000000e+00  -8.0360199352856147e-03 -3.1597288150103088e-35 0.0000000000000000e+00  -8.1418931764335387e-03 -1.7861636660744659e-35 0.0000000000000000e+00  -8.2458632431555989e-03 2.3133728824182618e-35 0.0000000000000000e+00  -8.3479531675206865e-03 -2.6947420290200910e-35 0.0000000000000000e+00  -8.4481858145077828e-03 4.9652881378733424e-35 0.0000000000000000e+00  -8.5465838795473741e-03 2.6378093232452132e-35 0.0000000000000000e+00  -8.6431698861039411e-03 1.8055593228630336e-35 0.0000000000000000e+00  -8.7379661832996010e-03 -1.7892811498038374e-35 0.0000000000000000e+00  -8.8309949435792616e-03 6.7708474607363760e-36 0.0000000000000000e+00  -8.9222781604172009e-03 3.1579655734840754e-35 0.0000000000000000e+00  -9.0118376460654771e-03 -4.5138983071575840e-35 0.0000000000000000e+00  -9.0996950293439904e-03 6.7787002477398079e-35 0.0000000000000000e+00  -9.1858717534724806e-03 -2.4826440689366712e-35 0.0000000000000000e+00  -9.2703890739443892e-03 1.5234406786656846e-35 0.0000000000000000e+00  -9.3532680564427373e-03 3.6111186457260672e-35 0.0000000000000000e+00  -9.4345295747977481e-03 -7.6863350079305104e-35 0.0000000000000000e+00  -9.5141943089865587e-03 -1.5798644075051544e-35 0.0000000000000000e+00  -9.5922827431746890e-03 -2.4653298379477870e-35 0.0000000000000000e+00  -9.6688151637992058e-03 3.3854237303681880e-36 0.0000000000000000e+00  -9.7438116576936736e-03 -1.7927621884870713e-35 0.0000000000000000e+00  -9.8172921102545278e-03 2.3697966112577316e-35 0.0000000000000000e+00  -9.8892762036489092e-03 2.4826440689366712e-35 0.0000000000000000e+00  -9.9597834150636048e-03 -3.6111186457260672e-35 0.0000000000000000e+00  -1.0028833014995103e-02 2.5002962978026961e-35 0.0000000000000000e+00  -1.0096444065580338e-02 -9.0277966143151681e-36 0.0000000000000000e+00  -1.0162635418968044e-02 3.4245324000088330e-35 0.0000000000000000e+00  -1.0227425715730308e-02 8.1250169528836513e-35 0.0000000000000000e+00  -1.0290833383314206e-02 -1.0400434698118662e-34 0.0000000000000000e+00  -1.0352876634533046e-02 2.7083389842945504e-35 0.0000000000000000e+00  -1.0413573466096997e-02 -3.5829067813063323e-35 0.0000000000000000e+00  -1.0472941657182700e-02 4.5138983071575840e-35 0.0000000000000000e+00  -1.0530998768041557e-02 -1.3862350390779533e-35 0.0000000000000000e+00  -1.0587762138646272e-02 0.0000000000000000e+00 0.0000000000000000e+00  -1.0643248887375157e-02 -6.2207161045515455e-35 0.0000000000000000e+00  -1.0697475909734041e-02 -9.0277966143151681e-36 0.0000000000000000e+00  -1.0750459877114952e-02 -2.7218632285782376e-35 0.0000000000000000e+00  -1.0802217235591560e-02 7.6736271221678929e-35 0.0000000000000000e+00  -1.0852764204750523e-02 -2.6237033910353457e-35 0.0000000000000000e+00  -1.0902116776558484e-02 5.8680677993048592e-35 0.0000000000000000e+00  -1.0950290714264191e-02 -3.6546824783661309e-35 0.0000000000000000e+00  -1.0997301551335055e-02 1.5798644075051544e-34 0.0000000000000000e+00  -1.1043164590427972e-02 -8.4513835321722792e-35 0.0000000000000000e+00  -1.1087894902393383e-02 6.4887288165390270e-36 0.0000000000000000e+00  -1.1131507325312583e-02 -1.7913079686716211e-35 0.0000000000000000e+00  -1.1174016463567145e-02 -9.0277966143151681e-36 0.0000000000000000e+00  -1.1215436686940413e-02 2.7647627131340202e-35 0.0000000000000000e+00  -1.1255782129750024e-02 -2.7083389842945504e-35 0.0000000000000000e+00  -1.1295066690011346e-02 2.1352459062574829e-37 0.0000000000000000e+00  -1.1333304028630673e-02 -7.2222372914521344e-35 0.0000000000000000e+00  -1.1370507568628136e-02 4.1423770581395275e-35 0.0000000000000000e+00  -1.1406690494389285e-02 -3.3854237303681880e-35 0.0000000000000000e+00  -1.1441865750945015e-02 1.9312039149179350e-35 0.0000000000000000e+00  -1.1476046043278997e-02 7.2222372914521344e-35 0.0000000000000000e+00  -1.1509243835662181e-02 2.4375050858650954e-34 0.0000000000000000e+00  -1.1541471351013563e-02 1.0833355937178202e-34 0.0000000000000000e+00  -1.1572740570286736e-02 -5.8743189486359027e-34 0.0000000000000000e+00  -1.1603063231881492e-02 1.8777816957775550e-33 0.0000000000000000e+00  -1.1632450831079857e-02 -1.8726648401993769e-33 0.0000000000000000e+00  -1.1660914619505962e-02 4.0444528832131953e-33 0.0000000000000000e+00  -1.1688465604609070e-02 -2.2098556990752514e-33 0.0000000000000000e+00  -1.1715114549169191e-02 -8.0889057664263906e-33 0.0000000000000000e+00  -1.1740871970824440e-02 1.9644485432749806e-32 0.0000000000000000e+00  -1.1765748141619924e-02 1.3866695599588098e-32 0.0000000000000000e+00  -1.1789753087577078e-02 -3.6105229972896591e-32 0.0000000000000000e+00  -1.1812896588283078e-02 3.6977854932234928e-32 0.0000000000000000e+00  -1.1835188176499693e-02 1.6928924211163803e-31 0.0000000000000000e+00  -1.1856637137791011e-02 5.9164567891575885e-31 0.0000000000000000e+00  -1.1877252510169210e-02 -8.7069505840437714e-31 0.0000000000000000e+00  -1.1897043083758220e-02 1.0353799381025780e-30 0.0000000000000000e+00  -1.1916017400474415e-02 3.2540512340366737e-30 0.0000000000000000e+00  -1.1934183753723980e-02 -1.1832913578315177e-30 0.0000000000000000e+00  -1.1951550188116770e-02 5.6508452383943452e-30 0.0000000000000000e+00  -1.1968124499196273e-02 1.6566079009641248e-29 0.0000000000000000e+00  -1.1983914233185960e-02 -5.1528640848069373e-29 0.0000000000000000e+00  -1.1998926686752870e-02 7.5730646901217133e-29 0.0000000000000000e+00  -1.2013168906789773e-02 -3.8011710010340300e-29 0.0000000000000000e+00  -1.2026647690219694e-02 3.7865323450608567e-29 0.0000000000000000e+00  -1.2039369583827942e-02 -2.8398992587956425e-29 0.0000000000000000e+00  -1.2051340884132740e-02 8.3303711591338847e-28 0.0000000000000000e+00  -1.2062567637311047e-02 -1.0802352197803769e-27 0.0000000000000000e+00  -1.2073055639208229e-02 3.6350710512584224e-27 0.0000000000000000e+00  -1.2082810435476436e-02 -3.8811956536873781e-27 0.0000000000000000e+00  -1.2091837321910184e-02 6.0584517520973707e-28 0.0000000000000000e+00  -1.2100141345077597e-02 5.6212438936985770e-29 0.0000000000000000e+00  -1.2107727303375223e-02 -9.6935228033557931e-27 0.0000000000000000e+00  -1.2114599748638155e-02 1.0905213153775267e-26 0.0000000000000000e+00  -1.2120762988353254e-02 8.7241705230202138e-26 0.0000000000000000e+00  -1.2126221088189240e-02 -9.8005996922475655e-26 0.0000000000000000e+00  -1.2130977873626634e-02 2.7141863849396221e-25 0.0000000000000000e+00  -1.2135036927179384e-02 -2.0772916445003860e-25 0.0000000000000000e+00  -1.2138401572530013e-02 3.1019272970738538e-25 0.0000000000000000e+00  -1.2141074825942495e-02 9.2058486664446983e-25 0.0000000000000000e+00  -1.2143059273410688e-02 -9.3057818912215613e-25 0.0000000000000000e+00  -1.2144356790358645e-02 -1.9387045606711586e-24 0.0000000000000000e+00  -1.2144967941993892e-02 -1.2407709188295415e-24 0.0000000000000000e+00  -1.2144890726632798e-02 -4.9583311624631957e-24 0.0000000000000000e+00  -1.2144117733171162e-02 1.9852334701272664e-23 0.0000000000000000e+00  -1.2142627967005193e-02 9.2198749386429932e-25 0.0000000000000000e+00  -1.2140356577314141e-02 0.0000000000000000e+00 0.0000000000000000e+00  -1.2137081735194314e-02 7.5066640589187261e-23 0.0000000000000000e+00  -1.2132270877272359e-02 3.3748968992163529e-22 0.0000000000000000e+00  -1.2125153814505732e-02 -7.9409338805090680e-23 0.0000000000000000e+00  0.0000000000000000e+00 -5.6423728839469800e-36 0.0000000000000000e+00  -2.3005000614003979e-04 6.9618157067440810e-20 0.0000000000000000e+00  -4.5692462874748251e-04 3.0270236232101009e-20 0.0000000000000000e+00  -6.8065135023574622e-04 4.2064129767709339e-20 0.0000000000000000e+00  -9.0125764558695090e-04 1.8189893953604042e-20 0.0000000000000000e+00  -1.1187709786390620e-03 4.3200998139809611e-20 0.0000000000000000e+00  -1.3332187983763791e-03 -4.5474734884010097e-21 0.0000000000000000e+00  -1.5446285352244838e-03 -1.5916157209403538e-20 0.0000000000000000e+00  -1.7530275973507618e-03 -4.1620044937809832e-20 0.0000000000000000e+00  -1.9584433669715797e-03 -1.6257217721033604e-19 0.0000000000000000e+00  -2.1609031966672572e-03 1.0231815348902267e-20 0.0000000000000000e+00  -2.3604344057058888e-03 7.8958837384707982e-20 0.0000000000000000e+00  -2.5570642763771091e-03 1.7593038058251410e-19 0.0000000000000000e+00  -2.7508200503369249e-03 1.0231815348902271e-19 0.0000000000000000e+00  -2.9417289249646004e-03 1.0004441674482218e-19 0.0000000000000000e+00  -3.1298180497327643e-03 -2.2737367442004966e-21 0.0000000000000000e+00  -3.3151145225916775e-03 -9.2827879757568461e-20 0.0000000000000000e+00  -3.4976453863688208e-03 -8.7538864651719548e-20 0.0000000000000000e+00  -3.6774376251847247e-03 -2.9103830325766457e-19 0.0000000000000000e+00  -3.8545181608861463e-03 -2.2496124273132714e-19 0.0000000000000000e+00  -4.0289138494975256e-03 7.1622707442315926e-20 0.0000000000000000e+00  -4.2006514776918077e-03 4.0927261395609080e-20 0.0000000000000000e+00  -4.3697577592815111e-03 1.8928858395469212e-19 0.0000000000000000e+00  -4.5362593317310402e-03 -1.9554136000124349e-19 0.0000000000000000e+00  -4.7001827526912416e-03 -2.2122338078458516e-19 0.0000000000000000e+00  -4.8615544965570573e-03 -2.9558577674606583e-19 0.0000000000000000e+00  -5.0204009510492744e-03 -1.3995986781816392e-19 0.0000000000000000e+00  -5.1767484138211094e-03 -1.3844189546719161e-19 0.0000000000000000e+00  -5.3306230890907743e-03 -2.9899638186236635e-19 0.0000000000000000e+00  -5.4820510843006107e-03 4.5474734884010058e-20 0.0000000000000000e+00  -5.6310584068037890e-03 4.5474734884010210e-21 0.0000000000000000e+00  -5.7776709605793638e-03 -1.5006662511723337e-19 0.0000000000000000e+00  -5.9219145429764601e-03 -4.9287520623271588e-20 0.0000000000000000e+00  -6.0638148414884309e-03 3.8225821806033345e-19 0.0000000000000000e+00  -6.2033974305576696e-03 4.2916781046784596e-20 0.0000000000000000e+00  -6.3406877684117910e-03 1.3226823709890769e-19 0.0000000000000000e+00  -6.4757111939321320e-03 2.0406787279199525e-19 0.0000000000000000e+00  -6.6084929235548919e-03 2.6375346232725849e-19 0.0000000000000000e+00  -6.7390580482058334e-03 2.1600499069904775e-20 0.0000000000000000e+00  -6.8674315302692367e-03 -3.0013325023446665e-19 0.0000000000000000e+00  -6.9936382005914600e-03 -2.3039029758739791e-19 0.0000000000000000e+00  -7.1177027555199574e-03 -2.3078427953635128e-19 0.0000000000000000e+00  -7.2396497539781984e-03 -3.4219738000217598e-19 0.0000000000000000e+00  -7.3595036145771148e-03 -4.5030063965328411e-19 0.0000000000000000e+00  -7.4772886127634931e-03 1.1937117907052662e-19 0.0000000000000000e+00  -7.5930288780058789e-03 5.0931703070091301e-19 0.0000000000000000e+00  -7.7067483910185156e-03 3.5015545860687785e-19 0.0000000000000000e+00  -7.8184709810235654e-03 2.9785951349026629e-19 0.0000000000000000e+00  -7.9282203230523467e-03 -2.4916309020270099e-19 0.0000000000000000e+00  -8.0360199352856182e-03 -3.2855495953697294e-19 0.0000000000000000e+00  -8.1418931764335404e-03 -2.1032064883854669e-19 0.0000000000000000e+00  -8.2458632431555937e-03 -3.3594460395562466e-19 0.0000000000000000e+00  -8.3479531675206865e-03 -3.6379787907208060e-20 0.0000000000000000e+00  -8.4481858145077811e-03 4.3655745488649698e-19 0.0000000000000000e+00  -8.5465838795473741e-03 3.5413449790922867e-19 0.0000000000000000e+00  -8.6431698861039342e-03 -4.3200998139809606e-19 0.0000000000000000e+00  -8.7379661832996079e-03 -1.4887405708951321e-19 0.0000000000000000e+00  -8.8309949435792547e-03 2.9103830325766462e-19 0.0000000000000000e+00  -8.9222781604171957e-03 6.3688649483064004e-20 0.0000000000000000e+00  -9.0118376460654719e-03 1.5889946927580506e-19 0.0000000000000000e+00  -9.0996950293439956e-03 5.0931703070091292e-19 0.0000000000000000e+00  -9.1858717534724719e-03 4.4224179674699830e-19 0.0000000000000000e+00  -9.2703890739444014e-03 2.5920598883885757e-19 0.0000000000000000e+00  -9.3532680564427338e-03 2.4670043674575483e-19 0.0000000000000000e+00  -9.4345295747977377e-03 -6.1883621054251956e-19 0.0000000000000000e+00  -9.5141943089865604e-03 -3.2059688093227107e-19 0.0000000000000000e+00  -9.5922827431746890e-03 -1.7735146604763936e-19 0.0000000000000000e+00  -9.6688151637992024e-03 -1.7794022578232210e-19 0.0000000000000000e+00  -9.7438116576936597e-03 -4.5190517790985037e-20 0.0000000000000000e+00  -9.8172921102545208e-03 3.8767211488618608e-19 0.0000000000000000e+00  -9.8892762036489022e-03 1.0800249534952398e-19 0.0000000000000000e+00  -9.9597834150635944e-03 -1.7053025581503784e-19 0.0000000000000000e+00  -1.0028833014995098e-02 3.0247254386145338e-19 0.0000000000000000e+00  -1.0096444065580339e-02 1.9269918907099278e-19 0.0000000000000000e+00  -1.0162635418968034e-02 -4.7293724279370538e-19 0.0000000000000000e+00  -1.0227425715730303e-02 -8.9436263009129902e-19 0.0000000000000000e+00  -1.0290833383314199e-02 -6.5426774814369551e-19 0.0000000000000000e+00  -1.0352876634533039e-02 -4.3655745488649717e-19 0.0000000000000000e+00  -1.0413573466096991e-02 -7.1139538384173307e-19 0.0000000000000000e+00  -1.0472941657182697e-02 1.2505552093102754e-20 0.0000000000000000e+00  -1.0530998768041554e-02 -2.0081706934483892e-19 0.0000000000000000e+00  -1.0587762138646267e-02 -4.3655745488649708e-19 0.0000000000000000e+00  -1.0643248887375162e-02 -6.3664628837614112e-19 0.0000000000000000e+00  -1.0697475909734029e-02 -3.6370710110676441e-19 0.0000000000000000e+00  -1.0750459877114954e-02 2.0634160953619590e-19 0.0000000000000000e+00  -1.0802217235591554e-02 8.2195583302848212e-19 0.0000000000000000e+00  -1.0852764204750518e-02 5.4455995023602131e-19 0.0000000000000000e+00  -1.0902116776558479e-02 5.1898041186376558e-19 0.0000000000000000e+00  -1.0950290714264180e-02 3.8441009707431540e-19 0.0000000000000000e+00  -1.0997301551335050e-02 1.0204095929038955e-18 0.0000000000000000e+00  -1.1043164590427954e-02 5.1265658154395794e-19 0.0000000000000000e+00  -1.1087894902393390e-02 -1.0691583322695949e-19 0.0000000000000000e+00  -1.1131507325312578e-02 1.9539925145473117e-20 0.0000000000000000e+00  -1.1174016463567138e-02 6.6393112930654740e-19 0.0000000000000000e+00  -1.1215436686940389e-02 5.5976556471286169e-19 0.0000000000000000e+00  -1.1255782129750022e-02 -1.7223555837318817e-19 0.0000000000000000e+00  -1.1295066690011330e-02 -4.3283628861253501e-19 0.0000000000000000e+00  -1.1333304028630663e-02 -9.0835782930810158e-19 0.0000000000000000e+00  -1.1370507568628134e-02 -7.9239725535387668e-19 0.0000000000000000e+00  -1.1406690494389280e-02 -1.8701484721049166e-19 0.0000000000000000e+00  -1.1441865750945012e-02 2.3618440430382747e-19 0.0000000000000000e+00  -1.1476046043278986e-02 7.5601746744666799e-19 0.0000000000000000e+00  -1.1509243835662177e-02 1.4276224582648926e-18 0.0000000000000000e+00  -1.1541471351013561e-02 1.6353851532662137e-18 0.0000000000000000e+00  -1.1572740570286736e-02 3.4110601441795389e-18 0.0000000000000000e+00  -1.1603063231881488e-02 6.2206595150395531e-18 0.0000000000000000e+00  -1.1632450831079853e-02 1.1633431943155378e-17 0.0000000000000000e+00  -1.1660914619505958e-02 2.1132711026176214e-17 0.0000000000000000e+00  -1.1688465604609068e-02 3.9253791151877541e-17 0.0000000000000000e+00  -1.1715114549169157e-02 7.3050614117673855e-17 0.0000000000000000e+00  -1.1740871970824402e-02 1.3347673128881383e-16 0.0000000000000000e+00  -1.1765748141619858e-02 2.4415442002643628e-16 0.0000000000000000e+00  -1.1789753087576961e-02 4.4914373129117495e-16 0.0000000000000000e+00  -1.1812896588282846e-02 8.2596670464525240e-16 0.0000000000000000e+00  -1.1835188176499300e-02 1.5187049664971845e-15 0.0000000000000000e+00  -1.1856637137790272e-02 2.7881472791640337e-15 0.0000000000000000e+00  -1.1877252510167894e-02 5.1166716499971909e-15 0.0000000000000000e+00  -1.1897043083755854e-02 9.3838067560416454e-15 0.0000000000000000e+00  -1.1916017400470118e-02 1.7199504178984395e-14 0.0000000000000000e+00  -1.1934183753716222e-02 3.1501917164073110e-14 0.0000000000000000e+00  -1.1951550188102789e-02 5.7654182045367306e-14 0.0000000000000000e+00  -1.1968124499171087e-02 1.0543698062708130e-13 0.0000000000000000e+00  -1.1983914233140713e-02 1.9266464646237507e-13 0.0000000000000000e+00  -1.1998926686671732e-02 3.5175270099203021e-13 0.0000000000000000e+00  -1.2013168906644736e-02 6.4161169523057514e-13 0.0000000000000000e+00  -1.2026647689961001e-02 1.1691776363387726e-12 0.0000000000000000e+00  -1.2039369583368018e-02 2.1283055345982723e-12 0.0000000000000000e+00  -1.2051340883317788e