<?xml version="1.0"?>
<VTKFile type="UnstructuredGrid"  version="0.1"  >
<UnstructuredGrid>
<Piece  NumberOfPoints="1656" NumberOfCells="3000">
<Points>
<DataArray  type="Float64"  NumberOfComponents="3"  format="ascii">0 0 0  2 0 0  4 0 0  6 0 0  8 0 0  10 0 0  12 0 0  14 0 0  16 0 0  18 0 0  20 0 0  22 0 0  24 0 0  26 0 0  28 0 0  30 0 0  32 0 0  34 0 0  36 0 0  38 0 0  40 0 0  42 0 0  44 0 0  46 0 0  48 0 0  50 0 0  52 0 0  54 0 0  56 0 0  58 0 0  60 0 0  62 0 0  64 0 0  66 0 0  68 0 0  70 0 0  72 0 0  74 0 0  76 0 0  78 0 0  80 0 0  82 0 0  84 0 0  86 0 0  88 0 0  90 0 0  92 0 0  94 0 0  96 0 0  98 0 0  100 0 0  102 0 0  104 0 0  106 0 0  108 0 0  110 0 0  112 0 0  114 0 0  116 0 0  118 0 0  120 0 0  122 0 0  124 0 0  126 0 0  128 0 0  130 0 0  132 0 0  134 0 0  136 0 0  138 0 0  140 0 0  142 0 0  144 0 0  146 0 0  148 0 0  150 0 0  152 0 0  154 0 0  156 0 0  158 0 0  160 0 0  162 0 0  164 0 0  166 0 0  168 0 0  170 0 0  172 0 0  174 0 0  176 0 0  178 0 0  180 0 0  182 0 0  184 0 0  186 0 0  188 0 0  190 0 0  192 0 0  194 0 0  196 0 0  198 0 0  200 0 0  202 0 0  204 0 0  206 0 0  208 0 0  210 0 0  212 0 0  214 0 0  216 0 0  218 0 0  220 0 0  222 0 0  224 0 0  226 0 0  228 0 0  230 0 0  232 0 0  234 0 0  236 0 0  238 0 0  240 0 0  242 0 0  244 0 0  246 0 0  248 0 0  250 0 0  252 0 0  254 0 0  256 0 0  258 0 0  260 0 0  262 0 0  264 0 0  266 0 0  268 0 0  270 0 0  272 0 0  274 0 0  276 0 0  278 0 0  280 0 0  282 0 0  284 0 0  286 0 0  288 0 0  290 0 0  292 0 0  294 0 0  296 0 0  298 0 0  300 0 0  0 2 0  2 2 0  4 2 0  6 2 0  8 2 0  10 2 0  12 2 0  14 2 0  16 2 0  18 2 0  20 2 0  22 2 0  24 2 0  26 2 0  28 2 0  30 2 0  32 2 0  34 2 0  36 2 0  38 2 0  40 2 0  42 2 0  44 2 0  46 2 0  48 2 0  50 2 0  52 2 0  54 2 0  56 2 0  58 2 0  60 2 0  62 2 0  64 2 0  66 2 0  68 2 0  70 2 0  72 2 0  74 2 0  76 2 0  78 2 0  80 2 0  82 2 0  84 2 0  86 2 0  88 2 0  90 2 0  92 2 0  94 2 0  96 2 0  98 2 0  100 2 0  102 2 0  104 2 0  106 2 0  108 2 0  110 2 0  112 2 0  114 2 0  116 2 0  118 2 0  120 2 0  122 2 0  124 2 0  126 2 0  128 2 0  130 2 0  132 2 0  134 2 0  136 2 0  138 2 0  140 2 0  142 2 0  144 2 0  146 2 0  148 2 0  150 2 0  152 2 0  154 2 0  156 2 0  158 2 0  160 2 0  162 2 0  164 2 0  166 2 0  168 2 0  170 2 0  172 2 0  174 2 0  176 2 0  178 2 0  180 2 0  182 2 0  184 2 0  186 2 0  188 2 0  190 2 0  192 2 0  194 2 0  196 2 0  198 2 0  200 2 0  202 2 0  204 2 0  206 2 0  208 2 0  210 2 0  212 2 0  214 2 0  216 2 0  218 2 0  220 2 0  222 2 0  224 2 0  226 2 0  228 2 0  230 2 0  232 2 0  234 2 0  236 2 0  238 2 0  240 2 0  242 2 0  244 2 0  246 2 0  248 2 0  250 2 0  252 2 0  254 2 0  256 2 0  258 2 0  260 2 0  262 2 0  264 2 0  266 2 0  268 2 0  270 2 0  272 2 0  274 2 0  276 2 0  278 2 0  280 2 0  282 2 0  284 2 0  286 2 0  288 2 0  290 2 0  292 2 0  294 2 0  296 2 0  298 2 0  300 2 0  0 4 0  2 4 0  4 4 0  6 4 0  8 4 0  10 4 0  12 4 0  14 4 0  16 4 0  18 4 0  20 4 0  22 4 0  24 4 0  26 4 0  28 4 0  30 4 0  32 4 0  34 4 0  36 4 0  38 4 0  40 4 0  42 4 0  44 4 0  46 4 0  48 4 0  50 4 0  52 4 0  54 4 0  56 4 0  58 4 0  60 4 0  62 4 0  64 4 0  66 4 0  68 4 0  70 4 0  72 4 0  74 4 0  76 4 0  78 4 0  80 4 0  82 4 0  84 4 0  86 4 0  88 4 0  90 4 0  92 4 0  94 4 0  96 4 0  98 4 0  100 4 0  102 4 0  104 4 0  106 4 0  108 4 0  110 4 0  112 4 0  114 4 0  116 4 0  118 4 0  120 4 0  122 4 0  124 4 0  126 4 0  128 4 0  130 4 0  132 4 0  134 4 0  136 4 0  138 4 0  140 4 0  142 4 0  144 4 0  146 4 0  148 4 0  150 4 0  152 4 0  154 4 0  156 4 0  158 4 0  160 4 0  162 4 0  164 4 0  166 4 0  168 4 0  170 4 0  172 4 0  174 4 0  176 4 0  178 4 0  180 4 0  182 4 0  184 4 0  186 4 0  188 4 0  190 4 0  192 4 0  194 4 0  196 4 0  198 4 0  200 4 0  202 4 0  204 4 0  206 4 0  208 4 0  210 4 0  212 4 0  214 4 0  216 4 0  218 4 0  220 4 0  222 4 0  224 4 0  226 4 0  228 4 0  230 4 0  232 4 0  234 4 0  236 4 0  238 4 0  240 4 0  242 4 0  244 4 0  246 4 0  248 4 0  250 4 0  252 4 0  254 4 0  256 4 0  258 4 0  260 4 0  262 4 0  264 4 0  266 4 0  268 4 0  270 4 0  272 4 0  274 4 0  276 4 0  278 4 0  280 4 0  282 4 0  284 4 0  286 4 0  288 4 0  290 4 0  292 4 0  294 4 0  296 4 0  298 4 0  300 4 0  0 6 0  2 6 0  4 6 0  6 6 0  8 6 0  10 6 0  12 6 0  14 6 0  16 6 0  18 6 0  20 6 0  22 6 0  24 6 0  26 6 0  28 6 0  30 6 0  32 6 0  34 6 0  36 6 0  38 6 0  40 6 0  42 6 0  44 6 0  46 6 0  48 6 0  50 6 0  52 6 0  54 6 0  56 6 0  58 6 0  60 6 0  62 6 0  64 6 0  66 6 0  68 6 0  70 6 0  72 6 0  74 6 0  76 6 0  78 6 0  80 6 0  82 6 0  84 6 0  86 6 0  88 6 0  90 6 0  92 6 0  94 6 0  96 6 0  98 6 0  100 6 0  102 6 0  104 6 0  106 6 0  108 6 0  110 6 0  112 6 0  114 6 0  116 6 0  118 6 0  120 6 0  122 6 0  124 6 0  126 6 0  128 6 0  130 6 0  132 6 0  134 6 0  136 6 0  138 6 0  140 6 0  142 6 0  144 6 0  146 6 0  148 6 0  150 6 0  152 6 0  154 6 0  156 6 0  158 6 0  160 6 0  162 6 0  164 6 0  166 6 0  168 6 0  170 6 0  172 6 0  174 6 0  176 6 0  178 6 0  180 6 0  182 6 0  184 6 0  186 6 0  188 6 0  190 6 0  192 6 0  194 6 0  196 6 0  198 6 0  200 6 0  202 6 0  204 6 0  206 6 0  208 6 0  210 6 0  212 6 0  214 6 0  216 6 0  218 6 0  220 6 0  222 6 0  224 6 0  226 6 0  228 6 0  230 6 0  232 6 0  234 6 0  236 6 0  238 6 0  240 6 0  242 6 0  244 6 0  246 6 0  248 6 0  250 6 0  252 6 0  254 6 0  256 6 0  258 6 0  260 6 0  262 6 0  264 6 0  266 6 0  268 6 0  270 6 0  272 6 0  274 6 0  276 6 0  278 6 0  280 6 0  282 6 0  284 6 0  286 6 0  288 6 0  290 6 0  292 6 0  294 6 0  296 6 0  298 6 0  300 6 0  0 8 0  2 8 0  4 8 0  6 8 0  8 8 0  10 8 0  12 8 0  14 8 0  16 8 0  18 8 0  20 8 0  22 8 0  24 8 0  26 8 0  28 8 0  30 8 0  32 8 0  34 8 0  36 8 0  38 8 0  40 8 0  42 8 0  44 8 0  46 8 0  48 8 0  50 8 0  52 8 0  54 8 0  56 8 0  58 8 0  60 8 0  62 8 0  64 8 0  66 8 0  68 8 0  70 8 0  72 8 0  74 8 0  76 8 0  78 8 0  80 8 0  82 8 0  84 8 0  86 8 0  88 8 0  90 8 0  92 8 0  94 8 0  96 8 0  98 8 0  100 8 0  102 8 0  104 8 0  106 8 0  108 8 0  110 8 0  112 8 0  114 8 0  116 8 0  118 8 0  120 8 0  122 8 0  124 8 0  126 8 0  128 8 0  130 8 0  132 8 0  134 8 0  136 8 0  138 8 0  140 8 0  142 8 0  144 8 0  146 8 0  148 8 0  150 8 0  152 8 0  154 8 0  156 8 0  158 8 0  160 8 0  162 8 0  164 8 0  166 8 0  168 8 0  170 8 0  172 8 0  174 8 0  176 8 0  178 8 0  180 8 0  182 8 0  184 8 0  186 8 0  188 8 0  190 8 0  192 8 0  194 8 0  196 8 0  198 8 0  200 8 0  202 8 0  204 8 0  206 8 0  208 8 0  210 8 0  212 8 0  214 8 0  216 8 0  218 8 0  220 8 0  222 8 0  224 8 0  226 8 0  228 8 0  230 8 0  232 8 0  234 8 0  236 8 0  238 8 0  240 8 0  242 8 0  244 8 0  246 8 0  248 8 0  250 8 0  252 8 0  254 8 0  256 8 0  258 8 0  260 8 0  262 8 0  264 8 0  266 8 0  268 8 0  270 8 0  272 8 0  274 8 0  276 8 0  278 8 0  280 8 0  282 8 0  284 8 0  286 8 0  288 8 0  290 8 0  292 8 0  294 8 0  296 8 0  298 8 0  300 8 0  0 10 0  2 10 0  4 10 0  6 10 0  8 10 0  10 10 0  12 10 0  14 10 0  16 10 0  18 10 0  20 10 0  22 10 0  24 10 0  26 10 0  28 10 0  30 10 0  32 10 0  34 10 0  36 10 0  38 10 0  40 10 0  42 10 0  44 10 0  46 10 0  48 10 0  50 10 0  52 10 0  54 10 0  56 10 0  58 10 0  60 10 0  62 10 0  64 10 0  66 10 0  68 10 0  70 10 0  72 10 0  74 10 0  76 10 0  78 10 0  80 10 0  82 10 0  84 10 0  86 10 0  88 10 0  90 10 0  92 10 0  94 10 0  96 10 0  98 10 0  100 10 0  102 10 0  104 10 0  106 10 0  108 10 0  110 10 0  112 10 0  114 10 0  116 10 0  118 10 0  120 10 0  122 10 0  124 10 0  126 10 0  128 10 0  130 10 0  132 10 0  134 10 0  136 10 0  138 10 0  140 10 0  142 10 0  144 10 0  146 10 0  148 10 0  150 10 0  152 10 0  154 10 0  156 10 0  158 10 0  160 10 0  162 10 0  164 10 0  166 10 0  168 10 0  170 10 0  172 10 0  174 10 0  176 10 0  178 10 0  180 10 0  182 10 0  184 10 0  186 10 0  188 10 0  190 10 0  192 10 0  194 10 0  196 10 0  198 10 0  200 10 0  202 10 0  204 10 0  206 10 0  208 10 0  210 10 0  212 10 0  214 10 0  216 10 0  218 10 0  220 10 0  222 10 0  224 10 0  226 10 0  228 10 0  230 10 0  232 10 0  234 10 0  236 10 0  238 10 0  240 10 0  242 10 0  244 10 0  246 10 0  248 10 0  250 10 0  252 10 0  254 10 0  256 10 0  258 10 0  260 10 0  262 10 0  264 10 0  266 10 0  268 10 0  270 10 0  272 10 0  274 10 0  276 10 0  278 10 0  280 10 0  282 10 0  284 10 0  286 10 0  288 10 0  290 10 0  292 10 0  294 10 0  296 10 0  298 10 0  300 10 0  1 1 0  3 1 0  5 1 0  7 1 0  9 1 0  11 1 0  13 1 0  15 1 0  17 1 0  19 1 0  21 1 0  23 1 0  25 1 0  27 1 0  29 1 0  31 1 0  33 1 0  35 1 0  37 1 0  39 1 0  41 1 0  43 1 0  45 1 0  47 1 0  49 1 0  51 1 0  53 1 0  55 1 0  57 1 0  59 1 0  61 1 0  63 1 0  65 1 0  67 1 0  69 1 0  71 1 0  73 1 0  75 1 0  77 1 0  79 1 0  81 1 0  83 1 0  85 1 0  87 1 0  89 1 0  91 1 0  93 1 0  95 1 0  97 1 0  99 1 0  101 1 0  103 1 0  105 1 0  107 1 0  109 1 0  111 1 0  113 1 0  115 1 0  117 1 0  119 1 0  121 1 0  123 1 0  125 1 0  127 1 0  129 1 0  131 1 0  133 1 0  135 1 0  137 1 0  139 1 0  141 1 0  143 1 0  145 1 0  147 1 0  149 1 0  151 1 0  153 1 0  155 1 0  157 1 0  159 1 0  161 1 0  163 1 0  165 1 0  167 1 0  169 1 0  171 1 0  173 1 0  175 1 0  177 1 0  179 1 0  181 1 0  183 1 0  185 1 0  187 1 0  189 1 0  191 1 0  193 1 0  195 1 0  197 1 0  199 1 0  201 1 0  203 1 0  205 1 0  207 1 0  209 1 0  211 1 0  213 1 0  215 1 0  217 1 0  219 1 0  221 1 0  223 1 0  225 1 0  227 1 0  229 1 0  231 1 0  233 1 0  235 1 0  237 1 0  239 1 0  241 1 0  243 1 0  245 1 0  247 1 0  249 1 0  251 1 0  253 1 0  255 1 0  257 1 0  259 1 0  261 1 0  263 1 0  265 1 0  267 1 0  269 1 0  271 1 0  273 1 0  275 1 0  277 1 0  279 1 0  281 1 0  283 1 0  285 1 0  287 1 0  289 1 0  291 1 0  293 1 0  295 1 0  297 1 0  299 1 0  1 3 0  3 3 0  5 3 0  7 3 0  9 3 0  11 3 0  13 3 0  15 3 0  17 3 0  19 3 0  21 3 0  23 3 0  25 3 0  27 3 0  29 3 0  31 3 0  33 3 0  35 3 0  37 3 0  39 3 0  41 3 0  43 3 0  45 3 0  47 3 0  49 3 0  51 3 0  53 3 0  55 3 0  57 3 0  59 3 0  61 3 0  63 3 0  65 3 0  67 3 0  69 3 0  71 3 0  73 3 0  75 3 0  77 3 0  79 3 0  81 3 0  83 3 0  85 3 0  87 3 0  89 3 0  91 3 0  93 3 0  95 3 0  97 3 0  99 3 0  101 3 0  103 3 0  105 3 0  107 3 0  109 3 0  111 3 0  113 3 0  115 3 0  117 3 0  119 3 0  121 3 0  123 3 0  125 3 0
[...]
<PointData  Vectors="displacement"> 
<DataArray  type="Float64"  Name="displacement"  NumberOfComponents="3" format="ascii">2.0646428089323563e-21 -3.5264830524668604e-37 0.0000000000000000e+00  -3.9507357335064824e-05 -2.8211864419734900e-37 0.0000000000000000e+00  -7.5987021299423843e-05 -9.9088555909509872e-37 0.0000000000000000e+00  -1.0961295178982903e-04 -2.8211864419734900e-37 0.0000000000000000e+00  -1.4055673201041714e-04 -1.9762847291968931e-36 0.0000000000000000e+00  -1.6898650752213942e-04 3.8791313577135488e-37 0.0000000000000000e+00  -1.9506605157817395e-04 -2.8211864419734900e-37 0.0000000000000000e+00  -2.1895397018678597e-04 -1.6927118651840940e-36 0.0000000000000000e+00  -2.4080305050537841e-04 1.2695138560092304e-36 0.0000000000000000e+00  -2.6075974928359508e-04 -3.0856726709085047e-36 0.0000000000000000e+00  -2.7896381344705724e-04 -3.8883184950206813e-39 0.0000000000000000e+00  -2.9554802199761182e-04 0.0000000000000000e+00 0.0000000000000000e+00  -3.1063803676775270e-04 -4.4026504912756395e-37 0.0000000000000000e+00  -3.2435234886645826e-04 4.2317796629602350e-37 0.0000000000000000e+00  -3.3680230762641092e-04 1.0579449157400588e-37 0.0000000000000000e+00  -3.4809221930390239e-04 -7.0529661049337250e-37 0.0000000000000000e+00  -3.5831950353595773e-04 -1.5930324815449794e-36 0.0000000000000000e+00  -3.6757489650569397e-04 0.0000000000000000e+00 0.0000000000000000e+00  -3.7594269081797974e-04 -1.1863309393689305e-36 0.0000000000000000e+00  -3.8350100317801315e-04 -1.8337711872827685e-36 0.0000000000000000e+00  -3.9032206204874724e-04 2.5316149212219586e-36 0.0000000000000000e+00  -3.9647250850672960e-04 -7.0529661049337250e-37 0.0000000000000000e+00  -4.0201370449827970e-04 -1.4458580515114136e-36 0.0000000000000000e+00  -4.0700204360575437e-04 -1.1284745767893960e-36 0.0000000000000000e+00  -4.1148926025987010e-04 -1.6906523121690970e-36 0.0000000000000000e+00  -4.1552273407610381e-04 7.0529661049337250e-37 0.0000000000000000e+00  -4.1914578665188209e-04 3.9955328490938026e-37 0.0000000000000000e+00  -4.2239796873960869e-04 0.0000000000000000e+00 0.0000000000000000e+00  -4.2531533621313416e-04 -3.3878322819375275e-36 0.0000000000000000e+00  -4.2793071367756624e-04 3.0327754251215018e-36 0.0000000000000000e+00  -4.3027394494035253e-04 -4.6725900445185928e-37 0.0000000000000000e+00  -4.3237212987152753e-04 -2.8211864419734900e-37 0.0000000000000000e+00  -4.3424984743908228e-04 -2.5340831185259159e-36 0.0000000000000000e+00  -4.3592936491748609e-04 2.7330243656618185e-36 0.0000000000000000e+00  -4.3743083343910922e-04 9.6702777454364746e-37 0.0000000000000000e+00  -4.3877247019489867e-04 -2.8211864419734900e-37 0.0000000000000000e+00  -4.3997072769689892e-04 1.9591976463653528e-36 0.0000000000000000e+00  -4.4104045059552711e-04 1.1284745767893960e-36 0.0000000000000000e+00  -4.4199502060275495e-04 -3.0327754251215018e-36 0.0000000000000000e+00  -4.4284649011203564e-04 -1.1284745767893960e-36 0.0000000000000000e+00  -4.4360570513009637e-04 1.1282885499976658e-36 0.0000000000000000e+00  -4.4428241814716934e-04 -2.5390677977761410e-36 0.0000000000000000e+00  -4.4488539157339394e-04 -3.6089197595649343e-38 0.0000000000000000e+00  -4.4542249236188955e-04 -2.5567002130384753e-36 0.0000000000000000e+00  -4.4590077842520352e-04 -2.2493144995476783e-36 0.0000000000000000e+00  -4.4632657743299848e-04 -1.4105932209867450e-36 0.0000000000000000e+00  -4.4670555855615243e-04 1.4811228820360823e-36 0.0000000000000000e+00  -4.4704279769705450e-04 4.2317796629602350e-36 0.0000000000000000e+00  -4.4734283671864466e-04 -4.2502840420572238e-37 0.0000000000000000e+00  -4.4760973715637822e-04 -2.2569491535787920e-36 0.0000000000000000e+00  -4.4784712886845998e-04 -3.5898495448158765e-37 0.0000000000000000e+00  -4.4805825405081422e-04 -3.1033050861708390e-36 0.0000000000000000e+00  -4.4824600701474677e-04 -1.1158864865119048e-36 0.0000000000000000e+00  -4.4841297009744034e-04 2.0453601704307803e-36 0.0000000000000000e+00  -4.4856144604847413e-04 2.4420895138333023e-36 0.0000000000000000e+00  -4.4869348720971420e-04 -3.3854237303681880e-36 0.0000000000000000e+00  -4.4881092178125008e-04 -1.4077671492750790e-36 0.0000000000000000e+00  -4.4891537744266272e-04 -3.3501588998435194e-37 0.0000000000000000e+00  -4.4900830257682111e-04 5.4825791206320753e-37 0.0000000000000000e+00  -4.4909098532268534e-04 -7.0529661049337250e-37 0.0000000000000000e+00  -4.4916457066415558e-04 7.2710990772512444e-40 0.0000000000000000e+00  -4.4923007574392389e-04 8.4635593259204701e-37 0.0000000000000000e+00  -4.4928840357443380e-04 1.4105932209867450e-37 0.0000000000000000e+00  -4.4934035530246849e-04 2.8211864419734900e-37 0.0000000000000000e+00  -4.4938664116942796e-04 -4.9924154143731504e-37 0.0000000000000000e+00  -4.4942789029605798e-04 -9.8741525469072151e-37 0.0000000000000000e+00  -4.4946465940811536e-04 -1.0735793338391342e-36 0.0000000000000000e+00  -4.4949744060816799e-04 2.8211864419734900e-37 0.0000000000000000e+00  -4.4952666828838904e-04 -3.0994877591552821e-36 0.0000000000000000e+00  -4.4955272526968305e-04 2.2569491535787920e-36 0.0000000000000000e+00  -4.4957594824380392e-04 7.4056144101804113e-37 0.0000000000000000e+00  -4.4959663258714003e-04 -3.9496610187628860e-36 0.0000000000000000e+00  -4.4961503660756469e-04 1.8371782669308628e-36 0.0000000000000000e+00  -4.4963138527906584e-04 -2.2569491535787920e-36 0.0000000000000000e+00  -4.4964587351276845e-04 6.6097345173026112e-37 0.0000000000000000e+00  -4.4965866900737155e-04 -3.3854237303681880e-36 0.0000000000000000e+00  -4.4966991471687211e-04 2.5259343750678560e-36 0.0000000000000000e+00  -4.4967973096876309e-04 2.8211864419734900e-37 0.0000000000000000e+00  -4.4968821726151787e-04 -2.5478840054073082e-36 0.0000000000000000e+00  -4.4969545376620241e-04 1.4105932209867450e-37 0.0000000000000000e+00  -4.4970150255331087e-04 7.3455710373315471e-37 0.0000000000000000e+00  -4.4970640856249776e-04 1.4105932209867450e-36 0.0000000000000000e+00  -4.4971020032962819e-04 -3.6333795699947643e-36 0.0000000000000000e+00  -4.4971289048255120e-04 5.6423728839469800e-37 0.0000000000000000e+00  -4.4971447601412659e-04 -4.2358696561911886e-36 0.0000000000000000e+00  -4.4971493833830775e-04 5.3602542397496310e-36 0.0000000000000000e+00  -4.4971424313246797e-04 -7.9345868680504407e-37 0.0000000000000000e+00  -4.4971233996663200e-04 1.4105932209867450e-36 0.0000000000000000e+00  -4.4970916171781987e-04 -2.1495241638091247e-38 0.0000000000000000e+00  -4.4970462376529938e-04 1.1566864412091309e-35 0.0000000000000000e+00  -4.4969862296017574e-04 -4.1700768777897125e-36 0.0000000000000000e+00  -4.4969103636039392e-04 9.8741525469072151e-37 0.0000000000000000e+00  -4.4968171971986244e-04 -2.8323657568047636e-36 0.0000000000000000e+00  -4.4967050571808817e-04 3.6675423745655370e-36 0.0000000000000000e+00  -4.4965720191430332e-04 -2.1687870772671205e-36 0.0000000000000000e+00  -4.4964158840771874e-04 2.8211864419734900e-36 0.0000000000000000e+00  -4.4962341518311387e-04 5.3046595525495441e-37 0.0000000000000000e+00  -4.4960239911858520e-04 1.6927118651840940e-36 0.0000000000000000e+00  -4.4957822062981960e-04 2.8973849267545314e-37 0.0000000000000000e+00  -4.4955051992289820e-04 -1.3541694921472752e-35 0.0000000000000000e+00  -4.4951889282520004e-04 3.6530001764110344e-35 0.0000000000000000e+00  -4.4948288616169363e-04 -1.8055593228630336e-35 0.0000000000000000e+00  -4.4944199264163151e-04 8.1250169528836513e-35 0.0000000000000000e+00  -4.4939564521858299e-04 -3.6111186457260672e-35 0.0000000000000000e+00  -4.4934321088481867e-04 1.4811810333039887e-34 0.0000000000000000e+00  -4.4928398385941470e-04 1.4444474582904269e-34 0.0000000000000000e+00  -4.4921717812815602e-04 7.1263135526310196e-34 0.0000000000000000e+00  -4.4914191929244437e-04 -1.7333369499485123e-33 0.0000000000000000e+00  -4.4905723568415014e-04 1.1347102713580468e-33 0.0000000000000000e+00  -4.4896204870378668e-04 2.3111159332646830e-33 0.0000000000000000e+00  -4.4885516234067027e-04 -4.0444528832131953e-33 0.0000000000000000e+00  -4.4873525183615492e-04 -4.6222318665293660e-33 0.0000000000000000e+00  -4.4860085145469772e-04 2.7964204968284462e-32 0.0000000000000000e+00  -4.4845034133279355e-04 -1.8488927466117464e-32 0.0000000000000000e+00  -4.4828193338292328e-04 4.4777871207003234e-32 0.0000000000000000e+00  -4.4809365623901874e-04 -1.4791141972893971e-31 0.0000000000000000e+00  -4.4788333924182245e-04 -1.4524291473382999e-31 0.0000000000000000e+00  -4.4764859547751564e-04 2.0707598762051560e-30 0.0000000000000000e+00  -4.4738680390136955e-04 5.1768996905128900e-31 0.0000000000000000e+00  -4.4709509060068982e-04 4.7331654313260708e-30 0.0000000000000000e+00  -4.4677030927839595e-04 -4.6734099801855781e-30 0.0000000000000000e+00  -4.4640902107096701e-04 -9.4663308626521417e-30 0.0000000000000000e+00  -4.4600747385280996e-04 1.1592557521255650e-29 0.0000000000000000e+00  -4.4556158122424275e-04 2.8398992587956425e-29 0.0000000000000000e+00  -4.4506690143298992e-04 -3.8402074169624923e-29 0.0000000000000000e+00  -4.4451861654042427e-04 9.4663308626521417e-29 0.0000000000000000e+00  -4.4391151221476042e-04 -1.0412963948917356e-28 0.0000000000000000e+00  -4.4323995861536407e-04 0.0000000000000000e+00 0.0000000000000000e+00  -4.4249789292670743e-04 -7.1773330236469267e-28 0.0000000000000000e+00  -4.4167880420904596e-04 -2.1204581132340797e-27 0.0000000000000000e+00  -4.4077572135722940e-04 7.6771943296108869e-27 0.0000000000000000e+00  -4.3978120510028320e-04 -1.5751974555453164e-26 0.0000000000000000e+00  -4.3868734513055548e-04 4.9841695857460838e-27 0.0000000000000000e+00  -4.3748576361248075e-04 1.4540284205033690e-26 0.0000000000000000e+00  -4.3616762645682413e-04 2.6657187709228431e-26 0.0000000000000000e+00  -4.3472366377808207e-04 -3.8774091213423172e-26 0.0000000000000000e+00  -4.3314420069420431e-04 3.3287757173173349e-25 0.0000000000000000e+00  -4.3141919866406306e-04 -3.1019272970738538e-25 0.0000000000000000e+00  -4.2953830500913842e-04 6.3977250502148234e-25 0.0000000000000000e+00  -4.2749090235882182e-04 -1.5509636485369269e-25 0.0000000000000000e+00  -4.2526613712326532e-04 1.2475663781143684e-24 0.0000000000000000e+00  -4.2285288074127736e-04 0.0000000000000000e+00 0.0000000000000000e+00  -4.2023952916557842e-04 1.3183191012563879e-24 0.0000000000000000e+00  -4.1741345466072584e-04 1.2407709188295415e-24 0.0000000000000000e+00  -4.1435971971552431e-04 4.9404127400169926e-24 0.0000000000000000e+00  -4.1105797584650348e-04 -7.4446255129772491e-24 0.0000000000000000e+00  -4.0747319754922990e-04 -4.3981614484276742e-24 0.0000000000000000e+00  -4.0352077558046681e-04 1.9852334701272664e-23 0.0000000000000000e+00  -3.9893538780812307e-04 5.3353149509670285e-23 0.0000000000000000e+00  -3.9309251023997619e-04 3.9704669402545328e-22 0.0000000000000000e+00  -3.8509274394570221e-04 -2.3822801641527206e-22 0.0000000000000000e+00  -3.1763735522036263e-21 1.4105932209867450e-36 0.0000000000000000e+00  -3.9507357335064804e-05 1.0556171272348440e-20 0.0000000000000000e+00  -7.5987021299423884e-05 7.9766572377900611e-21 0.0000000000000000e+00  -1.0961295178982899e-04 9.5212726163396145e-21 0.0000000000000000e+00  -1.4055673201041719e-04 7.9580786047017719e-21 0.0000000000000000e+00  -1.6898650752213937e-04 1.0800249534952398e-20 0.0000000000000000e+00  -1.9506605157817400e-04 -3.6237679360695559e-21 0.0000000000000000e+00  -2.1895397018678584e-04 -1.0231815348902271e-20 0.0000000000000000e+00  -2.4080305050537835e-04 -1.3234680637979850e-20 0.0000000000000000e+00  -2.6075974928359486e-04 -1.5347723023353411e-20 0.0000000000000000e+00  -2.7896381344705724e-04 -5.6843418605012537e-22 0.0000000000000000e+00  -2.9554802199761171e-04 5.3295973043342865e-21 0.0000000000000000e+00  -3.1063803676775265e-04 1.4495071744278230e-20 0.0000000000000000e+00  -3.2435234886645843e-04 1.5631940116378449e-21 0.0000000000000000e+00  -3.3680230762641114e-04 1.0409451032042941e-20 0.0000000000000000e+00  -3.4809221930390217e-04 -7.3896444186516406e-21 0.0000000000000000e+00  -3.5831950353595768e-04 -1.6894048480822429e-20 0.0000000000000000e+00  -3.6757489650569326e-04 -3.4106051163007614e-21 0.0000000000000000e+00  -3.7594269081797941e-04 -2.8990143488556442e-20 0.0000000000000000e+00  -3.8350100317801288e-04 -1.9478091493182938e-20 0.0000000000000000e+00  -3.9032206204874691e-04 1.1546319404143188e-20 0.0000000000000000e+00  -3.9647250850672971e-04 1.7834622587322710e-20 0.0000000000000000e+00  -4.0201370449827911e-04 1.5205614476840879e-20 0.0000000000000000e+00  -4.0700204360575421e-04 -6.4659388663201853e-21 0.0000000000000000e+00  -4.1148926025987004e-04 -2.4268148468778292e-20 0.0000000000000000e+00  -4.1552273407610338e-04 -1.8953727391108902e-20 0.0000000000000000e+00  -4.1914578665188220e-04 -9.8831616629426613e-21 0.0000000000000000e+00  -4.2239796873960890e-04 -9.6359880407014675e-21 0.0000000000000000e+00  -4.2531533621313389e-04 -1.9841905806812214e-20 0.0000000000000000e+00  -4.2793071367756602e-04 1.6999734876561584e-20 0.0000000000000000e+00  -4.3027394494035242e-04 3.8546943241524215e-21 0.0000000000000000e+00  -4.3237212987152715e-04 -7.4962258285360393e-21 0.0000000000000000e+00  -4.3424984743908234e-04 -6.3563303469719816e-21 0.0000000000000000e+00  -4.3592936491748571e-04 8.7382110739571110e-21 0.0000000000000000e+00  -4.3743083343910906e-04 1.7164047883466686e-21 0.0000000000000000e+00  -4.3877247019489857e-04 2.7311560292761166e-21 0.0000000000000000e+00  -4.3997072769689854e-04 1.4066525658701355e-20 0.0000000000000000e+00  -4.4104045059552754e-04 1.4761525268989214e-20 0.0000000000000000e+00  -4.4199502060275441e-04 -7.4162897711227384e-21 0.0000000000000000e+00  -4.4284649011203542e-04 -1.9086954153464403e-20 0.0000000000000000e+00  -4.4360570513009631e-04 -2.7944789830170252e-20 0.0000000000000000e+00  -4.4428241814716912e-04 -3.0038194019086359e-20 0.0000000000000000e+00  -4.4488539157339443e-04 -2.8030910799596860e-20 0.0000000000000000e+00  -4.4542249236188933e-04 -3.6249308407714881e-20 0.0000000000000000e+00  -4.4590077842520331e-04 1.1501910483357993e-21 0.0000000000000000e+00  -4.4632657743299799e-04 2.8830271373729837e-20 0.0000000000000000e+00  -4.4670555855615200e-04 2.7907676044418001e-20 0.0000000000000000e+00  -4.4704279769705433e-04 2.8146373993638261e-20 0.0000000000000000e+00  -4.4734283671864434e-04 1.7775375207139243e-20 0.0000000000000000e+00  -4.4760973715637800e-04 -1.2596590380712373e-20 0.0000000000000000e+00  -4.4784712886845998e-04 -1.1081135958918577e-20 0.0000000000000000e+00  -4.4805825405081406e-04 -1.6044943079680510e-20 0.0000000000000000e+00  -4.4824600701474682e-04 -9.0949469768020179e-21 0.0000000000000000e+00  -4.4841297009744029e-04 1.8189893953604033e-20 0.0000000000000000e+00  -4.4856144604847403e-04 4.8927528475056761e-21 0.0000000000000000e+00  -4.4869348720971383e-04 -2.3943069641322305e-20 0.0000000000000000e+00  -4.4881092178125019e-04 -9.5051422018815884e-21 0.0000000000000000e+00  -4.4891537744266266e-04 2.2737367442005050e-20 0.0000000000000000e+00  -4.4900830257682111e-04 2.0536101162956652e-21 0.0000000000000000e+00  -4.4909098532268491e-04 4.1676172648071432e-21 0.0000000000000000e+00  -4.4916457066415563e-04 1.3642420465203028e-20 0.0000000000000000e+00  -4.4923007574392313e-04 2.3049340110520840e-20 0.0000000000000000e+00  -4.4928840357443369e-04 1.1546874515653003e-20 0.0000000000000000e+00  -4.4934035530246844e-04 -3.9485081693110806e-21 0.0000000000000000e+00  -4.4938664116942774e-04 -1.1640186248618126e-20 0.0000000000000000e+00  -4.4942789029605814e-04 -4.7456482974048100e-21 0.0000000000000000e+00  -4.4946465940811508e-04 -1.0089706802389743e-20 0.0000000000000000e+00  -4.4949744060816761e-04 -2.4494557835038746e-20 0.0000000000000000e+00  -4.4952666828838910e-04 -2.0461722501989556e-20 0.0000000000000000e+00  -4.4955272526968278e-04 1.9621248981660927e-20 0.0000000000000000e+00  -4.4957594824380337e-04 6.4501181882904700e-21 0.0000000000000000e+00  -4.4959663258713943e-04 -1.7857382159225111e-20 0.0000000000000000e+00  -4.4961503660756490e-04 -2.8174496913331349e-20 0.0000000000000000e+00  -4.4963138527906563e-04 -8.8116319399804006e-21 0.0000000000000000e+00  -4.4964587351276872e-04 -1.5916157209403541e-20 0.0000000000000000e+00  -4.4965866900737112e-04 -2.9942161769526049e-20 0.0000000000000000e+00  -4.4966991471687173e-04 -1.7394349771101039e-20 0.0000000000000000e+00  -4.4967973096876265e-04 -9.0949469768020194e-21 0.0000000000000000e+00  -4.4968821726151808e-04 -3.0373342593136920e-20 0.0000000000000000e+00  -4.4969545376620236e-04 -1.0223072342622671e-21 0.0000000000000000e+00  -4.4970150255331054e-04 1.1750178932795178e-20 0.0000000000000000e+00  -4.4970640856249782e-04 -1.1284745767893963e-36 0.0000000000000000e+00  -4.4971020032962759e-04 -2.6147972558305808e-20 0.0000000000000000e+00  -4.4971289048255093e-04 -1.8823650075074877e-20 0.0000000000000000e+00  -4.4971447601412627e-04 1.7843868663408071e-20 0.0000000000000000e+00  -4.4971493833830738e-04 2.1724826700868573e-20 0.0000000000000000e+00  -4.4971424313246786e-04 2.5694862788419690e-20 0.0000000000000000e+00  -4.4971233996663178e-04 1.5607307043130461e-20 0.0000000000000000e+00  -4.4970916171781976e-04 2.2471805935552375e-20 0.0000000000000000e+00  -4.4970462376529879e-04 3.2138924298323946e-20 0.0000000000000000e+00  -4.4969862296017601e-04 2.3324432558103342e-20 0.0000000000000000e+00  -4.4969103636039354e-04 9.5858651908292966e-21 0.0000000000000000e+00  -4.4968171971986238e-04 1.4304651149177146e-20 0.0000000000000000e+00  -4.4967050571808795e-04 3.6727842823861829e-20 0.0000000000000000e+00  -4.4965720191430316e-04 3.5171865261851591e-20 0.0000000000000000e+00  -4.4964158840771803e-04 -3.7297942344441379e-21 0.0000000000000000e+00  -4.4962341518311414e-04 -1.5870700676772595e-20 0.0000000000000000e+00  -4.4960239911858471e-04 2.0676515961818453e-21 0.0000000000000000e+00  -4.4957822062981987e-04 4.8864800874447748e-20 0.0000000000000000e+00  -4.4955051992289809e-04 1.5470097355692038e-19 0.0000000000000000e+00  -4.4951889282519983e-04 2.9198865416246717e-19 0.0000000000000000e+00  -4.4948288616169309e-04 5.6136095519206919e-19 0.0000000000000000e+00  -4.4944199264163070e-04 1.0455278262735678e-18 0.0000000000000000e+00  -4.4939564521858261e-04 1.9116430574635551e-18 0.0000000000000000e+00  -4.4934321088481709e-04 3.5063180537962470e-18 0.0000000000000000e+00  -4.4928398385941259e-04 6.5127242194788700e-18 0.0000000000000000e+00  -4.4921717812815271e-04 1.2066704803238298e-17 0.0000000000000000e+00  -4.4914191929243792e-04 2.2301353842863519e-17 0.0000000000000000e+00  -4.4905723568413897e-04 4.1250132013285554e-17 0.0000000000000000e+00  -4.4896204870376548e-04 7.6261130400484947e-17 0.0000000000000000e+00  -4.4885516234063276e-04 1.4081565461370224e-16 0.0000000000000000e+00  -4.4873525183608532e-04 2.5990205204279833e-16 0.0000000000000000e+00  -4.4860085145457157e-04 4.7954509302416412e-16 0.0000000000000000e+00  -4.4845034133256207e-04 8.8433352686887959e-16 0.0000000000000000e+00  -4.4828193338250299e-04 1.6298461071615887e-15 0.0000000000000000e+00  -4.4809365623825172e-04 3.0020239642886880e-15 0.0000000000000000e+00  -4.4788333924042649e-04 5.5260170235290919e-15 0.0000000000000000e+00  -4.4764859547497855e-04 1.0165393037106200e-14 0.0000000000000000e+00  -4.4738680389676592e-04 1.8686793350772786e-14 0.0000000000000000e+00  -4.4709509059234775e-04 3.4326390042490513e-14 0.0000000000000000e+00  -4.4677030926330716e-04 6.3006665674129886e-14 0.0000000000000000e+00  -4.4640902104372681e-04 1.1555568808011018e-13 0.0000000000000000e+00  -4.4600747380373550e-04 2.1174955908446003e-13 0.0000000000000000e+00  -4.4556158113603136e-04 3.8766599142788482e-13 0.0000000000000000e+00  -4.4506690127482998e-04 7.0904308852046506e-13 0.0000000000000000e+00  -4.4451861625763420e-04 1.2955101610822994e-12 0.0000000000000000e+00  -4.4391151171069466e-04 2.3644671236902608e-12 0.0000000000000000e+00  -4.4323995771