<?xml version="1.0"?>
<VTKFile type="UnstructuredGrid"  version="0.1"  >
<UnstructuredGrid>
<Piece  NumberOfPoints="1656" NumberOfCells="3000">
<Points>
<DataArray  type="Float64"  NumberOfComponents="3"  format="ascii">0 0 0  2 0 0  4 0 0  6 0 0  8 0 0  10 0 0  12 0 0  14 0 0  16 0 0  18 0 0  20 0 0  22 0 0  24 0 0  26 0 0  28 0 0  30 0 0  32 0 0  34 0 0  36 0 0  38 0 0  40 0 0  42 0 0  44 0 0  46 0 0  48 0 0  50 0 0  52 0 0  54 0 0  56 0 0  58 0 0  60 0 0  62 0 0  64 0 0  66 0 0  68 0 0  70 0 0  72 0 0  74 0 0  76 0 0  78 0 0  80 0 0  82 0 0  84 0 0  86 0 0  88 0 0  90 0 0  92 0 0  94 0 0  96 0 0  98 0 0  100 0 0  102 0 0  104 0 0  106 0 0  108 0 0  110 0 0  112 0 0  114 0 0  116 0 0  118 0 0  120 0 0  122 0 0  124 0 0  126 0 0  128 0 0  130 0 0  132 0 0  134 0 0  136 0 0  138 0 0  140 0 0  142 0 0  144 0 0  146 0 0  148 0 0  150 0 0  152 0 0  154 0 0  156 0 0  158 0 0  160 0 0  162 0 0  164 0 0  166 0 0  168 0 0  170 0 0  172 0 0  174 0 0  176 0 0  178 0 0  180 0 0  182 0 0  184 0 0  186 0 0  188 0 0  190 0 0  192 0 0  194 0 0  196 0 0  198 0 0  200 0 0  202 0 0  204 0 0  206 0 0  208 0 0  210 0 0  212 0 0  214 0 0  216 0 0  218 0 0  220 0 0  222 0 0  224 0 0  226 0 0  228 0 0  230 0 0  232 0 0  234 0 0  236 0 0  238 0 0  240 0 0  242 0 0  244 0 0  246 0 0  248 0 0  250 0 0  252 0 0  254 0 0  256 0 0  258 0 0  260 0 0  262 0 0  264 0 0  266 0 0  268 0 0  270 0 0  272 0 0  274 0 0  276 0 0  278 0 0  280 0 0  282 0 0  284 0 0  286 0 0  288 0 0  290 0 0  292 0 0  294 0 0  296 0 0  298 0 0  300 0 0  0 2 0  2 2 0  4 2 0  6 2 0  8 2 0  10 2 0  12 2 0  14 2 0  16 2 0  18 2 0  20 2 0  22 2 0  24 2 0  26 2 0  28 2 0  30 2 0  32 2 0  34 2 0  36 2 0  38 2 0  40 2 0  42 2 0  44 2 0  46 2 0  48 2 0  50 2 0  52 2 0  54 2 0  56 2 0  58 2 0  60 2 0  62 2 0  64 2 0  66 2 0  68 2 0  70 2 0  72 2 0  74 2 0  76 2 0  78 2 0  80 2 0  82 2 0  84 2 0  86 2 0  88 2 0  90 2 0  92 2 0  94 2 0  96 2 0  98 2 0  100 2 0  102 2 0  104 2 0  106 2 0  108 2 0  110 2 0  112 2 0  114 2 0  116 2 0  118 2 0  120 2 0  122 2 0  124 2 0  126 2 0  128 2 0  130 2 0  132 2 0  134 2 0  136 2 0  138 2 0  140 2 0  142 2 0  144 2 0  146 2 0  148 2 0  150 2 0  152 2 0  154 2 0  156 2 0  158 2 0  160 2 0  162 2 0  164 2 0  166 2 0  168 2 0  170 2 0  172 2 0  174 2 0  176 2 0  178 2 0  180 2 0  182 2 0  184 2 0  186 2 0  188 2 0  190 2 0  192 2 0  194 2 0  196 2 0  198 2 0  200 2 0  202 2 0  204 2 0  206 2 0  208 2 0  210 2 0  212 2 0  214 2 0  216 2 0  218 2 0  220 2 0  222 2 0  224 2 0  226 2 0  228 2 0  230 2 0  232 2 0  234 2 0  236 2 0  238 2 0  240 2 0  242 2 0  244 2 0  246 2 0  248 2 0  250 2 0  252 2 0  254 2 0  256 2 0  258 2 0  260 2 0  262 2 0  264 2 0  266 2 0  268 2 0  270 2 0  272 2 0  274 2 0  276 2 0  278 2 0  280 2 0  282 2 0  284 2 0  286 2 0  288 2 0  290 2 0  292 2 0  294 2 0  296 2 0  298 2 0  300 2 0  0 4 0  2 4 0  4 4 0  6 4 0  8 4 0  10 4 0  12 4 0  14 4 0  16 4 0  18 4 0  20 4 0  22 4 0  24 4 0  26 4 0  28 4 0  30 4 0  32 4 0  34 4 0  36 4 0  38 4 0  40 4 0  42 4 0  44 4 0  46 4 0  48 4 0  50 4 0  52 4 0  54 4 0  56 4 0  58 4 0  60 4 0  62 4 0  64 4 0  66 4 0  68 4 0  70 4 0  72 4 0  74 4 0  76 4 0  78 4 0  80 4 0  82 4 0  84 4 0  86 4 0  88 4 0  90 4 0  92 4 0  94 4 0  96 4 0  98 4 0  100 4 0  102 4 0  104 4 0  106 4 0  108 4 0  110 4 0  112 4 0  114 4 0  116 4 0  118 4 0  120 4 0  122 4 0  124 4 0  126 4 0  128 4 0  130 4 0  132 4 0  134 4 0  136 4 0  138 4 0  140 4 0  142 4 0  144 4 0  146 4 0  148 4 0  150 4 0  152 4 0  154 4 0  156 4 0  158 4 0  160 4 0  162 4 0  164 4 0  166 4 0  168 4 0  170 4 0  172 4 0  174 4 0  176 4 0  178 4 0  180 4 0  182 4 0  184 4 0  186 4 0  188 4 0  190 4 0  192 4 0  194 4 0  196 4 0  198 4 0  200 4 0  202 4 0  204 4 0  206 4 0  208 4 0  210 4 0  212 4 0  214 4 0  216 4 0  218 4 0  220 4 0  222 4 0  224 4 0  226 4 0  228 4 0  230 4 0  232 4 0  234 4 0  236 4 0  238 4 0  240 4 0  242 4 0  244 4 0  246 4 0  248 4 0  250 4 0  252 4 0  254 4 0  256 4 0  258 4 0  260 4 0  262 4 0  264 4 0  266 4 0  268 4 0  270 4 0  272 4 0  274 4 0  276 4 0  278 4 0  280 4 0  282 4 0  284 4 0  286 4 0  288 4 0  290 4 0  292 4 0  294 4 0  296 4 0  298 4 0  300 4 0  0 6 0  2 6 0  4 6 0  6 6 0  8 6 0  10 6 0  12 6 0  14 6 0  16 6 0  18 6 0  20 6 0  22 6 0  24 6 0  26 6 0  28 6 0  30 6 0  32 6 0  34 6 0  36 6 0  38 6 0  40 6 0  42 6 0  44 6 0  46 6 0  48 6 0  50 6 0  52 6 0  54 6 0  56 6 0  58 6 0  60 6 0  62 6 0  64 6 0  66 6 0  68 6 0  70 6 0  72 6 0  74 6 0  76 6 0  78 6 0  80 6 0  82 6 0  84 6 0  86 6 0  88 6 0  90 6 0  92 6 0  94 6 0  96 6 0  98 6 0  100 6 0  102 6 0  104 6 0  106 6 0  108 6 0  110 6 0  112 6 0  114 6 0  116 6 0  118 6 0  120 6 0  122 6 0  124 6 0  126 6 0  128 6 0  130 6 0  132 6 0  134 6 0  136 6 0  138 6 0  140 6 0  142 6 0  144 6 0  146 6 0  148 6 0  150 6 0  152 6 0  154 6 0  156 6 0  158 6 0  160 6 0  162 6 0  164 6 0  166 6 0  168 6 0  170 6 0  172 6 0  174 6 0  176 6 0  178 6 0  180 6 0  182 6 0  184 6 0  186 6 0  188 6 0  190 6 0  192 6 0  194 6 0  196 6 0  198 6 0  200 6 0  202 6 0  204 6 0  206 6 0  208 6 0  210 6 0  212 6 0  214 6 0  216 6 0  218 6 0  220 6 0  222 6 0  224 6 0  226 6 0  228 6 0  230 6 0  232 6 0  234 6 0  236 6 0  238 6 0  240 6 0  242 6 0  244 6 0  246 6 0  248 6 0  250 6 0  252 6 0  254 6 0  256 6 0  258 6 0  260 6 0  262 6 0  264 6 0  266 6 0  268 6 0  270 6 0  272 6 0  274 6 0  276 6 0  278 6 0  280 6 0  282 6 0  284 6 0  286 6 0  288 6 0  290 6 0  292 6 0  294 6 0  296 6 0  298 6 0  300 6 0  0 8 0  2 8 0  4 8 0  6 8 0  8 8 0  10 8 0  12 8 0  14 8 0  16 8 0  18 8 0  20 8 0  22 8 0  24 8 0  26 8 0  28 8 0  30 8 0  32 8 0  34 8 0  36 8 0  38 8 0  40 8 0  42 8 0  44 8 0  46 8 0  48 8 0  50 8 0  52 8 0  54 8 0  56 8 0  58 8 0  60 8 0  62 8 0  64 8 0  66 8 0  68 8 0  70 8 0  72 8 0  74 8 0  76 8 0  78 8 0  80 8 0  82 8 0  84 8 0  86 8 0  88 8 0  90 8 0  92 8 0  94 8 0  96 8 0  98 8 0  100 8 0  102 8 0  104 8 0  106 8 0  108 8 0  110 8 0  112 8 0  114 8 0  116 8 0  118 8 0  120 8 0  122 8 0  124 8 0  126 8 0  128 8 0  130 8 0  132 8 0  134 8 0  136 8 0  138 8 0  140 8 0  142 8 0  144 8 0  146 8 0  148 8 0  150 8 0  152 8 0  154 8 0  156 8 0  158 8 0  160 8 0  162 8 0  164 8 0  166 8 0  168 8 0  170 8 0  172 8 0  174 8 0  176 8 0  178 8 0  180 8 0  182 8 0  184 8 0  186 8 0  188 8 0  190 8 0  192 8 0  194 8 0  196 8 0  198 8 0  200 8 0  202 8 0  204 8 0  206 8 0  208 8 0  210 8 0  212 8 0  214 8 0  216 8 0  218 8 0  220 8 0  222 8 0  224 8 0  226 8 0  228 8 0  230 8 0  232 8 0  234 8 0  236 8 0  238 8 0  240 8 0  242 8 0  244 8 0  246 8 0  248 8 0  250 8 0  252 8 0  254 8 0  256 8 0  258 8 0  260 8 0  262 8 0  264 8 0  266 8 0  268 8 0  270 8 0  272 8 0  274 8 0  276 8 0  278 8 0  280 8 0  282 8 0  284 8 0  286 8 0  288 8 0  290 8 0  292 8 0  294 8 0  296 8 0  298 8 0  300 8 0  0 10 0  2 10 0  4 10 0  6 10 0  8 10 0  10 10 0  12 10 0  14 10 0  16 10 0  18 10 0  20 10 0  22 10 0  24 10 0  26 10 0  28 10 0  30 10 0  32 10 0  34 10 0  36 10 0  38 10 0  40 10 0  42 10 0  44 10 0  46 10 0  48 10 0  50 10 0  52 10 0  54 10 0  56 10 0  58 10 0  60 10 0  62 10 0  64 10 0  66 10 0  68 10 0  70 10 0  72 10 0  74 10 0  76 10 0  78 10 0  80 10 0  82 10 0  84 10 0  86 10 0  88 10 0  90 10 0  92 10 0  94 10 0  96 10 0  98 10 0  100 10 0  102 10 0  104 10 0  106 10 0  108 10 0  110 10 0  112 10 0  114 10 0  116 10 0  118 10 0  120 10 0  122 10 0  124 10 0  126 10 0  128 10 0  130 10 0  132 10 0  134 10 0  136 10 0  138 10 0  140 10 0  142 10 0  144 10 0  146 10 0  148 10 0  150 10 0  152 10 0  154 10 0  156 10 0  158 10 0  160 10 0  162 10 0  164 10 0  166 10 0  168 10 0  170 10 0  172 10 0  174 10 0  176 10 0  178 10 0  180 10 0  182 10 0  184 10 0  186 10 0  188 10 0  190 10 0  192 10 0  194 10 0  196 10 0  198 10 0  200 10 0  202 10 0  204 10 0  206 10 0  208 10 0  210 10 0  212 10 0  214 10 0  216 10 0  218 10 0  220 10 0  222 10 0  224 10 0  226 10 0  228 10 0  230 10 0  232 10 0  234 10 0  236 10 0  238 10 0  240 10 0  242 10 0  244 10 0  246 10 0  248 10 0  250 10 0  252 10 0  254 10 0  256 10 0  258 10 0  260 10 0  262 10 0  264 10 0  266 10 0  268 10 0  270 10 0  272 10 0  274 10 0  276 10 0  278 10 0  280 10 0  282 10 0  284 10 0  286 10 0  288 10 0  290 10 0  292 10 0  294 10 0  296 10 0  298 10 0  300 10 0  1 1 0  3 1 0  5 1 0  7 1 0  9 1 0  11 1 0  13 1 0  15 1 0  17 1 0  19 1 0  21 1 0  23 1 0  25 1 0  27 1 0  29 1 0  31 1 0  33 1 0  35 1 0  37 1 0  39 1 0  41 1 0  43 1 0  45 1 0  47 1 0  49 1 0  51 1 0  53 1 0  55 1 0  57 1 0  59 1 0  61 1 0  63 1 0  65 1 0  67 1 0  69 1 0  71 1 0  73 1 0  75 1 0  77 1 0  79 1 0  81 1 0  83 1 0  85 1 0  87 1 0  89 1 0  91 1 0  93 1 0  95 1 0  97 1 0  99 1 0  101 1 0  103 1 0  105 1 0  107 1 0  109 1 0  111 1 0  113 1 0  115 1 0  117 1 0  119 1 0  121 1 0  123 1 0  125 1 0  127 1 0  129 1 0  131 1 0  133 1 0  135 1 0  137 1 0  139 1 0  141 1 0  143 1 0  145 1 0  147 1 0  149 1 0  151 1 0  153 1 0  155 1 0  157 1 0  159 1 0  161 1 0  163 1 0  165 1 0  167 1 0  169 1 0  171 1 0  173 1 0  175 1 0  177 1 0  179 1 0  181 1 0  183 1 0  185 1 0  187 1 0  189 1 0  191 1 0  193 1 0  195 1 0  197 1 0  199 1 0  201 1 0  203 1 0  205 1 0  207 1 0  209 1 0  211 1 0  213 1 0  215 1 0  217 1 0  219 1 0  221 1 0  223 1 0  225 1 0  227 1 0  229 1 0  231 1 0  233 1 0  235 1 0  237 1 0  239 1 0  241 1 0  243 1 0  245 1 0  247 1 0  249 1 0  251 1 0  253 1 0  255 1 0  257 1 0  259 1 0  261 1 0  263 1 0  265 1 0  267 1 0  269 1 0  271 1 0  273 1 0  275 1 0  277 1 0  279 1 0  281 1 0  283 1 0  285 1 0  287 1 0  289 1 0  291 1 0  293 1 0  295 1 0  297 1 0  299 1 0  1 3 0  3 3 0  5 3 0  7 3 0  9 3 0  11 3 0  13 3 0  15 3 0  17 3 0  19 3 0  21 3 0  23 3 0  25 3 0  27 3 0  29 3 0  31 3 0  33 3 0  35 3 0  37 3 0  39 3 0  41 3 0  43 3 0  45 3 0  47 3 0  49 3 0  51 3 0  53 3 0  55 3 0  57 3 0  59 3 0  61 3 0  63 3 0  65 3 0  67 3 0  69 3 0  71 3 0  73 3 0  75 3 0  77 3 0  79 3 0  81 3 0  83 3 0  85 3 0  87 3 0  89 3 0  91 3 0  93 3 0  95 3 0  97 3 0  99 3 0  101 3 0  103 3 0  105 3 0  107 3 0  109 3 0  111 3 0  113 3 0  115 3 0  117 3 0  119 3 0  121 3 0  123 3 0  125 3 0
[...]
<PointData  Vectors="displacement"> 
<DataArray  type="Float64"  Name="displacement"  NumberOfComponents="3" format="ascii">3.8116482626443485e-21 -3.5264830524668612e-36 0.0000000000000000e+00  -8.6658000409489062e-05 1.8337711872827685e-36 0.0000000000000000e+00  -1.7018860369966788e-04 -1.8653253761273193e-36 0.0000000000000000e+00  -2.5066721225564323e-04 1.1990042378387333e-36 0.0000000000000000e+00  -3.2816908836042906e-04 -9.8032593309040145e-37 0.0000000000000000e+00  -4.0276928467649438e-04 1.4105932209867450e-36 0.0000000000000000e+00  -4.7454257536307381e-04 1.3753283904620764e-36 0.0000000000000000e+00  -5.4356338803561433e-04 -5.9244915281443290e-36 0.0000000000000000e+00  -6.0990573676903629e-04 5.0750200334580329e-36 0.0000000000000000e+00  -6.7364315634069031e-04 -4.7960169513549330e-36 0.0000000000000000e+00  -7.3484863790206534e-04 -6.0441904628425494e-37 0.0000000000000000e+00  -7.9359456626046355e-04 5.6423728839469800e-37 0.0000000000000000e+00  -8.4995265894312008e-04 -2.2771264535181641e-36 0.0000000000000000e+00  -9.0399390720664365e-04 9.0277966143151681e-36 0.0000000000000000e+00  -9.5578851914429098e-04 -3.9143961882382174e-36 0.0000000000000000e+00  -1.0054058650325274e-03 6.7003177996870388e-36 0.0000000000000000e+00  -1.0529144250467064e-03 -4.2845860200087726e-36 0.0000000000000000e+00  -1.0983817394635172e-03 1.1284745767893960e-36 0.0000000000000000e+00  -1.1418743614553105e-03 -1.0244433267416236e-35 0.0000000000000000e+00  -1.1834578125685595e-03 7.0529661049337250e-37 0.0000000000000000e+00  -1.2231965409655770e-03 -1.0794855467564156e-36 0.0000000000000000e+00  -1.2611538824954568e-03 1.6927118651840940e-36 0.0000000000000000e+00  -1.2973920246469126e-03 9.5038718263981945e-36 0.0000000000000000e+00  -1.3319719734225582e-03 -3.9496610187628860e-36 0.0000000000000000e+00  -1.3649535231611018e-03 -1.1056196094066339e-36 0.0000000000000000e+00  -1.3963952293211688e-03 -1.5798644075051544e-35 0.0000000000000000e+00  -1.4263543842279276e-03 4.4338636722558947e-36 0.0000000000000000e+00  -1.4548869957716529e-03 1.1284745767893960e-36 0.0000000000000000e+00  -1.4820477690356323e-03 -1.3536241597164813e-35 0.0000000000000000e+00  -1.5078900908197445e-03 6.6297881386377015e-36 0.0000000000000000e+00  -1.5324660170153975e-03 1.0579449157400588e-36 0.0000000000000000e+00  -1.5558262627775755e-03 -3.3854237303681880e-36 0.0000000000000000e+00  -1.5780201954304304e-03 -5.0943450340030131e-36 0.0000000000000000e+00  -1.5990958300341716e-03 -2.8211864419734900e-36 0.0000000000000000e+00  -1.6190998275331485e-03 -3.1446310594419351e-36 0.0000000000000000e+00  -1.6380774953977911e-03 4.7960169513549330e-36 0.0000000000000000e+00  -1.6560727906665901e-03 2.5448846770379426e-37 0.0000000000000000e+00  -1.6731283252887179e-03 2.8211864419734900e-36 0.0000000000000000e+00  -1.6892853736627674e-03 -5.3602542397496310e-36 0.0000000000000000e+00  -1.7045838822630746e-03 -5.6423728839469800e-36 0.0000000000000000e+00  -1.7190624812414644e-03 -2.2587726088942587e-36 0.0000000000000000e+00  -1.7327584978896174e-03 -1.5798644075051544e-35 0.0000000000000000e+00  -1.7457079718451443e-03 -3.5375033120058215e-37 0.0000000000000000e+00  -1.7579456719231542e-03 -1.5516525430854195e-35 0.0000000000000000e+00  -1.7695051144542701e-03 1.1298924411094601e-35 0.0000000000000000e+00  -1.7804185830100532e-03 1.8055593228630336e-35 0.0000000000000000e+00  -1.7907171493972240e-03 2.7506567809241528e-36 0.0000000000000000e+00  -1.8004306958030584e-03 1.0720508479499262e-35 0.0000000000000000e+00  -1.8095879379759656e-03 -6.2735497282216224e-36 0.0000000000000000e+00  -1.8182164493271589e-03 -2.5390677977761410e-36 0.0000000000000000e+00  -1.8263426858418658e-03 -6.1448967189235079e-36 0.0000000000000000e+00  -1.8339920116913109e-03 -2.3980084756774665e-36 0.0000000000000000e+00  -1.8411887254398927e-03 -4.5122623098652026e-36 0.0000000000000000e+00  -1.8479560867455168e-03 1.1284745767893960e-35 0.0000000000000000e+00  -1.8543163434547884e-03 3.1738347472201763e-37 0.0000000000000000e+00  -1.8602907589988192e-03 2.8211864419734900e-37 0.0000000000000000e+00  -1.8658996399995818e-03 -2.2761153163027339e-36 0.0000000000000000e+00  -1.8711623640011573e-03 1.0156271191104564e-35 0.0000000000000000e+00  -1.8760974072447281e-03 -3.7182355684447482e-36 0.0000000000000000e+00  -1.8807223724107329e-03 1.6927118651840940e-35 0.0000000000000000e+00  -1.8850540162563597e-03 -1.3555510009719532e-35 0.0000000000000000e+00  -1.8891082770811330e-03 2.1441016958998524e-35 0.0000000000000000e+00  -1.8929003019582239e-03 -2.6801271198748155e-36 0.0000000000000000e+00  -1.8964444736736703e-03 5.6423728839469800e-36 0.0000000000000000e+00  -1.8997544373204590e-03 -2.3084730689011348e-36 0.0000000000000000e+00  -1.9028431264989814e-03 1.0720508479499262e-35 0.0000000000000000e+00  -1.9057227890799111e-03 -9.9956395725345668e-36 0.0000000000000000e+00  -1.9084050124899901e-03 7.1940254270323995e-36 0.0000000000000000e+00  -1.9109007484855159e-03 -2.2487782559907312e-35 0.0000000000000000e+00  -1.9132203373825461e-03 1.7914533906531662e-35 0.0000000000000000e+00  -1.9153735317168855e-03 1.5851541320838547e-35 0.0000000000000000e+00  -1.9173695193108141e-03 1.0438389835301913e-35 0.0000000000000000e+00  -1.9192169457273697e-03 4.4142164727252609e-36 0.0000000000000000e+00  -1.9209239360964670e-03 6.7708474607363760e-36 0.0000000000000000e+00  -1.9224981163007474e-03 -1.9338275879870659e-35 0.0000000000000000e+00  -1.9239466335121747e-03 1.1284745767893960e-35 0.0000000000000000e+00  -1.9252761760736388e-03 3.3289591015964086e-36 0.0000000000000000e+00  -1.9264929927226447e-03 -1.1284745767893960e-35 0.0000000000000000e+00  -1.9276029111570286e-03 -1.0954137981725192e-35 0.0000000000000000e+00  -1.9286113559451961e-03 4.9370762734536075e-37 0.0000000000000000e+00  -1.9295233657857778e-03 -1.4870067917425016e-35 0.0000000000000000e+00  -1.9303436101239485e-03 2.1441016958998524e-35 0.0000000000000000e+00  -1.9310764051336006e-03 -3.8780293317596529e-35 0.0000000000000000e+00  -1.9317257290767109e-03 6.2066101723416780e-36 0.0000000000000000e+00  -1.9322952370527139e-03 -1.7942891192932941e-35 0.0000000000000000e+00  -1.9327882751526753e-03 6.7708474607363760e-36 0.0000000000000000e+00  -1.9332078940341936e-03 2.1864194925294548e-35 0.0000000000000000e+00  -1.9335568619344734e-03 4.5138983071575840e-36 0.0000000000000000e+00  -1.9338376771401602e-03 1.3776196067869251e-35 0.0000000000000000e+00  -1.9340525799335028e-03 1.1284745767893960e-36 0.0000000000000000e+00  -1.9342035640353664e-03 4.5493222400921209e-35 0.0000000000000000e+00  -1.9342923875663924e-03 -1.5234406786656846e-35 0.0000000000000000e+00  -1.9343205835482030e-03 -1.0921190814031398e-36 0.0000000000000000e+00  -1.9342894699671200e-03 -1.6927118651840940e-36 0.0000000000000000e+00  -1.9342001594232364e-03 7.0529661049337250e-36 0.0000000000000000e+00  -1.9340535683879669e-03 2.2569491535787920e-36 0.0000000000000000e+00  -1.9338504260934062e-03 -1.2452063990479630e-35 0.0000000000000000e+00  -1.9335912830768381e-03 3.3854237303681880e-36 0.0000000000000000e+00  -1.9332765194037317e-03 -7.5356672844773797e-36 0.0000000000000000e+00  -1.9329063525924143e-03 1.8055593228630336e-35 0.0000000000000000e+00  -1.9324808452633019e-03 6.0495544322730360e-37 0.0000000000000000e+00  -1.9319999125353422e-03 3.6111186457260672e-35 0.0000000000000000e+00  -1.9314633291917049e-03 1.1736135598609718e-34 0.0000000000000000e+00  -1.9308707366364156e-03 7.2222372914521344e-35 0.0000000000000000e+00  -1.9302216496628044e-03 3.6253097950276236e-34 0.0000000000000000e+00  -1.9295154630540991e-03 1.5888922041194696e-33 0.0000000000000000e+00  -1.9287514580355390e-03 2.7530829645019502e-34 0.0000000000000000e+00  -1.9279288085966243e-03 2.8888949165808538e-33 0.0000000000000000e+00  -1.9270465877010371e-03 -8.0204061962394218e-33 0.0000000000000000e+00  -1.9261037734008444e-03 1.1555579666323415e-32 0.0000000000000000e+00  -1.9250992548703689e-03 1.3288916616271927e-32 0.0000000000000000e+00  -1.9240318383740062e-03 4.6222318665293660e-32 0.0000000000000000e+00  -1.9229002531809972e-03 1.7973691568624177e-32 0.0000000000000000e+00  -1.9217031574388522e-03 0.0000000000000000e+00 0.0000000000000000e+00  -1.9204391440157719e-03 -9.9955764113697541e-32 0.0000000000000000e+00  -1.9191067463210257e-03 5.1768996905128900e-31 0.0000000000000000e+00  -1.9177044441107873e-03 -4.4678397918123026e-31 0.0000000000000000e+00  -1.9162306692854839e-03 1.4791141972893971e-30 0.0000000000000000e+00  -1.9146838116832290e-03 -5.9164567891575885e-31 0.0000000000000000e+00  -1.9130622248724727e-03 2.3665827156630354e-30 0.0000000000000000e+00  -1.9113642319455613e-03 -4.8336155836419873e-30 0.0000000000000000e+00  -1.9095881313135911e-03 7.0997481469891062e-30 0.0000000000000000e+00  -1.9077322025018062e-03 -1.9487329549287807e-29 0.0000000000000000e+00  -1.9057947119438784e-03 -3.7865323450608567e-29 0.0000000000000000e+00  -1.9037739187731100e-03 9.5541627984911818e-29 0.0000000000000000e+00  -1.9016680806090195e-03 1.5146129380243427e-28 0.0000000000000000e+00  -1.8994754593396040e-03 1.7039395552773855e-28 0.0000000000000000e+00  -1.8971943269034859e-03 -1.5146129380243427e-28 0.0000000000000000e+00  -1.8948229710834302e-03 2.7757331501132329e-28 0.0000000000000000e+00  -1.8923597013349391e-03 3.0292258760486853e-28 0.0000000000000000e+00  -1.8898028546927598e-03 -4.9177588831477876e-27 0.0000000000000000e+00  -1.8871508018259014e-03 1.3328593854614215e-26 0.0000000000000000e+00  -1.8844019533472991e-03 -5.0029070653917457e-27 0.0000000000000000e+00  -1.8815547665191534e-03 7.2701421025168448e-27 0.0000000000000000e+00  -1.8786077524997479e-03 -3.0292258760486853e-26 0.0000000000000000e+00  -1.8755594841732000e-03 1.9387045606711586e-26 0.0000000000000000e+00  -1.8724086041982642e-03 7.7709402824630896e-26 0.0000000000000000e+00  -1.8691538317743412e-03 3.8774091213423172e-26 0.0000000000000000e+00  -1.8657939638307400e-03 3.1276757170202676e-26 0.0000000000000000e+00  -1.8623278600369626e-03 1.0081263715490025e-24 0.0000000000000000e+00  -1.8587543876631078e-03 -1.5625559026110432e-24 0.0000000000000000e+00  -1.8550722755871331e-03 3.1019272970738538e-24 0.0000000000000000e+00  -1.8512797759210921e-03 -2.2488972903785440e-24 0.0000000000000000e+00  -1.8473739356303087e-03 8.6853964318067906e-24 0.0000000000000000e+00  -1.8433490658465660e-03 1.9828437778533740e-23 0.0000000000000000e+00  -1.8391932744311250e-03 -3.9704669402545328e-23 0.0000000000000000e+00  -1.8348784858875436e-03 -4.6360030113518093e-24 0.0000000000000000e+00  -1.8303234634813998e-03 -9.9261673506363321e-24 0.0000000000000000e+00  -1.8252556072320051e-03 9.8020902587533779e-23 0.0000000000000000e+00  -1.8190230781612990e-03 -1.5881867761018131e-22 0.0000000000000000e+00  -1.8106839898903208e-03 1.5881867761018136e-22 0.0000000000000000e+00  -1.5246593050577406e-20 5.6423728839469800e-37 0.0000000000000000e+00  -8.6658000409488994e-05 1.9848737945036114e-20 0.0000000000000000e+00  -1.7018860369966786e-04 5.2403332936701369e-21 0.0000000000000000e+00  -2.5066721225564296e-04 1.2221335000077711e-20 0.0000000000000000e+00  -3.2816908836042895e-04 6.8212102326015138e-21 0.0000000000000000e+00  -4.0276928467649422e-04 9.0949469768020134e-21 0.0000000000000000e+00  -4.7454257536307337e-04 -2.0747847790829624e-20 0.0000000000000000e+00  -5.4356338803561433e-04 -2.9558577674606562e-20 0.0000000000000000e+00  -6.0990573676903586e-04 -3.3035443034531132e-20 0.0000000000000000e+00  -6.7364315634069053e-04 -5.9685589535263251e-20 0.0000000000000000e+00  -7.3484863790206567e-04 -1.2221335000077714e-20 0.0000000000000000e+00  -7.9359456626046333e-04 1.5615893526661762e-20 0.0000000000000000e+00  -8.4995265894312019e-04 3.7658764825820881e-20 0.0000000000000000e+00  -9.0399390720664310e-04 5.7411852791062744e-20 0.0000000000000000e+00  -9.5578851914428936e-04 4.6043169070060239e-20 0.0000000000000000e+00  -1.0054058650325265e-03 4.3769432325859714e-20 0.0000000000000000e+00  -1.0529144250467067e-03 5.7188771576766028e-21 0.0000000000000000e+00  -1.0983817394635163e-03 -2.1032064883854676e-20 0.0000000000000000e+00  -1.1418743614553110e-03 -8.4128259535418679e-20 0.0000000000000000e+00  -1.1834578125685580e-03 -6.3108511141827494e-20 0.0000000000000000e+00  -1.2231965409655776e-03 9.9475982558772126e-21 0.0000000000000000e+00  -1.2611538824954562e-03 6.4801497209714380e-20 0.0000000000000000e+00  -1.2973920246469126e-03 6.3238303198076538e-20 0.0000000000000000e+00  -1.3319719734225576e-03 8.5265127907518911e-21 0.0000000000000000e+00  -1.3649535231611025e-03 -1.8886108120124501e-20 0.0000000000000000e+00  -1.3963952293211681e-03 -1.0004441674482223e-19 0.0000000000000000e+00  -1.4263543842279289e-03 -4.5114343013363636e-20 0.0000000000000000e+00  -1.4548869957716508e-03 -9.2290626415285289e-20 0.0000000000000000e+00  -1.4820477690356312e-03 -1.1226575174489995e-19 0.0000000000000000e+00  -1.5078900908197432e-03 5.7696069884087808e-20 0.0000000000000000e+00  -1.5324660170153957e-03 1.4992451657072082e-20 0.0000000000000000e+00  -1.5558262627775763e-03 -3.0411228953681764e-20 0.0000000000000000e+00  -1.5780201954304299e-03 -8.5095528357097728e-20 0.0000000000000000e+00  -1.5990958300341703e-03 -2.4592243952945416e-20 0.0000000000000000e+00  -1.6190998275331500e-03 5.3645976308480609e-21 0.0000000000000000e+00  -1.6380774953977900e-03 1.9375019018436701e-20 0.0000000000000000e+00  -1.6560727906665897e-03 3.0517810363566168e-20 0.0000000000000000e+00  -1.6731283252887164e-03 8.2422956977268322e-21 0.0000000000000000e+00  -1.6892853736627670e-03 -4.8245851541004489e-20 0.0000000000000000e+00  -1.7045838822630735e-03 -9.1517903954070351e-20 0.0000000000000000e+00  -1.7190624812414646e-03 -6.8286240250674785e-20 0.0000000000000000e+00  -1.7327584978896139e-03 -9.9831253925053410e-20 0.0000000000000000e+00  -1.7457079718451441e-03 -9.4573237704089827e-20 0.0000000000000000e+00  -1.7579456719231550e-03 -1.2158144128428972e-19 0.0000000000000000e+00  -1.7695051144542692e-03 3.0624391773450541e-20 0.0000000000000000e+00  -1.7804185830100545e-03 1.5106138494282106e-19 0.0000000000000000e+00  -1.7907171493972223e-03 1.1926459766064217e-19 0.0000000000000000e+00  -1.8004306958030577e-03 4.9027448546823386e-20 0.0000000000000000e+00  -1.8095879379759661e-03 -2.5969946486238991e-20 0.0000000000000000e+00  -1.8182164493271572e-03 -3.0553337500194307e-21 0.0000000000000000e+00  -1.8263426858418656e-03 -3.3715252660098110e-20 0.0000000000000000e+00  -1.8339920116913102e-03 -2.1742607616417319e-20 0.0000000000000000e+00  -1.8411887254398929e-03 9.0949469768020119e-21 0.0000000000000000e+00  -1.8479560867455144e-03 1.2732925767522825e-19 0.0000000000000000e+00  -1.8543163434547880e-03 8.9173112936613587e-20 0.0000000000000000e+00  -1.8602907589988183e-03 -4.0145664389790152e-20 0.0000000000000000e+00  -1.8658996399995810e-03 -2.7831477756150190e-20 0.0000000000000000e+00  -1.8711623640011569e-03 3.6379787907208060e-20 0.0000000000000000e+00  -1.8760974072447258e-03 3.3703549854719330e-20 0.0000000000000000e+00  -1.8807223724107316e-03 8.3902517165021808e-20 0.0000000000000000e+00  -1.8850540162563593e-03 1.3642420465203038e-19 0.0000000000000000e+00  -1.8891082770811319e-03 9.5639051802933728e-20 0.0000000000000000e+00  -1.8929003019582228e-03 8.2138739884243271e-20 0.0000000000000000e+00  -1.8964444736736697e-03 2.2026824709442373e-20 0.0000000000000000e+00  -1.8997544373204587e-03 -7.8414847258392663e-20 0.0000000000000000e+00  -1.9028431264989821e-03 3.2418512173171263e-20 0.0000000000000000e+00  -1.9057227890799092e-03 -3.2969182790907329e-20 0.0000000000000000e+00  -1.9084050124899901e-03 -5.2456646345417835e-21 0.0000000000000000e+00  -1.9109007484855124e-03 1.3862244623089612e-20 0.0000000000000000e+00  -1.9132203373825438e-03 1.4185985655613461e-19 0.0000000000000000e+00  -1.9153735317168808e-03 1.3535839055318623e-20 0.0000000000000000e+00  -1.9173695193108130e-03 -8.3595352485996662e-20 0.0000000000000000e+00  -1.9192169457273682e-03 1.2528476499358621e-20 0.0000000000000000e+00  -1.9209239360964661e-03 8.1445960719994565e-21 0.0000000000000000e+00  -1.9224981163007448e-03 -8.4128259535418631e-20 0.0000000000000000e+00  -1.9239466335121732e-03 -1.4716091535474338e-19 0.0000000000000000e+00  -1.9252761760736369e-03 -8.6455286984561424e-20 0.0000000000000000e+00  -1.9264929927226412e-03 -9.0949469768020200e-20 0.0000000000000000e+00  -1.9276029111570299e-03 -1.4361844981922729e-19 0.0000000000000000e+00  -1.9286113559451928e-03 -1.1350920152688452e-20 0.0000000000000000e+00  -1.9295233657857795e-03 4.4432695013212728e-21 0.0000000000000000e+00  -1.9303436101239450e-03 -9.0949469768020308e-20 0.0000000000000000e+00  -1.9310764051336052e-03 -1.1141310046582466e-19 0.0000000000000000e+00  -1.9317257290767109e-03 -3.0892701681898107e-20 0.0000000000000000e+00  -1.9322952370527126e-03 6.3780092031655624e-20 0.0000000000000000e+00  -1.9327882751526753e-03 7.8546058192723285e-20 0.0000000000000000e+00  -1.9332078940341921e-03 1.2251533066211628e-19 0.0000000000000000e+00  -1.9335568619344714e-03 6.7923444340911561e-20 0.0000000000000000e+00  -1.9338376771401615e-03 1.7597568169297900e-19 0.0000000000000000e+00  -1.9340525799335017e-03 2.7731417902698746e-19 0.0000000000000000e+00  -1.9342035640353653e-03 1.1153911077855252e-19 0.0000000000000000e+00  -1.9342923875663930e-03 2.1990536095361801e-20 0.0000000000000000e+00  -1.9343205835482009e-03 3.3399255433136166e-20 0.0000000000000000e+00  -1.9342894699671193e-03 9.7333252130887816e-20 0.0000000000000000e+00  -1.9342001594232353e-03 6.4140914513035060e-20 0.0000000000000000e+00  -1.9340535683879663e-03 -1.0190515052572070e-19 0.0000000000000000e+00  -1.9338504260934038e-03 -1.2846659396140217e-19 0.0000000000000000e+00  -1.9335912830768375e-03 -4.0045744318023566e-20 0.0000000000000000e+00  -1.9332765194037336e-03 -3.6157743303282243e-20 0.0000000000000000e+00  -1.9329063525924126e-03 1.6943779636372280e-19 0.0000000000000000e+00  -1.9324808452633041e-03 3.2725821905004608e-19 0.0000000000000000e+00  -1.9319999125353392e-03 6.8411942469548407e-19 0.0000000000000000e+00  -1.9314633291917062e-03 1.2801426527833943e-18 0.0000000000000000e+00  -1.9308707366364132e-03 2.2707879918603706e-18 0.0000000000000000e+00  -1.9302216496628031e-03 4.0059701630014885e-18 0.0000000000000000e+00  -1.9295154630540950e-03 7.5270500604530231e-18 0.0000000000000000e+00  -1.9287514580355373e-03 1.3985230688312050e-17 0.0000000000000000e+00  -1.9279288085966154e-03 2.5744755697722856e-17 0.0000000000000000e+00  -1.9270465877010239e-03 4.7502908059836966e-17 0.0000000000000000e+00  -1.9261037734008204e-03 8.7638909068464200e-17 0.0000000000000000e+00  -1.9250992548703234e-03 1.6123266205090898e-16 0.0000000000000000e+00  -1.9240318383739244e-03 2.9655174182741615e-16 0.0000000000000000e+00  -1.9229002531808521e-03 5.4555392245002196e-16 0.0000000000000000e+00  -1.9217031574385868e-03 1.0031180818594027e-15 0.0000000000000000e+00  -1.9204391440152890e-03 1.8433962505701727e-15 0.0000000000000000e+00  -1.9191067463201505e-03 3.3853160930139337e-15 0.0000000000000000e+00  -1.9177044441091996e-03 6.2136677745511408e-15 0.0000000000000000e+00  -1.9162306692826056e-03 1.1397814978277765e-14 0.0000000000000000e+00  -1.9146838116780196e-03 2.0893730473883993e-14 0.0000000000000000e+00  -1.9130622248630623e-03 3.8274181092107849e-14 0.0000000000000000e+00  -1.9113642319285823e-03 7.0061594651803123e-14 0.0000000000000000e+00  -1.9095881312830199e-03 1.2815055565226776e-13 0.0000000000000000e+00  -1.9077322024468738e-03 2.3421087754847669e-13 0.0000000000000000e+00  -1.9057947118453870e-03 4.2767931076859911e-13 0.0000000000000000e+00  -1.9037739185969549e-03 7.8024306677081092e-13 0.0000000000000000e+00  -1.9016680802948181e-03 1.4220541541788128e-12 0.0000000000000000e+00  -1.8994754587808814e-03 2.5890974890982653e-12 0.0000000000000000e+00  -1.8971943259133183e-03 4.708