<?xml version="1.0"?>
<VTKFile type="UnstructuredGrid"  version="0.1"  >
<UnstructuredGrid>
<Piece  NumberOfPoints="1656" NumberOfCells="3000">
<Points>
<DataArray  type="Float64"  NumberOfComponents="3"  format="ascii">0 0 0  2 0 0  4 0 0  6 0 0  8 0 0  10 0 0  12 0 0  14 0 0  16 0 0  18 0 0  20 0 0  22 0 0  24 0 0  26 0 0  28 0 0  30 0 0  32 0 0  34 0 0  36 0 0  38 0 0  40 0 0  42 0 0  44 0 0  46 0 0  48 0 0  50 0 0  52 0 0  54 0 0  56 0 0  58 0 0  60 0 0  62 0 0  64 0 0  66 0 0  68 0 0  70 0 0  72 0 0  74 0 0  76 0 0  78 0 0  80 0 0  82 0 0  84 0 0  86 0 0  88 0 0  90 0 0  92 0 0  94 0 0  96 0 0  98 0 0  100 0 0  102 0 0  104 0 0  106 0 0  108 0 0  110 0 0  112 0 0  114 0 0  116 0 0  118 0 0  120 0 0  122 0 0  124 0 0  126 0 0  128 0 0  130 0 0  132 0 0  134 0 0  136 0 0  138 0 0  140 0 0  142 0 0  144 0 0  146 0 0  148 0 0  150 0 0  152 0 0  154 0 0  156 0 0  158 0 0  160 0 0  162 0 0  164 0 0  166 0 0  168 0 0  170 0 0  172 0 0  174 0 0  176 0 0  178 0 0  180 0 0  182 0 0  184 0 0  186 0 0  188 0 0  190 0 0  192 0 0  194 0 0  196 0 0  198 0 0  200 0 0  202 0 0  204 0 0  206 0 0  208 0 0  210 0 0  212 0 0  214 0 0  216 0 0  218 0 0  220 0 0  222 0 0  224 0 0  226 0 0  228 0 0  230 0 0  232 0 0  234 0 0  236 0 0  238 0 0  240 0 0  242 0 0  244 0 0  246 0 0  248 0 0  250 0 0  252 0 0  254 0 0  256 0 0  258 0 0  260 0 0  262 0 0  264 0 0  266 0 0  268 0 0  270 0 0  272 0 0  274 0 0  276 0 0  278 0 0  280 0 0  282 0 0  284 0 0  286 0 0  288 0 0  290 0 0  292 0 0  294 0 0  296 0 0  298 0 0  300 0 0  0 2 0  2 2 0  4 2 0  6 2 0  8 2 0  10 2 0  12 2 0  14 2 0  16 2 0  18 2 0  20 2 0  22 2 0  24 2 0  26 2 0  28 2 0  30 2 0  32 2 0  34 2 0  36 2 0  38 2 0  40 2 0  42 2 0  44 2 0  46 2 0  48 2 0  50 2 0  52 2 0  54 2 0  56 2 0  58 2 0  60 2 0  62 2 0  64 2 0  66 2 0  68 2 0  70 2 0  72 2 0  74 2 0  76 2 0  78 2 0  80 2 0  82 2 0  84 2 0  86 2 0  88 2 0  90 2 0  92 2 0  94 2 0  96 2 0  98 2 0  100 2 0  102 2 0  104 2 0  106 2 0  108 2 0  110 2 0  112 2 0  114 2 0  116 2 0  118 2 0  120 2 0  122 2 0  124 2 0  126 2 0  128 2 0  130 2 0  132 2 0  134 2 0  136 2 0  138 2 0  140 2 0  142 2 0  144 2 0  146 2 0  148 2 0  150 2 0  152 2 0  154 2 0  156 2 0  158 2 0  160 2 0  162 2 0  164 2 0  166 2 0  168 2 0  170 2 0  172 2 0  174 2 0  176 2 0  178 2 0  180 2 0  182 2 0  184 2 0  186 2 0  188 2 0  190 2 0  192 2 0  194 2 0  196 2 0  198 2 0  200 2 0  202 2 0  204 2 0  206 2 0  208 2 0  210 2 0  212 2 0  214 2 0  216 2 0  218 2 0  220 2 0  222 2 0  224 2 0  226 2 0  228 2 0  230 2 0  232 2 0  234 2 0  236 2 0  238 2 0  240 2 0  242 2 0  244 2 0  246 2 0  248 2 0  250 2 0  252 2 0  254 2 0  256 2 0  258 2 0  260 2 0  262 2 0  264 2 0  266 2 0  268 2 0  270 2 0  272 2 0  274 2 0  276 2 0  278 2 0  280 2 0  282 2 0  284 2 0  286 2 0  288 2 0  290 2 0  292 2 0  294 2 0  296 2 0  298 2 0  300 2 0  0 4 0  2 4 0  4 4 0  6 4 0  8 4 0  10 4 0  12 4 0  14 4 0  16 4 0  18 4 0  20 4 0  22 4 0  24 4 0  26 4 0  28 4 0  30 4 0  32 4 0  34 4 0  36 4 0  38 4 0  40 4 0  42 4 0  44 4 0  46 4 0  48 4 0  50 4 0  52 4 0  54 4 0  56 4 0  58 4 0  60 4 0  62 4 0  64 4 0  66 4 0  68 4 0  70 4 0  72 4 0  74 4 0  76 4 0  78 4 0  80 4 0  82 4 0  84 4 0  86 4 0  88 4 0  90 4 0  92 4 0  94 4 0  96 4 0  98 4 0  100 4 0  102 4 0  104 4 0  106 4 0  108 4 0  110 4 0  112 4 0  114 4 0  116 4 0  118 4 0  120 4 0  122 4 0  124 4 0  126 4 0  128 4 0  130 4 0  132 4 0  134 4 0  136 4 0  138 4 0  140 4 0  142 4 0  144 4 0  146 4 0  148 4 0  150 4 0  152 4 0  154 4 0  156 4 0  158 4 0  160 4 0  162 4 0  164 4 0  166 4 0  168 4 0  170 4 0  172 4 0  174 4 0  176 4 0  178 4 0  180 4 0  182 4 0  184 4 0  186 4 0  188 4 0  190 4 0  192 4 0  194 4 0  196 4 0  198 4 0  200 4 0  202 4 0  204 4 0  206 4 0  208 4 0  210 4 0  212 4 0  214 4 0  216 4 0  218 4 0  220 4 0  222 4 0  224 4 0  226 4 0  228 4 0  230 4 0  232 4 0  234 4 0  236 4 0  238 4 0  240 4 0  242 4 0  244 4 0  246 4 0  248 4 0  250 4 0  252 4 0  254 4 0  256 4 0  258 4 0  260 4 0  262 4 0  264 4 0  266 4 0  268 4 0  270 4 0  272 4 0  274 4 0  276 4 0  278 4 0  280 4 0  282 4 0  284 4 0  286 4 0  288 4 0  290 4 0  292 4 0  294 4 0  296 4 0  298 4 0  300 4 0  0 6 0  2 6 0  4 6 0  6 6 0  8 6 0  10 6 0  12 6 0  14 6 0  16 6 0  18 6 0  20 6 0  22 6 0  24 6 0  26 6 0  28 6 0  30 6 0  32 6 0  34 6 0  36 6 0  38 6 0  40 6 0  42 6 0  44 6 0  46 6 0  48 6 0  50 6 0  52 6 0  54 6 0  56 6 0  58 6 0  60 6 0  62 6 0  64 6 0  66 6 0  68 6 0  70 6 0  72 6 0  74 6 0  76 6 0  78 6 0  80 6 0  82 6 0  84 6 0  86 6 0  88 6 0  90 6 0  92 6 0  94 6 0  96 6 0  98 6 0  100 6 0  102 6 0  104 6 0  106 6 0  108 6 0  110 6 0  112 6 0  114 6 0  116 6 0  118 6 0  120 6 0  122 6 0  124 6 0  126 6 0  128 6 0  130 6 0  132 6 0  134 6 0  136 6 0  138 6 0  140 6 0  142 6 0  144 6 0  146 6 0  148 6 0  150 6 0  152 6 0  154 6 0  156 6 0  158 6 0  160 6 0  162 6 0  164 6 0  166 6 0  168 6 0  170 6 0  172 6 0  174 6 0  176 6 0  178 6 0  180 6 0  182 6 0  184 6 0  186 6 0  188 6 0  190 6 0  192 6 0  194 6 0  196 6 0  198 6 0  200 6 0  202 6 0  204 6 0  206 6 0  208 6 0  210 6 0  212 6 0  214 6 0  216 6 0  218 6 0  220 6 0  222 6 0  224 6 0  226 6 0  228 6 0  230 6 0  232 6 0  234 6 0  236 6 0  238 6 0  240 6 0  242 6 0  244 6 0  246 6 0  248 6 0  250 6 0  252 6 0  254 6 0  256 6 0  258 6 0  260 6 0  262 6 0  264 6 0  266 6 0  268 6 0  270 6 0  272 6 0  274 6 0  276 6 0  278 6 0  280 6 0  282 6 0  284 6 0  286 6 0  288 6 0  290 6 0  292 6 0  294 6 0  296 6 0  298 6 0  300 6 0  0 8 0  2 8 0  4 8 0  6 8 0  8 8 0  10 8 0  12 8 0  14 8 0  16 8 0  18 8 0  20 8 0  22 8 0  24 8 0  26 8 0  28 8 0  30 8 0  32 8 0  34 8 0  36 8 0  38 8 0  40 8 0  42 8 0  44 8 0  46 8 0  48 8 0  50 8 0  52 8 0  54 8 0  56 8 0  58 8 0  60 8 0  62 8 0  64 8 0  66 8 0  68 8 0  70 8 0  72 8 0  74 8 0  76 8 0  78 8 0  80 8 0  82 8 0  84 8 0  86 8 0  88 8 0  90 8 0  92 8 0  94 8 0  96 8 0  98 8 0  100 8 0  102 8 0  104 8 0  106 8 0  108 8 0  110 8 0  112 8 0  114 8 0  116 8 0  118 8 0  120 8 0  122 8 0  124 8 0  126 8 0  128 8 0  130 8 0  132 8 0  134 8 0  136 8 0  138 8 0  140 8 0  142 8 0  144 8 0  146 8 0  148 8 0  150 8 0  152 8 0  154 8 0  156 8 0  158 8 0  160 8 0  162 8 0  164 8 0  166 8 0  168 8 0  170 8 0  172 8 0  174 8 0  176 8 0  178 8 0  180 8 0  182 8 0  184 8 0  186 8 0  188 8 0  190 8 0  192 8 0  194 8 0  196 8 0  198 8 0  200 8 0  202 8 0  204 8 0  206 8 0  208 8 0  210 8 0  212 8 0  214 8 0  216 8 0  218 8 0  220 8 0  222 8 0  224 8 0  226 8 0  228 8 0  230 8 0  232 8 0  234 8 0  236 8 0  238 8 0  240 8 0  242 8 0  244 8 0  246 8 0  248 8 0  250 8 0  252 8 0  254 8 0  256 8 0  258 8 0  260 8 0  262 8 0  264 8 0  266 8 0  268 8 0  270 8 0  272 8 0  274 8 0  276 8 0  278 8 0  280 8 0  282 8 0  284 8 0  286 8 0  288 8 0  290 8 0  292 8 0  294 8 0  296 8 0  298 8 0  300 8 0  0 10 0  2 10 0  4 10 0  6 10 0  8 10 0  10 10 0  12 10 0  14 10 0  16 10 0  18 10 0  20 10 0  22 10 0  24 10 0  26 10 0  28 10 0  30 10 0  32 10 0  34 10 0  36 10 0  38 10 0  40 10 0  42 10 0  44 10 0  46 10 0  48 10 0  50 10 0  52 10 0  54 10 0  56 10 0  58 10 0  60 10 0  62 10 0  64 10 0  66 10 0  68 10 0  70 10 0  72 10 0  74 10 0  76 10 0  78 10 0  80 10 0  82 10 0  84 10 0  86 10 0  88 10 0  90 10 0  92 10 0  94 10 0  96 10 0  98 10 0  100 10 0  102 10 0  104 10 0  106 10 0  108 10 0  110 10 0  112 10 0  114 10 0  116 10 0  118 10 0  120 10 0  122 10 0  124 10 0  126 10 0  128 10 0  130 10 0  132 10 0  134 10 0  136 10 0  138 10 0  140 10 0  142 10 0  144 10 0  146 10 0  148 10 0  150 10 0  152 10 0  154 10 0  156 10 0  158 10 0  160 10 0  162 10 0  164 10 0  166 10 0  168 10 0  170 10 0  172 10 0  174 10 0  176 10 0  178 10 0  180 10 0  182 10 0  184 10 0  186 10 0  188 10 0  190 10 0  192 10 0  194 10 0  196 10 0  198 10 0  200 10 0  202 10 0  204 10 0  206 10 0  208 10 0  210 10 0  212 10 0  214 10 0  216 10 0  218 10 0  220 10 0  222 10 0  224 10 0  226 10 0  228 10 0  230 10 0  232 10 0  234 10 0  236 10 0  238 10 0  240 10 0  242 10 0  244 10 0  246 10 0  248 10 0  250 10 0  252 10 0  254 10 0  256 10 0  258 10 0  260 10 0  262 10 0  264 10 0  266 10 0  268 10 0  270 10 0  272 10 0  274 10 0  276 10 0  278 10 0  280 10 0  282 10 0  284 10 0  286 10 0  288 10 0  290 10 0  292 10 0  294 10 0  296 10 0  298 10 0  300 10 0  1 1 0  3 1 0  5 1 0  7 1 0  9 1 0  11 1 0  13 1 0  15 1 0  17 1 0  19 1 0  21 1 0  23 1 0  25 1 0  27 1 0  29 1 0  31 1 0  33 1 0  35 1 0  37 1 0  39 1 0  41 1 0  43 1 0  45 1 0  47 1 0  49 1 0  51 1 0  53 1 0  55 1 0  57 1 0  59 1 0  61 1 0  63 1 0  65 1 0  67 1 0  69 1 0  71 1 0  73 1 0  75 1 0  77 1 0  79 1 0  81 1 0  83 1 0  85 1 0  87 1 0  89 1 0  91 1 0  93 1 0  95 1 0  97 1 0  99 1 0  101 1 0  103 1 0  105 1 0  107 1 0  109 1 0  111 1 0  113 1 0  115 1 0  117 1 0  119 1 0  121 1 0  123 1 0  125 1 0  127 1 0  129 1 0  131 1 0  133 1 0  135 1 0  137 1 0  139 1 0  141 1 0  143 1 0  145 1 0  147 1 0  149 1 0  151 1 0  153 1 0  155 1 0  157 1 0  159 1 0  161 1 0  163 1 0  165 1 0  167 1 0  169 1 0  171 1 0  173 1 0  175 1 0  177 1 0  179 1 0  181 1 0  183 1 0  185 1 0  187 1 0  189 1 0  191 1 0  193 1 0  195 1 0  197 1 0  199 1 0  201 1 0  203 1 0  205 1 0  207 1 0  209 1 0  211 1 0  213 1 0  215 1 0  217 1 0  219 1 0  221 1 0  223 1 0  225 1 0  227 1 0  229 1 0  231 1 0  233 1 0  235 1 0  237 1 0  239 1 0  241 1 0  243 1 0  245 1 0  247 1 0  249 1 0  251 1 0  253 1 0  255 1 0  257 1 0  259 1 0  261 1 0  263 1 0  265 1 0  267 1 0  269 1 0  271 1 0  273 1 0  275 1 0  277 1 0  279 1 0  281 1 0  283 1 0  285 1 0  287 1 0  289 1 0  291 1 0  293 1 0  295 1 0  297 1 0  299 1 0  1 3 0  3 3 0  5 3 0  7 3 0  9 3 0  11 3 0  13 3 0  15 3 0  17 3 0  19 3 0  21 3 0  23 3 0  25 3 0  27 3 0  29 3 0  31 3 0  33 3 0  35 3 0  37 3 0  39 3 0  41 3 0  43 3 0  45 3 0  47 3 0  49 3 0  51 3 0  53 3 0  55 3 0  57 3 0  59 3 0  61 3 0  63 3 0  65 3 0  67 3 0  69 3 0  71 3 0  73 3 0  75 3 0  77 3 0  79 3 0  81 3 0  83 3 0  85 3 0  87 3 0  89 3 0  91 3 0  93 3 0  95 3 0  97 3 0  99 3 0  101 3 0  103 3 0  105 3 0  107 3 0  109 3 0  111 3 0  113 3 0  115 3 0  117 3 0  119 3 0  121 3 0  123 3 0  125 3 0
[...]
<PointData  Vectors="displacement"> 
<DataArray  type="Float64"  Name="displacement"  NumberOfComponents="3" format="ascii">-4.4469229730850756e-20 -6.4887288165390257e-36 0.0000000000000000e+00  -1.9363826249744660e-04 5.0781355955522820e-36 0.0000000000000000e+00  -3.8410674630185934e-04 -9.5791570533053048e-36 0.0000000000000000e+00  -5.7143853641640127e-04 0.0000000000000000e+00 0.0000000000000000e+00  -7.5566670591524282e-04 -5.8332392347248256e-37 0.0000000000000000e+00  -9.3682430998671485e-04 5.9244915281443290e-36 0.0000000000000000e+00  -1.1149443799856225e-03 -3.7028072050902057e-36 0.0000000000000000e+00  -1.2900599174977734e-03 -2.8211864419734900e-36 0.0000000000000000e+00  -1.4622038884197375e-03 3.4121026206624647e-36 0.0000000000000000e+00  -1.6314092170568667e-03 5.0781355955522820e-36 0.0000000000000000e+00  -1.7977087802425614e-03 5.1757047170896765e-36 0.0000000000000000e+00  -1.9611354014817768e-03 2.2569491535787920e-36 0.0000000000000000e+00  -2.1217218451216788e-03 1.5746292161695336e-35 0.0000000000000000e+00  -2.2795008105524640e-03 2.1441016958998524e-35 0.0000000000000000e+00  -2.4345049264411335e-03 -1.0156271191104564e-35 0.0000000000000000e+00  -2.5867667450011817e-03 3.3854237303681880e-36 0.0000000000000000e+00  -2.7363187363009613e-03 1.7932495793470935e-35 0.0000000000000000e+00  -2.8831932826135914e-03 1.5798644075051544e-35 0.0000000000000000e+00  -3.0274226728110795e-03 -2.3880902420924035e-35 0.0000000000000000e+00  -3.1690390968054623e-03 -9.0277966143151681e-36 0.0000000000000000e+00  -3.3080746400395364e-03 1.8159569945435030e-35 0.0000000000000000e+00  -3.4445612780299082e-03 2.2569491535787920e-36 0.0000000000000000e+00  -3.5785308709648132e-03 2.0171483060110454e-35 0.0000000000000000e+00  -3.7100151583593635e-03 -2.2569491535787920e-36 0.0000000000000000e+00  -3.8390457537705318e-03 -5.6463066621586952e-36 0.0000000000000000e+00  -3.9656541395744239e-03 4.5138983071575840e-36 0.0000000000000000e+00  -4.0898716618080946e-03 -7.6315297307290697e-37 0.0000000000000000e+00  -4.2117295250782335e-03 -4.9652881378733424e-35 0.0000000000000000e+00  -4.3312587875389257e-03 -9.2067565403540140e-36 0.0000000000000000e+00  -4.4484903559406912e-03 3.3290000015287182e-35 0.0000000000000000e+00  -4.5634549807528312e-03 -3.4718225651536262e-35 0.0000000000000000e+00  -4.6761832513611667e-03 3.6675423745655370e-36 0.0000000000000000e+00  -4.7867055913430739e-03 -2.4862847309668357e-35 0.0000000000000000e+00  -4.8950522538217479e-03 1.3541694921472752e-35 0.0000000000000000e+00  -5.0012533169014545e-03 -7.0628843385187881e-36 0.0000000000000000e+00  -5.1053386791855464e-03 9.0277966143151681e-36 0.0000000000000000e+00  -5.2073380553788583e-03 -2.2725093056041097e-35 0.0000000000000000e+00  -5.3072809719761568e-03 2.7083389842945504e-35 0.0000000000000000e+00  -5.4051967630379264e-03 -3.0186694929116343e-35 0.0000000000000000e+00  -5.5011145660552527e-03 -8.1250169528836513e-35 0.0000000000000000e+00  -5.5950633179048014e-03 1.1068948920182297e-35 0.0000000000000000e+00  -5.6870717508953677e-03 -2.7083389842945504e-35 0.0000000000000000e+00  -5.7771683889070967e-03 -4.1864588456062664e-35 0.0000000000000000e+00  -5.8653815436244608e-03 -2.1158898314801175e-36 0.0000000000000000e+00  -5.9517393108640569e-03 4.4004691615524644e-36 0.0000000000000000e+00  -6.0362695669980426e-03 2.7083389842945504e-35 0.0000000000000000e+00  -6.1189999654741745e-03 -2.2005254247393222e-35 0.0000000000000000e+00  -6.1999579334331041e-03 6.4323050876995572e-35 0.0000000000000000e+00  -6.2791706684236330e-03 -3.3881560730683116e-35 0.0000000000000000e+00  -6.3566651352165455e-03 -7.8993220375257721e-36 0.0000000000000000e+00  -6.4324680627174313e-03 -5.3007448382392527e-36 0.0000000000000000e+00  -6.5066059409789618e-03 -1.5656325294719845e-35 0.0000000000000000e+00  -6.5791050183129588e-03 4.5213057393425338e-36 0.0000000000000000e+00  -6.6499912985024286e-03 9.0277966143151681e-36 0.0000000000000000e+00  -6.7192905381137751e-03 1.4370418438802465e-36 0.0000000000000000e+00  -6.7870282439092188e-03 -3.4277415269977904e-35 0.0000000000000000e+00  -6.8532296703594058e-03 1.3246226993813262e-35 0.0000000000000000e+00  -6.9179198172561749e-03 3.9496610187628860e-35 0.0000000000000000e+00  -6.9811234274250837e-03 -5.7320777965941059e-35 0.0000000000000000e+00  -7.0428649845377961e-03 9.0277966143151681e-36 0.0000000000000000e+00  -7.1031687110235282e-03 3.1652548503090195e-35 0.0000000000000000e+00  -7.1620585660795311e-03 6.6580000030574364e-35 0.0000000000000000e+00  -7.2195582437797872e-03 1.0720508479499262e-35 0.0000000000000000e+00  -7.2756911712815522e-03 3.6111186457260672e-35 0.0000000000000000e+00  -7.3304805071288844e-03 -6.7677469326656972e-35 0.0000000000000000e+00  -7.3839491396525724e-03 -2.5954915266156108e-35 0.0000000000000000e+00  -7.4361196854655469e-03 6.0150244571159796e-36 0.0000000000000000e+00  -7.4870144880528960e-03 -4.5138983071575840e-36 0.0000000000000000e+00  -7.5366556164554880e-03 -4.9764856304523095e-35 0.0000000000000000e+00  -7.5850648640462832e-03 3.9699382963145705e-35 0.0000000000000000e+00  -7.6322637473979953e-03 -2.1723135603195873e-35 0.0000000000000000e+00  -7.6782735052411824e-03 1.5798644075051544e-35 0.0000000000000000e+00  -7.7231150975113107e-03 -3.2483312218112693e-37 0.0000000000000000e+00  -7.7668092044835737e-03 3.1597288150103088e-35 0.0000000000000000e+00  -7.8093762259940774e-03 -6.3017625703138775e-35 0.0000000000000000e+00  -7.8508362807460184e-03 4.5138983071575840e-35 0.0000000000000000e+00  -7.8912092056991380e-03 -1.0878291329475614e-34 0.0000000000000000e+00  -7.9305145555412238e-03 6.7708474607363760e-35 0.0000000000000000e+00  -7.9687716022397714e-03 -8.7174661056980842e-35 0.0000000000000000e+00  -8.0059993346722549e-03 1.8055593228630336e-35 0.0000000000000000e+00  -8.0422164583333067e-03 -4.5259319761304343e-35 0.0000000000000000e+00  -8.0774413951169993e-03 9.0277966143151681e-36 0.0000000000000000e+00  -8.1116922831724302e-03 -2.3345317807330630e-35 0.0000000000000000e+00  -8.1449869768307603e-03 -2.7083389842945504e-35 0.0000000000000000e+00  -8.1773430466017521e-03 -4.9583078827591810e-35 0.0000000000000000e+00  -8.2087777792379853e-03 -1.8055593228630336e-35 0.0000000000000000e+00  -8.2393081778645468e-03 1.3541694921472752e-35 0.0000000000000000e+00  -8.2689509621725367e-03 1.3541694921472752e-35 0.0000000000000000e+00  -8.2977225686738237e-03 9.1031598966609318e-36 0.0000000000000000e+00  -8.3256391510155518e-03 4.0625084764418256e-35 0.0000000000000000e+00  -8.3527165803517680e-03 1.4620476775078151e-35 0.0000000000000000e+00  -8.3789704457703749e-03 1.8055593228630336e-35 0.0000000000000000e+00  -8.4044160547730330e-03 -8.0900974995651514e-35 0.0000000000000000e+00  -8.4290684338059699e-03 9.0277966143151681e-35 0.0000000000000000e+00  -8.4529423288393635e-03 6.7743739437888429e-35 0.0000000000000000e+00  -8.4760522059931440e-03 -5.4166779685891008e-35 0.0000000000000000e+00  -8.4984122522069917e-03 5.4226781527888681e-35 0.0000000000000000e+00  -8.5200363759521495e-03 -4.0625084764418256e-35 0.0000000000000000e+00  -8.5409382079829274e-03 1.1640357347548798e-35 0.0000000000000000e+00  -8.5611311021255160e-03 4.5138983071575840e-36 0.0000000000000000e+00  -8.5806281361019386e-03 9.1906692336455958e-36 0.0000000000000000e+00  -8.5994421123866509e-03 -1.8055593228630336e-35 0.0000000000000000e+00  -8.6175855590937562e-03 3.1597288150103088e-35 0.0000000000000000e+00  -8.6350707308923171e-03 3.2500067811534605e-34 0.0000000000000000e+00  -8.6519096099476975e-03 2.7485033958160867e-34 0.0000000000000000e+00  -8.6681139068863645e-03 1.4444474582904269e-34 0.0000000000000000e+00  -8.6836950617822165e-03 -2.7235955028364804e-33 0.0000000000000000e+00  -8.6986642451618926e-03 7.5111267831102198e-33 0.0000000000000000e+00  -8.7130323590269270e-03 -1.2359705055474784e-33 0.0000000000000000e+00  -8.7268100378905724e-03 6.9333477997940491e-33 0.0000000000000000e+00  -8.7400076498269190e-03 -1.5600032549536610e-32 0.0000000000000000e+00  -8.7526352975301862e-03 0.0000000000000000e+00 0.0000000000000000e+00  -8.7647028193821343e-03 1.2042522263087295e-32 0.0000000000000000e+00  -8.7762197905250916e-03 -3.6977854932234928e-32 0.0000000000000000e+00  -8.7871955239388812e-03 5.4282335482554243e-31 0.0000000000000000e+00  -8.7976390715192396e-03 0.0000000000000000e+00 0.0000000000000000e+00  -8.8075592251558345e-03 3.1107143942993501e-31 0.0000000000000000e+00  -8.8169645178078002e-03 -2.9582283945787943e-31 0.0000000000000000e+00  -8.8258632245749018e-03 2.9582283945787943e-30 0.0000000000000000e+00  -8.8342633637624665e-03 -2.9582283945787943e-30 0.0000000000000000e+00  -8.8421726979383778e-03 1.2240813627567664e-30 0.0000000000000000e+00  -8.8495987349808056e-03 4.7331654313260708e-30 0.0000000000000000e+00  -8.8565487291153381e-03 7.9132609554982747e-30 0.0000000000000000e+00  -8.8630296819415672e-03 2.8398992587956425e-29 0.0000000000000000e+00  -8.8690483434492578e-03 2.1616415320386072e-29 0.0000000000000000e+00  -8.8746112130270761e-03 -2.4612460242895568e-28 0.0000000000000000e+00  -8.8797245404690084e-03 5.2064819744586779e-28 0.0000000000000000e+00  -8.8843943269889779e-03 -6.8157582211095420e-28 0.0000000000000000e+00  -8.8886263262619985e-03 1.8334916606399701e-27 0.0000000000000000e+00  -8.8924260455223742e-03 -3.0292258760486853e-28 0.0000000000000000e+00  -8.8957987467682895e-03 3.0954901920872503e-27 0.0000000000000000e+00  -8.8987494481486164e-03 -3.6350710512584224e-27 0.0000000000000000e+00  -8.9012829256411609e-03 -2.2922183433193149e-27 0.0000000000000000e+00  -8.9034037151644162e-03 2.4233807008389483e-27 0.0000000000000000e+00  -8.9051161152701001e-03 2.5445497358808957e-26 0.0000000000000000e+00  -8.9064241904679362e-03 0.0000000000000000e+00 0.0000000000000000e+00  -8.9073317748631642e-03 1.3549149604610030e-25 0.0000000000000000e+00  -8.9078424747418925e-03 -1.5509636485369269e-25 0.0000000000000000e+00  -8.9079596661774483e-03 -4.2257700970879160e-26 0.0000000000000000e+00  -8.9076864779412089e-03 5.4283727698792441e-25 0.0000000000000000e+00  -8.9070257377342563e-03 -3.2898017596543571e-25 0.0000000000000000e+00  -8.9059798352303290e-03 2.1713491079516976e-24 0.0000000000000000e+00  -8.9045504087985200e-03 -3.6447645740617782e-24 0.0000000000000000e+00  -8.9027376746409776e-03 9.9261673506363321e-24 0.0000000000000000e+00  -8.9005390202603479e-03 -2.2186135903522494e-23 0.0000000000000000e+00  -8.8979458222482512e-03 2.2333876538931747e-23 0.0000000000000000e+00  -8.8949342942157630e-03 2.8661683269395022e-23 0.0000000000000000e+00  -8.8914315899957953e-03 -2.9778502051908996e-23 0.0000000000000000e+00  -8.8871891364865150e-03 1.7494869955496535e-22 0.0000000000000000e+00  -8.8816104628820260e-03 5.9557004103817993e-23 0.0000000000000000e+00  -8.8738330491637697e-03 1.5881867761018136e-22 0.0000000000000000e+00  1.5246593050577406e-20 -1.1284745767893960e-36 0.0000000000000000e+00  -1.9363826249744665e-04 5.9546213835108364e-20 0.0000000000000000e+00  -3.8410674630185929e-04 2.2894103546604490e-20 0.0000000000000000e+00  -5.7143853641640084e-04 2.7284840930406055e-20 0.0000000000000000e+00  -7.5566670591524271e-04 1.8189893953604057e-20 0.0000000000000000e+00  -9.3682430998671495e-04 2.7284840930406055e-20 0.0000000000000000e+00  -1.1149443799856227e-03 -2.0463630697804552e-20 0.0000000000000000e+00  -1.2900599174977734e-03 -1.1368683721002519e-20 0.0000000000000000e+00  -1.4622038884197369e-03 -2.8766653502880987e-20 0.0000000000000000e+00  -1.6314092170568659e-03 -6.4801497209714392e-20 0.0000000000000000e+00  -1.7977087802425633e-03 1.8758328139654172e-20 0.0000000000000000e+00  -1.9611354014817750e-03 8.8919253529455683e-20 0.0000000000000000e+00  -2.1217218451216784e-03 1.8360424209419071e-19 0.0000000000000000e+00  -2.2795008105524622e-03 1.3869794139623069e-19 0.0000000000000000e+00  -2.4345049264411348e-03 1.1880274488447642e-19 0.0000000000000000e+00  -2.5867667450011804e-03 4.5474734884010094e-20 0.0000000000000000e+00  -2.7363187363009596e-03 1.0507027447396870e-19 0.0000000000000000e+00  -2.8831932826135875e-03 1.4779288837303279e-19 0.0000000000000000e+00  -3.0274226728110847e-03 -2.0918378046644651e-19 0.0000000000000000e+00  -3.1690390968054584e-03 -1.8159664871876346e-19 0.0000000000000000e+00  -3.3080746400395381e-03 1.8872014976864197e-19 0.0000000000000000e+00  -3.4445612780299008e-03 7.5033312558616638e-20 0.0000000000000000e+00  -3.5785308709648180e-03 1.1823431069842630e-19 0.0000000000000000e+00  -3.7100151583593626e-03 -1.1596057395422572e-19 0.0000000000000000e+00  -3.8390457537705305e-03 -1.0781540923027468e-19 0.0000000000000000e+00  -3.9656541395744265e-03 4.0927261395609080e-20 0.0000000000000000e+00  -4.0898716618080972e-03 -1.1690606213596995e-19 0.0000000000000000e+00  -4.2117295250782326e-03 -2.8850797316065200e-19 0.0000000000000000e+00  -4.3312587875389240e-03 -1.7848833441973971e-19 0.0000000000000000e+00  -4.4484903559406860e-03 3.2628122279277243e-19 0.0000000000000000e+00  -4.5634549807528320e-03 -3.9221958837458693e-20 0.0000000000000000e+00  -4.6761832513611649e-03 9.0949469768020164e-21 0.0000000000000000e+00  -4.7867055913430731e-03 -1.7841385300585702e-20 0.0000000000000000e+00  -4.8950522538217505e-03 2.3923585976149374e-19 0.0000000000000000e+00  -5.0012533169014536e-03 4.7748471628210589e-20 0.0000000000000000e+00  -5.1053386791855395e-03 7.9470265594294179e-20 0.0000000000000000e+00  -5.2073380553788653e-03 2.1969981290837387e-19 0.0000000000000000e+00  -5.3072809719761456e-03 2.6034285721095773e-19 0.0000000000000000e+00  -5.4051967630379255e-03 -1.2164491581472708e-19 0.0000000000000000e+00  -5.5011145660552509e-03 -2.8535396139716335e-19 0.0000000000000000e+00  -5.5950633179048014e-03 -1.9485904036070690e-19 0.0000000000000000e+00  -5.6870717508953643e-03 -2.0349943860594527e-19 0.0000000000000000e+00  -5.7771683889070906e-03 -3.9392489093273769e-19 0.0000000000000000e+00  -5.8653815436244573e-03 -5.6304841956112049e-19 0.0000000000000000e+00  -5.9517393108640560e-03 7.3896444186516270e-21 0.0000000000000000e+00  -6.0362695669980400e-03 2.9785951349026614e-19 0.0000000000000000e+00  -6.1189999654741702e-03 4.2064129767709353e-19 0.0000000000000000e+00  -6.1999579334330989e-03 4.9112713674730896e-19 0.0000000000000000e+00  -6.2791706684236321e-03 1.2113240372810612e-19 0.0000000000000000e+00  -6.3566651352165420e-03 -2.2225776674559940e-19 0.0000000000000000e+00  -6.4324680627174270e-03 -1.2676082348917815e-19 0.0000000000000000e+00  -6.5066059409789575e-03 -1.6825651907083733e-19 0.0000000000000000e+00  -6.5791050183129571e-03 1.9924629246437780e-36 0.0000000000000000e+00  -6.6499912985024208e-03 2.9103830325766457e-19 0.0000000000000000e+00  -6.7192905381137620e-03 1.1624479104725075e-19 0.0000000000000000e+00  -6.7870282439092102e-03 -3.8539837814198542e-19 0.0000000000000000e+00  -6.8532296703594092e-03 -9.4947207627420674e-21 0.0000000000000000e+00  -6.9179198172561679e-03 4.3655745488649669e-19 0.0000000000000000e+00  -6.9811234274250820e-03 7.5176429278893082e-20 0.0000000000000000e+00  -7.0428649845377961e-03 2.3780948027751314e-19 0.0000000000000000e+00  -7.1031687110235265e-03 4.0017766697928891e-19 0.0000000000000000e+00  -7.1620585660795216e-03 4.6270542744480276e-19 0.0000000000000000e+00  -7.2195582437797872e-03 1.2988721151245388e-19 0.0000000000000000e+00  -7.2756911712815505e-03 -3.1832314418807099e-20 0.0000000000000000e+00  -7.3304805071288852e-03 -5.6170784817884571e-19 0.0000000000000000e+00  -7.3839491396525707e-03 -3.6294522779300553e-19 0.0000000000000000e+00  -7.4361196854655530e-03 -1.0686562697742376e-19 0.0000000000000000e+00  -7.4870144880528908e-03 -1.0545367553635103e-19 0.0000000000000000e+00  -7.5366556164554862e-03 -1.2761347476825335e-19 0.0000000000000000e+00  -7.5850648640462719e-03 2.1429968814089751e-19 0.0000000000000000e+00  -7.6322637473979936e-03 9.9475982558774048e-22 0.0000000000000000e+00  -7.6782735052411833e-03 -1.3983480976833116e-19 0.0000000000000000e+00  -7.7231150975113133e-03 -1.6512596314023446e-19 0.0000000000000000e+00  -7.7668092044835633e-03 -1.7280399255923842e-19 0.0000000000000000e+00  -7.8093762259940835e-03 -4.7293724279370471e-19 0.0000000000000000e+00  -7.8508362807460132e-03 -8.0173880803648716e-19 0.0000000000000000e+00  -7.8912092056991345e-03 -6.3579363709706580e-19 0.0000000000000000e+00  -7.9305145555412255e-03 -5.0931703070091350e-19 0.0000000000000000e+00  -7.9687716022397662e-03 -4.4479975058422388e-19 0.0000000000000000e+00  -8.0059993346722601e-03 -1.8246737372209057e-19 0.0000000000000000e+00  -8.0422164583332980e-03 -3.5643478249611457e-19 0.0000000000000000e+00  -8.0774413951169889e-03 -8.0035533395857812e-19 0.0000000000000000e+00  -8.1116922831724336e-03 -5.3660187163131920e-19 0.0000000000000000e+00  -8.1449869768307551e-03 -3.4644318105846099e-19 0.0000000000000000e+00  -8.1773430466017573e-03 1.3045564569850401e-19 0.0000000000000000e+00  -8.2087777792379732e-03 2.6403767942028356e-19 0.0000000000000000e+00  -8.2393081778645502e-03 6.4176219605059248e-19 0.0000000000000000e+00  -8.2689509621725280e-03 3.5981883976972998e-19 0.0000000000000000e+00  -8.2977225686738220e-03 3.8544193267385498e-19 0.0000000000000000e+00  -8.3256391510155466e-03 6.3386848114071449e-19 0.0000000000000000e+00  -8.3527165803517663e-03 4.6853187785181671e-19 0.0000000000000000e+00  -8.3789704457703784e-03 1.1056778015866308e-19 0.0000000000000000e+00  -8.4044160547730347e-03 9.2477136643030065e-20 0.0000000000000000e+00  -8.4290684338059699e-03 6.2129856535278772e-19 0.0000000000000000e+00  -8.4529423288393531e-03 4.2128078613639970e-19 0.0000000000000000e+00  -8.4760522059931422e-03 -1.4040324395438110e-19 0.0000000000000000e+00  -8.4984122522069935e-03 -2.7566015210211636e-20 0.0000000000000000e+00  -8.5200363759521495e-03 -3.3736568942075004e-19 0.0000000000000000e+00  -8.5409382079829135e-03 -4.3272052413065885e-19 0.0000000000000000e+00  -8.5611311021255194e-03 7.7307049302817242e-20 0.0000000000000000e+00  -8.5806281361019421e-03 3.8241409866522233e-19 0.0000000000000000e+00  -8.5994421123866526e-03 7.3924865895818892e-19 0.0000000000000000e+00  -8.6175855590937423e-03 1.3248069248630754e-18 0.0000000000000000e+00  -8.6350707308923223e-03 2.0750689961759848e-18 0.0000000000000000e+00  -8.6519096099476889e-03 3.4251965278539743e-18 0.0000000000000000e+00  -8.6681139068863575e-03 6.7933569574850655e-18 0.0000000000000000e+00  -8.6836950617822165e-03 1.2945662261652100e-17 0.0000000000000000e+00  -8.6986642451618839e-03 2.3570611230825184e-17 0.0000000000000000e+00  -8.7130323590269201e-03 4.3801264640278520e-17 0.0000000000000000e+00  -8.7268100378905533e-03 8.1199686608888411e-17 0.0000000000000000e+00  -8.7400076498268652e-03 1.4887625287737111e-16 0.0000000000000000e+00  -8.7526352975301151e-03 2.7286532022109546e-16 0.0000000000000000e+00  -8.7647028193819955e-03 5.0238497344734442e-16 0.0000000000000000e+00  -8.7762197905248487e-03 9.2448317029797151e-16 0.0000000000000000e+00  -8.7871955239384302e-03 1.6990326652151613e-15 0.0000000000000000e+00  -8.7976390715184347e-03 3.1195603079888260e-15 0.0000000000000000e+00  -8.8075592251543704e-03 5.7250144633815220e-15 0.0000000000000000e+00  -8.8169645178051443e-03 1.0499861199876942e-14 0.0000000000000000e+00  -8.8258632245701053e-03 1.9245413354067292e-14 0.0000000000000000e+00  -8.8342633637537860e-03 3.5249656190755276e-14 0.0000000000000000e+00  -8.8421726979227323e-03 6.4514646140214754e-14 0.0000000000000000e+00  -8.8495987349526180e-03 1.1798624061950921e-13 0.0000000000000000e+00  -8.8565487290647085e-03 2.1560047474236084e-13 0.0000000000000000e+00  -8.8630296818507977e-03 3.9363565705483946e-13 0.0000000000000000e+00  -8.8690483432869588e-03 7.1802359756753895e-13 0.0000000000000000e+00  -8.8746112127376358e-03 1.3084483281839371e-12 0.0000000000000000e+00  -8.8797245399543680e-03 2.3818798655668923e-12 0.0000000000000000e+00  -8.8843943260770684e-03 4.3