<?xml version="1.0"?>
<VTKFile type="UnstructuredGrid"  version="0.1"  >
<UnstructuredGrid>
<Piece  NumberOfPoints="1656" NumberOfCells="3000">
<Points>
<DataArray  type="Float64"  NumberOfComponents="3"  format="ascii">0 0 0  2 0 0  4 0 0  6 0 0  8 0 0  10 0 0  12 0 0  14 0 0  16 0 0  18 0 0  20 0 0  22 0 0  24 0 0  26 0 0  28 0 0  30 0 0  32 0 0  34 0 0  36 0 0  38 0 0  40 0 0  42 0 0  44 0 0  46 0 0  48 0 0  50 0 0  52 0 0  54 0 0  56 0 0  58 0 0  60 0 0  62 0 0  64 0 0  66 0 0  68 0 0  70 0 0  72 0 0  74 0 0  76 0 0  78 0 0  80 0 0  82 0 0  84 0 0  86 0 0  88 0 0  90 0 0  92 0 0  94 0 0  96 0 0  98 0 0  100 0 0  102 0 0  104 0 0  106 0 0  108 0 0  110 0 0  112 0 0  114 0 0  116 0 0  118 0 0  120 0 0  122 0 0  124 0 0  126 0 0  128 0 0  130 0 0  132 0 0  134 0 0  136 0 0  138 0 0  140 0 0  142 0 0  144 0 0  146 0 0  148 0 0  150 0 0  152 0 0  154 0 0  156 0 0  158 0 0  160 0 0  162 0 0  164 0 0  166 0 0  168 0 0  170 0 0  172 0 0  174 0 0  176 0 0  178 0 0  180 0 0  182 0 0  184 0 0  186 0 0  188 0 0  190 0 0  192 0 0  194 0 0  196 0 0  198 0 0  200 0 0  202 0 0  204 0 0  206 0 0  208 0 0  210 0 0  212 0 0  214 0 0  216 0 0  218 0 0  220 0 0  222 0 0  224 0 0  226 0 0  228 0 0  230 0 0  232 0 0  234 0 0  236 0 0  238 0 0  240 0 0  242 0 0  244 0 0  246 0 0  248 0 0  250 0 0  252 0 0  254 0 0  256 0 0  258 0 0  260 0 0  262 0 0  264 0 0  266 0 0  268 0 0  270 0 0  272 0 0  274 0 0  276 0 0  278 0 0  280 0 0  282 0 0  284 0 0  286 0 0  288 0 0  290 0 0  292 0 0  294 0 0  296 0 0  298 0 0  300 0 0  0 2 0  2 2 0  4 2 0  6 2 0  8 2 0  10 2 0  12 2 0  14 2 0  16 2 0  18 2 0  20 2 0  22 2 0  24 2 0  26 2 0  28 2 0  30 2 0  32 2 0  34 2 0  36 2 0  38 2 0  40 2 0  42 2 0  44 2 0  46 2 0  48 2 0  50 2 0  52 2 0  54 2 0  56 2 0  58 2 0  60 2 0  62 2 0  64 2 0  66 2 0  68 2 0  70 2 0  72 2 0  74 2 0  76 2 0  78 2 0  80 2 0  82 2 0  84 2 0  86 2 0  88 2 0  90 2 0  92 2 0  94 2 0  96 2 0  98 2 0  100 2 0  102 2 0  104 2 0  106 2 0  108 2 0  110 2 0  112 2 0  114 2 0  116 2 0  118 2 0  120 2 0  122 2 0  124 2 0  126 2 0  128 2 0  130 2 0  132 2 0  134 2 0  136 2 0  138 2 0  140 2 0  142 2 0  144 2 0  146 2 0  148 2 0  150 2 0  152 2 0  154 2 0  156 2 0  158 2 0  160 2 0  162 2 0  164 2 0  166 2 0  168 2 0  170 2 0  172 2 0  174 2 0  176 2 0  178 2 0  180 2 0  182 2 0  184 2 0  186 2 0  188 2 0  190 2 0  192 2 0  194 2 0  196 2 0  198 2 0  200 2 0  202 2 0  204 2 0  206 2 0  208 2 0  210 2 0  212 2 0  214 2 0  216 2 0  218 2 0  220 2 0  222 2 0  224 2 0  226 2 0  228 2 0  230 2 0  232 2 0  234 2 0  236 2 0  238 2 0  240 2 0  242 2 0  244 2 0  246 2 0  248 2 0  250 2 0  252 2 0  254 2 0  256 2 0  258 2 0  260 2 0  262 2 0  264 2 0  266 2 0  268 2 0  270 2 0  272 2 0  274 2 0  276 2 0  278 2 0  280 2 0  282 2 0  284 2 0  286 2 0  288 2 0  290 2 0  292 2 0  294 2 0  296 2 0  298 2 0  300 2 0  0 4 0  2 4 0  4 4 0  6 4 0  8 4 0  10 4 0  12 4 0  14 4 0  16 4 0  18 4 0  20 4 0  22 4 0  24 4 0  26 4 0  28 4 0  30 4 0  32 4 0  34 4 0  36 4 0  38 4 0  40 4 0  42 4 0  44 4 0  46 4 0  48 4 0  50 4 0  52 4 0  54 4 0  56 4 0  58 4 0  60 4 0  62 4 0  64 4 0  66 4 0  68 4 0  70 4 0  72 4 0  74 4 0  76 4 0  78 4 0  80 4 0  82 4 0  84 4 0  86 4 0  88 4 0  90 4 0  92 4 0  94 4 0  96 4 0  98 4 0  100 4 0  102 4 0  104 4 0  106 4 0  108 4 0  110 4 0  112 4 0  114 4 0  116 4 0  118 4 0  120 4 0  122 4 0  124 4 0  126 4 0  128 4 0  130 4 0  132 4 0  134 4 0  136 4 0  138 4 0  140 4 0  142 4 0  144 4 0  146 4 0  148 4 0  150 4 0  152 4 0  154 4 0  156 4 0  158 4 0  160 4 0  162 4 0  164 4 0  166 4 0  168 4 0  170 4 0  172 4 0  174 4 0  176 4 0  178 4 0  180 4 0  182 4 0  184 4 0  186 4 0  188 4 0  190 4 0  192 4 0  194 4 0  196 4 0  198 4 0  200 4 0  202 4 0  204 4 0  206 4 0  208 4 0  210 4 0  212 4 0  214 4 0  216 4 0  218 4 0  220 4 0  222 4 0  224 4 0  226 4 0  228 4 0  230 4 0  232 4 0  234 4 0  236 4 0  238 4 0  240 4 0  242 4 0  244 4 0  246 4 0  248 4 0  250 4 0  252 4 0  254 4 0  256 4 0  258 4 0  260 4 0  262 4 0  264 4 0  266 4 0  268 4 0  270 4 0  272 4 0  274 4 0  276 4 0  278 4 0  280 4 0  282 4 0  284 4 0  286 4 0  288 4 0  290 4 0  292 4 0  294 4 0  296 4 0  298 4 0  300 4 0  0 6 0  2 6 0  4 6 0  6 6 0  8 6 0  10 6 0  12 6 0  14 6 0  16 6 0  18 6 0  20 6 0  22 6 0  24 6 0  26 6 0  28 6 0  30 6 0  32 6 0  34 6 0  36 6 0  38 6 0  40 6 0  42 6 0  44 6 0  46 6 0  48 6 0  50 6 0  52 6 0  54 6 0  56 6 0  58 6 0  60 6 0  62 6 0  64 6 0  66 6 0  68 6 0  70 6 0  72 6 0  74 6 0  76 6 0  78 6 0  80 6 0  82 6 0  84 6 0  86 6 0  88 6 0  90 6 0  92 6 0  94 6 0  96 6 0  98 6 0  100 6 0  102 6 0  104 6 0  106 6 0  108 6 0  110 6 0  112 6 0  114 6 0  116 6 0  118 6 0  120 6 0  122 6 0  124 6 0  126 6 0  128 6 0  130 6 0  132 6 0  134 6 0  136 6 0  138 6 0  140 6 0  142 6 0  144 6 0  146 6 0  148 6 0  150 6 0  152 6 0  154 6 0  156 6 0  158 6 0  160 6 0  162 6 0  164 6 0  166 6 0  168 6 0  170 6 0  172 6 0  174 6 0  176 6 0  178 6 0  180 6 0  182 6 0  184 6 0  186 6 0  188 6 0  190 6 0  192 6 0  194 6 0  196 6 0  198 6 0  200 6 0  202 6 0  204 6 0  206 6 0  208 6 0  210 6 0  212 6 0  214 6 0  216 6 0  218 6 0  220 6 0  222 6 0  224 6 0  226 6 0  228 6 0  230 6 0  232 6 0  234 6 0  236 6 0  238 6 0  240 6 0  242 6 0  244 6 0  246 6 0  248 6 0  250 6 0  252 6 0  254 6 0  256 6 0  258 6 0  260 6 0  262 6 0  264 6 0  266 6 0  268 6 0  270 6 0  272 6 0  274 6 0  276 6 0  278 6 0  280 6 0  282 6 0  284 6 0  286 6 0  288 6 0  290 6 0  292 6 0  294 6 0  296 6 0  298 6 0  300 6 0  0 8 0  2 8 0  4 8 0  6 8 0  8 8 0  10 8 0  12 8 0  14 8 0  16 8 0  18 8 0  20 8 0  22 8 0  24 8 0  26 8 0  28 8 0  30 8 0  32 8 0  34 8 0  36 8 0  38 8 0  40 8 0  42 8 0  44 8 0  46 8 0  48 8 0  50 8 0  52 8 0  54 8 0  56 8 0  58 8 0  60 8 0  62 8 0  64 8 0  66 8 0  68 8 0  70 8 0  72 8 0  74 8 0  76 8 0  78 8 0  80 8 0  82 8 0  84 8 0  86 8 0  88 8 0  90 8 0  92 8 0  94 8 0  96 8 0  98 8 0  100 8 0  102 8 0  104 8 0  106 8 0  108 8 0  110 8 0  112 8 0  114 8 0  116 8 0  118 8 0  120 8 0  122 8 0  124 8 0  126 8 0  128 8 0  130 8 0  132 8 0  134 8 0  136 8 0  138 8 0  140 8 0  142 8 0  144 8 0  146 8 0  148 8 0  150 8 0  152 8 0  154 8 0  156 8 0  158 8 0  160 8 0  162 8 0  164 8 0  166 8 0  168 8 0  170 8 0  172 8 0  174 8 0  176 8 0  178 8 0  180 8 0  182 8 0  184 8 0  186 8 0  188 8 0  190 8 0  192 8 0  194 8 0  196 8 0  198 8 0  200 8 0  202 8 0  204 8 0  206 8 0  208 8 0  210 8 0  212 8 0  214 8 0  216 8 0  218 8 0  220 8 0  222 8 0  224 8 0  226 8 0  228 8 0  230 8 0  232 8 0  234 8 0  236 8 0  238 8 0  240 8 0  242 8 0  244 8 0  246 8 0  248 8 0  250 8 0  252 8 0  254 8 0  256 8 0  258 8 0  260 8 0  262 8 0  264 8 0  266 8 0  268 8 0  270 8 0  272 8 0  274 8 0  276 8 0  278 8 0  280 8 0  282 8 0  284 8 0  286 8 0  288 8 0  290 8 0  292 8 0  294 8 0  296 8 0  298 8 0  300 8 0  0 10 0  2 10 0  4 10 0  6 10 0  8 10 0  10 10 0  12 10 0  14 10 0  16 10 0  18 10 0  20 10 0  22 10 0  24 10 0  26 10 0  28 10 0  30 10 0  32 10 0  34 10 0  36 10 0  38 10 0  40 10 0  42 10 0  44 10 0  46 10 0  48 10 0  50 10 0  52 10 0  54 10 0  56 10 0  58 10 0  60 10 0  62 10 0  64 10 0  66 10 0  68 10 0  70 10 0  72 10 0  74 10 0  76 10 0  78 10 0  80 10 0  82 10 0  84 10 0  86 10 0  88 10 0  90 10 0  92 10 0  94 10 0  96 10 0  98 10 0  100 10 0  102 10 0  104 10 0  106 10 0  108 10 0  110 10 0  112 10 0  114 10 0  116 10 0  118 10 0  120 10 0  122 10 0  124 10 0  126 10 0  128 10 0  130 10 0  132 10 0  134 10 0  136 10 0  138 10 0  140 10 0  142 10 0  144 10 0  146 10 0  148 10 0  150 10 0  152 10 0  154 10 0  156 10 0  158 10 0  160 10 0  162 10 0  164 10 0  166 10 0  168 10 0  170 10 0  172 10 0  174 10 0  176 10 0  178 10 0  180 10 0  182 10 0  184 10 0  186 10 0  188 10 0  190 10 0  192 10 0  194 10 0  196 10 0  198 10 0  200 10 0  202 10 0  204 10 0  206 10 0  208 10 0  210 10 0  212 10 0  214 10 0  216 10 0  218 10 0  220 10 0  222 10 0  224 10 0  226 10 0  228 10 0  230 10 0  232 10 0  234 10 0  236 10 0  238 10 0  240 10 0  242 10 0  244 10 0  246 10 0  248 10 0  250 10 0  252 10 0  254 10 0  256 10 0  258 10 0  260 10 0  262 10 0  264 10 0  266 10 0  268 10 0  270 10 0  272 10 0  274 10 0  276 10 0  278 10 0  280 10 0  282 10 0  284 10 0  286 10 0  288 10 0  290 10 0  292 10 0  294 10 0  296 10 0  298 10 0  300 10 0  1 1 0  3 1 0  5 1 0  7 1 0  9 1 0  11 1 0  13 1 0  15 1 0  17 1 0  19 1 0  21 1 0  23 1 0  25 1 0  27 1 0  29 1 0  31 1 0  33 1 0  35 1 0  37 1 0  39 1 0  41 1 0  43 1 0  45 1 0  47 1 0  49 1 0  51 1 0  53 1 0  55 1 0  57 1 0  59 1 0  61 1 0  63 1 0  65 1 0  67 1 0  69 1 0  71 1 0  73 1 0  75 1 0  77 1 0  79 1 0  81 1 0  83 1 0  85 1 0  87 1 0  89 1 0  91 1 0  93 1 0  95 1 0  97 1 0  99 1 0  101 1 0  103 1 0  105 1 0  107 1 0  109 1 0  111 1 0  113 1 0  115 1 0  117 1 0  119 1 0  121 1 0  123 1 0  125 1 0  127 1 0  129 1 0  131 1 0  133 1 0  135 1 0  137 1 0  139 1 0  141 1 0  143 1 0  145 1 0  147 1 0  149 1 0  151 1 0  153 1 0  155 1 0  157 1 0  159 1 0  161 1 0  163 1 0  165 1 0  167 1 0  169 1 0  171 1 0  173 1 0  175 1 0  177 1 0  179 1 0  181 1 0  183 1 0  185 1 0  187 1 0  189 1 0  191 1 0  193 1 0  195 1 0  197 1 0  199 1 0  201 1 0  203 1 0  205 1 0  207 1 0  209 1 0  211 1 0  213 1 0  215 1 0  217 1 0  219 1 0  221 1 0  223 1 0  225 1 0  227 1 0  229 1 0  231 1 0  233 1 0  235 1 0  237 1 0  239 1 0  241 1 0  243 1 0  245 1 0  247 1 0  249 1 0  251 1 0  253 1 0  255 1 0  257 1 0  259 1 0  261 1 0  263 1 0  265 1 0  267 1 0  269 1 0  271 1 0  273 1 0  275 1 0  277 1 0  279 1 0  281 1 0  283 1 0  285 1 0  287 1 0  289 1 0  291 1 0  293 1 0  295 1 0  297 1 0  299 1 0  1 3 0  3 3 0  5 3 0  7 3 0  9 3 0  11 3 0  13 3 0  15 3 0  17 3 0  19 3 0  21 3 0  23 3 0  25 3 0  27 3 0  29 3 0  31 3 0  33 3 0  35 3 0  37 3 0  39 3 0  41 3 0  43 3 0  45 3 0  47 3 0  49 3 0  51 3 0  53 3 0  55 3 0  57 3 0  59 3 0  61 3 0  63 3 0  65 3 0  67 3 0  69 3 0  71 3 0  73 3 0  75 3 0  77 3 0  79 3 0  81 3 0  83 3 0  85 3 0  87 3 0  89 3 0  91 3 0  93 3 0  95 3 0  97 3 0  99 3 0  101 3 0  103 3 0  105 3 0  107 3 0  109 3 0  111 3 0  113 3 0  115 3 0  117 3 0  119 3 0  121 3 0  123 3 0  125 3 0
[...]
<PointData  Vectors="displacement"> 
<DataArray  type="Float64"  Name="displacement"  NumberOfComponents="3" format="ascii">-1.2705494208814496e-21 1.1284745767893952e-36 0.0000000000000000e+00  -2.1682294765278849e-04 1.1284745767893960e-36 0.0000000000000000e+00  -4.3047236967269263e-04 -9.2696697641874204e-36 0.0000000000000000e+00  -6.4097760575808035e-04 1.4670169498262148e-35 0.0000000000000000e+00  -8.4836798694698143e-04 -2.8502708382824950e-36 0.0000000000000000e+00  -1.0526728312909113e-03 8.4635593259204701e-36 0.0000000000000000e+00  -1.2539214395334787e-03 -5.6423728839469800e-36 0.0000000000000000e+00  -1.4521430907953798e-03 4.5138983071575840e-36 0.0000000000000000e+00  -1.6473670382673427e-03 -1.3569311769942827e-35 0.0000000000000000e+00  -1.8396225049126321e-03 -9.5920339027098661e-36 0.0000000000000000e+00  -2.0289386791806354e-03 -5.3576686031944876e-36 0.0000000000000000e+00  -2.2153447107331461e-03 -1.1284745767893960e-35 0.0000000000000000e+00  -2.3988697061848637e-03 9.0983262753645053e-36 0.0000000000000000e+00  -2.5795427248596330e-03 6.7708474607363760e-36 0.0000000000000000e+00  -2.7573927745640162e-03 1.3682754243571427e-35 0.0000000000000000e+00  -2.9324488073796126e-03 -9.0277966143151681e-36 0.0000000000000000e+00  -3.1047397154757043e-03 -2.8343414507571604e-35 0.0000000000000000e+00  -3.2742943269436827e-03 0.0000000000000000e+00 0.0000000000000000e+00  -3.4411414016546826e-03 -2.5520717040321126e-35 0.0000000000000000e+00  -3.6053096271419331e-03 -5.0781355955522820e-36 0.0000000000000000e+00  -3.7668276145091705e-03 1.5898985242317611e-35 0.0000000000000000e+00  -3.9257238943666093e-03 -4.5138983071575840e-36 0.0000000000000000e+00  -4.0820269127957391e-03 1.9466186449617081e-35 0.0000000000000000e+00  -4.2357650273444217e-03 -1.8055593228630336e-35 0.0000000000000000e+00  -4.3869665030534851e-03 -4.5768614807296572e-36 0.0000000000000000e+00  -4.5356595085162960e-03 9.0277966143151681e-36 0.0000000000000000e+00  -4.6818721119723725e-03 -1.2214855672982095e-35 0.0000000000000000e+00  -4.8256322774365137e-03 -1.1284745767893960e-35 0.0000000000000000e+00  -4.9669678608644744e-03 -3.6719050340118879e-36 0.0000000000000000e+00  -5.1059066063565244e-03 1.2413220344683356e-35 0.0000000000000000e+00  -5.2424761423999506e-03 -8.4635593259204701e-37 0.0000000000000000e+00  -5.3767039781517194e-03 -2.4826440689366712e-35 0.0000000000000000e+00  -5.5086174997623135e-03 -2.3312819402783007e-36 0.0000000000000000e+00  -5.6382439667419151e-03 1.5234406786656846e-35 0.0000000000000000e+00  -5.7656105083698454e-03 -1.4420560619704728e-35 0.0000000000000000e+00  -5.8907441201483538e-03 1.5798644075051544e-35 0.0000000000000000e+00  -6.0136716603017056e-03 8.7863961249504267e-36 0.0000000000000000e+00  -6.1344198463214464e-03 4.6267457648365236e-35 0.0000000000000000e+00  -6.2530152515587831e-03 -4.6831694936759934e-35 0.0000000000000000e+00  -6.3694843018649409e-03 1.3541694921472752e-35 0.0000000000000000e+00  -6.4838532722802560e-03 -2.7305450912928602e-35 0.0000000000000000e+00  -6.5961482837728668e-03 1.3541694921472752e-35 0.0000000000000000e+00  -6.7063953000276533e-03 -4.3079847576721361e-35 0.0000000000000000e+00  -6.8146201242862241e-03 -7.3915084779705439e-35 0.0000000000000000e+00  -6.9208483962385006e-03 -9.4817313297079645e-35 0.0000000000000000e+00  -7.0251055889666396e-03 4.0625084764418256e-35 0.0000000000000000e+00  -7.1274170059417953e-03 -4.9370762734536075e-36 0.0000000000000000e+00  -7.2278077780742467e-03 5.4166779685891008e-35 0.0000000000000000e+00  -7.3263028608175507e-03 -2.7260213883630408e-35 0.0000000000000000e+00  -7.4229270313269022e-03 -5.6423728839469800e-36 0.0000000000000000e+00  -7.5177048856724061e-03 -3.4303863892871405e-35 0.0000000000000000e+00  -7.6106608361074628e-03 -1.8619830517025034e-35 0.0000000000000000e+00  -7.7018191083926884e-03 -4.9610709004085369e-35 0.0000000000000000e+00  -7.7912037391755732e-03 4.5138983071575840e-35 0.0000000000000000e+00  -7.8788385734262691e-03 8.1814406817231211e-36 0.0000000000000000e+00  -7.9647472619296094e-03 -4.5138983071575840e-36 0.0000000000000000e+00  -8.0489532588335581e-03 -9.0285237242228934e-36 0.0000000000000000e+00  -8.1314798192542777e-03 5.6423728839469800e-36 0.0000000000000000e+00  -8.2123499969377952e-03 -1.4105932209867450e-37 0.0000000000000000e+00  -8.2915866419784601e-03 7.2222372914521344e-35 0.0000000000000000e+00  -8.3692123985940371e-03 -4.5551981499163709e-35 0.0000000000000000e+00  -8.4452497029576142e-03 8.3507118682415305e-35 0.0000000000000000e+00  -8.5197207810859751e-03 -8.0121694952047117e-35 0.0000000000000000e+00  -8.5926476467846572e-03 3.1597288150103088e-35 0.0000000000000000e+00  -8.6640520996492092e-03 -5.6450281117513566e-35 0.0000000000000000e+00  -8.7339557231228045e-03 -2.0312542382209128e-35 0.0000000000000000e+00  -8.8023798826095939e-03 -5.1511419404904611e-36 0.0000000000000000e+00  -8.8693457236439770e-03 6.7708474607363760e-36 0.0000000000000000e+00  -8.9348741701150633e-03 -4.7289774178626765e-35 0.0000000000000000e+00  -8.9989859225463008e-03 2.7083389842945504e-35 0.0000000000000000e+00  -9.0617014564297760e-03 2.0594661026406477e-35 0.0000000000000000e+00  -9.1230410206146646e-03 -2.9340338996524296e-35 0.0000000000000000e+00  -9.1830246357496939e-03 6.0973448836089502e-35 0.0000000000000000e+00  -9.2416720927787892e-03 -1.8055593228630336e-35 0.0000000000000000e+00  -9.2990029514896360e-03 6.9494077556510053e-36 0.0000000000000000e+00  -9.3550365391145401e-03 -8.1250169528836513e-35 0.0000000000000000e+00  -9.4097919489828982e-03 3.1474043020743684e-35 0.0000000000000000e+00  -9.4632880392249638e-03 -6.7708474607363760e-35 0.0000000000000000e+00  -9.5155434315258806e-03 -2.3909555095725328e-35 0.0000000000000000e+00  -9.5665765099296803e-03 7.3350847491310740e-36 0.0000000000000000e+00  -9.6164054196922893e-03 4.5548936726425113e-35 0.0000000000000000e+00  -9.6650480661829938e-03 -1.0833355937178202e-34 0.0000000000000000e+00  -9.7125221138334682e-03 7.9531009040758917e-35 0.0000000000000000e+00  -9.7588449851337446e-03 -7.8993220375257721e-35 0.0000000000000000e+00  -9.8040338596741966e-03 2.7150283954456217e-35 0.0000000000000000e+00  -9.8481056732327901e-03 -4.5138983071575840e-35 0.0000000000000000e+00  -9.8910771169067012e-03 1.2977457633078054e-35 0.0000000000000000e+00  -9.9329646362875130e-03 5.8680677993048592e-35 0.0000000000000000e+00  -9.9737844306789902e-03 7.1137919820982158e-38 0.0000000000000000e+00  -1.0013552452356638e-02 -2.2569491535787920e-35 0.0000000000000000e+00  -1.0052284405868027e-02 1.3800756445270572e-35 0.0000000000000000e+00  -1.0089995747373015e-02 -9.5920339027098661e-36 0.0000000000000000e+00  -1.0126701684022880e-02 -2.7097932041100006e-35 0.0000000000000000e+00  -1.0162417173377314e-02 1.2638915260041235e-34 0.0000000000000000e+00  -1.0197156922858441e-02 -2.8211864419734900e-36 0.0000000000000000e+00  -1.0230935389240730e-02 4.0625084764418256e-35 0.0000000000000000e+00  -1.0263766778175828e-02 -1.8081857133036074e-35 0.0000000000000000e+00  -1.0295665043751324e-02 -8.1250169528836513e-35 0.0000000000000000e+00  -1.0326643888082356e-02 -5.0951974547125906e-36 0.0000000000000000e+00  -1.0356716760935056e-02 -3.1597288150103088e-35 0.0000000000000000e+00  -1.0385896859380753e-02 4.6139486304605613e-35 0.0000000000000000e+00  -1.0414197127479949e-02 -5.4166779685891008e-35 0.0000000000000000e+00  -1.0441630255994891e-02 1.9409762720777611e-34 0.0000000000000000e+00  -1.0468208682129792e-02 -4.3333423748712807e-34 0.0000000000000000e+00  -1.0493944589297593e-02 7.2748758595366808e-35 0.0000000000000000e+00  -1.0518849906912152e-02 1.3000027124613842e-33 0.0000000000000000e+00  -1.0542936310204882e-02 1.0211882208402011e-34 0.0000000000000000e+00  -1.0566215220064672e-02 -1.1555579666323415e-33 0.0000000000000000e+00  -1.0588697802900181e-02 3.5560211653582877e-33 0.0000000000000000e+00  -1.0610394970523220e-02 -3.4666738998970245e-33 0.0000000000000000e+00  -1.0631317380052380e-02 1.7333369499485123e-32 0.0000000000000000e+00  -1.0651475433835794e-02 -2.7733391199176196e-32 0.0000000000000000e+00  -1.0670879279391879e-02 -3.7867604784120011e-32 0.0000000000000000e+00  -1.0689538809367200e-02 -3.6977854932234928e-32 0.0000000000000000e+00  -1.0707463661510319e-02 -1.7261147126570601e-31 0.0000000000000000e+00  -1.0724663218660734e-02 3.6977854932234928e-31 0.0000000000000000e+00  -1.0741146608751709e-02 -2.9315433446276970e-31 0.0000000000000000e+00  -1.0756922704826434e-02 1.4791141972893971e-30 0.0000000000000000e+00  -1.0772000125066114e-02 5.1768996905128900e-31 0.0000000000000000e+00  -1.0786387232829705e-02 1.7749370367472766e-30 0.0000000000000000e+00  -1.0800092136704100e-02 -4.5994542703211082e-30 0.0000000000000000e+00  -1.0813122690564619e-02 -9.4663308626521417e-30 0.0000000000000000e+00  -1.0825486493645516e-02 2.5939965234962802e-29 0.0000000000000000e+00  -1.0837190890620931e-02 -1.8932661725304283e-29 0.0000000000000000e+00  -1.0848242971697758e-02 1.3243104103730884e-28 0.0000000000000000e+00  -1.0858649572723547e-02 -1.8932661725304283e-29 0.0000000000000000e+00  -1.0868417275315165e-02 -1.8932661725304283e-29 0.0000000000000000e+00  -1.0877552407018910e-02 4.5438388140730280e-28 0.0000000000000000e+00  -1.0886061041519610e-02 1.3345574695543101e-28 0.0000000000000000e+00  -1.0893948998928205e-02 2.7263032884438168e-27 0.0000000000000000e+00  -1.0901221846194525e-02 -3.4930760883186403e-27 0.0000000000000000e+00  -1.0907884897716762e-02 1.0905213153775267e-26 0.0000000000000000e+00  -1.0913943216250444e-02 -1.1973249493577999e-26 0.0000000000000000e+00  -1.0919401614250332e-02 9.6935228033557931e-27 0.0000000000000000e+00  -1.0924264655783363e-02 2.7868878059647905e-26 0.0000000000000000e+00  -1.0928536659061730e-02 -1.9387045606711586e-26 0.0000000000000000e+00  -1.0932221699297249e-02 -1.8134757383726514e-26 0.0000000000000000e+00  -1.0935323610601889e-02 1.1632227364026952e-25 0.0000000000000000e+00  -1.0937845983263268e-02 2.4294391525910456e-25 0.0000000000000000e+00  -1.0939792147310931e-02 0.0000000000000000e+00 0.0000000000000000e+00  -1.0941165121820666e-02 -1.3231158960456779e-25 0.0000000000000000e+00  -1.0941967486474059e-02 -3.1019272970738538e-25 0.0000000000000000e+00  -1.0942201088303769e-02 4.4202463983302416e-24 0.0000000000000000e+00  -1.0941866414161358e-02 3.7223127564886245e-24 0.0000000000000000e+00  -1.0940961275446533e-02 -4.7212136518612538e-24 0.0000000000000000e+00  -1.0939477832854851e-02 1.2407709188295415e-23 0.0000000000000000e+00  -1.0937394040332924e-02 4.6922784550641037e-23 0.0000000000000000e+00  -1.0934641957220005e-02 -2.9778502051908996e-23 0.0000000000000000e+00  -1.0930989337587337e-02 1.1601208091056213e-22 0.0000000000000000e+00  -1.0925878684390624e-02 1.7867101231145398e-22 0.0000000000000000e+00  -1.0918503772708804e-02 7.9409338805090680e-23 0.0000000000000000e+00  5.0821976835258020e-21 -4.5138983071575840e-36 0.0000000000000000e+00  -2.1682294765278855e-04 6.2792847551025045e-20 0.0000000000000000e+00  -4.3047236967269225e-04 3.7129279317536853e-20 0.0000000000000000e+00  -6.4097760575807980e-04 6.4801497209714344e-20 0.0000000000000000e+00  -8.4836798694698154e-04 6.3664628837614175e-20 0.0000000000000000e+00  -1.0526728312909110e-03 4.7748471628210601e-20 0.0000000000000000e+00  -1.2539214395334783e-03 -1.9326762325704289e-20 0.0000000000000000e+00  -1.4521430907953781e-03 -6.5938365581814658e-20 0.0000000000000000e+00  -1.6473670382673433e-03 -1.1173032327147139e-19 0.0000000000000000e+00  -1.8396225049126318e-03 -1.5688783534983492e-19 0.0000000000000000e+00  -2.0289386791806350e-03 -1.5916157209403526e-20 0.0000000000000000e+00  -2.2153447107331465e-03 4.2290559754851378e-20 0.0000000000000000e+00  -2.3988697061848594e-03 1.7337242674528850e-19 0.0000000000000000e+00  -2.5795427248596322e-03 1.1368683721002521e-19 0.0000000000000000e+00  -2.7573927745640171e-03 1.3528733627992998e-19 0.0000000000000000e+00  -2.9324488073796096e-03 4.5474734884010157e-21 0.0000000000000000e+00  -3.1047397154757043e-03 -1.4482598624379371e-19 0.0000000000000000e+00  -3.2742943269436805e-03 -7.0485839070215684e-20 0.0000000000000000e+00  -3.4411414016546826e-03 -3.0468072372286776e-19 0.0000000000000000e+00  -3.6053096271419305e-03 -2.6823640776042191e-19 0.0000000000000000e+00  -3.7668276145091705e-03 6.5938365581814658e-20 0.0000000000000000e+00  -3.9257238943666067e-03 1.7735146604763946e-19 0.0000000000000000e+00  -4.0820269127957417e-03 2.9672264511816603e-19 0.0000000000000000e+00  -4.2357650273444182e-03 -3.1832314418807039e-20 0.0000000000000000e+00  -4.3869665030534886e-03 -1.3904276523243205e-19 0.0000000000000000e+00  -4.5356595085162916e-03 -2.6602719907145924e-19 0.0000000000000000e+00  -4.6818721119723673e-03 -9.0782049020767475e-20 0.0000000000000000e+00  -4.8256322774365154e-03 -1.2552845110347522e-19 0.0000000000000000e+00  -4.9669678608644761e-03 -2.2509993767585006e-19 0.0000000000000000e+00  -5.1059066063565226e-03 2.1600499069904821e-20 0.0000000000000000e+00  -5.2424761423999497e-03 -6.3664628837614187e-20 0.0000000000000000e+00  -5.3767039781517142e-03 -1.4097167814043127e-19 0.0000000000000000e+00  -5.5086174997623126e-03 -1.1013915610842021e-19 0.0000000000000000e+00  -5.6382439667419133e-03 8.7359317632195501e-20 0.0000000000000000e+00  -5.7656105083698462e-03 5.5706550232912412e-20 0.0000000000000000e+00  -5.8907441201483546e-03 3.6330967088909444e-20 0.0000000000000000e+00  -6.0136716603017048e-03 2.4030555215269092e-19 0.0000000000000000e+00  -6.1344198463214455e-03 2.5238477860625600e-19 0.0000000000000000e+00  -6.2530152515587814e-03 -1.3073986279152906e-19 0.0000000000000000e+00  -6.3694843018649357e-03 -3.2287061767647182e-19 0.0000000000000000e+00  -6.4838532722802525e-03 -5.0854850912456000e-19 0.0000000000000000e+00  -6.5961482837728624e-03 -3.5299762953712870e-19 0.0000000000000000e+00  -6.7063953000276568e-03 -4.4678927023539931e-19 0.0000000000000000e+00  -6.8146201242862223e-03 -5.0280144680289578e-19 0.0000000000000000e+00  -6.9208483962385006e-03 -2.2737367442005050e-20 0.0000000000000000e+00  -7.0251055889666439e-03 2.7398527767616082e-19 0.0000000000000000e+00  -7.1274170059417840e-03 4.0984104814214119e-19 0.0000000000000000e+00  -7.2278077780742510e-03 4.6270542744480276e-19 0.0000000000000000e+00  -7.3263028608175447e-03 1.4916821196181605e-19 0.0000000000000000e+00  -7.4229270313268996e-03 9.3223206512220743e-20 0.0000000000000000e+00  -7.5177048856723957e-03 -1.3869794139623076e-19 0.0000000000000000e+00  -7.6106608361074654e-03 -1.8246737372209053e-19 0.0000000000000000e+00  -7.7018191083926815e-03 3.6379787907208096e-20 0.0000000000000000e+00  -7.7912037391755680e-03 4.3655745488649688e-19 0.0000000000000000e+00  -7.8788385734262657e-03 1.9667822837334377e-19 0.0000000000000000e+00  -7.9647472619296007e-03 -4.2291503442129403e-19 0.0000000000000000e+00  -8.0489532588335563e-03 -1.6445555525132369e-19 0.0000000000000000e+00  -8.1314798192542725e-03 1.4551915162883236e-19 0.0000000000000000e+00  -8.2123499969377883e-03 9.5482649213482358e-20 0.0000000000000000e+00  -8.2915866419784514e-03 2.6145744247398472e-19 0.0000000000000000e+00  -8.3692123985940406e-03 5.8207660651532963e-19 0.0000000000000000e+00  -8.4452497029576055e-03 6.8439476000435168e-19 0.0000000000000000e+00  -8.5197207810859751e-03 1.3869794139623091e-19 0.0000000000000000e+00  -8.5926476467846503e-03 -3.4106051163007558e-20 0.0000000000000000e+00  -8.6640520996492092e-03 -3.9792384635325893e-19 0.0000000000000000e+00  -8.7339557231227959e-03 -2.3703705558290270e-19 0.0000000000000000e+00  -8.8023798826095886e-03 -1.3642420465203026e-19 0.0000000000000000e+00  -8.8693457236439718e-03 -2.9556418978909321e-19 0.0000000000000000e+00  -8.9348741701150581e-03 -2.7988278235643089e-19 0.0000000000000000e+00  -8.9989859225463060e-03 8.1854522791218160e-20 0.0000000000000000e+00  -9.0617014564297691e-03 -1.7251977546621327e-19 0.0000000000000000e+00  -9.1230410206146560e-03 -3.8994585163038644e-19 0.0000000000000000e+00  -9.1830246357496870e-03 2.4825088781776589e-19 0.0000000000000000e+00  -9.2416720927787806e-03 -1.5575096697773459e-19 0.0000000000000000e+00  -9.2990029514896429e-03 -3.4560798511847660e-19 0.0000000000000000e+00  -9.3550365391145331e-03 -7.9293205790928981e-19 0.0000000000000000e+00  -9.4097919489828912e-03 -4.2462033697944449e-19 0.0000000000000000e+00  -9.4632880392249586e-03 -2.9103830325766452e-19 0.0000000000000000e+00  -9.5155434315258754e-03 -2.8819613232741416e-19 0.0000000000000000e+00  -9.5665765099296751e-03 -5.0022208372411060e-20 0.0000000000000000e+00  -9.6164054196922928e-03 -6.2455935034973645e-20 0.0000000000000000e+00  -9.6650480661829921e-03 -5.8207660651532905e-19 0.0000000000000000e+00  -9.7125221138334612e-03 -6.3664628837614180e-19 0.0000000000000000e+00  -9.7588449851337480e-03 -4.1021801777911555e-19 0.0000000000000000e+00  -9.8040338596741949e-03 2.1032064883854669e-19 0.0000000000000000e+00  -9.8481056732327814e-03 4.9851678116596073e-19 0.0000000000000000e+00  -9.8910771169066960e-03 4.6711079238669143e-19 0.0000000000000000e+00  -9.9329646362875078e-03 4.9169557093335930e-19 0.0000000000000000e+00  -9.9737844306789936e-03 4.0519886393892797e-19 0.0000000000000000e+00  -1.0013552452356640e-02 5.3224735799894599e-19 0.0000000000000000e+00  -1.0052284405868020e-02 4.0891734258980960e-19 0.0000000000000000e+00  -1.0089995747373008e-02 3.3250674083807128e-20 0.0000000000000000e+00  -1.0126701684022870e-02 -2.7498003750174874e-20 0.0000000000000000e+00  -1.0162417173377304e-02 4.9737991279386023e-19 0.0000000000000000e+00  -1.0197156922858440e-02 4.6995296331694199e-19 0.0000000000000000e+00  -1.0230935389240725e-02 1.4097167814043127e-19 0.0000000000000000e+00  -1.0263766778175828e-02 -3.0355405582332619e-19 0.0000000000000000e+00  -1.0295665043751318e-02 -1.2633449784964060e-18 0.0000000000000000e+00  -1.0326643888082351e-02 -5.7980286977112922e-19 0.0000000000000000e+00  -1.0356716760935055e-02 9.4075857791295969e-20 0.0000000000000000e+00  -1.0385896859380754e-02 3.5527136628132892e-19 0.0000000000000000e+00  -1.0414197127479949e-02 9.1574747372675354e-19 0.0000000000000000e+00  -1.0441630255994892e-02 1.6650858394873320e-18 0.0000000000000000e+00  -1.0468208682129786e-02 2.1051960080366443e-18 0.0000000000000000e+00  -1.0493944589297588e-02 3.9520083462877031e-18 0.0000000000000000e+00  -1.0518849906912146e-02 6.8757799144623250e-18 0.0000000000000000e+00  -1.0542936310204875e-02 1.2149712292635405e-17 0.0000000000000000e+00  -1.0566215220064661e-02 2.1971705637385212e-17 0.0000000000000000e+00  -1.0588697802900169e-02 4.0963641183516327e-17 0.0000000000000000e+00  -1.0610394970523190e-02 7.6252035453508145e-17 0.0000000000000000e+00  -1.0631317380052335e-02 1.3968381943766143e-16 0.0000000000000000e+00  -1.0651475433835725e-02 2.5561376900011391e-16 0.0000000000000000e+00  -1.0670879279391754e-02 4.7010676079305809e-16 0.0000000000000000e+00  -1.0689538809366964e-02 8.6482031813015073e-16 0.0000000000000000e+00  -1.0707463661509899e-02 1.5895008843130675e-15 0.0000000000000000e+00  -1.0724663218659971e-02 2.9179651089196128e-15 0.0000000000000000e+00  -1.0741146608750337e-02 5.3548137416377771e-15 0.0000000000000000e+00  -1.0756922704823941e-02 9.8203886535981481e-15 0.0000000000000000e+00  -1.0772000125061621e-02 1.7999568972019644e-14 0.0000000000000000e+00  -1.0786387232821586e-02 3.2968028869509638e-14 0.0000000000000000e+00  -1.0800092136689456e-02 6.0338973708072019e-14 0.0000000000000000e+00  -1.0813122690538263e-02 1.1034746641850922e-13 0.0000000000000000e+00  -1.0825486493598161e-02 2.0163873068880207e-13 0.0000000000000000e+00  -1.0837190890536041e-02 3.6813905725212274e-13 0.0000000000000000e+00  -1.0848242971545964e-02 6.7150479416769880e-13 0.0000000000000000e+00  -1.0858649572452814e-02 1.2236574849924501e-12 0.0000000000000000e+00  -1.0868417274833822e-02 2.2274907274016339e-12 0.0000000000000000e+00  -1.0877