<?xml version="1.0"?>
<VTKFile type="UnstructuredGrid"  version="0.1"  >
<UnstructuredGrid>
<Piece  NumberOfPoints="1656" NumberOfCells="3000">
<Points>
<DataArray  type="Float64"  NumberOfComponents="3"  format="ascii">0 0 0  2 0 0  4 0 0  6 0 0  8 0 0  10 0 0  12 0 0  14 0 0  16 0 0  18 0 0  20 0 0  22 0 0  24 0 0  26 0 0  28 0 0  30 0 0  32 0 0  34 0 0  36 0 0  38 0 0  40 0 0  42 0 0  44 0 0  46 0 0  48 0 0  50 0 0  52 0 0  54 0 0  56 0 0  58 0 0  60 0 0  62 0 0  64 0 0  66 0 0  68 0 0  70 0 0  72 0 0  74 0 0  76 0 0  78 0 0  80 0 0  82 0 0  84 0 0  86 0 0  88 0 0  90 0 0  92 0 0  94 0 0  96 0 0  98 0 0  100 0 0  102 0 0  104 0 0  106 0 0  108 0 0  110 0 0  112 0 0  114 0 0  116 0 0  118 0 0  120 0 0  122 0 0  124 0 0  126 0 0  128 0 0  130 0 0  132 0 0  134 0 0  136 0 0  138 0 0  140 0 0  142 0 0  144 0 0  146 0 0  148 0 0  150 0 0  152 0 0  154 0 0  156 0 0  158 0 0  160 0 0  162 0 0  164 0 0  166 0 0  168 0 0  170 0 0  172 0 0  174 0 0  176 0 0  178 0 0  180 0 0  182 0 0  184 0 0  186 0 0  188 0 0  190 0 0  192 0 0  194 0 0  196 0 0  198 0 0  200 0 0  202 0 0  204 0 0  206 0 0  208 0 0  210 0 0  212 0 0  214 0 0  216 0 0  218 0 0  220 0 0  222 0 0  224 0 0  226 0 0  228 0 0  230 0 0  232 0 0  234 0 0  236 0 0  238 0 0  240 0 0  242 0 0  244 0 0  246 0 0  248 0 0  250 0 0  252 0 0  254 0 0  256 0 0  258 0 0  260 0 0  262 0 0  264 0 0  266 0 0  268 0 0  270 0 0  272 0 0  274 0 0  276 0 0  278 0 0  280 0 0  282 0 0  284 0 0  286 0 0  288 0 0  290 0 0  292 0 0  294 0 0  296 0 0  298 0 0  300 0 0  0 2 0  2 2 0  4 2 0  6 2 0  8 2 0  10 2 0  12 2 0  14 2 0  16 2 0  18 2 0  20 2 0  22 2 0  24 2 0  26 2 0  28 2 0  30 2 0  32 2 0  34 2 0  36 2 0  38 2 0  40 2 0  42 2 0  44 2 0  46 2 0  48 2 0  50 2 0  52 2 0  54 2 0  56 2 0  58 2 0  60 2 0  62 2 0  64 2 0  66 2 0  68 2 0  70 2 0  72 2 0  74 2 0  76 2 0  78 2 0  80 2 0  82 2 0  84 2 0  86 2 0  88 2 0  90 2 0  92 2 0  94 2 0  96 2 0  98 2 0  100 2 0  102 2 0  104 2 0  106 2 0  108 2 0  110 2 0  112 2 0  114 2 0  116 2 0  118 2 0  120 2 0  122 2 0  124 2 0  126 2 0  128 2 0  130 2 0  132 2 0  134 2 0  136 2 0  138 2 0  140 2 0  142 2 0  144 2 0  146 2 0  148 2 0  150 2 0  152 2 0  154 2 0  156 2 0  158 2 0  160 2 0  162 2 0  164 2 0  166 2 0  168 2 0  170 2 0  172 2 0  174 2 0  176 2 0  178 2 0  180 2 0  182 2 0  184 2 0  186 2 0  188 2 0  190 2 0  192 2 0  194 2 0  196 2 0  198 2 0  200 2 0  202 2 0  204 2 0  206 2 0  208 2 0  210 2 0  212 2 0  214 2 0  216 2 0  218 2 0  220 2 0  222 2 0  224 2 0  226 2 0  228 2 0  230 2 0  232 2 0  234 2 0  236 2 0  238 2 0  240 2 0  242 2 0  244 2 0  246 2 0  248 2 0  250 2 0  252 2 0  254 2 0  256 2 0  258 2 0  260 2 0  262 2 0  264 2 0  266 2 0  268 2 0  270 2 0  272 2 0  274 2 0  276 2 0  278 2 0  280 2 0  282 2 0  284 2 0  286 2 0  288 2 0  290 2 0  292 2 0  294 2 0  296 2 0  298 2 0  300 2 0  0 4 0  2 4 0  4 4 0  6 4 0  8 4 0  10 4 0  12 4 0  14 4 0  16 4 0  18 4 0  20 4 0  22 4 0  24 4 0  26 4 0  28 4 0  30 4 0  32 4 0  34 4 0  36 4 0  38 4 0  40 4 0  42 4 0  44 4 0  46 4 0  48 4 0  50 4 0  52 4 0  54 4 0  56 4 0  58 4 0  60 4 0  62 4 0  64 4 0  66 4 0  68 4 0  70 4 0  72 4 0  74 4 0  76 4 0  78 4 0  80 4 0  82 4 0  84 4 0  86 4 0  88 4 0  90 4 0  92 4 0  94 4 0  96 4 0  98 4 0  100 4 0  102 4 0  104 4 0  106 4 0  108 4 0  110 4 0  112 4 0  114 4 0  116 4 0  118 4 0  120 4 0  122 4 0  124 4 0  126 4 0  128 4 0  130 4 0  132 4 0  134 4 0  136 4 0  138 4 0  140 4 0  142 4 0  144 4 0  146 4 0  148 4 0  150 4 0  152 4 0  154 4 0  156 4 0  158 4 0  160 4 0  162 4 0  164 4 0  166 4 0  168 4 0  170 4 0  172 4 0  174 4 0  176 4 0  178 4 0  180 4 0  182 4 0  184 4 0  186 4 0  188 4 0  190 4 0  192 4 0  194 4 0  196 4 0  198 4 0  200 4 0  202 4 0  204 4 0  206 4 0  208 4 0  210 4 0  212 4 0  214 4 0  216 4 0  218 4 0  220 4 0  222 4 0  224 4 0  226 4 0  228 4 0  230 4 0  232 4 0  234 4 0  236 4 0  238 4 0  240 4 0  242 4 0  244 4 0  246 4 0  248 4 0  250 4 0  252 4 0  254 4 0  256 4 0  258 4 0  260 4 0  262 4 0  264 4 0  266 4 0  268 4 0  270 4 0  272 4 0  274 4 0  276 4 0  278 4 0  280 4 0  282 4 0  284 4 0  286 4 0  288 4 0  290 4 0  292 4 0  294 4 0  296 4 0  298 4 0  300 4 0  0 6 0  2 6 0  4 6 0  6 6 0  8 6 0  10 6 0  12 6 0  14 6 0  16 6 0  18 6 0  20 6 0  22 6 0  24 6 0  26 6 0  28 6 0  30 6 0  32 6 0  34 6 0  36 6 0  38 6 0  40 6 0  42 6 0  44 6 0  46 6 0  48 6 0  50 6 0  52 6 0  54 6 0  56 6 0  58 6 0  60 6 0  62 6 0  64 6 0  66 6 0  68 6 0  70 6 0  72 6 0  74 6 0  76 6 0  78 6 0  80 6 0  82 6 0  84 6 0  86 6 0  88 6 0  90 6 0  92 6 0  94 6 0  96 6 0  98 6 0  100 6 0  102 6 0  104 6 0  106 6 0  108 6 0  110 6 0  112 6 0  114 6 0  116 6 0  118 6 0  120 6 0  122 6 0  124 6 0  126 6 0  128 6 0  130 6 0  132 6 0  134 6 0  136 6 0  138 6 0  140 6 0  142 6 0  144 6 0  146 6 0  148 6 0  150 6 0  152 6 0  154 6 0  156 6 0  158 6 0  160 6 0  162 6 0  164 6 0  166 6 0  168 6 0  170 6 0  172 6 0  174 6 0  176 6 0  178 6 0  180 6 0  182 6 0  184 6 0  186 6 0  188 6 0  190 6 0  192 6 0  194 6 0  196 6 0  198 6 0  200 6 0  202 6 0  204 6 0  206 6 0  208 6 0  210 6 0  212 6 0  214 6 0  216 6 0  218 6 0  220 6 0  222 6 0  224 6 0  226 6 0  228 6 0  230 6 0  232 6 0  234 6 0  236 6 0  238 6 0  240 6 0  242 6 0  244 6 0  246 6 0  248 6 0  250 6 0  252 6 0  254 6 0  256 6 0  258 6 0  260 6 0  262 6 0  264 6 0  266 6 0  268 6 0  270 6 0  272 6 0  274 6 0  276 6 0  278 6 0  280 6 0  282 6 0  284 6 0  286 6 0  288 6 0  290 6 0  292 6 0  294 6 0  296 6 0  298 6 0  300 6 0  0 8 0  2 8 0  4 8 0  6 8 0  8 8 0  10 8 0  12 8 0  14 8 0  16 8 0  18 8 0  20 8 0  22 8 0  24 8 0  26 8 0  28 8 0  30 8 0  32 8 0  34 8 0  36 8 0  38 8 0  40 8 0  42 8 0  44 8 0  46 8 0  48 8 0  50 8 0  52 8 0  54 8 0  56 8 0  58 8 0  60 8 0  62 8 0  64 8 0  66 8 0  68 8 0  70 8 0  72 8 0  74 8 0  76 8 0  78 8 0  80 8 0  82 8 0  84 8 0  86 8 0  88 8 0  90 8 0  92 8 0  94 8 0  96 8 0  98 8 0  100 8 0  102 8 0  104 8 0  106 8 0  108 8 0  110 8 0  112 8 0  114 8 0  116 8 0  118 8 0  120 8 0  122 8 0  124 8 0  126 8 0  128 8 0  130 8 0  132 8 0  134 8 0  136 8 0  138 8 0  140 8 0  142 8 0  144 8 0  146 8 0  148 8 0  150 8 0  152 8 0  154 8 0  156 8 0  158 8 0  160 8 0  162 8 0  164 8 0  166 8 0  168 8 0  170 8 0  172 8 0  174 8 0  176 8 0  178 8 0  180 8 0  182 8 0  184 8 0  186 8 0  188 8 0  190 8 0  192 8 0  194 8 0  196 8 0  198 8 0  200 8 0  202 8 0  204 8 0  206 8 0  208 8 0  210 8 0  212 8 0  214 8 0  216 8 0  218 8 0  220 8 0  222 8 0  224 8 0  226 8 0  228 8 0  230 8 0  232 8 0  234 8 0  236 8 0  238 8 0  240 8 0  242 8 0  244 8 0  246 8 0  248 8 0  250 8 0  252 8 0  254 8 0  256 8 0  258 8 0  260 8 0  262 8 0  264 8 0  266 8 0  268 8 0  270 8 0  272 8 0  274 8 0  276 8 0  278 8 0  280 8 0  282 8 0  284 8 0  286 8 0  288 8 0  290 8 0  292 8 0  294 8 0  296 8 0  298 8 0  300 8 0  0 10 0  2 10 0  4 10 0  6 10 0  8 10 0  10 10 0  12 10 0  14 10 0  16 10 0  18 10 0  20 10 0  22 10 0  24 10 0  26 10 0  28 10 0  30 10 0  32 10 0  34 10 0  36 10 0  38 10 0  40 10 0  42 10 0  44 10 0  46 10 0  48 10 0  50 10 0  52 10 0  54 10 0  56 10 0  58 10 0  60 10 0  62 10 0  64 10 0  66 10 0  68 10 0  70 10 0  72 10 0  74 10 0  76 10 0  78 10 0  80 10 0  82 10 0  84 10 0  86 10 0  88 10 0  90 10 0  92 10 0  94 10 0  96 10 0  98 10 0  100 10 0  102 10 0  104 10 0  106 10 0  108 10 0  110 10 0  112 10 0  114 10 0  116 10 0  118 10 0  120 10 0  122 10 0  124 10 0  126 10 0  128 10 0  130 10 0  132 10 0  134 10 0  136 10 0  138 10 0  140 10 0  142 10 0  144 10 0  146 10 0  148 10 0  150 10 0  152 10 0  154 10 0  156 10 0  158 10 0  160 10 0  162 10 0  164 10 0  166 10 0  168 10 0  170 10 0  172 10 0  174 10 0  176 10 0  178 10 0  180 10 0  182 10 0  184 10 0  186 10 0  188 10 0  190 10 0  192 10 0  194 10 0  196 10 0  198 10 0  200 10 0  202 10 0  204 10 0  206 10 0  208 10 0  210 10 0  212 10 0  214 10 0  216 10 0  218 10 0  220 10 0  222 10 0  224 10 0  226 10 0  228 10 0  230 10 0  232 10 0  234 10 0  236 10 0  238 10 0  240 10 0  242 10 0  244 10 0  246 10 0  248 10 0  250 10 0  252 10 0  254 10 0  256 10 0  258 10 0  260 10 0  262 10 0  264 10 0  266 10 0  268 10 0  270 10 0  272 10 0  274 10 0  276 10 0  278 10 0  280 10 0  282 10 0  284 10 0  286 10 0  288 10 0  290 10 0  292 10 0  294 10 0  296 10 0  298 10 0  300 10 0  1 1 0  3 1 0  5 1 0  7 1 0  9 1 0  11 1 0  13 1 0  15 1 0  17 1 0  19 1 0  21 1 0  23 1 0  25 1 0  27 1 0  29 1 0  31 1 0  33 1 0  35 1 0  37 1 0  39 1 0  41 1 0  43 1 0  45 1 0  47 1 0  49 1 0  51 1 0  53 1 0  55 1 0  57 1 0  59 1 0  61 1 0  63 1 0  65 1 0  67 1 0  69 1 0  71 1 0  73 1 0  75 1 0  77 1 0  79 1 0  81 1 0  83 1 0  85 1 0  87 1 0  89 1 0  91 1 0  93 1 0  95 1 0  97 1 0  99 1 0  101 1 0  103 1 0  105 1 0  107 1 0  109 1 0  111 1 0  113 1 0  115 1 0  117 1 0  119 1 0  121 1 0  123 1 0  125 1 0  127 1 0  129 1 0  131 1 0  133 1 0  135 1 0  137 1 0  139 1 0  141 1 0  143 1 0  145 1 0  147 1 0  149 1 0  151 1 0  153 1 0  155 1 0  157 1 0  159 1 0  161 1 0  163 1 0  165 1 0  167 1 0  169 1 0  171 1 0  173 1 0  175 1 0  177 1 0  179 1 0  181 1 0  183 1 0  185 1 0  187 1 0  189 1 0  191 1 0  193 1 0  195 1 0  197 1 0  199 1 0  201 1 0  203 1 0  205 1 0  207 1 0  209 1 0  211 1 0  213 1 0  215 1 0  217 1 0  219 1 0  221 1 0  223 1 0  225 1 0  227 1 0  229 1 0  231 1 0  233 1 0  235 1 0  237 1 0  239 1 0  241 1 0  243 1 0  245 1 0  247 1 0  249 1 0  251 1 0  253 1 0  255 1 0  257 1 0  259 1 0  261 1 0  263 1 0  265 1 0  267 1 0  269 1 0  271 1 0  273 1 0  275 1 0  277 1 0  279 1 0  281 1 0  283 1 0  285 1 0  287 1 0  289 1 0  291 1 0  293 1 0  295 1 0  297 1 0  299 1 0  1 3 0  3 3 0  5 3 0  7 3 0  9 3 0  11 3 0  13 3 0  15 3 0  17 3 0  19 3 0  21 3 0  23 3 0  25 3 0  27 3 0  29 3 0  31 3 0  33 3 0  35 3 0  37 3 0  39 3 0  41 3 0  43 3 0  45 3 0  47 3 0  49 3 0  51 3 0  53 3 0  55 3 0  57 3 0  59 3 0  61 3 0  63 3 0  65 3 0  67 3 0  69 3 0  71 3 0  73 3 0  75 3 0  77 3 0  79 3 0  81 3 0  83 3 0  85 3 0  87 3 0  89 3 0  91 3 0  93 3 0  95 3 0  97 3 0  99 3 0  101 3 0  103 3 0  105 3 0  107 3 0  109 3 0  111 3 0  113 3 0  115 3 0  117 3 0  119 3 0  121 3 0  123 3 0  125 3 0
[...]
<PointData  Vectors="displacement"> 
<DataArray  type="Float64"  Name="displacement"  NumberOfComponents="3" format="ascii">-6.3527471044072732e-22 -6.4887288165390244e-36 0.0000000000000000e+00  -1.6712205137720687e-04 -2.2569491535787920e-36 0.0000000000000000e+00  -3.3107979554594544e-04 -3.6616280665332377e-36 0.0000000000000000e+00  -4.9191178566009280e-04 4.5138983071575840e-36 0.0000000000000000e+00  -6.4965655628045820e-04 -5.7987015141078821e-37 0.0000000000000000e+00  -8.0435261409493976e-04 3.7380720356148743e-36 0.0000000000000000e+00  -9.5603842865869977e-04 -3.0327754251215018e-36 0.0000000000000000e+00  -1.1047524231609727e-03 1.9748305093814430e-36 0.0000000000000000e+00  -1.2505329652251270e-03 7.8789602023493917e-36 0.0000000000000000e+00  -1.3934183577485229e-03 -2.6095974588254783e-36 0.0000000000000000e+00  -1.5334468297886722e-03 -3.9501960242176344e-36 0.0000000000000000e+00  -1.6706565275021938e-03 5.6423728839469800e-36 0.0000000000000000e+00  -1.8050855051428764e-03 4.5382564890663761e-36 0.0000000000000000e+00  -1.9367717161252618e-03 1.4670169498262148e-35 0.0000000000000000e+00  -2.0657530041599047e-03 4.7254872903055958e-36 0.0000000000000000e+00  -2.1920670944665086e-03 1.4811228820360823e-36 0.0000000000000000e+00  -2.3157515850709652e-03 -6.5537199450881146e-36 0.0000000000000000e+00  -2.4368439381922844e-03 9.0277966143151681e-36 0.0000000000000000e+00  -2.5553814717252238e-03 -3.9973787425665783e-35 0.0000000000000000e+00  -2.6714013508243734e-03 1.4670169498262148e-35 0.0000000000000000e+00  -2.7849405795952959e-03 1.7312486902935255e-36 0.0000000000000000e+00  -2.8960359928982176e-03 3.9496610187628860e-36 0.0000000000000000e+00  -3.0047242482695745e-03 7.4761440712297486e-36 0.0000000000000000e+00  -3.1110418179666902e-03 6.7708474607363760e-36 0.0000000000000000e+00  -3.2150249811405619e-03 -1.3632274245473242e-35 0.0000000000000000e+00  -3.3167098161417446e-03 -2.2569491535787920e-36 0.0000000000000000e+00  -3.4161321929640077e-03 -1.7572388856095282e-35 0.0000000000000000e+00  -3.5133277658304296e-03 -6.7708474607363760e-36 0.0000000000000000e+00  -3.6083319659262632e-03 -4.0720336162330251e-35 0.0000000000000000e+00  -3.7011799942829379e-03 3.7239661034050068e-35 0.0000000000000000e+00  -3.7919068148171407e-03 -1.8478771194926360e-35 0.0000000000000000e+00  -3.8805471475290136e-03 -1.3541694921472752e-35 0.0000000000000000e+00  -3.9671354618630288e-03 9.0943300111450937e-36 0.0000000000000000e+00  -4.0517059702352325e-03 5.7834322060456545e-36 0.0000000000000000e+00  -4.1342926217300454e-03 1.2907478985005665e-35 0.0000000000000000e+00  -4.2149290959698710e-03 -4.5138983071575840e-36 0.0000000000000000e+00  -4.2936487971603843e-03 1.1226576975275950e-35 0.0000000000000000e+00  -4.3704848483143346e-03 -1.5234406786656846e-35 0.0000000000000000e+00  -4.4454700856563457e-03 -1.1284745767893960e-35 0.0000000000000000e+00  -4.5186370532110985e-03 0.0000000000000000e+00 0.0000000000000000e+00  -4.5900179975770367e-03 -3.5848820492177675e-35 0.0000000000000000e+00  -4.6596448628875827e-03 -4.5138983071575840e-36 0.0000000000000000e+00  -4.7275492859615367e-03 5.0898997226101207e-35 0.0000000000000000e+00  -4.7937625916442484e-03 -2.8776101708129598e-35 0.0000000000000000e+00  -4.8583157883409327e-03 9.1295920013966857e-36 0.0000000000000000e+00  -4.9212395637431416e-03 -3.1597288150103088e-35 0.0000000000000000e+00  -4.9825642807494585e-03 1.9748305093814430e-35 0.0000000000000000e+00  -5.0423199735810465e-03 3.6111186457260672e-35 0.0000000000000000e+00  -5.1005363440926139e-03 -3.1816193676697585e-35 0.0000000000000000e+00  -5.1572427582790873e-03 4.5138983071575840e-36 0.0000000000000000e+00  -5.2124682429781693e-03 -4.2467672159332192e-35 0.0000000000000000e+00  -5.2662414827686424e-03 1.9184067805419732e-35 0.0000000000000000e+00  -5.3185908170641479e-03 2.2546951128648442e-35 0.0000000000000000e+00  -5.3695442374020741e-03 3.3854237303681880e-36 0.0000000000000000e+00  -5.4191293849267189e-03 -4.3728389850589095e-36 0.0000000000000000e+00  -5.4673735480660589e-03 -5.6423728839469800e-36 0.0000000000000000e+00  -5.5143036604009916e-03 -2.2799383238644450e-36 0.0000000000000000e+00  -5.5599462987258198e-03 1.0015211869005890e-35 0.0000000000000000e+00  -5.6043276812986747e-03 -4.4598990354166852e-36 0.0000000000000000e+00  -5.6474736662802359e-03 0.0000000000000000e+00 0.0000000000000000e+00  -5.6894097503589897e-03 3.1648912953551571e-35 0.0000000000000000e+00  -5.7301610675611885e-03 -2.9058220352326947e-35 0.0000000000000000e+00  -5.7697523882434005e-03 1.0015211869005890e-35 0.0000000000000000e+00  -5.8082081182653546e-03 -1.0156271191104564e-35 0.0000000000000000e+00  -5.8455522983407934e-03 1.7985450253860827e-35 0.0000000000000000e+00  -5.8818086035637126e-03 -2.5954915266156108e-35 0.0000000000000000e+00  -5.9170003431073363e-03 -1.3607737105284860e-35 0.0000000000000000e+00  -5.9511504600930059e-03 -7.6172033933284231e-36 0.0000000000000000e+00  -5.9842815316258936e-03 -9.0234339548688172e-36 0.0000000000000000e+00  -6.0164157689947123e-03 7.4638013805461145e-35 0.0000000000000000e+00  -6.0475750180318255e-03 8.4635593259204701e-37 0.0000000000000000e+00  -6.0777807596307373e-03 -1.1284745767893960e-35 0.0000000000000000e+00  -6.1070541104173105e-03 -1.6896494664047492e-35 0.0000000000000000e+00  -6.1354158235711713e-03 4.9652881378733424e-35 0.0000000000000000e+00  -6.1628862897936138e-03 5.9410536319290103e-36 0.0000000000000000e+00  -6.1894855384183036e-03 -1.3541694921472752e-35 0.0000000000000000e+00  -6.2152332386606907e-03 -4.2698438666296451e-35 0.0000000000000000e+00  -6.2401487010024393e-03 -1.3541694921472752e-35 0.0000000000000000e+00  -6.2642508787065527e-03 3.5617478829915311e-35 0.0000000000000000e+00  -6.2875583694592578e-03 1.0156271191104564e-35 0.0000000000000000e+00  -6.3100894171342729e-03 1.7925440555147540e-35 0.0000000000000000e+00  -6.3318619136753535e-03 -1.3541694921472752e-35 0.0000000000000000e+00  -6.3528934010926019e-03 -2.5249618655662736e-35 0.0000000000000000e+00  -6.3732010735682975e-03 -1.5234406786656846e-35 0.0000000000000000e+00  -6.3928017796676282e-03 8.8343853788602625e-38 0.0000000000000000e+00  -6.4117120246500164e-03 -2.2569491535787920e-35 0.0000000000000000e+00  -6.4299479728763351e-03 1.7138707634988952e-35 0.0000000000000000e+00  -6.4475254503075403e-03 2.2569491535787920e-35 0.0000000000000000e+00  -6.4644599470900111e-03 -3.1707912994964377e-35 0.0000000000000000e+00  -6.4807666202231426e-03 -6.7708474607363760e-36 0.0000000000000000e+00  -6.4964602963042632e-03 -2.1461219903089335e-35 0.0000000000000000e+00  -6.5115554743465261e-03 3.9496610187628860e-36 0.0000000000000000e+00  -6.5260663286647799e-03 4.4935392297412802e-36 0.0000000000000000e+00  -6.5400067118250010e-03 -9.0277966143151681e-36 0.0000000000000000e+00  -6.5533901576523600e-03 -3.9496610187628860e-36 0.0000000000000000e+00  -6.5662298842934490e-03 1.8055593228630336e-35 0.0000000000000000e+00  -6.5785387973278106e-03 -1.7792423748017609e-35 0.0000000000000000e+00  -6.5903294929242299e-03 -3.1597288150103088e-35 0.0000000000000000e+00  -6.6016142610370171e-03 5.1054879238868859e-35 0.0000000000000000e+00  -6.6124050886378193e-03 -4.5138983071575840e-36 0.0000000000000000e+00  -6.6227136629781174e-03 3.7577040031234524e-35 0.0000000000000000e+00  -6.6325513748780700e-03 1.0833355937178202e-34 0.0000000000000000e+00  -6.6419293220369964e-03 2.8437559335092779e-34 0.0000000000000000e+00  -6.6508583123610380e-03 -3.6111186457260672e-34 0.0000000000000000e+00  -6.6593488673035647e-03 6.5345352752123470e-34 0.0000000000000000e+00  -6.6674112252137997e-03 1.4444474582904269e-34 0.0000000000000000e+00  -6.6750553446894316e-03 6.6972123036526022e-34 0.0000000000000000e+00  -6.6822909079286841e-03 1.1555579666323415e-33 0.0000000000000000e+00  -6.6891273240778353e-03 -6.8380440499687017e-33 0.0000000000000000e+00  -6.6955737325696350e-03 1.6177811532852781e-32 0.0000000000000000e+00  -6.7016390064487683e-03 1.8488927466117464e-32 0.0000000000000000e+00  -6.7073317556800901e-03 -9.2444637330587321e-33 0.0000000000000000e+00  -6.7126603304356334e-03 7.5590764822410978e-32 0.0000000000000000e+00  -6.7176328243564523e-03 -1.2942249226282225e-31 0.0000000000000000e+00  -6.7222570777854271e-03 3.1720066184057774e-31 0.0000000000000000e+00  -6.7265406809671729e-03 2.9582283945787943e-31 0.0000000000000000e+00  -6.7304909772113279e-03 -3.4309349937125104e-33 0.0000000000000000e+00  -6.7341150660157464e-03 -1.1832913578315177e-30 0.0000000000000000e+00  -6.7374198061458225e-03 -6.6560138878022871e-31 0.0000000000000000e+00  -6.7404118186669025e-03 5.9164567891575885e-30 0.0000000000000000e+00  -6.7430974899263790e-03 -1.3945988319442786e-29 0.0000000000000000e+00  -6.7454829744827815e-03 -4.7331654313260708e-30 0.0000000000000000e+00  -6.7475741979794559e-03 4.9180547059872455e-29 0.0000000000000000e+00  -6.7493768599610647e-03 6.6264316038564992e-29 0.0000000000000000e+00  -6.7508964366325471e-03 -3.5767116094453718e-29 0.0000000000000000e+00  -6.7521381835620366e-03 0.0000000000000000e+00 0.0000000000000000e+00  -6.7531071383322479e-03 4.0705222709404209e-28 0.0000000000000000e+00  -6.7538081231504508e-03 2.2719194070365140e-28 0.0000000000000000e+00  -6.7542457474351857e-03 -2.7227900110102560e-28 0.0000000000000000e+00  -6.7544244104111280e-03 0.0000000000000000e+00 0.0000000000000000e+00  -6.7543483037632492e-03 5.9448557817455450e-27 0.0000000000000000e+00  -6.7540214144294532e-03 -1.4540284205033690e-26 0.0000000000000000e+00  -6.7534475276462133e-03 1.6563932006765184e-26 0.0000000000000000e+00  -6.7526302303964423e-03 -2.1810426307550534e-26 0.0000000000000000e+00  -6.7515729154143320e-03 -7.7548182426846345e-26 0.0000000000000000e+00  -6.7502787858009956e-03 9.6935228033557931e-26 0.0000000000000000e+00  -6.7487508599123544e-03 -1.1596899407611693e-25 0.0000000000000000e+00  -6.7469919750773209e-03 1.5509636485369269e-25 0.0000000000000000e+00  -6.7450047859973598e-03 6.8536235445601506e-26 0.0000000000000000e+00  -6.7427917475629019e-03 7.7548182426846345e-26 0.0000000000000000e+00  -6.7403550588632233e-03 9.3257685361769336e-25 0.0000000000000000e+00  -6.7376965192562088e-03 -3.1019272970738538e-25 0.0000000000000000e+00  -6.7348171981103499e-03 3.8774091213423172e-25 0.0000000000000000e+00  -6.7317167267181427e-03 3.7223127564886245e-24 0.0000000000000000e+00  -6.7283918129256610e-03 -1.0017856181960143e-23 0.0000000000000000e+00  -6.7248328796232762e-03 4.9630836753181660e-24 0.0000000000000000e+00  -6.7210143954288372e-03 -1.7787633276819606e-23 0.0000000000000000e+00  -6.7168590592989481e-03 3.9704669402545328e-23 0.0000000000000000e+00  -6.7121039597633717e-03 1.4206827020598250e-22 0.0000000000000000e+00  -6.7061186485488679e-03 7.9409338805090657e-23 0.0000000000000000e+00  -6.6979916037818331e-03 0.0000000000000000e+00 0.0000000000000000e+00  -1.7787691892340307e-20 7.8993220375257721e-36 0.0000000000000000e+00  -1.6712205137720692e-04 5.3993732309591742e-20 0.0000000000000000e+00  -3.3107979554594490e-04 2.7024944957060204e-20 0.0000000000000000e+00  -4.9191178566009236e-04 3.5811353721157927e-20 0.0000000000000000e+00  -6.4965655628045776e-04 3.1832314418807069e-20 0.0000000000000000e+00  -8.0435261409493965e-04 3.1832314418807075e-20 0.0000000000000000e+00  -9.5603842865869923e-04 -7.9580786047017689e-21 0.0000000000000000e+00  -1.1047524231609725e-03 -1.1368683721002514e-20 0.0000000000000000e+00  -1.2505329652251268e-03 2.5180699143703892e-20 0.0000000000000000e+00  -1.3934183577485211e-03 -2.5011104186205575e-20 0.0000000000000000e+00  -1.5334468297886730e-03 3.9790393023508822e-21 0.0000000000000000e+00  -1.6706565275021929e-03 5.9210051123443950e-20 0.0000000000000000e+00  -1.8050855051428782e-03 1.2178702436123960e-19 0.0000000000000000e+00  -1.9367717161252618e-03 1.0686562697742370e-19 0.0000000000000000e+00  -2.0657530041599051e-03 1.1766587651237615e-19 0.0000000000000000e+00  -2.1920670944665069e-03 3.1832314418807081e-20 0.0000000000000000e+00  -2.3157515850709643e-03 -8.8834634713096639e-21 0.0000000000000000e+00  -2.4368439381922840e-03 2.2737367442004830e-21 0.0000000000000000e+00  -2.5553814717252225e-03 -1.6825651907083729e-19 0.0000000000000000e+00  -2.6714013508243716e-03 -1.3146118222546908e-19 0.0000000000000000e+00  -2.7849405795952972e-03 8.4128259535418715e-20 0.0000000000000000e+00  -2.8960359928982150e-03 5.6843418605012617e-20 0.0000000000000000e+00  -3.0047242482695745e-03 6.8780536512065256e-20 0.0000000000000000e+00  -3.1110418179666885e-03 5.6843418605012505e-21 0.0000000000000000e+00  -3.2150249811405624e-03 -1.4420229462634039e-19 0.0000000000000000e+00  -3.3167098161417455e-03 -2.6489033069935889e-19 0.0000000000000000e+00  -3.4161321929640086e-03 -5.5458759530143832e-20 0.0000000000000000e+00  -3.5133277658304270e-03 -2.2116012326563308e-20 0.0000000000000000e+00  -3.6083319659262628e-03 -1.5518253279168444e-19 0.0000000000000000e+00  -3.7011799942829318e-03 1.2789769186127833e-19 0.0000000000000000e+00  -3.7919068148171420e-03 -7.1054273256265739e-20 0.0000000000000000e+00  -3.8805471475290114e-03 -8.8675733023819693e-20 0.0000000000000000e+00  -3.9671354618630271e-03 3.4593702791065737e-20 0.0000000000000000e+00  -4.0517059702352316e-03 1.6216101239416723e-19 0.0000000000000000e+00  -4.1342926217300454e-03 9.2370555233145330e-21 0.0000000000000000e+00  -4.2149290959698693e-03 -1.0319288490831267e-20 0.0000000000000000e+00  -4.2936487971603826e-03 1.0956568936116188e-19 0.0000000000000000e+00  -4.3704848483143320e-03 2.1259438558274720e-19 0.0000000000000000e+00  -4.4454700856563448e-03 2.0747847790829621e-20 0.0000000000000000e+00  -4.5186370532110951e-03 -2.1486812232694780e-19 0.0000000000000000e+00  -4.5900179975770393e-03 -2.9062215981678440e-19 0.0000000000000000e+00  -4.6596448628875809e-03 -2.4783730511785508e-19 0.0000000000000000e+00  -4.7275492859615298e-03 -3.3253399883932404e-19 0.0000000000000000e+00  -4.7937625916442484e-03 -4.0149824449512275e-19 0.0000000000000000e+00  -4.8583157883409309e-03 -5.1727510930561501e-20 0.0000000000000000e+00  -4.9212395637431381e-03 3.0695446046706827e-19 0.0000000000000000e+00  -4.9825642807494576e-03 3.4049207744402577e-19 0.0000000000000000e+00  -5.0423199735810482e-03 1.3983480976833107e-19 0.0000000000000000e+00  -5.1005363440926113e-03 -2.6655920271656125e-19 0.0000000000000000e+00  -5.1572427582790873e-03 -1.5091927639630860e-19 0.0000000000000000e+00  -5.2124682429781719e-03 -1.3073986279152911e-19 0.0000000000000000e+00  -5.2662414827686389e-03 -7.5033312558616662e-20 0.0000000000000000e+00  -5.3185908170641496e-03 -3.6379787907208041e-20 0.0000000000000000e+00  -5.3695442374020689e-03 2.1827872744324854e-19 0.0000000000000000e+00  -5.4191293849267181e-03 9.4644291977346060e-20 0.0000000000000000e+00  -5.4673735480660597e-03 -2.3419488465265199e-19 0.0000000000000000e+00  -5.5143036604009881e-03 6.0924686999284632e-20 0.0000000000000000e+00  -5.5599462987258146e-03 2.1827872744324839e-19 0.0000000000000000e+00  -5.6043276812986747e-03 -1.7758260072561045e-20 0.0000000000000000e+00  -5.6474736662802316e-03 7.7936851124753689e-20 0.0000000000000000e+00  -5.6894097503589819e-03 2.1827872744324844e-19 0.0000000000000000e+00  -5.7301610675611868e-03 -1.2164491581472701e-19 0.0000000000000000e+00  -5.7697523882433988e-03 2.2026824709442398e-20 0.0000000000000000e+00  -5.8082081182653511e-03 -7.7875483488867320e-20 0.0000000000000000e+00  -5.8455522983407926e-03 -9.1828128643128161e-20 0.0000000000000000e+00  -5.8818086035637160e-03 -2.1458390523392268e-19 0.0000000000000000e+00  -5.9170003431073415e-03 -1.0231815348902275e-19 0.0000000000000000e+00  -5.9511504600929981e-03 -7.8018499550707541e-20 0.0000000000000000e+00  -5.9842815316258954e-03 3.3750779796726220e-20 0.0000000000000000e+00  -6.0164157689947036e-03 4.2462033697944439e-19 0.0000000000000000e+00  -6.0475750180318255e-03 1.7053025581503871e-21 0.0000000000000000e+00  -6.0777807596307312e-03 -3.7005065511863227e-19 0.0000000000000000e+00  -6.1070541104173096e-03 -2.1793600473593763e-19 0.0000000000000000e+00  -6.1354158235711661e-03 -2.7142732383893554e-20 0.0000000000000000e+00  -6.1628862897936156e-03 -2.6375346232725863e-19 0.0000000000000000e+00  -6.1894855384182993e-03 -4.1769447556959155e-19 0.0000000000000000e+00  -6.2152332386606899e-03 -3.3651303814167481e-19 0.0000000000000000e+00  -6.2401487010024358e-03 -2.1827872744324839e-19 0.0000000000000000e+00  -6.2642508787065570e-03 -3.6770586410117549e-19 0.0000000000000000e+00  -6.2875583694592535e-03 -2.8705926395531336e-20 0.0000000000000000e+00  -6.3100894171342747e-03 -6.5368028971364790e-20 0.0000000000000000e+00  -6.3318619136753483e-03 -2.9103830325766467e-19 0.0000000000000000e+00  -6.3528934010926106e-03 -4.3655745488649688e-19 0.0000000000000000e+00  -6.3732010735682992e-03 -4.3247263402658038e-19 0.0000000000000000e+00  -6.3928017796676352e-03 2.2026824709442370e-20 0.0000000000000000e+00  -6.4117120246500129e-03 1.3955059267530599e-19 0.0000000000000000e+00  -6.4299479728763386e-03 3.9541703067111895e-19 0.0000000000000000e+00  -6.4475254503075343e-03 1.3187673116362917e-19 0.0000000000000000e+00  -6.4644599470900154e-03 -9.6858104714225487e-20 0.0000000000000000e+00  -6.4807666202231409e-03 4.3033273478449615e-19 0.0000000000000000e+00  -6.4964602963042614e-03 2.7188917661510093e-19 0.0000000000000000e+00  -6.5115554743465200e-03 8.6933471652714535e-21 0.0000000000000000e+00  -6.5260663286647851e-03 3.6433078612150351e-20 0.0000000000000000e+00  -6.5400067118249949e-03 2.8180124773435020e-19 0.0000000000000000e+00  -6.5533901576523617e-03 4.1652014982822998e-19 0.0000000000000000e+00  -6.5662298842934447e-03 -2.2282620093164950e-19 0.0000000000000000e+00  -6.5785387973278124e-03 -3.8270376591112064e-19 0.0000000000000000e+00  -6.5903294929242290e-03 -5.8150817232927928e-19 0.0000000000000000e+00  -6.6016142610370214e-03 -4.4991565825867504e-19 0.0000000000000000e+00  -6.6124050886378185e-03 1.3461232068399559e-19 0.0000000000000000e+00  -6.6227136629781148e-03 2.9388047418791528e-19 0.0000000000000000e+00  -6.6325513748780622e-03 7.8145489727241099e-19 0.0000000000000000e+00  -6.6419293220369947e-03 1.3572076734679333e-18 0.0000000000000000e+00  -6.6508583123610372e-03 2.3867130386779688e-18 0.0000000000000000e+00  -6.6593488673035595e-03 4.0231681178230466e-18 0.0000000000000000e+00  -6.6674112252137962e-03 7.3447381179536817e-18 0.0000000000000000e+00  -6.6750553446894203e-03 1.3586287589330579e-17 0.0000000000000000e+00  -6.6822909079286832e-03 2.4828846241270976e-17 0.0000000000000000e+00  -6.6891273240778232e-03 4.6093191278432635e-17 0.0000000000000000e+00  -6.6955737325696072e-03 8.5419742006124546e-17 0.0000000000000000e+00  -6.7016390064487232e-03 1.5709657504109347e-16 0.0000000000000000e+00  -6.7073317556800129e-03 2.8834712265808370e-16 0.0000000000000000e+00  -6.7126603304354868e-03 5.3091261332958674e-16 0.0000000000000000e+00  -6.7176328243561886e-03 9.7577867124713534e-16 0.0000000000000000e+00  -6.7222570777849596e-03 1.7932248562128404e-15 0.0000000000000000e+00  -6.7265406809663151e-03 3.2926259083470697e-15 0.0000000000000000e+00  -6.7304909772097857e-03 6.0430101894784284e-15 0.0000000000000000e+00  -6.7341150660129431e-03 1.1083751360135730e-14 0.0000000000000000e+00  -6.7374198061407545e-03 2.0315637081109569e-14 0.0000000000000000e+00  -6.7404118186577466e-03 3.7210899864942629e-14 0.0000000000000000e+00  -6.7430974899098496e-03 6.8106385572435793e-14 0.0000000000000000e+00  -6.7454829744530405e-03 1.2455928856251049e-13 0.0000000000000000e+00  -6.7475741979260238e-03 2.2761881507338955e-13 0.0000000000000000e+00  -6.7493768598652594e-03 4.1559048603525900e-13 0.0000000000000000e+00  -6.7508964364612310e-03 7.5809355064045457e-13 0.0000000000000000e+00  -6.7521381832564937e-03 1.3815100218566125e-12 0.0000000000000000e+00  -6.7531071377889837e-03 2.5149574701957832e-12 0.0000000000000000e+00  -6.75380812218778