<?xml version="1.0"?>
<VTKFile type="UnstructuredGrid"  version="0.1"  >
<UnstructuredGrid>
<Piece  NumberOfPoints="6382" NumberOfCells="12354">
<Points>
<DataArray  type="Float64"  NumberOfComponents="3"  format="ascii">0 -3 0  0 0 0  10 -3 0  10 0 0  5.2 0 0  5.2 -0.4 0  5.5 -0.4 0  5.5 -0.6000000000000001 0  4.5 -0.6000000000000001 0  4.5 -0.4 0  4.8 -0.4 0  4.8 0 0  0 -2.666666666666667 0  0 -2.333333333333333 0  0 -2 0  0 -1.666666666666667 0  0 -1.333333333333333 0  0 -1 0  0 -0.666666666666667 0  0 -0.3333333333333335 0  9.836518447033493 -3 0  9.676485174132324 -3 0  9.519716728676565 -3 0  9.366040597429432 -3 0  9.215293522901804 -3 0  9.067325347766827 -3 0  8.921978167503752 -3 0  8.779125793186953 -3 0  8.638633440048579 -3 0  8.500376249002967 -3 0  8.364235730108557 -3 0  8.230099119300583 -3 0  8.097858693472926 -3 0  7.96741165420296 -3 0  7.838659590098249 -3 0  7.711508416266758 -3 0  7.585867779025237 -3 0  7.461651037321721 -3 0  7.338774694871047 -3 0  7.217158563845377 -3 0  7.096725097152937 -3 0  6.977399455051415 -3 0  6.859109304538208 -3 0  6.741784490575633 -3 0  6.625356935727237 -3 0  6.509760461250432 -3 0  6.394930659317325 -3 0  6.2808046903675 -3 0  6.167321173775116 -3 0  6.054420032640893 -3 0  5.942042373994132 -3 0  5.830130346471836 -3 0  5.718627047087892 -3 0  5.607476358937133 -3 0  5.496622874861212 -3 0  5.386011773348871 -3 0  5.275588701244851 -3 0  5.1652996754838 -3 0  5.055090972556302 -3 0  4.944909027443701 -3 0  4.834700324516204 -3 0  4.724411298755151 -3 0  4.613988226651132 -3 0  4.50337712513879 -3 0  4.392523641062869 -3 0  4.281372952912111 -3 0  4.169869653528168 -3 0  4.05795762600587 -3 0  3.94557996735911 -3 0  3.832678826224885 -3 0  3.719195309632506 -3 0  3.605069340682676 -3 0  3.490239538749567 -3 0  3.374643064272765 -3 0  3.25821550942437 -3 0  3.140890695461794 -3 0  3.022600544948583 -3 0  2.903274902847057 -3 0  2.782841436154621 -3 0  2.661225305128949 -3 0  2.538348962678273 -3 0  2.414132220974763 -3 0  2.288491583733238 -3 0  2.161340409901745 -3 0  2.032588345797035 -3 0  1.902141306527067 -3 0  1.76990088069941 -3 0  1.63576426989143 -3 0  1.499623750997021 -3 0  1.361366559951406 -3 0  1.220874206813038 -3 0  1.078021832496241 -3 0  0.9326746522331657 -3 0  0.7847064770981866 -3 0  0.6339594025705644 -3 0  0.4802832713234277 -3 0  0.3235148258676688 -3 0  0.1634815529665037 -3 0  10 -0.3333333333333333 0  10 -0.6666666666666666 0  10 -1 0  10 -1.333333333333333 0  10 -1.666666666666667 0  10 -2 0  10 -2.333333333333333 0  10 -2.666666666666667 0  5.242711110725164 0 0  5.286293876642154 0 0  5.330766086609641 0 0  5.37614589213589 0 0  5.422451816439484 0 0  5.469702760205794 0 0  5.517918009017504 0 0  5.567117241892008 0 0  5.617320540096343 0 0  5.668548395644089 0 0  5.720821717893487 0 0  5.774161842649544 0 0  5.828590541642586 0 0  5.88413003019757 0 0  5.940802977381058 0 0  5.998632515893446 0 0  6.057642249375406 0 0  6.117856262977496 0 0  6.179299133651088 0 0  6.241995940085244 0 0  6.305972273082686 0 0  6.371254245606542 0 0  6.43786850326221 0 0  6.505842235920577 0 0  6.575203187664691 0 0  6.645979668539436 0 0  6.71820056760014 0 0  6.791895362764803 0 0  6.867094133292654 0 0  6.943827572794882 0 0  7.022127001289535 0 0  7.10202437703821 0 0  7.183552311040527 0 0  7.266744080707336 0 0  7.351633641831447 0 0  7.438255642584554 0 0  7.526645439439152 0 0  7.616839110330926 0 0  7.708873468012155 0 0  7.802786077905059 0 0  7.898615271449994 0 0  7.996400162886068 0 0  8.096180664647234 0 0  8.197997502517053 0 0  8.301892235188374 0 0  8.407907268711336 0 0  8.516085874431543 0 0  8.626472207031901 0 0  8.739111321743804 0 0  8.854049193814495 0 0  8.971332736524433 0 0  9.091009820696414 0 0  9.21312929427506 0 0  9.337741001971482 0 0  9.464895805719847 0 0  9.594645605970797 0 0  9.727043361679982 0 0  9.862143111819449 0 0  5.2 -0.01666666666666669 0  5.2 -0.03333333333333339 0  5.2 -0.05000000000000009 0  5.2 -0.06666666666666679 0  5.2 -0.0833333333333335 0  5.2 -0.1000000000000002 0  5.2 -0.1166666666666669 0  5.2 -0.1333333333333336 0  5.2 -0.1500000000000002 0  5.2 -0.1666666666666669 0  5.2 -0.1833333333333335 0  5.2 -0.2000000000000001 0  5.2 -0.2166666666666668 0  5.2 -0.2333333333333335 0  5.2 -0.2500000000000002 0  5.2 -0.2666666666666669 0  5.2 -0.2833333333333335 0  5.2 -0.3000000000000002 0  5.2 -0.3166666666666668 0  5.2 -0.3333333333333335 0  5.2 -0.3500000000000001 0  5.2 -0.3666666666666668 0  5.2 -0.3833333333333334 0  5.2125 -0.4 0  5.225 -0.4 0  5.2375 -0.4 0  5.25 -0.4 0  5.2625 -0.4 0  5.275 -0.4 0  5.2875 -0.4 0  5.3 -0.4 0  5.3125 -0.4 0  5.325 -0.4 0  5.337499999999999 -0.4 0  5.35 -0.4 0  5.3625 -0.4 0  5.375 -0.4 0  5.3875 -0.4 0  5.4 -0.4 0  5.4125 -0.4 0  5.425 -0.4 0  5.4375 -0.4 0  5.45 -0.4 0  5.4625 -0.4 0  5.475 -0.4 0  5.4875 -0.4 0  5.5 -0.4083333333333334 0  5.5 -0.4166666666666667 0  5.5 -0.425 0  5.5 -0.4333333333333334 0  5.5 -0.4416666666666668 0  5.5 -0.4500000000000001 0  5.5 -0.4583333333333334 0  5.5 -0.4666666666666668 0  5.5 -0.4750000000000001 0  5.5 -0.4833333333333335 0  5.5 -0.4916666666666668 0  5.5 -0.5000000000000002 0  5.5 -0.5083333333333335 0  5.5 -0.5166666666666668 0  5.5 -0.5250000000000002 0  5.5 -0.5333333333333335 0  5.5 -0.5416666666666669 0  5.5 -0.5500000000000002 0  5.5 -0.5583333333333335 0  5.5 -0.5666666666666668 0  5.5 -0.5750000000000002 0  5.5 -0.5833333333333335 0  5.5 -0.5916666666666668 0  5.479591836734694 -0.6000000000000001 0  5.459183673469388 -0.6000000000000001 0  5.438775510204081 -0.6000000000000001 0  5.418367346938775 -0.6000000000000001 0  5.397959183673469 -0.6000000000000001 0  5.377551020408164 -0.6000000000000001 0  5.357142857142857 -0.6000000000000001 0  5.336734693877551 -0.6000000000000001 0  5.316326530612245 -0.6000000000000001 0  5.295918367346939 -0.6000000000000001 0  5.275510204081633 -0.6000000000000001 0  5.255102040816326 -0.6000000000000001 0  5.23469387755102 -0.6000000000000001 0  5.214285714285714 -0.6000000000000001 0  5.193877551020408 -0.6000000000000001 0  5.173469387755102 -0.6000000000000001 0  5.153061224489796 -0.6000000000000001 0  5.13265306122449 -0.6000000000000001 0  5.112244897959184 -0.6000000000000001 0  5.091836734693878 -0.6000000000000001 0  5.071428571428571 -0.6000000000000001 0  5.051020408163265 -0.6000000000000001 0  5.030612244897959 -0.6000000000000001 0  5.010204081632653 -0.6000000000000001 0  4.989795918367347 -0.6000000000000001 0  4.969387755102041 -0.6000000000000001 0  4.948979591836735 -0.6000000000000001 0  4.928571428571429 -0.6000000000000001 0  4.908163265306122 -0.6000000000000001 0  4.887755102040816 -0.6000000000000001 0  4.86734693877551 -0.6000000000000001 0  4.846938775510204 -0.6000000000000001 0  4.826530612244898 -0.6000000000000001 0  4.806122448979592 -0.6000000000000001 0  4.785714285714286 -0.6000000000000001 0  4.76530612244898 -0.6000000000000001 0  4.744897959183674 -0.6000000000000001 0  4.724489795918368 -0.6000000000000001 0  4.704081632653061 -0.6000000000000001 0  4.683673469387755 -0.6000000000000001 0  4.663265306122449 -0.6000000000000001 0  4.642857142857143 -0.6000000000000001 0  4.622448979591836 -0.6000000000000001 0  4.602040816326531 -0.6000000000000001 0  4.581632653061225 -0.6000000000000001 0  4.561224489795919 -0.6000000000000001 0  4.540816326530612 -0.6000000000000001 0  4.520408163265306 -0.6000000000000001 0  4.5 -0.5916666666666668 0  4.5 -0.5833333333333334 0  4.5 -0.5750000000000001 0  4.5 -0.5666666666666668 0  4.5 -0.5583333333333333 0  4.5 -0.55 0  4.5 -0.5416666666666667 0  4.5 -0.5333333333333333 0  4.5 -0.525 0  4.5 -0.5166666666666666 0  4.5 -0.5083333333333333 0  4.5 -0.4999999999999999 0  4.5 -0.4916666666666666 0  4.5 -0.4833333333333332 0  4.5 -0.4749999999999999 0  4.5 -0.4666666666666666 0  4.5 -0.4583333333333333 0  4.5 -0.45 0  4.5 -0.4416666666666667 0  4.5 -0.4333333333333333 0  4.5 -0.425 0  4.5 -0.4166666666666667 0  4.5 -0.4083333333333334 0  4.5125 -0.4 0  4.525 -0.4 0  4.5375 -0.4 0  4.55 -0.4 0  4.5625 -0.4 0  4.575 -0.4 0  4.587499999999999 -0.4 0  4.6 -0.4 0  4.6125 -0.4 0  4.625 -0.4 0  4.637499999999999 -0.4 0  4.649999999999999 -0.4 0  4.6625 -0.4 0  4.675 -0.4 0  4.6875 -0.4 0  4.699999999999999 -0.4 0  4.712499999999999 -0.4 0  4.725 -0.4 0  4.7375 -0.4 0  4.75 -0.4 0  4.7625 -0.4 0  4.774999999999999 -0.4 0  4.7875 -0.4 0  4.8 -0.3833333333333333 0  4.8 -0.3666666666666666 0  4.8 -0.3499999999999999 0  4.8 -0.3333333333333333 0  4.8 -0.3166666666666665 0  4.8 -0.2999999999999998 0  4.8 -0.2833333333333331 0  4.8 -0.2666666666666664 0  4.8 -0.2499999999999998 0  4.8 -0.2333333333333331 0  4.8 -0.2166666666666665 0  4.8 -0.1999999999999999 0  4.8 -0.1833333333333332 0  4.8 -0.1666666666666665 0  4.8 -0.1499999999999998 0  4.8 -0.1333333333333331 0  4.8 -0.1166666666666665 0  4.8 -0.09999999999999987 0  4.8 -0.0833333333333332 0  4.8 -0.06666666666666654 0  4.8 -0.04999999999999988 0  4.8 -0.03333333333333327 0  4.8 -0.01666666666666661 0  0.1378568875240437 0 0  0.2729566377271358 0 0  0.4053543934976697 0 0  0.5351041938077431 0 0  0.6622589976130751 0 0  0.7868707053643811 0 0  0.9089901789958823 0 0  1.028667263218748 0 0  1.14595080597766 0 0  1.260888678095464 0 0  1.373527792852679 0 0  1.483914125496606 0 0  1.592092731258683 0 0  1.698107764821866 0 0  1.802002497531814 0 0  1.90381933543871 0 0  2.003599837235452 0 0  2.101384728705643 0 0  2.197213922283282 0 0  2.291126532207516 0 0  2.38316088991875 0 0  2.473354560839241 0 0  2.56174435771825 0 0  2.648366358500676 0 0  2.733255919649871 0 0  2.81644768934063 0 0  2.897975623365796 0 0  2.977872999136252 0 0  3.056172427651654 0 0  3.132905867173631 0 0  3.208104637720262 0 0  3.28179943290277 0 0  3.354020331980409 0 0  3.42479681287121 0 0  3.494157764630528 0 0  3.562131497303279 0 0  3.628745754972536 0 0  3.69402772750921 0 0  3.758004060518725 0 0  3.820700866964234 0 0  3.882143737648484 0 0  3.942357751260559 0 0  4.0013674
[...]
<PointData  Scalars=" mean stress"> 
<DataArray  type="Float64"  Name=" mean stress"  format="ascii">2.0532570213877659e+02  5.0318859765982149e-01  2.0598510533648451e+02  6.6078910876720048e-02  1.2188694767980353e+03  -3.7645198385180274e-02  2.4011014957544658e+03  3.5446984420482368e+04  3.5647297039001358e+04  2.4005952803303039e+03  -3.8647321927261835e-02  1.2186807312311514e+03  1.6469616548640669e+01  4.4058855246198220e+01  9.3283496586487800e+01  1.0793236862458541e+02  9.0724699163105427e+01  6.0116031571367763e+01  2.5106955947768885e+01  1.8506207389268206e+00  1.1253759502203101e+02  1.4759536878058850e+02  1.6729392700843110e+02  1.8989967895518703e+02  2.1073392228055766e+02  2.3143825005524806e+02  2.5306490646738234e+02  2.7571045611294892e+02  3.0052015442586764e+02  3.2691080805934604e+02  3.5505392682116383e+02  3.8584541818431433e+02  4.1803769675215142e+02  4.5263130137340238e+02  4.8893464464465364e+02  5.2703043755545832e+02  5.6657882217585086e+02  6.0695110712900942e+02  6.4865558728821679e+02  6.9045977156841195e+02  7.3197469874285582e+02  7.7285440686546451e+02  8.1217398274802576e+02  8.4937126620338347e+02  8.8343415594007331e+02  9.1376515836411829e+02  9.3974711713084628e+02  9.6039042390423185e+02  9.7393009237538263e+02  9.8223980018130646e+02  9.8382031725883701e+02  9.7890380459219614e+02  9.6862903810250384e+02  9.5353128380566068e+02  9.3590680343422946e+02  9.1762544936423797e+02  9.0097372795012689e+02  8.8866159024531214e+02  8.8134015965522849e+02  8.8133548271696679e+02  8.8824734167958979e+02  9.0088617040068402e+02  9.1754937885045683e+02  9.3585251075541885e+02  9.5365219876708250e+02  9.6923920409976517e+02  9.7879542025244530e+02  9.8486665657302478e+02  9.8251057181585873e+02  9.7502419433287889e+02  9.6042726141570790e+02  9.3980895069913765e+02  9.1354836173754882e+02  8.8319237767455377e+02  8.4940328265004280e+02  8.1220223252119990e+02  7.7277448527476906e+02  7.3188726224028665e+02  6.9004377972460463e+02  6.4859282728417713e+02  6.0716856351796912e+02  5.6653009966116872e+02  5.2697463852452336e+02  4.8891110775664140e+02  4.5262106900949840e+02  4.1822241016293486e+02  3.8544256040376081e+02  3.5510920188899655e+02  3.2676479801367776e+02  3.0038399988426789e+02  2.7587118761490814e+02  2.5307654439199933e+02  2.3145624327772740e+02  2.1068120172393560e+02  1.8989808653328114e+02  1.6743310590484722e+02  1.4706036977993108e+02  1.1071214818331242e+02  2.0250700144283358e+00  2.5366499169680043e+01  5.9856143985791547e+01  9.1497101237687019e+01  1.0754314639764254e+02  9.2335981023920297e+01  3.9090326889618431e+01  1.4410284803983764e+01  1.2186655943480723e+03  1.2177057240296565e+03  1.2157838654943671e+03  1.2109808707843931e+03  1.2009101230848544e+03  1.1841609123305484e+03  1.1530462572121658e+03  1.1058732772874132e+03  1.0388938932748069e+03  9.4912664406623730e+02  8.3820379026279159e+02  7.1005971884940720e+02  5.7088631930250813e+02  4.2681567892625691e+02  2.8740737192946358e+02  1.5181567611815385e+02  2.6210252086185260e+01  2.7649300686329859e+01  1.3769625289726096e+02  2.1948339747119562e+02  2.8687700557822905e+02  3.3976615690524505e+02  3.8053077737691456e+02  4.1053146157299892e+02  4.3291691208174694e+02  4.4682698189882950e+02  4.5515152388070885e+02  4.5729356305827304e+02  4.5597200393143578e+02  4.5003284057249073e+02  4.4113326087773902e+02  4.2964923319695316e+02  4.1603809181199568e+02  4.0043539492631112e+02  3.8363990592254657e+02  3.6578759715464162e+02  3.4683259926252333e+02  3.2730952854495945e+02  3.0702539632119704e+02  2.8671525157355018e+02  2.6617662952154728e+02  2.4554600347648631e+02  2.2495200924328640e+02  2.0450697375377430e+02  1.8435543260487967e+02  1.6461668386422613e+02  1.4488908264939980e+02  1.2588320713408471e+02  1.0745824325399444e+02  8.9529030961509662e+01  7.2442383340880511e+01  5.6090740377427259e+01  4.0697590967239520e+01  2.6660722278189223e+01  1.4625524935974370e+01  5.5856716588303019e+00  5.6803586930053607e-01  5.8297016600200491e-01  1.1654991147910405e+03  1.1124347367446794e+03  1.0597915257432485e+03  1.0076773601207001e+03  9.5611360269342742e+02  9.0513829128846362e+02  8.5470768007945867e+02  8.0480655974163324e+02  7.5532621135715283e+02  7.0620455802687616e+02  6.5731657023916284e+02  6.0856444919188766e+02  5.5982623246639980e+02  5.1094414389597227e+02  4.6185113606623639e+02  4.1238787649085475e+02  3.6248101123288234e+02  3.1208820196922738e+02  2.6116177916872715e+02  2.0969492107900521e+02  1.5775140149873337e+02  1.0540272159059467e+02  5.2787746059814886e+01  1.0181291293335002e+00  3.2949652680996677e+00  6.4364684586506060e+00  1.0201625523214846e+01  1.5289982912634914e+01  1.9184860920393181e+01  2.3771814683715071e+01  3.0953615855572799e+01  3.8510817054621519e+01  4.7522031230844433e+01  5.7922024708107131e+01  7.0330080082182619e+01  8.5774166502679819e+01  1.0429155543275874e+02  1.2682507341089887e+02  1.5469480656230502e+02  1.8976877511338776e+02  2.3477340083030629e+02  2.9431786612099040e+02  3.7556131870643077e+02  4.9368904596418366e+02  6.7941918446513841e+02  1.0776200545715403e+03  2.1023433283860350e+03  1.8141089186382067e+03  1.7763049324714716e+03  1.7778814445067305e+03  1.8015826379402588e+03  1.8428849818731194e+03  1.8961733923030233e+03  1.9601230662807316e+03  2.0339667045571823e+03  2.1180462697907592e+03  2.2127420758644889e+03  2.3196882126015266e+03  2.4399181187854892e+03  2.5755099370303578e+03  2.7303144347861949e+03  2.9077527081894382e+03  3.1145794009584474e+03  3.3621729041114691e+03  3.6615399658904780e+03  4.0813302637029665e+03  4.9245161503415684e+03  3.9822075342604394e+03  2.5945998238840231e+04  1.0633829130919303e+04  3.8192518228799581e+03  3.4495967997809221e+03  2.9777595254033358e+03  2.6435276044970406e+03  2.4339810375758057e+03  2.2859845464300906e+03  2.1772769515099671e+03  2.0961855056051745e+03  2.0326649187904040e+03  1.9814228468660635e+03  1.9392038119296019e+03  1.9039035640203547e+03  1.8746274138291369e+03  1.8505933745605469e+03  1.8299674319768458e+03  1.8120934293905393e+03  1.7973973626000382e+03  1.7854628811583141e+03  1.7760856598661578e+03  1.7683749014722116e+03  1.7628226828725758e+03  1.7594221844880949e+03  1.7575096744875170e+03  1.7574500852888123e+03  1.7594546351318838e+03  1.7630377798284205e+03  1.7683273803110321e+03  1.7760855584224746e+03  1.7858954024043801e+03  1.7979712860031520e+03  1.8123987696374420e+03  1.8303355601058222e+03  1.8502777060002993e+03  1.8746283617015067e+03  1.9039545107596643e+03  1.9394832015208704e+03  1.9824221526118838e+03  2.0337343780655322e+03  2.0967093073532315e+03  2.1780884855013587e+03  2.2859820783238247e+03  2.4401724372797948e+03  2.6436714400422561e+03  2.9563420456691606e+03  3.4874609182857389e+03  3.5686686615316762e+03  9.7830090735536014e+03  2.5769099690273863e+04  3.9647834495157931e+03  4.9494896510454182e+03  4.0669038726865087e+03  3.6563321108723962e+03  3.3605466859482231e+03  3.1127334451109336e+03  2.9063079376910409e+03  2.7289229082235056e+03  2.5748327074706895e+03  2.4384483566479416e+03  2.3185188224384619e+03  2.2119732789060627e+03  2.1171774277570444e+03  2.0330343946462369e+03  1.9594443644114731e+03  1.8955838048755522e+03  1.8422195019617329e+03  1.8013197338427383e+03  1.7762995194005782e+03  1.7751445407098386e+03  1.8139831156910091e+03  2.1088963910748084e+03  1.0938727912096551e+03  6.8512784966037555e+02  4.9265417497608189e+02  3.7517211966844036e+02  2.9398658624555219e+02  2.3454285253553132e+02  1.8976300017863630e+02  1.5480265585145594e+02  1.2685504255231905e+02  1.0494368753895959e+02  8.6137650106139120e+01  7.0586540700153876e+01  5.8066198395987783e+01  4.7335421464961648e+01  3.8297183255986681e+01  3.0574359840355044e+01  2.3993582745883241e+01  1.8482052492499943e+01  1.4298277250849546e+01  1.0377961103914226e+01  6.4658481994009289e+00  3.2840277644569671e+00  1.0171620630488605e+00  5.2785410596398997e+01  1.0538840446020218e+02  1.5773607825351985e+02  2.0968224036270948e+02  2.6113995768636346e+02  3.1206418671268273e+02  3.6245208947407815e+02  4.1234336445603662e+02  4.6179078292784789e+02  5.1089281467568367e+02  5.5976834016513203e+02  6.0851718615227128e+02  6.5727014040353413e+02  7.0613128364205420e+02  7.5523279776862171e+02  8.0471005116829951e+02  8.5462248387137015e+02  9.0503267991470409e+02  9.5600831585601077e+02  1.0075778704387862e+03  1.0596745986727346e+03  1.1122939764491709e+03  1.1653824732541671e+03  6.3923535915134921e-01  6.2277495259056059e-01  5.3495065797508037e+00  1.4630910934649002e+01  2.6363151349859272e+01  4.0346211545917804e+01  5.5893639134410023e+01  7.2225006679456087e+01  8.9497644419437933e+01  1.0747221160027330e+02  1.2601005669111292e+02  1.4498161232844001e+02  1.6461554846720290e+02  1.8421804626650820e+02  2.0461957331911660e+02  2.2495537021683293e+02  2.4547102510174545e+02  2.6610004799124175e+02  2.8666511358424441e+02  3.0704799948255305e+02  3.2717184039430185e+02  3.4673146070672789e+02  3.6567247859858219e+02  3.8372284746783185e+02  4.0060624117753287e+02  4.1605873019635953e+02  4.2965845279329665e+02  4.4113609218951405e+02  4.4995555743114272e+02  4.5558338860033791e+02  4.5741651146145864e+02  4.5474394612067243e+02  4.4677089006897035e+02  4.3222245193278724e+02  4.1038184139977710e+02  3.7879457790713855e+02  3.3816938260821911e+02  2.8647348579647155e+02  2.2049037857289164e+02  1.3623543624478827e+02  2.6775046678658544e+01  2.6036156952829604e+01  1.5386487743669591e+02  2.8750671748535336e+02  4.2916829087835146e+02  5.7140532121073204e+02  7.0903839859787320e+02  8.3671245015898864e+02  9.4987303653393997e+02  1.0394020481113128e+03  1.1064506352099527e+03  1.1529788609532436e+03  1.1829407864678371e+03  1.2010987748900397e+03  1.2108188114173579e+03  1.2155048211220605e+03  1.2175291160157894e+03  1.2186247906237761e+03  3.7975538506958890e+02  3.8141432367913984e+02  2.2440372220456065e+04  2.5750991254675141e+03  2.0231110499947486e+03  2.0174574997071295e+03  2.4533742309629347e+03  2.3759805092930354e+04  5.7794327313432668e+03  2.2680983497516622e+03  1.8032019427539922e+03  5.7100309774349107e+03  2.2458442283069307e+03  1.8076321441937309e+03  2.6217116763497097e+02  2.5997162772813027e+02  8.4630147633870115e+02  8.4618832856009840e+02  3.6504155323049793e+02  3.6728444278276061e+02  9.8527386610019971e+02  9.8590944485479190e+02  1.0325062780202572e+03  2.9867838355002704e+02  2.1138539924334881e+02  2.9923136976827249e+02  2.1157016125597806e+02  1.0327502904368059e+03  3.4295114627426160e+03  2.1908726907758210e+03  2.0342686584253172e+03  2.1554904204255881e+03  2.9997756291805927e+03  3.0036767320147164e+03  1.4876092492431493e+02  4.1709884988307510e+02  1.4802053757360466e+02  4.3348691030309078e+02  6.6459286378873367e+02  6.6068695919948311e+02  1.6230355308946571e+02  1.6276146778079470e+02  4.7378034460926239e+02  4.7147657693359736e+02  3.2057839316879762e+02  3.2098879288196775e+02  5.8471679735328871e+02  5.8944629421581658e+02  1.4345602650347359e+02  1.4119007296461547e+02  1.0377521587524836e+03  3.4268947045277050e+03  6.6043834175096549e+01  6.6448646668238126e+01  1.9293707718779340e+03  1.9287381620447800e+03  5.0037581390917552e+02  4.9939127595788875e+02  3.9424237058634850e+02  3.8750491571488521e+02  8.0427932729565225e+02  8.0565256889143882e+02  1.1599998581740181e+03  1.1634921991855549e+03  2.7226034406884414e+03  4.5306152133600392e+01  4.4404189401334335e+01  7.9002915637691871e+01  7.7675960687736620e+01  3.8785845432708481e+02  3.9449126730229119e+02  2.5267351962344071e+02  2.5314275276236836e+02  1.0348135025128865e+03  1.0356891249894811e+03  7.3431312739291184e+02  7.2705963855814673e+02  4.1108593728861202e+01  3.9126359056259467e+01  8.7986398734661736e+02  8.8110148207642192e+02  6.7974109596343908e+01  6.8728012322516747e+01  2.3578870237555836e+02  2.3394183268525623e+02  1.0945384723522309e+03  1.0929195174317481e+03  1.9853410031379516e+02  1.9857445626136936e+02  3.3601583668471640e+01  3.2245695400337645e+01  4.9379411284428452e+03  9.5390825581105548e+02  9.4938158302489319e+02  2.9687734173301857e+02  2.9507591470722673e+02  1.7440251927694715e+02  1.7766838785645854e+02  3.3011037592223749e+02  3.2813287072836141e+02  4.8430788384217367e+03  7.8253928967224215e+02  1.0812859526365474e+02  1.0658618310197443e+02  1.7612950180995526e+02  1.7412573401870779e+02  7.7805003567705546e+02  2.6378546105689247e+02  2.6098721670823102e+02  3.4389520184887073e+02  3.3391817182739464e+02  9.4592088054799399e+02  4.0674284775474428e+02  4.0651016236471287e+02  9.3987633988966547e+02  1.0237158934329757e+03  5.9049398435207195e+02  5.8365214670036005e+02  1.0235202348518374e+03  1.0365974119366970e+03  1.0513646690865532e+03  5.7745937751608018e+01  5.6645152441986163e+01  4.8676924188311142e+02  4.8492100910609184e+02  2.3627188514483310e+03  2.8985030598475341e+03  5.1419451408762235e+01  9.0686844243889027e+01  5.2572655633615618e+01  9.1673321439046958e+01  2.1691446616089243e+03  2.0317600883565599e+03  1.9960792974025906e+03  2.0878657006348667e+03  2.1671364710545417e+03  2.1737529382363147e+02  2.1725860204939343e+02  3.8782910643962591e+03  3.9151674330991150e+03  2.6549131165843164e+03  2.6469864433752364e+03  2.0759879503461621e+03  1.8250200125661408e+03  2.0736905477697173e+03  1.8243678943903451e+03  2.2395688732834674e+03  2.2483244663811111e+03  2.0277469266340287e+01  2.1600684523120258e+01  7.9442966256678673e+01  7.5207671517172500e+01  9.7733568042933655e+02  9.8166242160071522e+02  7.8332683094244931e+03  7.8614662544722396e+03  1.3189429735957881e+02  1.2937236860042648e+02  1.6663123506486315e+02  1.6736315322002801e+02  1.0909438494299743e+03  1.0941938653414813e+03  1.1051466493734076e+03  1.0886655403187262e+03  3.5235639032072939e+01  3.5381324771447154e+01  3.8064286294831754e+03  4.0560759776698146e+03  2.9465927814063662e+00  3.3855372363430969e+00  1.1001917156226118e+03  1.0020277710184808e+03  9.8672893035161690e+02  9.0028023801570657e+02  8.9063559951105299e+02  8.2046361550654012e+02  8.1278223094751365e+02  7.4410307074452112e+02  7.4727288635231491e+02  6.8340425225517754e+02  6.9417134134284254e+02  6.3377001834063879e+02  6.4796149067436374e+02  6.1924763927154481e+02  5.7185019308966901e+02  5.5766092239033730e+02  5.1234978321054496e+02  4.9824949172770056e+02  5.4353861875003690e+02  7.0568573585210515e+02  6.7622622531850129e+02  4.5202452169178537e+02  4.6954751069079663e+02  4.3943730497179132e+02  7.2222218320228296e+02  7.0171702189237442e+02  7.4310923387856599e+02  7.3306182119178959e+02  6.9309669816017708e+02  7.3764087173828295e+02  7.6783597560699457e+02  7.8627276168696380e+02  8.0655697864532817e+02  8.3314438192036880e+02  8.4325131735699506e+02  8.8573168494858930e+02  8.7680562259203180e+02  9.2929763535485449e+02  9.0482701988835993e+02  9.6271762198909903e+02  1.0003325830316413e+03  1.0322113365962718e+03  1.0836577178678549e+03  1.1096021473577753e+03  1.1666673469792343e+03  1.1878388446070735e+03  1.2589558977236786e+03  1.2643143125689514e+03  1.3473549890576585e+03  1.3315182682481723e+03  1.4131616702351637e+03  1.3852381569599140e+03  1.4659318789221254e+03  1.4220409062010756e+03  1.5043850073632063e+03  1.4411953869536701e+03  1.5142288177051462e+03  1.4411606535516814e+03  1.4973828029260028e+03  1.4128243226798579e+03  1.4529032322579485e+03  1.3588894893317536e+03  1.3807414485012885e+03  1.2820416983911609e+03  1.2793429676674243e+03  1.1893134712418173e+03  1.1967578705589306e+03  1.1094690973887898e+03  1.0890340853822051e+03  1.0156926641710493e+03  9.8480483525741840e+02  9.3028999064171092e+02  9.0235508670898469e+02  8.6432906759104662e+02  8.5192612498219739e+02  8.2216768025606245e+02  8.3717981368973392e+02  8.0723910161357674e+02  8.5337417382908632e+02  8.1726863411983015e+02  8.9298197987709079e+02  8.4557598982535478e+02  9.4318053427778386e+02  8.8300359755831664e+02  9.9473913192726104e+02  9.2688544392393021e+02  1.0441095893108245e+03  9.7004186160452502e+02  1.0874250211854173e+03  1.0074321991896371e+03  1.1295355154179485e+03  1.0386588155243658e+03  1.2403720127362085e+03  1.2662436484780437e+03  1.3893404385341589e+03  1.4078821551850210e+03  1.5485358521838882e+03  1.5542056660254950e+03  1.7083740239169583e+03  1.6968549182705965e+03  1.8614340401953264e+03  1.8322308832212238e+03  2.0052248136439307e+03  1.6748145361855529e+03  8.8661749913873155e+02  1.9593294123831085e+03  2.1418120188790836e+03  2.0758439862946948e+03  2.2542013644828708e+03  2.1783185085678824e+03  2.3563982225818404e+03  7.8062285647227520e+02  2.2674222418517643e+03  2.4350528635387855e+03  2.3437214058596292e+03  2.5064627243239229e+03  2.1974945528340349e+03  2.3992716336334452e+03  2.5572853232834545e+03  2.4493472199160356e+03  2.5918345078823477e+03  2.7134014062831607e+03  2.7336006236291646e+03  2.8655511471210234e+03  2.8681895150952791e+03  3.0050875630128603e+03  2.9923203477390939e+03  3.1299966589907567e+03  3.1045741081470678e+03  2.9710399459896125e+03  3.0687651359660003e+03  3.2037589185048369e+03  3.1542086155904331e+03  3.2875298231433976e+03  3.2251598855679813e+03  3.3563712144022552e+03  3.2809418407014755e+03  3.4086373780196645e+03  3.3207386366223650e+03  3.1980919461235376e+03  3.2267129569930994e+03  3.3466034460080323e+03  3.2411327316811239e+03  3.3544853541369753e+03  3.2401549565287255e+03  3.3460493692044734e+03  3.2226746671373458e+03  3.3231093949016808e+03  3.1901726968225485e+03  3.2864857568333841e+03  3.1425594937228821e+03  3.2279716253253778e+03  3.0842299709596655e+03  3.1430424748919518e+03  3.0052634213772408e+03  3.0534497154562659e+03  2.9094223271051292e+03  2.9492782604501213e+03  2.8025576258133174e+03  2.8369096335983581e+03  2.6841874417881563e+03  2.7049570318205992e+03  2.5530749216168410e+03  2.5605286640416648e+03  2.4111398265242551e+03  2.4019678761781556e+03  2.2578612481900350e+03  2.2326857053969788e+03  2.0978911245343720e+03  2.0571861831310889e+03  1.9345317522028245e+03  1.8768332533275800e+03  1.7708125256723247e+03  1.6989104849101236e+03  1.6038791603959814e+03  2.2723522102783913e+03  2.8668058703285051e+03  3.1227384256694463e+03  1.5237662167464507e+03  1.4428417033831238e+03  1.5203539144229346e+03  1.3695884136075024e+03  1.2896262924536854e+03  1.2286362259233281e+03  1.4442597473351098e+03  1.1454339072111563e+03  1.0980997522841089e+03  1.0152472722583379e+03  9.7840721309006767e+02  9.0286067888809430e+02  8.5661940671350192e+02  2.4764933277319519e+03  9.2781061999110977e+02  1.0369127494939232e+03  2.9387606689095569e+03  8.2437989473814650e+02  8.4076028329753603e+02  7.4714863305881522e+02  7.5298353039198025e+02  9.4013419583473649e+02  8.3956747082894697e+02  9.0611388512456153e+02  8.0718886187341070e+02  8.6977093456935893e+02  7.7439285060464658e+02  8.3123205457553502e+02  7.4150779492666993e+02  6.8703036249586899e+02  6.5920331457816872e+02  6.0674244121807465e+02  5.8334789616398905e+02  5.3308843952675807e+02  5.1376145793981061e+02  3.4522878858861986e+03  2.9829948682714448e+03  4.6605332172766293e+02  4.4995196783425337e+02  3.4881522615980489e+03  7.0891972428266035e+02  2.3457348002705708e+03  4.0496049348007313e+02  3.9148234713162634e+02  4.3480812031743409e+02  3.7860932757785218e+02  9.4872099617148126e+02  6.7635324150315648e+02  2.3823890409790397e+03  3.3738409136754103e+02  3.2745268418159401e+02  1.3730095323873800e+03  1.1868675862735652e+03  2.8764092906839079e+02  2.8123920112250420e+02  4.2007698441493318e+02  1.6218822605788457e+03  2.4291957296300816e+02  2.3999070795860570e+02  6.7714302429525765e+02  6.1730858219487970e+02  2.0370063325826899e+02  2.0391220620367702e+02  2.3863952268588801e+02  2.0502381508529990e+02  2.3827041588598237e+02  2.0679381263696186e+02  1.7535653534453473e+02  1.8029384614871898e+02  1.5091186627442610e+02  1.5892083016099585e+02  6.2562895722162034e+02  5.7373324827048589e+02  2