<?xml version="1.0"?>
<VTKFile type="UnstructuredGrid"  version="0.1"  >
<UnstructuredGrid>
<Piece  NumberOfPoints="6382" NumberOfCells="12354">
<Points>
<DataArray  type="Float64"  NumberOfComponents="3"  format="ascii">0 -3 0  0 0 0  10 -3 0  10 0 0  5.2 0 0  5.2 -0.4 0  5.5 -0.4 0  5.5 -0.6000000000000001 0  4.5 -0.6000000000000001 0  4.5 -0.4 0  4.8 -0.4 0  4.8 0 0  0 -2.666666666666667 0  0 -2.333333333333333 0  0 -2 0  0 -1.666666666666667 0  0 -1.333333333333333 0  0 -1 0  0 -0.666666666666667 0  0 -0.3333333333333335 0  9.836518447033493 -3 0  9.676485174132324 -3 0  9.519716728676565 -3 0  9.366040597429432 -3 0  9.215293522901804 -3 0  9.067325347766827 -3 0  8.921978167503752 -3 0  8.779125793186953 -3 0  8.638633440048579 -3 0  8.500376249002967 -3 0  8.364235730108557 -3 0  8.230099119300583 -3 0  8.097858693472926 -3 0  7.96741165420296 -3 0  7.838659590098249 -3 0  7.711508416266758 -3 0  7.585867779025237 -3 0  7.461651037321721 -3 0  7.338774694871047 -3 0  7.217158563845377 -3 0  7.096725097152937 -3 0  6.977399455051415 -3 0  6.859109304538208 -3 0  6.741784490575633 -3 0  6.625356935727237 -3 0  6.509760461250432 -3 0  6.394930659317325 -3 0  6.2808046903675 -3 0  6.167321173775116 -3 0  6.054420032640893 -3 0  5.942042373994132 -3 0  5.830130346471836 -3 0  5.718627047087892 -3 0  5.607476358937133 -3 0  5.496622874861212 -3 0  5.386011773348871 -3 0  5.275588701244851 -3 0  5.1652996754838 -3 0  5.055090972556302 -3 0  4.944909027443701 -3 0  4.834700324516204 -3 0  4.724411298755151 -3 0  4.613988226651132 -3 0  4.50337712513879 -3 0  4.392523641062869 -3 0  4.281372952912111 -3 0  4.169869653528168 -3 0  4.05795762600587 -3 0  3.94557996735911 -3 0  3.832678826224885 -3 0  3.719195309632506 -3 0  3.605069340682676 -3 0  3.490239538749567 -3 0  3.374643064272765 -3 0  3.25821550942437 -3 0  3.140890695461794 -3 0  3.022600544948583 -3 0  2.903274902847057 -3 0  2.782841436154621 -3 0  2.661225305128949 -3 0  2.538348962678273 -3 0  2.414132220974763 -3 0  2.288491583733238 -3 0  2.161340409901745 -3 0  2.032588345797035 -3 0  1.902141306527067 -3 0  1.76990088069941 -3 0  1.63576426989143 -3 0  1.499623750997021 -3 0  1.361366559951406 -3 0  1.220874206813038 -3 0  1.078021832496241 -3 0  0.9326746522331657 -3 0  0.7847064770981866 -3 0  0.6339594025705644 -3 0  0.4802832713234277 -3 0  0.3235148258676688 -3 0  0.1634815529665037 -3 0  10 -0.3333333333333333 0  10 -0.6666666666666666 0  10 -1 0  10 -1.333333333333333 0  10 -1.666666666666667 0  10 -2 0  10 -2.333333333333333 0  10 -2.666666666666667 0  5.242711110725164 0 0  5.286293876642154 0 0  5.330766086609641 0 0  5.37614589213589 0 0  5.422451816439484 0 0  5.469702760205794 0 0  5.517918009017504 0 0  5.567117241892008 0 0  5.617320540096343 0 0  5.668548395644089 0 0  5.720821717893487 0 0  5.774161842649544 0 0  5.828590541642586 0 0  5.88413003019757 0 0  5.940802977381058 0 0  5.998632515893446 0 0  6.057642249375406 0 0  6.117856262977496 0 0  6.179299133651088 0 0  6.241995940085244 0 0  6.305972273082686 0 0  6.371254245606542 0 0  6.43786850326221 0 0  6.505842235920577 0 0  6.575203187664691 0 0  6.645979668539436 0 0  6.71820056760014 0 0  6.791895362764803 0 0  6.867094133292654 0 0  6.943827572794882 0 0  7.022127001289535 0 0  7.10202437703821 0 0  7.183552311040527 0 0  7.266744080707336 0 0  7.351633641831447 0 0  7.438255642584554 0 0  7.526645439439152 0 0  7.616839110330926 0 0  7.708873468012155 0 0  7.802786077905059 0 0  7.898615271449994 0 0  7.996400162886068 0 0  8.096180664647234 0 0  8.197997502517053 0 0  8.301892235188374 0 0  8.407907268711336 0 0  8.516085874431543 0 0  8.626472207031901 0 0  8.739111321743804 0 0  8.854049193814495 0 0  8.971332736524433 0 0  9.091009820696414 0 0  9.21312929427506 0 0  9.337741001971482 0 0  9.464895805719847 0 0  9.594645605970797 0 0  9.727043361679982 0 0  9.862143111819449 0 0  5.2 -0.01666666666666669 0  5.2 -0.03333333333333339 0  5.2 -0.05000000000000009 0  5.2 -0.06666666666666679 0  5.2 -0.0833333333333335 0  5.2 -0.1000000000000002 0  5.2 -0.1166666666666669 0  5.2 -0.1333333333333336 0  5.2 -0.1500000000000002 0  5.2 -0.1666666666666669 0  5.2 -0.1833333333333335 0  5.2 -0.2000000000000001 0  5.2 -0.2166666666666668 0  5.2 -0.2333333333333335 0  5.2 -0.2500000000000002 0  5.2 -0.2666666666666669 0  5.2 -0.2833333333333335 0  5.2 -0.3000000000000002 0  5.2 -0.3166666666666668 0  5.2 -0.3333333333333335 0  5.2 -0.3500000000000001 0  5.2 -0.3666666666666668 0  5.2 -0.3833333333333334 0  5.2125 -0.4 0  5.225 -0.4 0  5.2375 -0.4 0  5.25 -0.4 0  5.2625 -0.4 0  5.275 -0.4 0  5.2875 -0.4 0  5.3 -0.4 0  5.3125 -0.4 0  5.325 -0.4 0  5.337499999999999 -0.4 0  5.35 -0.4 0  5.3625 -0.4 0  5.375 -0.4 0  5.3875 -0.4 0  5.4 -0.4 0  5.4125 -0.4 0  5.425 -0.4 0  5.4375 -0.4 0  5.45 -0.4 0  5.4625 -0.4 0  5.475 -0.4 0  5.4875 -0.4 0  5.5 -0.4083333333333334 0  5.5 -0.4166666666666667 0  5.5 -0.425 0  5.5 -0.4333333333333334 0  5.5 -0.4416666666666668 0  5.5 -0.4500000000000001 0  5.5 -0.4583333333333334 0  5.5 -0.4666666666666668 0  5.5 -0.4750000000000001 0  5.5 -0.4833333333333335 0  5.5 -0.4916666666666668 0  5.5 -0.5000000000000002 0  5.5 -0.5083333333333335 0  5.5 -0.5166666666666668 0  5.5 -0.5250000000000002 0  5.5 -0.5333333333333335 0  5.5 -0.5416666666666669 0  5.5 -0.5500000000000002 0  5.5 -0.5583333333333335 0  5.5 -0.5666666666666668 0  5.5 -0.5750000000000002 0  5.5 -0.5833333333333335 0  5.5 -0.5916666666666668 0  5.479591836734694 -0.6000000000000001 0  5.459183673469388 -0.6000000000000001 0  5.438775510204081 -0.6000000000000001 0  5.418367346938775 -0.6000000000000001 0  5.397959183673469 -0.6000000000000001 0  5.377551020408164 -0.6000000000000001 0  5.357142857142857 -0.6000000000000001 0  5.336734693877551 -0.6000000000000001 0  5.316326530612245 -0.6000000000000001 0  5.295918367346939 -0.6000000000000001 0  5.275510204081633 -0.6000000000000001 0  5.255102040816326 -0.6000000000000001 0  5.23469387755102 -0.6000000000000001 0  5.214285714285714 -0.6000000000000001 0  5.193877551020408 -0.6000000000000001 0  5.173469387755102 -0.6000000000000001 0  5.153061224489796 -0.6000000000000001 0  5.13265306122449 -0.6000000000000001 0  5.112244897959184 -0.6000000000000001 0  5.091836734693878 -0.6000000000000001 0  5.071428571428571 -0.6000000000000001 0  5.051020408163265 -0.6000000000000001 0  5.030612244897959 -0.6000000000000001 0  5.010204081632653 -0.6000000000000001 0  4.989795918367347 -0.6000000000000001 0  4.969387755102041 -0.6000000000000001 0  4.948979591836735 -0.6000000000000001 0  4.928571428571429 -0.6000000000000001 0  4.908163265306122 -0.6000000000000001 0  4.887755102040816 -0.6000000000000001 0  4.86734693877551 -0.6000000000000001 0  4.846938775510204 -0.6000000000000001 0  4.826530612244898 -0.6000000000000001 0  4.806122448979592 -0.6000000000000001 0  4.785714285714286 -0.6000000000000001 0  4.76530612244898 -0.6000000000000001 0  4.744897959183674 -0.6000000000000001 0  4.724489795918368 -0.6000000000000001 0  4.704081632653061 -0.6000000000000001 0  4.683673469387755 -0.6000000000000001 0  4.663265306122449 -0.6000000000000001 0  4.642857142857143 -0.6000000000000001 0  4.622448979591836 -0.6000000000000001 0  4.602040816326531 -0.6000000000000001 0  4.581632653061225 -0.6000000000000001 0  4.561224489795919 -0.6000000000000001 0  4.540816326530612 -0.6000000000000001 0  4.520408163265306 -0.6000000000000001 0  4.5 -0.5916666666666668 0  4.5 -0.5833333333333334 0  4.5 -0.5750000000000001 0  4.5 -0.5666666666666668 0  4.5 -0.5583333333333333 0  4.5 -0.55 0  4.5 -0.5416666666666667 0  4.5 -0.5333333333333333 0  4.5 -0.525 0  4.5 -0.5166666666666666 0  4.5 -0.5083333333333333 0  4.5 -0.4999999999999999 0  4.5 -0.4916666666666666 0  4.5 -0.4833333333333332 0  4.5 -0.4749999999999999 0  4.5 -0.4666666666666666 0  4.5 -0.4583333333333333 0  4.5 -0.45 0  4.5 -0.4416666666666667 0  4.5 -0.4333333333333333 0  4.5 -0.425 0  4.5 -0.4166666666666667 0  4.5 -0.4083333333333334 0  4.5125 -0.4 0  4.525 -0.4 0  4.5375 -0.4 0  4.55 -0.4 0  4.5625 -0.4 0  4.575 -0.4 0  4.587499999999999 -0.4 0  4.6 -0.4 0  4.6125 -0.4 0  4.625 -0.4 0  4.637499999999999 -0.4 0  4.649999999999999 -0.4 0  4.6625 -0.4 0  4.675 -0.4 0  4.6875 -0.4 0  4.699999999999999 -0.4 0  4.712499999999999 -0.4 0  4.725 -0.4 0  4.7375 -0.4 0  4.75 -0.4 0  4.7625 -0.4 0  4.774999999999999 -0.4 0  4.7875 -0.4 0  4.8 -0.3833333333333333 0  4.8 -0.3666666666666666 0  4.8 -0.3499999999999999 0  4.8 -0.3333333333333333 0  4.8 -0.3166666666666665 0  4.8 -0.2999999999999998 0  4.8 -0.2833333333333331 0  4.8 -0.2666666666666664 0  4.8 -0.2499999999999998 0  4.8 -0.2333333333333331 0  4.8 -0.2166666666666665 0  4.8 -0.1999999999999999 0  4.8 -0.1833333333333332 0  4.8 -0.1666666666666665 0  4.8 -0.1499999999999998 0  4.8 -0.1333333333333331 0  4.8 -0.1166666666666665 0  4.8 -0.09999999999999987 0  4.8 -0.0833333333333332 0  4.8 -0.06666666666666654 0  4.8 -0.04999999999999988 0  4.8 -0.03333333333333327 0  4.8 -0.01666666666666661 0  0.1378568875240437 0 0  0.2729566377271358 0 0  0.4053543934976697 0 0  0.5351041938077431 0 0  0.6622589976130751 0 0  0.7868707053643811 0 0  0.9089901789958823 0 0  1.028667263218748 0 0  1.14595080597766 0 0  1.260888678095464 0 0  1.373527792852679 0 0  1.483914125496606 0 0  1.592092731258683 0 0  1.698107764821866 0 0  1.802002497531814 0 0  1.90381933543871 0 0  2.003599837235452 0 0  2.101384728705643 0 0  2.197213922283282 0 0  2.291126532207516 0 0  2.38316088991875 0 0  2.473354560839241 0 0  2.56174435771825 0 0  2.648366358500676 0 0  2.733255919649871 0 0  2.81644768934063 0 0  2.897975623365796 0 0  2.977872999136252 0 0  3.056172427651654 0 0  3.132905867173631 0 0  3.208104637720262 0 0  3.28179943290277 0 0  3.354020331980409 0 0  3.42479681287121 0 0  3.494157764630528 0 0  3.562131497303279 0 0  3.628745754972536 0 0  3.69402772750921 0 0  3.758004060518725 0 0  3.820700866964234 0 0  3.882143737648484 0 0  3.942357751260559 0 0  4.0013674
[...]
<PointData  Vectors="displacement"> 
<DataArray  type="Float64"  Name="displacement"  NumberOfComponents="3" format="ascii">0.0000000000000000e+00 0.0000000000000000e+00 0.0000000000000000e+00  -8.6044239440627240e-04 -1.3887614986496311e-05 0.0000000000000000e+00  0.0000000000000000e+00 0.0000000000000000e+00 0.0000000000000000e+00  8.6038693697947717e-04 -1.3899553985863505e-05 0.0000000000000000e+00  0.0000000000000000e+00 -5.0115799106700675e-03 0.0000000000000000e+00  0.0000000000000000e+00 -5.1227167212608412e-03 0.0000000000000000e+00  0.0000000000000000e+00 -5.0509498585957716e-03 0.0000000000000000e+00  0.0000000000000000e+00 -6.9943629265740073e-03 0.0000000000000000e+00  0.0000000000000000e+00 -6.9850254061022072e-03 0.0000000000000000e+00  0.0000000000000000e+00 -5.0504903156105936e-03 0.0000000000000000e+00  0.0000000000000000e+00 -5.1222485762821585e-03 0.0000000000000000e+00  0.0000000000000000e+00 -5.0111590830370714e-03 0.0000000000000000e+00  -2.3551651503319430e-04 -1.6472758718565208e-04 0.0000000000000000e+00  -4.3642117640935429e-04 -1.9981527048166162e-04 0.0000000000000000e+00  -5.9707614567421465e-04 -1.8349086043544489e-04 0.0000000000000000e+00  -7.1089573556471278e-04 -1.4016937341640234e-04 0.0000000000000000e+00  -7.8019419223929729e-04 -9.0427068957480209e-05 0.0000000000000000e+00  -8.1441428991552492e-04 -4.8214898462557570e-05 0.0000000000000000e+00  -8.2888025509959221e-04 -2.2538735749161750e-05 0.0000000000000000e+00  -8.4051951703120319e-04 -1.3775573432066890e-05 0.0000000000000000e+00  0.0000000000000000e+00 0.0000000000000000e+00 0.0000000000000000e+00  0.0000000000000000e+00 0.0000000000000000e+00 0.0000000000000000e+00  0.0000000000000000e+00 0.0000000000000000e+00 0.0000000000000000e+00  0.0000000000000000e+00 0.0000000000000000e+00 0.0000000000000000e+00  0.0000000000000000e+00 0.0000000000000000e+00 0.0000000000000000e+00  0.0000000000000000e+00 0.0000000000000000e+00 0.0000000000000000e+00  0.0000000000000000e+00 0.0000000000000000e+00 0.0000000000000000e+00  0.0000000000000000e+00 0.0000000000000000e+00 0.0000000000000000e+00  0.0000000000000000e+00 0.0000000000000000e+00 0.0000000000000000e+00  0.0000000000000000e+00 0.0000000000000000e+00 0.0000000000000000e+00  0.0000000000000000e+00 0.0000000000000000e+00 0.0000000000000000e+00  0.0000000000000000e+00 0.0000000000000000e+00 0.0000000000000000e+00  0.0000000000000000e+00 0.0000000000000000e+00 0.0000000000000000e+00  0.0000000000000000e+00 0.0000000000000000e+00 0.0000000000000000e+00  0.0000000000000000e+00 0.0000000000000000e+00 0.0000000000000000e+00  0.0000000000000000e+00 0.0000000000000000e+00 0.0000000000000000e+00  0.0000000000000000e+00 0.0000000000000000e+00 0.0000000000000000e+00  0.0000000000000000e+00 0.0000000000000000e+00 0.0000000000000000e+00  0.0000000000000000e+00 0.0000000000000000e+00 0.0000000000000000e+00  0.0000000000000000e+00 0.0000000000000000e+00 0.0000000000000000e+00  0.0000000000000000e+00 0.0000000000000000e+00 0.0000000000000000e+00  0.0000000000000000e+00 0.0000000000000000e+00 0.0000000000000000e+00  0.0000000000000000e+00 0.0000000000000000e+00 0.0000000000000000e+00  0.0000000000000000e+00 0.0000000000000000e+00 0.0000000000000000e+00  0.0000000000000000e+00 0.0000000000000000e+00 0.0000000000000000e+00  0.0000000000000000e+00 0.0000000000000000e+00 0.0000000000000000e+00  0.0000000000000000e+00 0.0000000000000000e+00 0.0000000000000000e+00  0.0000000000000000e+00 0.0000000000000000e+00 0.0000000000000000e+00  0.0000000000000000e+00 0.0000000000000000e+00 0.0000000000000000e+00  0.0000000000000000e+00 0.0000000000000000e+00 0.0000000000000000e+00  0.0000000000000000e+00 0.0000000000000000e+00 0.0000000000000000e+00  0.0000000000000000e+00 0.0000000000000000e+00 0.0000000000000000e+00  0.0000000000000000e+00 0.0000000000000000e+00 0.0000000000000000e+00  0.0000000000000000e+00 0.0000000000000000e+00 0.0000000000000000e+00  0.0000000000000000e+00 0.0000000000000000e+00 0.0000000000000000e+00  0.0000000000000000e+00 0.0000000000000000e+00 0.0000000000000000e+00  0.0000000000000000e+00 0.0000000000000000e+00 0.0000000000000000e+00  0.0000000000000000e+00 0.0000000000000000e+00 0.0000000000000000e+00  0.0000000000000000e+00 0.0000000000000000e+00 0.0000000000000000e+00  0.0000000000000000e+00 0.0000000000000000e+00 0.0000000000000000e+00  0.0000000000000000e+00 0.0000000000000000e+00 0.0000000000000000e+00  0.0000000000000000e+00 0.0000000000000000e+00 0.0000000000000000e+00  0.0000000000000000e+00 0.0000000000000000e+00 0.0000000000000000e+00  0.0000000000000000e+00 0.0000000000000000e+00 0.0000000000000000e+00  0.0000000000000000e+00 0.0000000000000000e+00 0.0000000000000000e+00  0.0000000000000000e+00 0.0000000000000000e+00 0.0000000000000000e+00  0.0000000000000000e+00 0.0000000000000000e+00 0.0000000000000000e+00  0.0000000000000000e+00 0.0000000000000000e+00 0.0000000000000000e+00  0.0000000000000000e+00 0.0000000000000000e+00 0.0000000000000000e+00  0.0000000000000000e+00 0.0000000000000000e+00 0.0000000000000000e+00  0.0000000000000000e+00 0.0000000000000000e+00 0.0000000000000000e+00  0.0000000000000000e+00 0.0000000000000000e+00 0.0000000000000000e+00  0.0000000000000000e+00 0.0000000000000000e+00 0.0000000000000000e+00  0.0000000000000000e+00 0.0000000000000000e+00 0.0000000000000000e+00  0.0000000000000000e+00 0.0000000000000000e+00 0.0000000000000000e+00  0.0000000000000000e+00 0.0000000000000000e+00 0.0000000000000000e+00  0.0000000000000000e+00 0.0000000000000000e+00 0.0000000000000000e+00  0.0000000000000000e+00 0.0000000000000000e+00 0.0000000000000000e+00  0.0000000000000000e+00 0.0000000000000000e+00 0.0000000000000000e+00  0.0000000000000000e+00 0.0000000000000000e+00 0.0000000000000000e+00  0.0000000000000000e+00 0.0000000000000000e+00 0.0000000000000000e+00  0.0000000000000000e+00 0.0000000000000000e+00 0.0000000000000000e+00  0.0000000000000000e+00 0.0000000000000000e+00 0.0000000000000000e+00  0.0000000000000000e+00 0.0000000000000000e+00 0.0000000000000000e+00  0.0000000000000000e+00 0.0000000000000000e+00 0.0000000000000000e+00  0.0000000000000000e+00 0.0000000000000000e+00 0.0000000000000000e+00  0.0000000000000000e+00 0.0000000000000000e+00 0.0000000000000000e+00  0.0000000000000000e+00 0.0000000000000000e+00 0.0000000000000000e+00  0.0000000000000000e+00 0.0000000000000000e+00 0.0000000000000000e+00  0.0000000000000000e+00 0.0000000000000000e+00 0.0000000000000000e+00  0.0000000000000000e+00 0.0000000000000000e+00 0.0000000000000000e+00  0.0000000000000000e+00 0.0000000000000000e+00 0.0000000000000000e+00  0.0000000000000000e+00 0.0000000000000000e+00 0.0000000000000000e+00  0.0000000000000000e+00 0.0000000000000000e+00 0.0000000000000000e+00  0.0000000000000000e+00 0.0000000000000000e+00 0.0000000000000000e+00  0.0000000000000000e+00 0.0000000000000000e+00 0.0000000000000000e+00  0.0000000000000000e+00 0.0000000000000000e+00 0.0000000000000000e+00  0.0000000000000000e+00 0.0000000000000000e+00 0.0000000000000000e+00  8.4042148635292261e-04 -1.3838071312044759e-05 0.0000000000000000e+00  8.2885377600260652e-04 -2.2426046721749969e-05 0.0000000000000000e+00  8.1438801656350934e-04 -4.8202115301844580e-05 0.0000000000000000e+00  7.8023476917412357e-04 -9.0413136944570365e-05 0.0000000000000000e+00  7.1096706943810908e-04 -1.4002436552698624e-04 0.0000000000000000e+00  5.9703879346126104e-04 -1.8371634762832196e-04 0.0000000000000000e+00  4.3631965749482812e-04 -1.9997502837721323e-04 0.0000000000000000e+00  2.3575976607180546e-04 -1.6462476155545627e-04 0.0000000000000000e+00  -6.8405786865780222e-05 -5.0076679321130807e-03 0.0000000000000000e+00  -1.3876886457238607e-04 -4.9954344675857340e-03 0.0000000000000000e+00  -2.1163295824383558e-04 -4.9738459492534789e-03 0.0000000000000000e+00  -2.8751718448495790e-04 -4.9413759430269842e-03 0.0000000000000000e+00  -3.6667025632146870e-04 -4.8959407495900633e-03 0.0000000000000000e+00  -4.4889494863231498e-04 -4.8350041670021130e-03 0.0000000000000000e+00  -5.3315302658539943e-04 -4.7556923868131949e-03 0.0000000000000000e+00  -6.1757917282186808e-04 -4.6553013048505039e-03 0.0000000000000000e+00  -6.9931755880379520e-04 -4.5319127597448303e-03 0.0000000000000000e+00  -7.7496813067151876e-04 -4.3848341650706210e-03 0.0000000000000000e+00  -8.4090835444497046e-04 -4.2150170780413674e-03 0.0000000000000000e+00  -8.9413134817447552e-04 -4.0249372593180238e-03 0.0000000000000000e+00  -9.3239190860158782e-04 -3.8182834884159860e-03 0.0000000000000000e+00  -9.5456859203257784e-04 -3.5994022781942127e-03 0.0000000000000000e+00  -9.6059830612726894e-04 -3.3728018550017794e-03 0.0000000000000000e+00  -9.5115390058828834e-04 -3.1427247246568271e-03 0.0000000000000000e+00  -9.2783999178388285e-04 -2.9129545726228495e-03 0.0000000000000000e+00  -8.9215713419827411e-04 -2.6865640047697707e-03 0.0000000000000000e+00  -8.4608597021745813e-04 -2.4660049422660733e-03 0.0000000000000000e+00  -7.9156991457739851e-04 -2.2531316261132990e-03 0.0000000000000000e+00  -7.3031920571309998e-04 -2.0492453865564903e-03 0.0000000000000000e+00  -6.6401173742829469e-04 -1.8552071376105616e-03 0.0000000000000000e+00  -5.9399574787566043e-04 -1.6715425665074523e-03 0.0000000000000000e+00  -5.2158721653775832e-04 -1.4985008867606981e-03 0.0000000000000000e+00  -4.4771695189503634e-04 -1.3361466158950826e-03 0.0000000000000000e+00  -3.7330143954275786e-04 -1.1843770334820445e-03 0.0000000000000000e+00  -2.9904324383054720e-04 -1.0429980885226925e-03 0.0000000000000000e+00  -2.2551928014010773e-04 -9.1173953015696169e-04 0.0000000000000000e+00  -1.5314802896999679e-04 -7.9031033897550404e-04 0.0000000000000000e+00  -8.2356962001190549e-05 -6.7837132189288874e-04 0.0000000000000000e+00  -1.3415150049784026e-05 -5.7556807008412160e-04 0.0000000000000000e+00  5.3440623675771546e-05 -4.8155125176616731e-04 0.0000000000000000e+00  1.1802708275599004e-04 -3.9596817063849597e-04 0.0000000000000000e+00  1.8019805582176752e-04 -3.1846821575299709e-04 0.0000000000000000e+00  2.3984988375950035e-04 -2.4869454143840668e-04 0.0000000000000000e+00  2.9689519565107345e-04 -1.8632857270854794e-04 0.0000000000000000e+00  3.5126541196272610e-04 -1.3102900507532447e-04 0.0000000000000000e+00  4.0293149429201995e-04 -8.2461031679948645e-05 0.0000000000000000e+00  4.5184047631684009e-04 -4.0307394299732871e-05 0.0000000000000000e+00  4.9799328706065472e-04 -4.2489761756453772e-06 0.0000000000000000e+00  5.4135314578431589e-04 2.6023766059523756e-05 0.0000000000000000e+00  5.8193151191766358e-04 5.0827487374687300e-05 0.0000000000000000e+00  6.1972133788824283e-04 7.0478331202893126e-05 0.0000000000000000e+00  6.5472427563196915e-04 8.5287306789977047e-05 0.0000000000000000e+00  6.8694558768880648e-04 9.5572661859178194e-05 0.0000000000000000e+00  7.1638804227446853e-04 1.0165644021180529e-04 0.0000000000000000e+00  7.4304884956185343e-04 1.0387322137498255e-04 0.0000000000000000e+00  7.6694769074248917e-04 1.0258037207065441e-04 0.0000000000000000e+00  7.8806162526296776e-04 9.8131516413822010e-05 0.0000000000000000e+00  8.0639718488748015e-04 9.0930655512017007e-05 0.0000000000000000e+00  8.2195790790529685e-04 8.1409412134579495e-05 0.0000000000000000e+00  8.3474576587659155e-04 7.0039139384627197e-05 0.0000000000000000e+00  8.4479513900642623e-04 5.7352448843759105e-05 0.0000000000000000e+00  8.5217788965894024e-04 4.3932770132057348e-05 0.0000000000000000e+00  8.5704202319672061e-04 3.0426160191703835e-05 0.0000000000000000e+00  8.5966273092884162e-04 1.7490134356840507e-05 0.0000000000000000e+00  8.6056206546858459e-04 5.7303201062652737e-06 0.0000000000000000e+00  8.6043364063812466e-04 -4.4753870936463692e-06 0.0000000000000000e+00  0.0000000000000000e+00 -5.0227447572297008e-03 0.0000000000000000e+00  0.0000000000000000e+00 -5.0333489341379987e-03 0.0000000000000000e+00  0.0000000000000000e+00 -5.0433516520230716e-03 0.0000000000000000e+00  0.0000000000000000e+00 -5.0527253119398638e-03 0.0000000000000000e+00  0.0000000000000000e+00 -5.0614497662210623e-03 0.0000000000000000e+00  0.0000000000000000e+00 -5.0695146900807024e-03 0.0000000000000000e+00  0.0000000000000000e+00 -5.0769167888048417e-03 0.0000000000000000e+00  0.0000000000000000e+00 -5.0836595273933520e-03 0.0000000000000000e+00  0.0000000000000000e+00 -5.0897521310239108e-03 0.0000000000000000e+00  0.0000000000000000e+00 -5.0952100327260278e-03 0.0000000000000000e+00  0.0000000000000000e+00 -5.1000527495442720e-03 0.0000000000000000e+00  0.0000000000000000e+00 -5.1043056893283955e-03 0.0000000000000000e+00  0.0000000000000000e+00 -5.1079974690317028e-03 0.0000000000000000e+00  0.0000000000000000e+00 -5.1111621750301673e-03 0.0000000000000000e+00  0.0000000000000000e+00 -5.1138376295966920e-03 0.0000000000000000e+00  0.0000000000000000e+00 -5.1160626247571369e-03 0.0000000000000000e+00  0.0000000000000000e+00 -5.1178823855438666e-03 0.0000000000000000e+00  0.0000000000000000e+00 -5.1193399709021656e-03 0.0000000000000000e+00  0.0000000000000000e+00 -5.1204798040474517e-03 0.0000000000000000e+00  0.0000000000000000e+00 -5.1213439671403144e-03 0.0000000000000000e+00  0.0000000000000000e+00 -5.1219715484827439e-03 0.0000000000000000e+00  0.0000000000000000e+00 -5.1223942168449280e-03 0.0000000000000000e+00  0.0000000000000000e+00 -5.1226374893270010e-03 0.0000000000000000e+00  0.0000000000000000e+00 -5.1224079705859968e-03 0.0000000000000000e+00  0.0000000000000000e+00 -5.1214827291376592e-03 0.0000000000000000e+00  0.0000000000000000e+00 -5.1199443036984496e-03 0.0000000000000000e+00  0.0000000000000000e+00 -5.1177982842090363e-03 0.0000000000000000e+00  0.0000000000000000e+00 -5.1150527887642979e-03 0.0000000000000000e+00  0.0000000000000000e+00 -5.1117186351897657e-03 0.0000000000000000e+00  0.0000000000000000e+00 -5.1078103454727459e-03 0.0000000000000000e+00  0.0000000000000000e+00 -5.1033456760846774e-03 0.0000000000000000e+00  0.0000000000000000e+00 -5.0983471779546524e-03 0.0000000000000000e+00  0.0000000000000000e+00 -5.0928428949265046e-03 0.0000000000000000e+00  0.0000000000000000e+00 -5.0868676738703798e-03 0.0000000000000000e+00  0.0000000000000000e+00 -5.0804650709336836e-03 0.0000000000000000e+00  0.0000000000000000e+00 -5.0736893224419934e-03 0.0000000000000000e+00  0.0000000000000000e+00 -5.0666087824618716e-03 0.0000000000000000e+00  0.0000000000000000e+00 -5.0593109582901877e-03 0.0000000000000000e+00  0.0000000000000000e+00 -5.0519085931667283e-03 0.0000000000000000e+00  0.0000000000000000e+00 -5.0445514598547432e-03 0.0000000000000000e+00  0.0000000000000000e+00 -5.0374426076076418e-03 0.0000000000000000e+00  0.0000000000000000e+00 -5.0308681559095422e-03 0.0000000000000000e+00  0.0000000000000000e+00 -5.0252485371340069e-03 0.0000000000000000e+00  0.0000000000000000e+00 -5.0212676712747843e-03 0.0000000000000000e+00  0.0000000000000000e+00 -5.0201383039118769e-03 0.0000000000000000e+00  0.0000000000000000e+00 -5.0248144114543522e-03 0.0000000000000000e+00  0.0000000000000000e+00 -5.0786121431682738e-03 0.0000000000000000e+00  0.0000000000000000e+00 -5.0996687816030868e-03 0.0000000000000000e+00  0.0000000000000000e+00 -5.1203136085273869e-03 0.0000000000000000e+00  0.0000000000000000e+00 -5.1413766200255765e-03 0.0000000000000000e+00  0.0000000000000000e+00 -5.1632014513234492e-03 0.0000000000000000e+00  0.0000000000000000e+00 -5.1859850716813741e-03 0.0000000000000000e+00  0.0000000000000000e+00 -5.2099016497626988e-03 0.0000000000000000e+00  0.0000000000000000e+00 -5.2350914795701144e-03 0.0000000000000000e+00  0.0000000000000000e+00 -5.2617127315580372e-03 0.0000000000000000e+00  0.0000000000000000e+00 -5.2899186041416501e-03 0.0000000000000000e+00  0.0000000000000000e+00 -5.3199111541824525e-03 0.0000000000000000e+00  0.0000000000000000e+00 -5.3518480576449671e-03 0.0000000000000000e+00  0.0000000000000000e+00 -5.3859918616170040e-03 0.0000000000000000e+00  0.0000000000000000e+00 -5.4227616768686357e-03 0.0000000000000000e+00  0.0000000000000000e+00 -5.4640225816742199e-03 0.0000000000000000e+00  0.0000000000000000e+00 -5.5112101700629237e-03 0.0000000000000000e+00  0.0000000000000000e+00 -5.5660764231814132e-03 0.0000000000000000e+00  0.0000000000000000e+00 -5.6310375876885126e-03 0.0000000000000000e+00  0.0000000000000000e+00 -5.7087700194374232e-03 0.0000000000000000e+00  0.0000000000000000e+00 -5.8035106535269327e-03 0.0000000000000000e+00  0.0000000000000000e+00 -5.9224576207703794e-03 0.0000000000000000e+00  0.0000000000000000e+00 -6.0669192150192737e-03 0.0000000000000000e+00  0.0000000000000000e+00 -6.3514110992360095e-03 0.0000000000000000e+00  -8.1095490655376350e-04 -1.0067129091645872e-02 0.0000000000000000e+00  -9.1672846305618661e-04 -1.1327745336491234e-02 0.0000000000000000e+00  -9.8920679086083392e-04 -1.2168917854727963e-02 0.0000000000000000e+00  -1.0139709211818271e-03 -1.2838969926269359e-02 0.0000000000000000e+00  -1.0114337304138830e-03 -1.3396303935128154e-02 0.0000000000000000e+00  -9.9381307188757648e-04 -1.3874490918739733e-02 0.0000000000000000e+00  -9.6588585386160977e-04 -1.4293274973655420e-02 0.0000000000000000e+00  -9.3070762003174613e-04 -1.4664409487944417e-02 0.0000000000000000e+00  -8.9013639727134844e-04 -1.4995904422361581e-02 0.0000000000000000e+00  -8.4534157063492505e-04 -1.5293359820698946e-02 0.0000000000000000e+00  -7.9719319413613856e-04 -1.5560854654655815e-02 0.0000000000000000e+00  -7.4630322060138842e-04 -1.5801473078785603e-02 0.0000000000000000e+00  -6.9315341615115104e-04 -1.6017587850010818e-02 0.0000000000000000e+00  -6.3810730310288671e-04 -1.6211075965545003e-02 0.0000000000000000e+00  -5.8145857256203801e-04 -1.6383425642995143e-02 0.0000000000000000e+00  -5.2345892012979503e-04 -1.6535846432552886e-02 0.0000000000000000e+00  -4.6432474926122989e-04 -1.6669291261791341e-02 0.0000000000000000e+00  -4.0422977569328053e-04 -1.6784557051764754e-02 0.0000000000000000e+00  -3.4333682820731433e-04 -1.6882296804402220e-02 0.0000000000000000e+00  -2.8179593250071537e-04 -1.6963027647014742e-02 0.0000000000000000e+00  -2.1973760479771171e-04 -1.7027159192810507e-02 0.0000000000000000e+00  -1.5729013781324482e-04 -1.7074991376423071e-02 0.0000000000000000e+00  -9.4564224383592149e-05 -1.7106761859589942e-02 0.0000000000000000e+00  -3.1669442912210988e-05 -1.7122624884175864e-02 0.0000000000000000e+00  3.1271652312066158e-05 -1.7122640445645747e-02 0.0000000000000000e+00  9.4161011452595337e-05 -1.7106814673567564e-02 0.0000000000000000e+00  1.5689445684195072e-04 -1.7075077005548705e-02 0.0000000000000000e+00  2.1934098373051539e-04 -1.7027273705887590e-02 0.0000000000000000e+00  2.8139768992738070e-04 -1.6963182123059029e-02 0.0000000000000000e+00  3.4293991811973145e-04 -1.6882481737708288e-02 0.0000000000000000e+00  4.0383818283224945e-04 -1.6784768391808709e-02 0.0000000000000000e+00  4.6393625687717559e-04 -1.6669528799845870e-02 0.0000000000000000e+00  5.2307458490540818e-04 -1.6536099130384545e-02 0.0000000000000000e+00  5.8108538017168023e-04 -1.6383704548293548e-02 0.0000000000000000e+00  6.3774594203438962e-04 -1.6211367913204260e-02 0.0000000000000000e+00  6.9280402850186633e-04 -1.6017906201471144e-02 0.0000000000000000e+00  7.4595443145301205e-04 -1.5801814002268003e-02 0.0000000000000000e+00  7.9682184824168389e-04 -1.5561225383265575e-02 0.0000000000000000e+00  8.4492091098217206e-04 -1.5293740547546422e-02 0.0000000000000000e+00  8.8976942635062819e-04 -1.4996334616990212e-02 0.0000000000000000e+00  9.3033781703645406e-04 -1.4664882154317950e-02 0.0000000000000000e+00  9.6546977247314236e-04 -1.4293831324269984e-02 0.0000000000000000e+00  9.9330307043874193e-04 -1.3875082316239015e-02 0.0000000000000000e+00  1.0108866117892847e-03 -1.3396575057650526e-02 0.0000000000000000e+00  1.0131644643404051e-03 -1.2839155482203041e-02 0.0000000000000000e+00  9.8878702386356594e-04 -1.2169852511714908e-02 0.0000000000000000e+00  9.1509111984524336e-04 -1.1325232025337298e-02 0.0000000000000000e+00  8.0857366563532782e-04 -1.005