<?xml version="1.0"?>
<VTKFile type="UnstructuredGrid"  version="0.1"  >
<UnstructuredGrid>
<Piece  NumberOfPoints="6382" NumberOfCells="12354">
<Points>
<DataArray  type="Float64"  NumberOfComponents="3"  format="ascii">0 -3 0  0 0 0  10 -3 0  10 0 0  5.2 0 0  5.2 -0.4 0  5.5 -0.4 0  5.5 -0.6000000000000001 0  4.5 -0.6000000000000001 0  4.5 -0.4 0  4.8 -0.4 0  4.8 0 0  0 -2.666666666666667 0  0 -2.333333333333333 0  0 -2 0  0 -1.666666666666667 0  0 -1.333333333333333 0  0 -1 0  0 -0.666666666666667 0  0 -0.3333333333333335 0  9.836518447033493 -3 0  9.676485174132324 -3 0  9.519716728676565 -3 0  9.366040597429432 -3 0  9.215293522901804 -3 0  9.067325347766827 -3 0  8.921978167503752 -3 0  8.779125793186953 -3 0  8.638633440048579 -3 0  8.500376249002967 -3 0  8.364235730108557 -3 0  8.230099119300583 -3 0  8.097858693472926 -3 0  7.96741165420296 -3 0  7.838659590098249 -3 0  7.711508416266758 -3 0  7.585867779025237 -3 0  7.461651037321721 -3 0  7.338774694871047 -3 0  7.217158563845377 -3 0  7.096725097152937 -3 0  6.977399455051415 -3 0  6.859109304538208 -3 0  6.741784490575633 -3 0  6.625356935727237 -3 0  6.509760461250432 -3 0  6.394930659317325 -3 0  6.2808046903675 -3 0  6.167321173775116 -3 0  6.054420032640893 -3 0  5.942042373994132 -3 0  5.830130346471836 -3 0  5.718627047087892 -3 0  5.607476358937133 -3 0  5.496622874861212 -3 0  5.386011773348871 -3 0  5.275588701244851 -3 0  5.1652996754838 -3 0  5.055090972556302 -3 0  4.944909027443701 -3 0  4.834700324516204 -3 0  4.724411298755151 -3 0  4.613988226651132 -3 0  4.50337712513879 -3 0  4.392523641062869 -3 0  4.281372952912111 -3 0  4.169869653528168 -3 0  4.05795762600587 -3 0  3.94557996735911 -3 0  3.832678826224885 -3 0  3.719195309632506 -3 0  3.605069340682676 -3 0  3.490239538749567 -3 0  3.374643064272765 -3 0  3.25821550942437 -3 0  3.140890695461794 -3 0  3.022600544948583 -3 0  2.903274902847057 -3 0  2.782841436154621 -3 0  2.661225305128949 -3 0  2.538348962678273 -3 0  2.414132220974763 -3 0  2.288491583733238 -3 0  2.161340409901745 -3 0  2.032588345797035 -3 0  1.902141306527067 -3 0  1.76990088069941 -3 0  1.63576426989143 -3 0  1.499623750997021 -3 0  1.361366559951406 -3 0  1.220874206813038 -3 0  1.078021832496241 -3 0  0.9326746522331657 -3 0  0.7847064770981866 -3 0  0.6339594025705644 -3 0  0.4802832713234277 -3 0  0.3235148258676688 -3 0  0.1634815529665037 -3 0  10 -0.3333333333333333 0  10 -0.6666666666666666 0  10 -1 0  10 -1.333333333333333 0  10 -1.666666666666667 0  10 -2 0  10 -2.333333333333333 0  10 -2.666666666666667 0  5.242711110725164 0 0  5.286293876642154 0 0  5.330766086609641 0 0  5.37614589213589 0 0  5.422451816439484 0 0  5.469702760205794 0 0  5.517918009017504 0 0  5.567117241892008 0 0  5.617320540096343 0 0  5.668548395644089 0 0  5.720821717893487 0 0  5.774161842649544 0 0  5.828590541642586 0 0  5.88413003019757 0 0  5.940802977381058 0 0  5.998632515893446 0 0  6.057642249375406 0 0  6.117856262977496 0 0  6.179299133651088 0 0  6.241995940085244 0 0  6.305972273082686 0 0  6.371254245606542 0 0  6.43786850326221 0 0  6.505842235920577 0 0  6.575203187664691 0 0  6.645979668539436 0 0  6.71820056760014 0 0  6.791895362764803 0 0  6.867094133292654 0 0  6.943827572794882 0 0  7.022127001289535 0 0  7.10202437703821 0 0  7.183552311040527 0 0  7.266744080707336 0 0  7.351633641831447 0 0  7.438255642584554 0 0  7.526645439439152 0 0  7.616839110330926 0 0  7.708873468012155 0 0  7.802786077905059 0 0  7.898615271449994 0 0  7.996400162886068 0 0  8.096180664647234 0 0  8.197997502517053 0 0  8.301892235188374 0 0  8.407907268711336 0 0  8.516085874431543 0 0  8.626472207031901 0 0  8.739111321743804 0 0  8.854049193814495 0 0  8.971332736524433 0 0  9.091009820696414 0 0  9.21312929427506 0 0  9.337741001971482 0 0  9.464895805719847 0 0  9.594645605970797 0 0  9.727043361679982 0 0  9.862143111819449 0 0  5.2 -0.01666666666666669 0  5.2 -0.03333333333333339 0  5.2 -0.05000000000000009 0  5.2 -0.06666666666666679 0  5.2 -0.0833333333333335 0  5.2 -0.1000000000000002 0  5.2 -0.1166666666666669 0  5.2 -0.1333333333333336 0  5.2 -0.1500000000000002 0  5.2 -0.1666666666666669 0  5.2 -0.1833333333333335 0  5.2 -0.2000000000000001 0  5.2 -0.2166666666666668 0  5.2 -0.2333333333333335 0  5.2 -0.2500000000000002 0  5.2 -0.2666666666666669 0  5.2 -0.2833333333333335 0  5.2 -0.3000000000000002 0  5.2 -0.3166666666666668 0  5.2 -0.3333333333333335 0  5.2 -0.3500000000000001 0  5.2 -0.3666666666666668 0  5.2 -0.3833333333333334 0  5.2125 -0.4 0  5.225 -0.4 0  5.2375 -0.4 0  5.25 -0.4 0  5.2625 -0.4 0  5.275 -0.4 0  5.2875 -0.4 0  5.3 -0.4 0  5.3125 -0.4 0  5.325 -0.4 0  5.337499999999999 -0.4 0  5.35 -0.4 0  5.3625 -0.4 0  5.375 -0.4 0  5.3875 -0.4 0  5.4 -0.4 0  5.4125 -0.4 0  5.425 -0.4 0  5.4375 -0.4 0  5.45 -0.4 0  5.4625 -0.4 0  5.475 -0.4 0  5.4875 -0.4 0  5.5 -0.4083333333333334 0  5.5 -0.4166666666666667 0  5.5 -0.425 0  5.5 -0.4333333333333334 0  5.5 -0.4416666666666668 0  5.5 -0.4500000000000001 0  5.5 -0.4583333333333334 0  5.5 -0.4666666666666668 0  5.5 -0.4750000000000001 0  5.5 -0.4833333333333335 0  5.5 -0.4916666666666668 0  5.5 -0.5000000000000002 0  5.5 -0.5083333333333335 0  5.5 -0.5166666666666668 0  5.5 -0.5250000000000002 0  5.5 -0.5333333333333335 0  5.5 -0.5416666666666669 0  5.5 -0.5500000000000002 0  5.5 -0.5583333333333335 0  5.5 -0.5666666666666668 0  5.5 -0.5750000000000002 0  5.5 -0.5833333333333335 0  5.5 -0.5916666666666668 0  5.479591836734694 -0.6000000000000001 0  5.459183673469388 -0.6000000000000001 0  5.438775510204081 -0.6000000000000001 0  5.418367346938775 -0.6000000000000001 0  5.397959183673469 -0.6000000000000001 0  5.377551020408164 -0.6000000000000001 0  5.357142857142857 -0.6000000000000001 0  5.336734693877551 -0.6000000000000001 0  5.316326530612245 -0.6000000000000001 0  5.295918367346939 -0.6000000000000001 0  5.275510204081633 -0.6000000000000001 0  5.255102040816326 -0.6000000000000001 0  5.23469387755102 -0.6000000000000001 0  5.214285714285714 -0.6000000000000001 0  5.193877551020408 -0.6000000000000001 0  5.173469387755102 -0.6000000000000001 0  5.153061224489796 -0.6000000000000001 0  5.13265306122449 -0.6000000000000001 0  5.112244897959184 -0.6000000000000001 0  5.091836734693878 -0.6000000000000001 0  5.071428571428571 -0.6000000000000001 0  5.051020408163265 -0.6000000000000001 0  5.030612244897959 -0.6000000000000001 0  5.010204081632653 -0.6000000000000001 0  4.989795918367347 -0.6000000000000001 0  4.969387755102041 -0.6000000000000001 0  4.948979591836735 -0.6000000000000001 0  4.928571428571429 -0.6000000000000001 0  4.908163265306122 -0.6000000000000001 0  4.887755102040816 -0.6000000000000001 0  4.86734693877551 -0.6000000000000001 0  4.846938775510204 -0.6000000000000001 0  4.826530612244898 -0.6000000000000001 0  4.806122448979592 -0.6000000000000001 0  4.785714285714286 -0.6000000000000001 0  4.76530612244898 -0.6000000000000001 0  4.744897959183674 -0.6000000000000001 0  4.724489795918368 -0.6000000000000001 0  4.704081632653061 -0.6000000000000001 0  4.683673469387755 -0.6000000000000001 0  4.663265306122449 -0.6000000000000001 0  4.642857142857143 -0.6000000000000001 0  4.622448979591836 -0.6000000000000001 0  4.602040816326531 -0.6000000000000001 0  4.581632653061225 -0.6000000000000001 0  4.561224489795919 -0.6000000000000001 0  4.540816326530612 -0.6000000000000001 0  4.520408163265306 -0.6000000000000001 0  4.5 -0.5916666666666668 0  4.5 -0.5833333333333334 0  4.5 -0.5750000000000001 0  4.5 -0.5666666666666668 0  4.5 -0.5583333333333333 0  4.5 -0.55 0  4.5 -0.5416666666666667 0  4.5 -0.5333333333333333 0  4.5 -0.525 0  4.5 -0.5166666666666666 0  4.5 -0.5083333333333333 0  4.5 -0.4999999999999999 0  4.5 -0.4916666666666666 0  4.5 -0.4833333333333332 0  4.5 -0.4749999999999999 0  4.5 -0.4666666666666666 0  4.5 -0.4583333333333333 0  4.5 -0.45 0  4.5 -0.4416666666666667 0  4.5 -0.4333333333333333 0  4.5 -0.425 0  4.5 -0.4166666666666667 0  4.5 -0.4083333333333334 0  4.5125 -0.4 0  4.525 -0.4 0  4.5375 -0.4 0  4.55 -0.4 0  4.5625 -0.4 0  4.575 -0.4 0  4.587499999999999 -0.4 0  4.6 -0.4 0  4.6125 -0.4 0  4.625 -0.4 0  4.637499999999999 -0.4 0  4.649999999999999 -0.4 0  4.6625 -0.4 0  4.675 -0.4 0  4.6875 -0.4 0  4.699999999999999 -0.4 0  4.712499999999999 -0.4 0  4.725 -0.4 0  4.7375 -0.4 0  4.75 -0.4 0  4.7625 -0.4 0  4.774999999999999 -0.4 0  4.7875 -0.4 0  4.8 -0.3833333333333333 0  4.8 -0.3666666666666666 0  4.8 -0.3499999999999999 0  4.8 -0.3333333333333333 0  4.8 -0.3166666666666665 0  4.8 -0.2999999999999998 0  4.8 -0.2833333333333331 0  4.8 -0.2666666666666664 0  4.8 -0.2499999999999998 0  4.8 -0.2333333333333331 0  4.8 -0.2166666666666665 0  4.8 -0.1999999999999999 0  4.8 -0.1833333333333332 0  4.8 -0.1666666666666665 0  4.8 -0.1499999999999998 0  4.8 -0.1333333333333331 0  4.8 -0.1166666666666665 0  4.8 -0.09999999999999987 0  4.8 -0.0833333333333332 0  4.8 -0.06666666666666654 0  4.8 -0.04999999999999988 0  4.8 -0.03333333333333327 0  4.8 -0.01666666666666661 0  0.1378568875240437 0 0  0.2729566377271358 0 0  0.4053543934976697 0 0  0.5351041938077431 0 0  0.6622589976130751 0 0  0.7868707053643811 0 0  0.9089901789958823 0 0  1.028667263218748 0 0  1.14595080597766 0 0  1.260888678095464 0 0  1.373527792852679 0 0  1.483914125496606 0 0  1.592092731258683 0 0  1.698107764821866 0 0  1.802002497531814 0 0  1.90381933543871 0 0  2.003599837235452 0 0  2.101384728705643 0 0  2.197213922283282 0 0  2.291126532207516 0 0  2.38316088991875 0 0  2.473354560839241 0 0  2.56174435771825 0 0  2.648366358500676 0 0  2.733255919649871 0 0  2.81644768934063 0 0  2.897975623365796 0 0  2.977872999136252 0 0  3.056172427651654 0 0  3.132905867173631 0 0  3.208104637720262 0 0  3.28179943290277 0 0  3.354020331980409 0 0  3.42479681287121 0 0  3.494157764630528 0 0  3.562131497303279 0 0  3.628745754972536 0 0  3.69402772750921 0 0  3.758004060518725 0 0  3.820700866964234 0 0  3.882143737648484 0 0  3.942357751260559 0 0  4.0013674
[...]
<PointData  Vectors="displacement"> 
<DataArray  type="Float64"  Name="displacement"  NumberOfComponents="3" format="ascii">0.0000000000000000e+00 0.0000000000000000e+00 0.0000000000000000e+00  -8.0876643246890136e-05 7.6506292431864113e-05 0.0000000000000000e+00  0.0000000000000000e+00 0.0000000000000000e+00 0.0000000000000000e+00  8.0920778535034147e-05 7.6483288372301169e-05 0.0000000000000000e+00  0.0000000000000000e+00 -2.1298771052554915e-03 0.0000000000000000e+00  0.0000000000000000e+00 -2.2050980898386547e-03 0.0000000000000000e+00  0.0000000000000000e+00 -2.1441925564723427e-03 0.0000000000000000e+00  0.0000000000000000e+00 -2.6783105357003185e-03 0.0000000000000000e+00  0.0000000000000000e+00 -2.6774981610107628e-03 0.0000000000000000e+00  0.0000000000000000e+00 -2.1440097421610163e-03 0.0000000000000000e+00  0.0000000000000000e+00 -2.2049157380025870e-03 0.0000000000000000e+00  0.0000000000000000e+00 -2.1297023963251604e-03 0.0000000000000000e+00  -5.7492454838201876e-05 -3.0642741318948443e-05 0.0000000000000000e+00  -1.0627554854320104e-04 -2.5748769885975407e-05 0.0000000000000000e+00  -1.3926731688504679e-04 -6.4858936448268501e-06 0.0000000000000000e+00  -1.5404247194772169e-04 1.8927761937547208e-05 0.0000000000000000e+00  -1.5207699905552463e-04 4.3483440708987902e-05 0.0000000000000000e+00  -1.3758980483973655e-04 6.2524262114758148e-05 0.0000000000000000e+00  -1.1692845058661541e-04 7.3341140806414286e-05 0.0000000000000000e+00  -9.6760374483223282e-05 7.6688594407057478e-05 0.0000000000000000e+00  0.0000000000000000e+00 0.0000000000000000e+00 0.0000000000000000e+00  0.0000000000000000e+00 0.0000000000000000e+00 0.0000000000000000e+00  0.0000000000000000e+00 0.0000000000000000e+00 0.0000000000000000e+00  0.0000000000000000e+00 0.0000000000000000e+00 0.0000000000000000e+00  0.0000000000000000e+00 0.0000000000000000e+00 0.0000000000000000e+00  0.0000000000000000e+00 0.0000000000000000e+00 0.0000000000000000e+00  0.0000000000000000e+00 0.0000000000000000e+00 0.0000000000000000e+00  0.0000000000000000e+00 0.0000000000000000e+00 0.0000000000000000e+00  0.0000000000000000e+00 0.0000000000000000e+00 0.0000000000000000e+00  0.0000000000000000e+00 0.0000000000000000e+00 0.0000000000000000e+00  0.0000000000000000e+00 0.0000000000000000e+00 0.0000000000000000e+00  0.0000000000000000e+00 0.0000000000000000e+00 0.0000000000000000e+00  0.0000000000000000e+00 0.0000000000000000e+00 0.0000000000000000e+00  0.0000000000000000e+00 0.0000000000000000e+00 0.0000000000000000e+00  0.0000000000000000e+00 0.0000000000000000e+00 0.0000000000000000e+00  0.0000000000000000e+00 0.0000000000000000e+00 0.0000000000000000e+00  0.0000000000000000e+00 0.0000000000000000e+00 0.0000000000000000e+00  0.0000000000000000e+00 0.0000000000000000e+00 0.0000000000000000e+00  0.0000000000000000e+00 0.0000000000000000e+00 0.0000000000000000e+00  0.0000000000000000e+00 0.0000000000000000e+00 0.0000000000000000e+00  0.0000000000000000e+00 0.0000000000000000e+00 0.0000000000000000e+00  0.0000000000000000e+00 0.0000000000000000e+00 0.0000000000000000e+00  0.0000000000000000e+00 0.0000000000000000e+00 0.0000000000000000e+00  0.0000000000000000e+00 0.0000000000000000e+00 0.0000000000000000e+00  0.0000000000000000e+00 0.0000000000000000e+00 0.0000000000000000e+00  0.0000000000000000e+00 0.0000000000000000e+00 0.0000000000000000e+00  0.0000000000000000e+00 0.0000000000000000e+00 0.0000000000000000e+00  0.0000000000000000e+00 0.0000000000000000e+00 0.0000000000000000e+00  0.0000000000000000e+00 0.0000000000000000e+00 0.0000000000000000e+00  0.0000000000000000e+00 0.0000000000000000e+00 0.0000000000000000e+00  0.0000000000000000e+00 0.0000000000000000e+00 0.0000000000000000e+00  0.0000000000000000e+00 0.0000000000000000e+00 0.0000000000000000e+00  0.0000000000000000e+00 0.0000000000000000e+00 0.0000000000000000e+00  0.0000000000000000e+00 0.0000000000000000e+00 0.0000000000000000e+00  0.0000000000000000e+00 0.0000000000000000e+00 0.0000000000000000e+00  0.0000000000000000e+00 0.0000000000000000e+00 0.0000000000000000e+00  0.0000000000000000e+00 0.0000000000000000e+00 0.0000000000000000e+00  0.0000000000000000e+00 0.0000000000000000e+00 0.0000000000000000e+00  0.0000000000000000e+00 0.0000000000000000e+00 0.0000000000000000e+00  0.0000000000000000e+00 0.0000000000000000e+00 0.0000000000000000e+00  0.0000000000000000e+00 0.0000000000000000e+00 0.0000000000000000e+00  0.0000000000000000e+00 0.0000000000000000e+00 0.0000000000000000e+00  0.0000000000000000e+00 0.0000000000000000e+00 0.0000000000000000e+00  0.0000000000000000e+00 0.0000000000000000e+00 0.0000000000000000e+00  0.0000000000000000e+00 0.0000000000000000e+00 0.0000000000000000e+00  0.0000000000000000e+00 0.0000000000000000e+00 0.0000000000000000e+00  0.0000000000000000e+00 0.0000000000000000e+00 0.0000000000000000e+00  0.0000000000000000e+00 0.0000000000000000e+00 0.0000000000000000e+00  0.0000000000000000e+00 0.0000000000000000e+00 0.0000000000000000e+00  0.0000000000000000e+00 0.0000000000000000e+00 0.0000000000000000e+00  0.0000000000000000e+00 0.0000000000000000e+00 0.0000000000000000e+00  0.0000000000000000e+00 0.0000000000000000e+00 0.0000000000000000e+00  0.0000000000000000e+00 0.0000000000000000e+00 0.0000000000000000e+00  0.0000000000000000e+00 0.0000000000000000e+00 0.0000000000000000e+00  0.0000000000000000e+00 0.0000000000000000e+00 0.0000000000000000e+00  0.0000000000000000e+00 0.0000000000000000e+00 0.0000000000000000e+00  0.0000000000000000e+00 0.0000000000000000e+00 0.0000000000000000e+00  0.0000000000000000e+00 0.0000000000000000e+00 0.0000000000000000e+00  0.0000000000000000e+00 0.0000000000000000e+00 0.0000000000000000e+00  0.0000000000000000e+00 0.0000000000000000e+00 0.0000000000000000e+00  0.0000000000000000e+00 0.0000000000000000e+00 0.0000000000000000e+00  0.0000000000000000e+00 0.0000000000000000e+00 0.0000000000000000e+00  0.0000000000000000e+00 0.0000000000000000e+00 0.0000000000000000e+00  0.0000000000000000e+00 0.0000000000000000e+00 0.0000000000000000e+00  0.0000000000000000e+00 0.0000000000000000e+00 0.0000000000000000e+00  0.0000000000000000e+00 0.0000000000000000e+00 0.0000000000000000e+00  0.0000000000000000e+00 0.0000000000000000e+00 0.0000000000000000e+00  0.0000000000000000e+00 0.0000000000000000e+00 0.0000000000000000e+00  0.0000000000000000e+00 0.0000000000000000e+00 0.0000000000000000e+00  0.0000000000000000e+00 0.0000000000000000e+00 0.0000000000000000e+00  0.0000000000000000e+00 0.0000000000000000e+00 0.0000000000000000e+00  0.0000000000000000e+00 0.0000000000000000e+00 0.0000000000000000e+00  0.0000000000000000e+00 0.0000000000000000e+00 0.0000000000000000e+00  0.0000000000000000e+00 0.0000000000000000e+00 0.0000000000000000e+00  0.0000000000000000e+00 0.0000000000000000e+00 0.0000000000000000e+00  0.0000000000000000e+00 0.0000000000000000e+00 0.0000000000000000e+00  0.0000000000000000e+00 0.0000000000000000e+00 0.0000000000000000e+00  0.0000000000000000e+00 0.0000000000000000e+00 0.0000000000000000e+00  9.6785174435105306e-05 7.6631133437329971e-05 0.0000000000000000e+00  1.1696562210303917e-04 7.3387419258620463e-05 0.0000000000000000e+00  1.3762156132181424e-04 6.2505212022498109e-05 0.0000000000000000e+00  1.5212416661428306e-04 4.3471251329883511e-05 0.0000000000000000e+00  1.5409397628154227e-04 1.8957929996107825e-05 0.0000000000000000e+00  1.3927483890681619e-04 -6.5734432431038478e-06 0.0000000000000000e+00  1.0624996031618152e-04 -2.5804835696018150e-05 0.0000000000000000e+00  5.7575583793109730e-05 -3.0643597675163285e-05 0.0000000000000000e+00  -3.7070886338210951e-05 -2.1277934210039307e-03 0.0000000000000000e+00  -7.4884277830826877e-05 -2.1213540353272301e-03 0.0000000000000000e+00  -1.1342713963919570e-04 -2.1102400934789652e-03 0.0000000000000000e+00  -1.5265512752171451e-04 -2.0940780096594547e-03 0.0000000000000000e+00  -1.9245251464588406e-04 -2.0724395802655467e-03 0.0000000000000000e+00  -2.3263384957557731e-04 -2.0448504178804346e-03 0.0000000000000000e+00  -2.7282860747376126e-04 -2.0108205224701526e-03 0.0000000000000000e+00  -3.1253963169917970e-04 -1.9698976575879962e-03 0.0000000000000000e+00  -3.5106233596861905e-04 -1.9217754320886554e-03 0.0000000000000000e+00  -3.8756197259336134e-04 -1.8663633197582264e-03 0.0000000000000000e+00  -4.2110601116154302e-04 -1.8038953898878096e-03 0.0000000000000000e+00  -4.5084673937878457e-04 -1.7349369473882584e-03 0.0000000000000000e+00  -4.7605444714773627e-04 -1.6603622292414133e-03 0.0000000000000000e+00  -4.9623721408928348e-04 -1.5812588041699187e-03 0.0000000000000000e+00  -5.1115999378000552e-04 -1.4988177924267461e-03 0.0000000000000000e+00  -5.2079022134895081e-04 -1.4142346167663926e-03 0.0000000000000000e+00  -5.2537127823451242e-04 -1.3286483084293513e-03 0.0000000000000000e+00  -5.2517367680245174e-04 -1.2430499583435659e-03 0.0000000000000000e+00  -5.2063585019614513e-04 -1.1582992521816942e-03 0.0000000000000000e+00  -5.1224289670566804e-04 -1.0751108141976264e-03 0.0000000000000000e+00  -5.0045343515001616e-04 -9.9404943793447568e-04 0.0000000000000000e+00  -4.8576035866267450e-04 -9.1555510963520182e-04 0.0000000000000000e+00  -4.6858352592510377e-04 -8.3996199646461348e-04 0.0000000000000000e+00  -4.4937626604690394e-04 -7.6751529566939920e-04 0.0000000000000000e+00  -4.2847431807461800e-04 -6.9838714110827911e-04 0.0000000000000000e+00  -4.0624232696413135e-04 -6.3268629107858499e-04 0.0000000000000000e+00  -3.8298980439868408e-04 -5.7047643301583845e-04 0.0000000000000000e+00  -3.5898254006230454e-04 -5.1177931672030414e-04 0.0000000000000000e+00  -3.3445513215777018e-04 -4.5659901173245401e-04 0.0000000000000000e+00  -3.0963751646491535e-04 -4.0490249129668195e-04 0.0000000000000000e+00  -2.8471835529589253e-04 -3.5664519331563926e-04 0.0000000000000000e+00  -2.5986872817769545e-04 -3.1176449876897227e-04 0.0000000000000000e+00  -2.3524141718049866e-04 -2.7018613990233164e-04 0.0000000000000000e+00  -2.1097358272011328e-04 -2.3182537370803943e-04 0.0000000000000000e+00  -1.8719388051025485e-04 -1.9658346599321804e-04 0.0000000000000000e+00  -1.6400228464959131e-04 -1.6436622595056700e-04 0.0000000000000000e+00  -1.4150466624984062e-04 -1.3506032328515873e-04 0.0000000000000000e+00  -1.1978816653080755e-04 -1.0854857960047506e-04 0.0000000000000000e+00  -9.8931519113137274e-05 -8.4711476830757587e-05 0.0000000000000000e+00  -7.9005197303102790e-05 -6.3421679604910340e-05 0.0000000000000000e+00  -6.0073709737674921e-05 -4.4549296072224907e-05 0.0000000000000000e+00  -4.2192516460856678e-05 -2.7954343253309288e-05 0.0000000000000000e+00  -2.5411426078981245e-05 -1.3492974489080730e-05 0.0000000000000000e+00  -9.7748178598452132e-06 -1.0172233555278825e-06 0.0000000000000000e+00  4.6790143960142527e-06 9.6287645572341226e-06 0.0000000000000000e+00  1.7916182829177727e-05 1.8606896786055271e-05 0.0000000000000000e+00  2.9905643563125574e-05 2.6087996554321404e-05 0.0000000000000000e+00  4.0630468349242027e-05 3.2256192747525010e-05 0.0000000000000000e+00  5.0064255075828197e-05 3.7296269979482560e-05 0.0000000000000000e+00  5.8197872636103336e-05 4.1416155312252281e-05 0.0000000000000000e+00  6.5029763052145724e-05 4.4835305986846795e-05 0.0000000000000000e+00  7.0565351861961211e-05 4.7788473451823818e-05 0.0000000000000000e+00  7.4832855038039331e-05 5.0531769018034163e-05 0.0000000000000000e+00  7.7885651084883535e-05 5.3335496272875547e-05 0.0000000000000000e+00  7.9818089499830196e-05 5.6484487208771879e-05 0.0000000000000000e+00  8.0785434405532779e-05 6.0250250143565089e-05 0.0000000000000000e+00  8.1051388816034199e-05 6.4858305037123458e-05 0.0000000000000000e+00  8.0939005778714196e-05 7.0408378169984647e-05 0.0000000000000000e+00  0.0000000000000000e+00 -2.1359412621317908e-03 0.0000000000000000e+00  0.0000000000000000e+00 -2.1417353871019239e-03 0.0000000000000000e+00  0.0000000000000000e+00 -2.1472624075205412e-03 0.0000000000000000e+00  0.0000000000000000e+00 -2.1525255987947444e-03 0.0000000000000000e+00  0.0000000000000000e+00 -2.1575289483943766e-03 0.0000000000000000e+00  0.0000000000000000e+00 -2.1622763912866570e-03 0.0000000000000000e+00  0.0000000000000000e+00 -2.1667719023634436e-03 0.0000000000000000e+00  0.0000000000000000e+00 -2.1710190216066741e-03 0.0000000000000000e+00  0.0000000000000000e+00 -2.1750207787412444e-03 0.0000000000000000e+00  0.0000000000000000e+00 -2.1787794461795578e-03 0.0000000000000000e+00  0.0000000000000000e+00 -2.1822966282309189e-03 0.0000000000000000e+00  0.0000000000000000e+00 -2.1855725393018516e-03 0.0000000000000000e+00  0.0000000000000000e+00 -2.1886070688618975e-03 0.0000000000000000e+00  0.0000000000000000e+00 -2.1913984608918930e-03 0.0000000000000000e+00  0.0000000000000000e+00 -2.1939441036634821e-03 0.0000000000000000e+00  0.0000000000000000e+00 -2.1962410573885672e-03 0.0000000000000000e+00  0.0000000000000000e+00 -2.1982844729181222e-03 0.0000000000000000e+00  0.0000000000000000e+00 -2.2000700652376045e-03 0.0000000000000000e+00  0.0000000000000000e+00 -2.2015925577547318e-03 0.0000000000000000e+00  0.0000000000000000e+00 -2.2028469645085490e-03 0.0000000000000000e+00  0.0000000000000000e+00 -2.2038282767905880e-03 0.0000000000000000e+00  0.0000000000000000e+00 -2.2045326014976754e-03 0.0000000000000000e+00  0.0000000000000000e+00 -2.2049565262717888e-03 0.0000000000000000e+00  0.0000000000000000e+00 -2.2049452747951526e-03 0.0000000000000000e+00  0.0000000000000000e+00 -2.2044872044244975e-03 0.0000000000000000e+00  0.0000000000000000e+00 -2.2037249614274522e-03 0.0000000000000000e+00  0.0000000000000000e+00 -2.2026603954989486e-03 0.0000000000000000e+00  0.0000000000000000e+00 -2.2012961644983175e-03 0.0000000000000000e+00  0.0000000000000000e+00 -2.1996358493665291e-03 0.0000000000000000e+00  0.0000000000000000e+00 -2.1976838522710812e-03 0.0000000000000000e+00  0.0000000000000000e+00 -2.1954457927979960e-03 0.0000000000000000e+00  0.0000000000000000e+00 -2.1929286987473857e-03 0.0000000000000000e+00  0.0000000000000000e+00 -2.1901409657377152e-03 0.0000000000000000e+00  0.0000000000000000e+00 -2.1870928763121867e-03 0.0000000000000000e+00  0.0000000000000000e+00 -2.1837969941730113e-03 0.0000000000000000e+00  0.0000000000000000e+00 -2.1802685848430659e-03 0.0000000000000000e+00  0.0000000000000000e+00 -2.1765266819999654e-03 0.0000000000000000e+00  0.0000000000000000e+00 -2.1725949080133146e-03 0.0000000000000000e+00  0.0000000000000000e+00 -2.1685034063543044e-03 0.0000000000000000e+00  0.0000000000000000e+00 -2.1642907953723805e-03 0.0000000000000000e+00  0.0000000000000000e+00 -2.1600084328283384e-03 0.0000000000000000e+00  0.0000000000000000e+00 -2.1557283298582405e-03 0.0000000000000000e+00  0.0000000000000000e+00 -2.1515532007276928e-03 0.0000000000000000e+00  0.0000000000000000e+00 -2.1476437169997103e-03 0.0000000000000000e+00  0.0000000000000000e+00 -2.1442852515297611e-03 0.0000000000000000e+00  0.0000000000000000e+00 -2.1421581028252218e-03 0.0000000000000000e+00  0.0000000000000000e+00 -2.1541776250115652e-03 0.0000000000000000e+00  0.0000000000000000e+00 -2.1619363993889982e-03 0.0000000000000000e+00  0.0000000000000000e+00 -2.1696159254540547e-03 0.0000000000000000e+00  0.0000000000000000e+00 -2.1774796146508115e-03 0.0000000000000000e+00  0.0000000000000000e+00 -2.1856368867688878e-03 0.0000000000000000e+00  0.0000000000000000e+00 -2.1941525432405884e-03 0.0000000000000000e+00  0.0000000000000000e+00 -2.2030774300275820e-03 0.0000000000000000e+00  0.0000000000000000e+00 -2.2124545208909527e-03 0.0000000000000000e+00  0.0000000000000000e+00 -2.2223281286462351e-03 0.0000000000000000e+00  0.0000000000000000e+00 -2.2327423134561914e-03 0.0000000000000000e+00  0.0000000000000000e+00 -2.2437507091347146e-03 0.0000000000000000e+00  0.0000000000000000e+00 -2.2554013700493681e-03 0.0000000000000000e+00  0.0000000000000000e+00 -2.2677640380081091e-03 0.0000000000000000e+00  0.0000000000000000e+00 -2.2809077228298780e-03 0.0000000000000000e+00  0.0000000000000000e+00 -2.2949214135034482e-03 0.0000000000000000e+00  0.0000000000000000e+00 -2.3099056578396869e-03 0.0000000000000000e+00  0.0000000000000000e+00 -2.3259872350686727e-03 0.0000000000000000e+00  0.0000000000000000e+00 -2.3433320837813612e-03 0.0000000000000000e+00  0.0000000000000000e+00 -2.3621579734957659e-03 0.0000000000000000e+00  0.0000000000000000e+00 -2.3828215077305367e-03 0.0000000000000000e+00  0.0000000000000000e+00 -2.4061407691750867e-03 0.0000000000000000e+00  0.0000000000000000e+00 -2.4323847423494286e-03 0.0000000000000000e+00  0.0000000000000000e+00 -2.4902602733007221e-03 0.0000000000000000e+00  -2.7780801617190577e-04 -3.1589539034713740e-03 0.0000000000000000e+00  -2.8962985031766498e-04 -3.3295581175452780e-03 0.0000000000000000e+00  -3.0109059318189087e-04 -3.4731950263257707e-03 0.0000000000000000e+00  -3.0474942149697772e-04 -3.6033706450585316e-03 0.0000000000000000e+00  -3.0267240379356665e-04 -3.7212955076724097e-03 0.0000000000000000e+00  -2.9656832978199635e-04 -3.8281875831861984e-03 0.0000000000000000e+00  -2.8761054555122252e-04 -3.9251532627871720e-03 0.0000000000000000e+00  -2.7656446396291006e-04 -4.0132020983723463e-03 0.0000000000000000e+00  -2.6398375186676971e-04 -4.0932003535044184e-03 0.0000000000000000e+00  -2.5023038565912160e-04 -4.1658845908923827e-03 0.0000000000000000e+00  -2.3556601045512270e-04 -4.2318657651160951e-03 0.0000000000000000e+00  -2.2017451889495981e-04 -4.2916469838612838e-03 0.0000000000000000e+00  -2.0419246634283014e-04 -4.3456458302913985e-03 0.0000000000000000e+00  -1.8772138383640191e-04 -4.3942052998759487e-03 0.0000000000000000e+00  -1.7084626195900841e-04 -4.4376146756877786e-03 0.0000000000000000e+00  -1.5363841872320649e-04 -4.4761142272262619e-03 0.0000000000000000e+00  -1.3614417868300152e-04 -4.5098988102328852e-03 0.0000000000000000e+00  -1.1841516808474203e-04 -4.5391369778696984e-03 0.0000000000000000e+00  -1.0049468313115463e-04 -4.5639675091886916e-03 0.0000000000000000e+00  -8.2416014680418222e-05 -4.5845004375720481e-03 0.0000000000000000e+00  -6.4214777255017244e-05 -4.6008247171599554e-03 0.0000000000000000e+00  -4.5916238330396622e-05 -4.6130090215162536e-03 0.0000000000000000e+00  -2.7552879551904945e-05 -4.6211053837805199e-03 0.0000000000000000e+00  -9.1523263279153224e-06 -4.6251457450567149e-03 0.0000000000000000e+00  9.2645419156665816e-06 -4.6251466667385291e-03 0.0000000000000000e+00  2.7667285050930428e-05 -4.6211084353006094e-03 0.0000000000000000e+00  4.6028542651241061e-05 -4.6130139717715400e-03 0.0000000000000000e+00  6.4327091438683444e-05 -4.6008311262190809e-03 0.0000000000000000e+00  8.2529143319317279e-05 -4.5845092129808921e-03 0.0000000000000000e+00  1.0060829917254887e-04 -4.5639795395189002e-03 0.0000000000000000e+00  1.1852696352923002e-04 -4.5391510645441946e-03 0.0000000000000000e+00  1.3625929764160739e-04 -4.5099152021532305e-03 0.0000000000000000e+00  1.5374777076201441e-04 -4.4761312145538898e-03 0.0000000000000000e+00  1.7095957898700408e-04 -4.4376353759657990e-03 0.0000000000000000e+00  1.8783314655361399e-04 -4.3942276324371492e-03 0.0000000000000000e+00  2.0430184943641232e-04 -4.3456716896125031e-03 0.0000000000000000e+00  2.2028632840164194e-04 -4.2916813190046086e-03 0.0000000000000000e+00  2.3568390469662793e-04 -4.2319089667439509e-03 0.0000000000000000e+00  2.5033323477549889e-04 -4.1659272411615983e-03 0.0000000000000000e+00  2.6408044596138748e-04 -4.0932481732470121e-03 0.0000000000000000e+00  2.7666949123292950e-04 -4.0132632411166713e-03 0.0000000000000000e+00  2.8771202856777865e-04 -3.9252244130222836e-03 0.0000000000000000e+00  2.9667403933368450e-04 -3.8282741271994567e-03 0.0000000000000000e+00  3.0274964676806879e-04 -3.7213780369080916e-03 0.0000000000000000e+00  3.0482239694420136e-04 -3.6034490051746202e-03 0.0000000000000000e+00  3.0121417473139678e-04 -3.4732833848547307e-03 0.0000000000000000e+00  2.8991568607160200e-04 -3.3296499234942204e-03 0.0000000000000000e+00  2.7607084572686463e-04 -3