<?xml version="1.0"?>
<VTKFile type="UnstructuredGrid"  version="0.1"  >
<UnstructuredGrid>
<Piece  NumberOfPoints="6382" NumberOfCells="12354">
<Points>
<DataArray  type="Float64"  NumberOfComponents="3"  format="ascii">0 -3 0  0 0 0  10 -3 0  10 0 0  5.2 0 0  5.2 -0.4 0  5.5 -0.4 0  5.5 -0.6000000000000001 0  4.5 -0.6000000000000001 0  4.5 -0.4 0  4.8 -0.4 0  4.8 0 0  0 -2.666666666666667 0  0 -2.333333333333333 0  0 -2 0  0 -1.666666666666667 0  0 -1.333333333333333 0  0 -1 0  0 -0.666666666666667 0  0 -0.3333333333333335 0  9.836518447033493 -3 0  9.676485174132324 -3 0  9.519716728676565 -3 0  9.366040597429432 -3 0  9.215293522901804 -3 0  9.067325347766827 -3 0  8.921978167503752 -3 0  8.779125793186953 -3 0  8.638633440048579 -3 0  8.500376249002967 -3 0  8.364235730108557 -3 0  8.230099119300583 -3 0  8.097858693472926 -3 0  7.96741165420296 -3 0  7.838659590098249 -3 0  7.711508416266758 -3 0  7.585867779025237 -3 0  7.461651037321721 -3 0  7.338774694871047 -3 0  7.217158563845377 -3 0  7.096725097152937 -3 0  6.977399455051415 -3 0  6.859109304538208 -3 0  6.741784490575633 -3 0  6.625356935727237 -3 0  6.509760461250432 -3 0  6.394930659317325 -3 0  6.2808046903675 -3 0  6.167321173775116 -3 0  6.054420032640893 -3 0  5.942042373994132 -3 0  5.830130346471836 -3 0  5.718627047087892 -3 0  5.607476358937133 -3 0  5.496622874861212 -3 0  5.386011773348871 -3 0  5.275588701244851 -3 0  5.1652996754838 -3 0  5.055090972556302 -3 0  4.944909027443701 -3 0  4.834700324516204 -3 0  4.724411298755151 -3 0  4.613988226651132 -3 0  4.50337712513879 -3 0  4.392523641062869 -3 0  4.281372952912111 -3 0  4.169869653528168 -3 0  4.05795762600587 -3 0  3.94557996735911 -3 0  3.832678826224885 -3 0  3.719195309632506 -3 0  3.605069340682676 -3 0  3.490239538749567 -3 0  3.374643064272765 -3 0  3.25821550942437 -3 0  3.140890695461794 -3 0  3.022600544948583 -3 0  2.903274902847057 -3 0  2.782841436154621 -3 0  2.661225305128949 -3 0  2.538348962678273 -3 0  2.414132220974763 -3 0  2.288491583733238 -3 0  2.161340409901745 -3 0  2.032588345797035 -3 0  1.902141306527067 -3 0  1.76990088069941 -3 0  1.63576426989143 -3 0  1.499623750997021 -3 0  1.361366559951406 -3 0  1.220874206813038 -3 0  1.078021832496241 -3 0  0.9326746522331657 -3 0  0.7847064770981866 -3 0  0.6339594025705644 -3 0  0.4802832713234277 -3 0  0.3235148258676688 -3 0  0.1634815529665037 -3 0  10 -0.3333333333333333 0  10 -0.6666666666666666 0  10 -1 0  10 -1.333333333333333 0  10 -1.666666666666667 0  10 -2 0  10 -2.333333333333333 0  10 -2.666666666666667 0  5.242711110725164 0 0  5.286293876642154 0 0  5.330766086609641 0 0  5.37614589213589 0 0  5.422451816439484 0 0  5.469702760205794 0 0  5.517918009017504 0 0  5.567117241892008 0 0  5.617320540096343 0 0  5.668548395644089 0 0  5.720821717893487 0 0  5.774161842649544 0 0  5.828590541642586 0 0  5.88413003019757 0 0  5.940802977381058 0 0  5.998632515893446 0 0  6.057642249375406 0 0  6.117856262977496 0 0  6.179299133651088 0 0  6.241995940085244 0 0  6.305972273082686 0 0  6.371254245606542 0 0  6.43786850326221 0 0  6.505842235920577 0 0  6.575203187664691 0 0  6.645979668539436 0 0  6.71820056760014 0 0  6.791895362764803 0 0  6.867094133292654 0 0  6.943827572794882 0 0  7.022127001289535 0 0  7.10202437703821 0 0  7.183552311040527 0 0  7.266744080707336 0 0  7.351633641831447 0 0  7.438255642584554 0 0  7.526645439439152 0 0  7.616839110330926 0 0  7.708873468012155 0 0  7.802786077905059 0 0  7.898615271449994 0 0  7.996400162886068 0 0  8.096180664647234 0 0  8.197997502517053 0 0  8.301892235188374 0 0  8.407907268711336 0 0  8.516085874431543 0 0  8.626472207031901 0 0  8.739111321743804 0 0  8.854049193814495 0 0  8.971332736524433 0 0  9.091009820696414 0 0  9.21312929427506 0 0  9.337741001971482 0 0  9.464895805719847 0 0  9.594645605970797 0 0  9.727043361679982 0 0  9.862143111819449 0 0  5.2 -0.01666666666666669 0  5.2 -0.03333333333333339 0  5.2 -0.05000000000000009 0  5.2 -0.06666666666666679 0  5.2 -0.0833333333333335 0  5.2 -0.1000000000000002 0  5.2 -0.1166666666666669 0  5.2 -0.1333333333333336 0  5.2 -0.1500000000000002 0  5.2 -0.1666666666666669 0  5.2 -0.1833333333333335 0  5.2 -0.2000000000000001 0  5.2 -0.2166666666666668 0  5.2 -0.2333333333333335 0  5.2 -0.2500000000000002 0  5.2 -0.2666666666666669 0  5.2 -0.2833333333333335 0  5.2 -0.3000000000000002 0  5.2 -0.3166666666666668 0  5.2 -0.3333333333333335 0  5.2 -0.3500000000000001 0  5.2 -0.3666666666666668 0  5.2 -0.3833333333333334 0  5.2125 -0.4 0  5.225 -0.4 0  5.2375 -0.4 0  5.25 -0.4 0  5.2625 -0.4 0  5.275 -0.4 0  5.2875 -0.4 0  5.3 -0.4 0  5.3125 -0.4 0  5.325 -0.4 0  5.337499999999999 -0.4 0  5.35 -0.4 0  5.3625 -0.4 0  5.375 -0.4 0  5.3875 -0.4 0  5.4 -0.4 0  5.4125 -0.4 0  5.425 -0.4 0  5.4375 -0.4 0  5.45 -0.4 0  5.4625 -0.4 0  5.475 -0.4 0  5.4875 -0.4 0  5.5 -0.4083333333333334 0  5.5 -0.4166666666666667 0  5.5 -0.425 0  5.5 -0.4333333333333334 0  5.5 -0.4416666666666668 0  5.5 -0.4500000000000001 0  5.5 -0.4583333333333334 0  5.5 -0.4666666666666668 0  5.5 -0.4750000000000001 0  5.5 -0.4833333333333335 0  5.5 -0.4916666666666668 0  5.5 -0.5000000000000002 0  5.5 -0.5083333333333335 0  5.5 -0.5166666666666668 0  5.5 -0.5250000000000002 0  5.5 -0.5333333333333335 0  5.5 -0.5416666666666669 0  5.5 -0.5500000000000002 0  5.5 -0.5583333333333335 0  5.5 -0.5666666666666668 0  5.5 -0.5750000000000002 0  5.5 -0.5833333333333335 0  5.5 -0.5916666666666668 0  5.479591836734694 -0.6000000000000001 0  5.459183673469388 -0.6000000000000001 0  5.438775510204081 -0.6000000000000001 0  5.418367346938775 -0.6000000000000001 0  5.397959183673469 -0.6000000000000001 0  5.377551020408164 -0.6000000000000001 0  5.357142857142857 -0.6000000000000001 0  5.336734693877551 -0.6000000000000001 0  5.316326530612245 -0.6000000000000001 0  5.295918367346939 -0.6000000000000001 0  5.275510204081633 -0.6000000000000001 0  5.255102040816326 -0.6000000000000001 0  5.23469387755102 -0.6000000000000001 0  5.214285714285714 -0.6000000000000001 0  5.193877551020408 -0.6000000000000001 0  5.173469387755102 -0.6000000000000001 0  5.153061224489796 -0.6000000000000001 0  5.13265306122449 -0.6000000000000001 0  5.112244897959184 -0.6000000000000001 0  5.091836734693878 -0.6000000000000001 0  5.071428571428571 -0.6000000000000001 0  5.051020408163265 -0.6000000000000001 0  5.030612244897959 -0.6000000000000001 0  5.010204081632653 -0.6000000000000001 0  4.989795918367347 -0.6000000000000001 0  4.969387755102041 -0.6000000000000001 0  4.948979591836735 -0.6000000000000001 0  4.928571428571429 -0.6000000000000001 0  4.908163265306122 -0.6000000000000001 0  4.887755102040816 -0.6000000000000001 0  4.86734693877551 -0.6000000000000001 0  4.846938775510204 -0.6000000000000001 0  4.826530612244898 -0.6000000000000001 0  4.806122448979592 -0.6000000000000001 0  4.785714285714286 -0.6000000000000001 0  4.76530612244898 -0.6000000000000001 0  4.744897959183674 -0.6000000000000001 0  4.724489795918368 -0.6000000000000001 0  4.704081632653061 -0.6000000000000001 0  4.683673469387755 -0.6000000000000001 0  4.663265306122449 -0.6000000000000001 0  4.642857142857143 -0.6000000000000001 0  4.622448979591836 -0.6000000000000001 0  4.602040816326531 -0.6000000000000001 0  4.581632653061225 -0.6000000000000001 0  4.561224489795919 -0.6000000000000001 0  4.540816326530612 -0.6000000000000001 0  4.520408163265306 -0.6000000000000001 0  4.5 -0.5916666666666668 0  4.5 -0.5833333333333334 0  4.5 -0.5750000000000001 0  4.5 -0.5666666666666668 0  4.5 -0.5583333333333333 0  4.5 -0.55 0  4.5 -0.5416666666666667 0  4.5 -0.5333333333333333 0  4.5 -0.525 0  4.5 -0.5166666666666666 0  4.5 -0.5083333333333333 0  4.5 -0.4999999999999999 0  4.5 -0.4916666666666666 0  4.5 -0.4833333333333332 0  4.5 -0.4749999999999999 0  4.5 -0.4666666666666666 0  4.5 -0.4583333333333333 0  4.5 -0.45 0  4.5 -0.4416666666666667 0  4.5 -0.4333333333333333 0  4.5 -0.425 0  4.5 -0.4166666666666667 0  4.5 -0.4083333333333334 0  4.5125 -0.4 0  4.525 -0.4 0  4.5375 -0.4 0  4.55 -0.4 0  4.5625 -0.4 0  4.575 -0.4 0  4.587499999999999 -0.4 0  4.6 -0.4 0  4.6125 -0.4 0  4.625 -0.4 0  4.637499999999999 -0.4 0  4.649999999999999 -0.4 0  4.6625 -0.4 0  4.675 -0.4 0  4.6875 -0.4 0  4.699999999999999 -0.4 0  4.712499999999999 -0.4 0  4.725 -0.4 0  4.7375 -0.4 0  4.75 -0.4 0  4.7625 -0.4 0  4.774999999999999 -0.4 0  4.7875 -0.4 0  4.8 -0.3833333333333333 0  4.8 -0.3666666666666666 0  4.8 -0.3499999999999999 0  4.8 -0.3333333333333333 0  4.8 -0.3166666666666665 0  4.8 -0.2999999999999998 0  4.8 -0.2833333333333331 0  4.8 -0.2666666666666664 0  4.8 -0.2499999999999998 0  4.8 -0.2333333333333331 0  4.8 -0.2166666666666665 0  4.8 -0.1999999999999999 0  4.8 -0.1833333333333332 0  4.8 -0.1666666666666665 0  4.8 -0.1499999999999998 0  4.8 -0.1333333333333331 0  4.8 -0.1166666666666665 0  4.8 -0.09999999999999987 0  4.8 -0.0833333333333332 0  4.8 -0.06666666666666654 0  4.8 -0.04999999999999988 0  4.8 -0.03333333333333327 0  4.8 -0.01666666666666661 0  0.1378568875240437 0 0  0.2729566377271358 0 0  0.4053543934976697 0 0  0.5351041938077431 0 0  0.6622589976130751 0 0  0.7868707053643811 0 0  0.9089901789958823 0 0  1.028667263218748 0 0  1.14595080597766 0 0  1.260888678095464 0 0  1.373527792852679 0 0  1.483914125496606 0 0  1.592092731258683 0 0  1.698107764821866 0 0  1.802002497531814 0 0  1.90381933543871 0 0  2.003599837235452 0 0  2.101384728705643 0 0  2.197213922283282 0 0  2.291126532207516 0 0  2.38316088991875 0 0  2.473354560839241 0 0  2.56174435771825 0 0  2.648366358500676 0 0  2.733255919649871 0 0  2.81644768934063 0 0  2.897975623365796 0 0  2.977872999136252 0 0  3.056172427651654 0 0  3.132905867173631 0 0  3.208104637720262 0 0  3.28179943290277 0 0  3.354020331980409 0 0  3.42479681287121 0 0  3.494157764630528 0 0  3.562131497303279 0 0  3.628745754972536 0 0  3.69402772750921 0 0  3.758004060518725 0 0  3.820700866964234 0 0  3.882143737648484 0 0  3.942357751260559 0 0  4.0013674
[...]
<PointData  Vectors="displacement"> 
<DataArray  type="Float64"  Name="displacement"  NumberOfComponents="3" format="ascii">0.0000000000000000e+00 0.0000000000000000e+00 0.0000000000000000e+00  -8.3836391271880709e-03 -1.4008721086621479e-03 0.0000000000000000e+00  0.0000000000000000e+00 0.0000000000000000e+00 0.0000000000000000e+00  8.3831704766940511e-03 -1.4009623873964029e-03 0.0000000000000000e+00  0.0000000000000000e+00 -2.0262635914414247e-02 0.0000000000000000e+00  0.0000000000000000e+00 -2.0219871165883360e-02 0.0000000000000000e+00  0.0000000000000000e+00 -2.0347153982949277e-02 0.0000000000000000e+00  0.0000000000000000e+00 -3.1488572169386497e-02 0.0000000000000000e+00  0.0000000000000000e+00 -3.1452579752746158e-02 0.0000000000000000e+00  0.0000000000000000e+00 -2.0343519593213451e-02 0.0000000000000000e+00  0.0000000000000000e+00 -2.0216308522740260e-02 0.0000000000000000e+00  0.0000000000000000e+00 -2.0259192803268326e-02 0.0000000000000000e+00  -1.5235567761253193e-03 -1.2326763751516611e-03 0.0000000000000000e+00  -2.8586213411276968e-03 -1.6766785513988858e-03 0.0000000000000000e+00  -4.0558812903935555e-03 -1.8172635951691930e-03 0.0000000000000000e+00  -5.0789698992066441e-03 -1.7748551261012042e-03 0.0000000000000000e+00  -5.9233177803951010e-03 -1.6530957252029691e-03 0.0000000000000000e+00  -6.6175983298148748e-03 -1.5235737656159355e-03 0.0000000000000000e+00  -7.2180586251754386e-03 -1.4353856713108029e-03 0.0000000000000000e+00  -7.7905470924572347e-03 -1.4018006943052675e-03 0.0000000000000000e+00  0.0000000000000000e+00 0.0000000000000000e+00 0.0000000000000000e+00  0.0000000000000000e+00 0.0000000000000000e+00 0.0000000000000000e+00  0.0000000000000000e+00 0.0000000000000000e+00 0.0000000000000000e+00  0.0000000000000000e+00 0.0000000000000000e+00 0.0000000000000000e+00  0.0000000000000000e+00 0.0000000000000000e+00 0.0000000000000000e+00  0.0000000000000000e+00 0.0000000000000000e+00 0.0000000000000000e+00  0.0000000000000000e+00 0.0000000000000000e+00 0.0000000000000000e+00  0.0000000000000000e+00 0.0000000000000000e+00 0.0000000000000000e+00  0.0000000000000000e+00 0.0000000000000000e+00 0.0000000000000000e+00  0.0000000000000000e+00 0.0000000000000000e+00 0.0000000000000000e+00  0.0000000000000000e+00 0.0000000000000000e+00 0.0000000000000000e+00  0.0000000000000000e+00 0.0000000000000000e+00 0.0000000000000000e+00  0.0000000000000000e+00 0.0000000000000000e+00 0.0000000000000000e+00  0.0000000000000000e+00 0.0000000000000000e+00 0.0000000000000000e+00  0.0000000000000000e+00 0.0000000000000000e+00 0.0000000000000000e+00  0.0000000000000000e+00 0.0000000000000000e+00 0.0000000000000000e+00  0.0000000000000000e+00 0.0000000000000000e+00 0.0000000000000000e+00  0.0000000000000000e+00 0.0000000000000000e+00 0.0000000000000000e+00  0.0000000000000000e+00 0.0000000000000000e+00 0.0000000000000000e+00  0.0000000000000000e+00 0.0000000000000000e+00 0.0000000000000000e+00  0.0000000000000000e+00 0.0000000000000000e+00 0.0000000000000000e+00  0.0000000000000000e+00 0.0000000000000000e+00 0.0000000000000000e+00  0.0000000000000000e+00 0.0000000000000000e+00 0.0000000000000000e+00  0.0000000000000000e+00 0.0000000000000000e+00 0.0000000000000000e+00  0.0000000000000000e+00 0.0000000000000000e+00 0.0000000000000000e+00  0.0000000000000000e+00 0.0000000000000000e+00 0.0000000000000000e+00  0.0000000000000000e+00 0.0000000000000000e+00 0.0000000000000000e+00  0.0000000000000000e+00 0.0000000000000000e+00 0.0000000000000000e+00  0.0000000000000000e+00 0.0000000000000000e+00 0.0000000000000000e+00  0.0000000000000000e+00 0.0000000000000000e+00 0.0000000000000000e+00  0.0000000000000000e+00 0.0000000000000000e+00 0.0000000000000000e+00  0.0000000000000000e+00 0.0000000000000000e+00 0.0000000000000000e+00  0.0000000000000000e+00 0.0000000000000000e+00 0.0000000000000000e+00  0.0000000000000000e+00 0.0000000000000000e+00 0.0000000000000000e+00  0.0000000000000000e+00 0.0000000000000000e+00 0.0000000000000000e+00  0.0000000000000000e+00 0.0000000000000000e+00 0.0000000000000000e+00  0.0000000000000000e+00 0.0000000000000000e+00 0.0000000000000000e+00  0.0000000000000000e+00 0.0000000000000000e+00 0.0000000000000000e+00  0.0000000000000000e+00 0.0000000000000000e+00 0.0000000000000000e+00  0.0000000000000000e+00 0.0000000000000000e+00 0.0000000000000000e+00  0.0000000000000000e+00 0.0000000000000000e+00 0.0000000000000000e+00  0.0000000000000000e+00 0.0000000000000000e+00 0.0000000000000000e+00  0.0000000000000000e+00 0.0000000000000000e+00 0.0000000000000000e+00  0.0000000000000000e+00 0.0000000000000000e+00 0.0000000000000000e+00  0.0000000000000000e+00 0.0000000000000000e+00 0.0000000000000000e+00  0.0000000000000000e+00 0.0000000000000000e+00 0.0000000000000000e+00  0.0000000000000000e+00 0.0000000000000000e+00 0.0000000000000000e+00  0.0000000000000000e+00 0.0000000000000000e+00 0.0000000000000000e+00  0.0000000000000000e+00 0.0000000000000000e+00 0.0000000000000000e+00  0.0000000000000000e+00 0.0000000000000000e+00 0.0000000000000000e+00  0.0000000000000000e+00 0.0000000000000000e+00 0.0000000000000000e+00  0.0000000000000000e+00 0.0000000000000000e+00 0.0000000000000000e+00  0.0000000000000000e+00 0.0000000000000000e+00 0.0000000000000000e+00  0.0000000000000000e+00 0.0000000000000000e+00 0.0000000000000000e+00  0.0000000000000000e+00 0.0000000000000000e+00 0.0000000000000000e+00  0.0000000000000000e+00 0.0000000000000000e+00 0.0000000000000000e+00  0.0000000000000000e+00 0.0000000000000000e+00 0.0000000000000000e+00  0.0000000000000000e+00 0.0000000000000000e+00 0.0000000000000000e+00  0.0000000000000000e+00 0.0000000000000000e+00 0.0000000000000000e+00  0.0000000000000000e+00 0.0000000000000000e+00 0.0000000000000000e+00  0.0000000000000000e+00 0.0000000000000000e+00 0.0000000000000000e+00  0.0000000000000000e+00 0.0000000000000000e+00 0.0000000000000000e+00  0.0000000000000000e+00 0.0000000000000000e+00 0.0000000000000000e+00  0.0000000000000000e+00 0.0000000000000000e+00 0.0000000000000000e+00  0.0000000000000000e+00 0.0000000000000000e+00 0.0000000000000000e+00  0.0000000000000000e+00 0.0000000000000000e+00 0.0000000000000000e+00  0.0000000000000000e+00 0.0000000000000000e+00 0.0000000000000000e+00  0.0000000000000000e+00 0.0000000000000000e+00 0.0000000000000000e+00  0.0000000000000000e+00 0.0000000000000000e+00 0.0000000000000000e+00  0.0000000000000000e+00 0.0000000000000000e+00 0.0000000000000000e+00  0.0000000000000000e+00 0.0000000000000000e+00 0.0000000000000000e+00  0.0000000000000000e+00 0.0000000000000000e+00 0.0000000000000000e+00  0.0000000000000000e+00 0.0000000000000000e+00 0.0000000000000000e+00  0.0000000000000000e+00 0.0000000000000000e+00 0.0000000000000000e+00  0.0000000000000000e+00 0.0000000000000000e+00 0.0000000000000000e+00  0.0000000000000000e+00 0.0000000000000000e+00 0.0000000000000000e+00  0.0000000000000000e+00 0.0000000000000000e+00 0.0000000000000000e+00  0.0000000000000000e+00 0.0000000000000000e+00 0.0000000000000000e+00  7.7899100769645091e-03 -1.4019217723167520e-03 0.0000000000000000e+00  7.2178305001435999e-03 -1.4352512721182962e-03 0.0000000000000000e+00  6.6174336487548517e-03 -1.5235025963894993e-03 0.0000000000000000e+00  5.9235066130107926e-03 -1.6531345774415413e-03 0.0000000000000000e+00  5.0793196474159400e-03 -1.7741545921122089e-03 0.0000000000000000e+00  4.0556840801115133e-03 -1.8185346482651561e-03 0.0000000000000000e+00  2.8582336134195798e-03 -1.6777300693118777e-03 0.0000000000000000e+00  1.5248629149605371e-03 -1.2316741071457314e-03 0.0000000000000000e+00  -1.0728336376830482e-04 -2.0256407173274378e-02 0.0000000000000000e+00  -2.2248887421857878e-04 -2.0235822470067721e-02 0.0000000000000000e+00  -3.5126214117579314e-04 -2.0195854823215002e-02 0.0000000000000000e+00  -4.9949749851609907e-04 -2.0127462765300169e-02 0.0000000000000000e+00  -6.6982124434492908e-04 -2.0017732841534831e-02 0.0000000000000000e+00  -8.7994100303197221e-04 -1.9838586545208210e-02 0.0000000000000000e+00  -1.1501991561143710e-03 -1.9557512810681910e-02 0.0000000000000000e+00  -1.4784433946822960e-03 -1.9149217374094776e-02 0.0000000000000000e+00  -1.8434014704477100e-03 -1.8584225348769481e-02 0.0000000000000000e+00  -2.2041061741798970e-03 -1.7822863419372635e-02 0.0000000000000000e+00  -2.4699380493266431e-03 -1.6805179795670609e-02 0.0000000000000000e+00  -2.6408421976855737e-03 -1.5552045560041288e-02 0.0000000000000000e+00  -2.7090080901340293e-03 -1.4126486501999472e-02 0.0000000000000000e+00  -2.6586610226480420e-03 -1.2598061869295426e-02 0.0000000000000000e+00  -2.4998461368731864e-03 -1.1043611686386751e-02 0.0000000000000000e+00  -2.2040329839985696e-03 -9.5791816924726686e-03 0.0000000000000000e+00  -1.7121180394868206e-03 -8.2356551559674002e-03 0.0000000000000000e+00  -1.0983139061864716e-03 -7.0053675482958152e-03 0.0000000000000000e+00  -4.3948741158325941e-04 -5.8896982357819812e-03 0.0000000000000000e+00  2.1676085352440497e-04 -4.8814917809739461e-03 0.0000000000000000e+00  8.4098675255976055e-04 -3.9773981770579231e-03 0.0000000000000000e+00  1.4157546642538858e-03 -3.1738886960691387e-03 0.0000000000000000e+00  1.9371698990901869e-03 -2.4605670141653216e-03 0.0000000000000000e+00  2.4173641748062259e-03 -1.8188408427164001e-03 0.0000000000000000e+00  2.8676874331313713e-03 -1.2362408174459000e-03 0.0000000000000000e+00  3.2920218022106460e-03 -7.0889364138392464e-04 0.0000000000000000e+00  3.6892850771674908e-03 -2.3700902643552238e-04 0.0000000000000000e+00  4.0577555574112384e-03 1.7890117859747391e-04 0.0000000000000000e+00  4.3958560452939744e-03 5.3912140906755353e-04 0.0000000000000000e+00  4.7082344024841228e-03 8.4814097782265915e-04 0.0000000000000000e+00  5.0045185411570466e-03 1.1136936932528195e-03 0.0000000000000000e+00  5.2931718511464087e-03 1.3422640923366333e-03 0.0000000000000000e+00  5.5706123461764000e-03 1.5342508113339092e-03 0.0000000000000000e+00  5.8349014221739832e-03 1.6910188704012227e-03 0.0000000000000000e+00  6.0850550327583410e-03 1.8142953982647849e-03 0.0000000000000000e+00  6.3205072502147209e-03 1.9057531365726018e-03 0.0000000000000000e+00  6.5409943943901226e-03 1.9671871993908589e-03 0.0000000000000000e+00  6.7466267519900877e-03 2.0003820945410627e-03 0.0000000000000000e+00  6.9374375840257777e-03 2.0069935414150828e-03 0.0000000000000000e+00  7.1138956517099840e-03 1.9886483024702654e-03 0.0000000000000000e+00  7.2762377660349270e-03 1.9468556284646171e-03 0.0000000000000000e+00  7.4250892360097085e-03 1.8830751375563622e-03 0.0000000000000000e+00  7.5609492928661167e-03 1.7986876275385328e-03 0.0000000000000000e+00  7.6843981260304858e-03 1.6949529797921879e-03 0.0000000000000000e+00  7.7960417062714537e-03 1.5730597065115872e-03 0.0000000000000000e+00  7.8964607304128527e-03 1.4341082709326072e-03 0.0000000000000000e+00  7.9861905318079924e-03 1.2791522341111816e-03 0.0000000000000000e+00  8.0658564876247511e-03 1.1092282779290217e-03 0.0000000000000000e+00  8.1357898246936459e-03 9.2526267771129566e-04 0.0000000000000000e+00  8.1964346092823267e-03 7.2828774314305544e-04 0.0000000000000000e+00  8.2480991468647114e-03 5.1936435900023126e-04 0.0000000000000000e+00  8.2909725700362879e-03 2.9966363479356193e-04 0.0000000000000000e+00  8.3252496388107732e-03 7.0564556411091054e-05 0.0000000000000000e+00  8.3511076912445095e-03 -1.6634016098427364e-04 0.0000000000000000e+00  8.3688497743867676e-03 -4.0913018760963113e-04 0.0000000000000000e+00  8.3790986442493567e-03 -6.5566649548083763e-04 0.0000000000000000e+00  8.3832383468818439e-03 -9.0372710821782305e-04 0.0000000000000000e+00  8.3833454267428845e-03 -1.1515444368352290e-03 0.0000000000000000e+00  0.0000000000000000e+00 -2.0279968702542249e-02 0.0000000000000000e+00  0.0000000000000000e+00 -2.0295965684138058e-02 0.0000000000000000e+00  0.0000000000000000e+00 -2.0310176274139623e-02 0.0000000000000000e+00  0.0000000000000000e+00 -2.0322272925620232e-02 0.0000000000000000e+00  0.0000000000000000e+00 -2.0331989967874518e-02 0.0000000000000000e+00  0.0000000000000000e+00 -2.0339160646191061e-02 0.0000000000000000e+00  0.0000000000000000e+00 -2.0343689198633389e-02 0.0000000000000000e+00  0.0000000000000000e+00 -2.0345557040726679e-02 0.0000000000000000e+00  0.0000000000000000e+00 -2.0344813084787767e-02 0.0000000000000000e+00  0.0000000000000000e+00 -2.0341584185320706e-02 0.0000000000000000e+00  0.0000000000000000e+00 -2.0336046175493450e-02 0.0000000000000000e+00  0.0000000000000000e+00 -2.0328458898666267e-02 0.0000000000000000e+00  0.0000000000000000e+00 -2.0319111239394443e-02 0.0000000000000000e+00  0.0000000000000000e+00 -2.0308370609600539e-02 0.0000000000000000e+00  0.0000000000000000e+00 -2.0296644786456482e-02 0.0000000000000000e+00  0.0000000000000000e+00 -2.0284348223659283e-02 0.0000000000000000e+00  0.0000000000000000e+00 -2.0271977013714491e-02 0.0000000000000000e+00  0.0000000000000000e+00 -2.0259988501128395e-02 0.0000000000000000e+00  0.0000000000000000e+00 -2.0248860187974841e-02 0.0000000000000000e+00  0.0000000000000000e+00 -2.0239037284214896e-02 0.0000000000000000e+00  0.0000000000000000e+00 -2.0230933244443566e-02 0.0000000000000000e+00  0.0000000000000000e+00 -2.0224877554909076e-02 0.0000000000000000e+00  0.0000000000000000e+00 -2.0221137303087867e-02 0.0000000000000000e+00  0.0000000000000000e+00 -2.0219152283385059e-02 0.0000000000000000e+00  0.0000000000000000e+00 -2.0216999717786240e-02 0.0000000000000000e+00  0.0000000000000000e+00 -2.0213428648665422e-02 0.0000000000000000e+00  0.0000000000000000e+00 -2.0208464562964379e-02 0.0000000000000000e+00  0.0000000000000000e+00 -2.0202144973158295e-02 0.0000000000000000e+00  0.0000000000000000e+00 -2.0194519660629764e-02 0.0000000000000000e+00  0.0000000000000000e+00 -2.0185660656761976e-02 0.0000000000000000e+00  0.0000000000000000e+00 -2.0175653664378599e-02 0.0000000000000000e+00  0.0000000000000000e+00 -2.0164609524162498e-02 0.0000000000000000e+00  0.0000000000000000e+00 -2.0152670774973135e-02 0.0000000000000000e+00  0.0000000000000000e+00 -2.0140017027366810e-02 0.0000000000000000e+00  0.0000000000000000e+00 -2.0126876638060030e-02 0.0000000000000000e+00  0.0000000000000000e+00 -2.0113538588759281e-02 0.0000000000000000e+00  0.0000000000000000e+00 -2.0100369206090637e-02 0.0000000000000000e+00  0.0000000000000000e+00 -2.0087843845980832e-02 0.0000000000000000e+00  0.0000000000000000e+00 -2.0076575088625044e-02 0.0000000000000000e+00  0.0000000000000000e+00 -2.0067383327204188e-02 0.0000000000000000e+00  0.0000000000000000e+00 -2.0061377150293266e-02 0.0000000000000000e+00  0.0000000000000000e+00 -2.0060097956271492e-02 0.0000000000000000e+00  0.0000000000000000e+00 -2.0065796431366634e-02 0.0000000000000000e+00  0.0000000000000000e+00 -2.0082143263431440e-02 0.0000000000000000e+00  0.0000000000000000e+00 -2.0115198708695593e-02 0.0000000000000000e+00  0.0000000000000000e+00 -2.0180045575379096e-02 0.0000000000000000e+00  0.0000000000000000e+00 -2.0504026893909049e-02 0.0000000000000000e+00  0.0000000000000000e+00 -2.0630305156423539e-02 0.0000000000000000e+00  0.0000000000000000e+00 -2.0758089621335345e-02 0.0000000000000000e+00  0.0000000000000000e+00 -2.0895733485523409e-02 0.0000000000000000e+00  0.0000000000000000e+00 -2.1044436122080512e-02 0.0000000000000000e+00  0.0000000000000000e+00 -2.1206026599370209e-02 0.0000000000000000e+00  0.0000000000000000e+00 -2.1382297163257496e-02 0.0000000000000000e+00  0.0000000000000000e+00 -2.1574268819457402e-02 0.0000000000000000e+00  0.0000000000000000e+00 -2.1783677033404673e-02 0.0000000000000000e+00  0.0000000000000000e+00 -2.2011727176585810e-02 0.0000000000000000e+00  0.0000000000000000e+00 -2.2261378578578652e-02 0.0000000000000000e+00  0.0000000000000000e+00 -2.2532880113094789e-02 0.0000000000000000e+00  0.0000000000000000e+00 -2.2830837346638641e-02 0.0000000000000000e+00  0.0000000000000000e+00 -2.3156699527819184e-02 0.0000000000000000e+00  0.0000000000000000e+00 -2.3515568031309976e-02 0.0000000000000000e+00  0.0000000000000000e+00 -2.3910974935071789e-02 0.0000000000000000e+00  0.0000000000000000e+00 -2.4348236376750178e-02 0.0000000000000000e+00  0.0000000000000000e+00 -2.4838808567561328e-02 0.0000000000000000e+00  0.0000000000000000e+00 -2.5391703061546270e-02 0.0000000000000000e+00  0.0000000000000000e+00 -2.6024107444159960e-02 0.0000000000000000e+00  0.0000000000000000e+00 -2.6770942349608601e-02 0.0000000000000000e+00  0.0000000000000000e+00 -2.7689334207156979e-02 0.0000000000000000e+00  0.0000000000000000e+00 -2.9126773835037843e-02 0.0000000000000000e+00  -1.3859979207010570e-03 -4.4117778272838304e-02 0.0000000000000000e+00  -1.5099372244110545e-03 -5.0706883613266217e-02 0.0000000000000000e+00  -1.6632418063512128e-03 -5.5614789543788228e-02 0.0000000000000000e+00  -1.7546222155151213e-03 -5.9693309704432138e-02 0.0000000000000000e+00  -1.7875885183801876e-03 -6.3187833277245350e-02 0.0000000000000000e+00  -1.7891261458887534e-03 -6.6241051274712776e-02 0.0000000000000000e+00  -1.7668131588996663e-03 -6.8945813982967702e-02 0.0000000000000000e+00  -1.7247432452856502e-03 -7.1360588487046933e-02 0.0000000000000000e+00  -1.6677195232959745e-03 -7.3527164106226492e-02 0.0000000000000000e+00  -1.5981684458580029e-03 -7.5476815999246327e-02 0.0000000000000000e+00  -1.5185173507497765e-03 -7.7232918036020684e-02 0.0000000000000000e+00  -1.4306696380995887e-03 -7.8813915182994132e-02 0.0000000000000000e+00  -1.3359482610684748e-03 -8.0234315588414151e-02 0.0000000000000000e+00  -1.2355362856268308e-03 -8.1505868849286511e-02 0.0000000000000000e+00  -1.1302114772504185e-03 -8.2638196823897295e-02 0.0000000000000000e+00  -1.0208976775826855e-03 -8.3639113735685097e-02 0.0000000000000000e+00  -9.0817096425824218e-04 -8.4514882901688210e-02 0.0000000000000000e+00  -7.9259650304027752e-04 -8.5270952194160685e-02 0.0000000000000000e+00  -6.7464911644610735e-04 -8.5911727595084461e-02 0.0000000000000000e+00  -5.5484167553265492e-04 -8.6440733785347973e-02 0.0000000000000000e+00  -4.3352169579765834e-04 -8.6860759253030745e-02 0.0000000000000000e+00  -3.1110985151943879e-04 -8.7173905062996160e-02 0.0000000000000000e+00  -1.8787205160062057e-04 -8.7381858241299390e-02 0.0000000000000000e+00  -6.4128108180157913e-05 -8.7485616652488329e-02 0.0000000000000000e+00  5.9698697522523299e-05 -8.7485638004610899e-02 0.0000000000000000e+00  1.8338364905439916e-04 -8.7382005414561176e-02 0.0000000000000000e+00  3.0666522562679613e-04 -8.7174134243551554e-02 0.0000000000000000e+00  4.2904209306701544e-04 -8.6861018468506773e-02 0.0000000000000000e+00  5.5028219298842106e-04 -8.6441132086558806e-02 0.0000000000000000e+00  6.7003518343899905e-04 -8.5912224661445810e-02 0.0000000000000000e+00  7.8791372444674793e-04 -8.5271518629805212e-02 0.0000000000000000e+00  9.0344786657430866e-04 -8.4515514902757313e-02 0.0000000000000000e+00  1.0159833211382942e-03 -8.3639756565106610e-02 0.0000000000000000e+00  1.1252755554179929e-03 -8.2638978976916147e-02 0.0000000000000000e+00  1.2304987835238736e-03 -8.1506741780099701e-02 0.0000000000000000e+00  1.3308438284122862e-03 -8.0235418676334741e-02 0.0000000000000000e+00  1.4253469414270579e-03 -7.8815289224498625e-02 0.0000000000000000e+00  1.5128873300051080e-03 -7.7234617402366035e-02 0.0000000000000000e+00  1.5916627416121662e-03 -7.5478659557205341e-02 0.0000000000000000e+00  1.6615933638938572e-03 -7.3529243015125700e-02 0.0000000000000000e+00  1.7183379784872278e-03 -7.1362748121122643e-02 0.0000000000000000e+00  1.7594950368042014e-03 -6.8948638641294788e-02 0.0000000000000000e+00  1.7811623450608681e-03 -6.6244049113689557e-02 0.0000000000000000e+00  1.7773011262659207e-03 -6.3188975807034156e-02 0.0000000000000000e+00  1.7412698862577442e-03 -5.9695314675686388e-02 0.0000000000000000e+00  1.6532625569411470e-03 -5.5619614757662347e-02 0.0000000000000000e+00  1.4913863214277782e-03 -5.0694500060413122e-02 0.0000000000000000e+00  1.3586915887823319e-03 -4.4071728392763562e-02 0.0