<?xml version="1.0"?>
<VTKFile type="UnstructuredGrid"  version="0.1"  >
<UnstructuredGrid>
<Piece  NumberOfPoints="6382" NumberOfCells="12354">
<Points>
<DataArray  type="Float64"  NumberOfComponents="3"  format="ascii">0 -3 0  0 0 0  10 -3 0  10 0 0  5.2 0 0  5.2 -0.4 0  5.5 -0.4 0  5.5 -0.6000000000000001 0  4.5 -0.6000000000000001 0  4.5 -0.4 0  4.8 -0.4 0  4.8 0 0  0 -2.666666666666667 0  0 -2.333333333333333 0  0 -2 0  0 -1.666666666666667 0  0 -1.333333333333333 0  0 -1 0  0 -0.666666666666667 0  0 -0.3333333333333335 0  9.836518447033493 -3 0  9.676485174132324 -3 0  9.519716728676565 -3 0  9.366040597429432 -3 0  9.215293522901804 -3 0  9.067325347766827 -3 0  8.921978167503752 -3 0  8.779125793186953 -3 0  8.638633440048579 -3 0  8.500376249002967 -3 0  8.364235730108557 -3 0  8.230099119300583 -3 0  8.097858693472926 -3 0  7.96741165420296 -3 0  7.838659590098249 -3 0  7.711508416266758 -3 0  7.585867779025237 -3 0  7.461651037321721 -3 0  7.338774694871047 -3 0  7.217158563845377 -3 0  7.096725097152937 -3 0  6.977399455051415 -3 0  6.859109304538208 -3 0  6.741784490575633 -3 0  6.625356935727237 -3 0  6.509760461250432 -3 0  6.394930659317325 -3 0  6.2808046903675 -3 0  6.167321173775116 -3 0  6.054420032640893 -3 0  5.942042373994132 -3 0  5.830130346471836 -3 0  5.718627047087892 -3 0  5.607476358937133 -3 0  5.496622874861212 -3 0  5.386011773348871 -3 0  5.275588701244851 -3 0  5.1652996754838 -3 0  5.055090972556302 -3 0  4.944909027443701 -3 0  4.834700324516204 -3 0  4.724411298755151 -3 0  4.613988226651132 -3 0  4.50337712513879 -3 0  4.392523641062869 -3 0  4.281372952912111 -3 0  4.169869653528168 -3 0  4.05795762600587 -3 0  3.94557996735911 -3 0  3.832678826224885 -3 0  3.719195309632506 -3 0  3.605069340682676 -3 0  3.490239538749567 -3 0  3.374643064272765 -3 0  3.25821550942437 -3 0  3.140890695461794 -3 0  3.022600544948583 -3 0  2.903274902847057 -3 0  2.782841436154621 -3 0  2.661225305128949 -3 0  2.538348962678273 -3 0  2.414132220974763 -3 0  2.288491583733238 -3 0  2.161340409901745 -3 0  2.032588345797035 -3 0  1.902141306527067 -3 0  1.76990088069941 -3 0  1.63576426989143 -3 0  1.499623750997021 -3 0  1.361366559951406 -3 0  1.220874206813038 -3 0  1.078021832496241 -3 0  0.9326746522331657 -3 0  0.7847064770981866 -3 0  0.6339594025705644 -3 0  0.4802832713234277 -3 0  0.3235148258676688 -3 0  0.1634815529665037 -3 0  10 -0.3333333333333333 0  10 -0.6666666666666666 0  10 -1 0  10 -1.333333333333333 0  10 -1.666666666666667 0  10 -2 0  10 -2.333333333333333 0  10 -2.666666666666667 0  5.242711110725164 0 0  5.286293876642154 0 0  5.330766086609641 0 0  5.37614589213589 0 0  5.422451816439484 0 0  5.469702760205794 0 0  5.517918009017504 0 0  5.567117241892008 0 0  5.617320540096343 0 0  5.668548395644089 0 0  5.720821717893487 0 0  5.774161842649544 0 0  5.828590541642586 0 0  5.88413003019757 0 0  5.940802977381058 0 0  5.998632515893446 0 0  6.057642249375406 0 0  6.117856262977496 0 0  6.179299133651088 0 0  6.241995940085244 0 0  6.305972273082686 0 0  6.371254245606542 0 0  6.43786850326221 0 0  6.505842235920577 0 0  6.575203187664691 0 0  6.645979668539436 0 0  6.71820056760014 0 0  6.791895362764803 0 0  6.867094133292654 0 0  6.943827572794882 0 0  7.022127001289535 0 0  7.10202437703821 0 0  7.183552311040527 0 0  7.266744080707336 0 0  7.351633641831447 0 0  7.438255642584554 0 0  7.526645439439152 0 0  7.616839110330926 0 0  7.708873468012155 0 0  7.802786077905059 0 0  7.898615271449994 0 0  7.996400162886068 0 0  8.096180664647234 0 0  8.197997502517053 0 0  8.301892235188374 0 0  8.407907268711336 0 0  8.516085874431543 0 0  8.626472207031901 0 0  8.739111321743804 0 0  8.854049193814495 0 0  8.971332736524433 0 0  9.091009820696414 0 0  9.21312929427506 0 0  9.337741001971482 0 0  9.464895805719847 0 0  9.594645605970797 0 0  9.727043361679982 0 0  9.862143111819449 0 0  5.2 -0.01666666666666669 0  5.2 -0.03333333333333339 0  5.2 -0.05000000000000009 0  5.2 -0.06666666666666679 0  5.2 -0.0833333333333335 0  5.2 -0.1000000000000002 0  5.2 -0.1166666666666669 0  5.2 -0.1333333333333336 0  5.2 -0.1500000000000002 0  5.2 -0.1666666666666669 0  5.2 -0.1833333333333335 0  5.2 -0.2000000000000001 0  5.2 -0.2166666666666668 0  5.2 -0.2333333333333335 0  5.2 -0.2500000000000002 0  5.2 -0.2666666666666669 0  5.2 -0.2833333333333335 0  5.2 -0.3000000000000002 0  5.2 -0.3166666666666668 0  5.2 -0.3333333333333335 0  5.2 -0.3500000000000001 0  5.2 -0.3666666666666668 0  5.2 -0.3833333333333334 0  5.2125 -0.4 0  5.225 -0.4 0  5.2375 -0.4 0  5.25 -0.4 0  5.2625 -0.4 0  5.275 -0.4 0  5.2875 -0.4 0  5.3 -0.4 0  5.3125 -0.4 0  5.325 -0.4 0  5.337499999999999 -0.4 0  5.35 -0.4 0  5.3625 -0.4 0  5.375 -0.4 0  5.3875 -0.4 0  5.4 -0.4 0  5.4125 -0.4 0  5.425 -0.4 0  5.4375 -0.4 0  5.45 -0.4 0  5.4625 -0.4 0  5.475 -0.4 0  5.4875 -0.4 0  5.5 -0.4083333333333334 0  5.5 -0.4166666666666667 0  5.5 -0.425 0  5.5 -0.4333333333333334 0  5.5 -0.4416666666666668 0  5.5 -0.4500000000000001 0  5.5 -0.4583333333333334 0  5.5 -0.4666666666666668 0  5.5 -0.4750000000000001 0  5.5 -0.4833333333333335 0  5.5 -0.4916666666666668 0  5.5 -0.5000000000000002 0  5.5 -0.5083333333333335 0  5.5 -0.5166666666666668 0  5.5 -0.5250000000000002 0  5.5 -0.5333333333333335 0  5.5 -0.5416666666666669 0  5.5 -0.5500000000000002 0  5.5 -0.5583333333333335 0  5.5 -0.5666666666666668 0  5.5 -0.5750000000000002 0  5.5 -0.5833333333333335 0  5.5 -0.5916666666666668 0  5.479591836734694 -0.6000000000000001 0  5.459183673469388 -0.6000000000000001 0  5.438775510204081 -0.6000000000000001 0  5.418367346938775 -0.6000000000000001 0  5.397959183673469 -0.6000000000000001 0  5.377551020408164 -0.6000000000000001 0  5.357142857142857 -0.6000000000000001 0  5.336734693877551 -0.6000000000000001 0  5.316326530612245 -0.6000000000000001 0  5.295918367346939 -0.6000000000000001 0  5.275510204081633 -0.6000000000000001 0  5.255102040816326 -0.6000000000000001 0  5.23469387755102 -0.6000000000000001 0  5.214285714285714 -0.6000000000000001 0  5.193877551020408 -0.6000000000000001 0  5.173469387755102 -0.6000000000000001 0  5.153061224489796 -0.6000000000000001 0  5.13265306122449 -0.6000000000000001 0  5.112244897959184 -0.6000000000000001 0  5.091836734693878 -0.6000000000000001 0  5.071428571428571 -0.6000000000000001 0  5.051020408163265 -0.6000000000000001 0  5.030612244897959 -0.6000000000000001 0  5.010204081632653 -0.6000000000000001 0  4.989795918367347 -0.6000000000000001 0  4.969387755102041 -0.6000000000000001 0  4.948979591836735 -0.6000000000000001 0  4.928571428571429 -0.6000000000000001 0  4.908163265306122 -0.6000000000000001 0  4.887755102040816 -0.6000000000000001 0  4.86734693877551 -0.6000000000000001 0  4.846938775510204 -0.6000000000000001 0  4.826530612244898 -0.6000000000000001 0  4.806122448979592 -0.6000000000000001 0  4.785714285714286 -0.6000000000000001 0  4.76530612244898 -0.6000000000000001 0  4.744897959183674 -0.6000000000000001 0  4.724489795918368 -0.6000000000000001 0  4.704081632653061 -0.6000000000000001 0  4.683673469387755 -0.6000000000000001 0  4.663265306122449 -0.6000000000000001 0  4.642857142857143 -0.6000000000000001 0  4.622448979591836 -0.6000000000000001 0  4.602040816326531 -0.6000000000000001 0  4.581632653061225 -0.6000000000000001 0  4.561224489795919 -0.6000000000000001 0  4.540816326530612 -0.6000000000000001 0  4.520408163265306 -0.6000000000000001 0  4.5 -0.5916666666666668 0  4.5 -0.5833333333333334 0  4.5 -0.5750000000000001 0  4.5 -0.5666666666666668 0  4.5 -0.5583333333333333 0  4.5 -0.55 0  4.5 -0.5416666666666667 0  4.5 -0.5333333333333333 0  4.5 -0.525 0  4.5 -0.5166666666666666 0  4.5 -0.5083333333333333 0  4.5 -0.4999999999999999 0  4.5 -0.4916666666666666 0  4.5 -0.4833333333333332 0  4.5 -0.4749999999999999 0  4.5 -0.4666666666666666 0  4.5 -0.4583333333333333 0  4.5 -0.45 0  4.5 -0.4416666666666667 0  4.5 -0.4333333333333333 0  4.5 -0.425 0  4.5 -0.4166666666666667 0  4.5 -0.4083333333333334 0  4.5125 -0.4 0  4.525 -0.4 0  4.5375 -0.4 0  4.55 -0.4 0  4.5625 -0.4 0  4.575 -0.4 0  4.587499999999999 -0.4 0  4.6 -0.4 0  4.6125 -0.4 0  4.625 -0.4 0  4.637499999999999 -0.4 0  4.649999999999999 -0.4 0  4.6625 -0.4 0  4.675 -0.4 0  4.6875 -0.4 0  4.699999999999999 -0.4 0  4.712499999999999 -0.4 0  4.725 -0.4 0  4.7375 -0.4 0  4.75 -0.4 0  4.7625 -0.4 0  4.774999999999999 -0.4 0  4.7875 -0.4 0  4.8 -0.3833333333333333 0  4.8 -0.3666666666666666 0  4.8 -0.3499999999999999 0  4.8 -0.3333333333333333 0  4.8 -0.3166666666666665 0  4.8 -0.2999999999999998 0  4.8 -0.2833333333333331 0  4.8 -0.2666666666666664 0  4.8 -0.2499999999999998 0  4.8 -0.2333333333333331 0  4.8 -0.2166666666666665 0  4.8 -0.1999999999999999 0  4.8 -0.1833333333333332 0  4.8 -0.1666666666666665 0  4.8 -0.1499999999999998 0  4.8 -0.1333333333333331 0  4.8 -0.1166666666666665 0  4.8 -0.09999999999999987 0  4.8 -0.0833333333333332 0  4.8 -0.06666666666666654 0  4.8 -0.04999999999999988 0  4.8 -0.03333333333333327 0  4.8 -0.01666666666666661 0  0.1378568875240437 0 0  0.2729566377271358 0 0  0.4053543934976697 0 0  0.5351041938077431 0 0  0.6622589976130751 0 0  0.7868707053643811 0 0  0.9089901789958823 0 0  1.028667263218748 0 0  1.14595080597766 0 0  1.260888678095464 0 0  1.373527792852679 0 0  1.483914125496606 0 0  1.592092731258683 0 0  1.698107764821866 0 0  1.802002497531814 0 0  1.90381933543871 0 0  2.003599837235452 0 0  2.101384728705643 0 0  2.197213922283282 0 0  2.291126532207516 0 0  2.38316088991875 0 0  2.473354560839241 0 0  2.56174435771825 0 0  2.648366358500676 0 0  2.733255919649871 0 0  2.81644768934063 0 0  2.897975623365796 0 0  2.977872999136252 0 0  3.056172427651654 0 0  3.132905867173631 0 0  3.208104637720262 0 0  3.28179943290277 0 0  3.354020331980409 0 0  3.42479681287121 0 0  3.494157764630528 0 0  3.562131497303279 0 0  3.628745754972536 0 0  3.69402772750921 0 0  3.758004060518725 0 0  3.820700866964234 0 0  3.882143737648484 0 0  3.942357751260559 0 0  4.0013674
[...]
<PointData  Vectors="displacement"> 
<DataArray  type="Float64"  Name="displacement"  NumberOfComponents="3" format="ascii">0.0000000000000000e+00 0.0000000000000000e+00 0.0000000000000000e+00  -1.3235263709500754e-02 -2.0559507247515669e-03 0.0000000000000000e+00  0.0000000000000000e+00 0.0000000000000000e+00 0.0000000000000000e+00  1.3234653891782014e-02 -2.0561751294625643e-03 0.0000000000000000e+00  0.0000000000000000e+00 -2.8936805267316339e-02 0.0000000000000000e+00  0.0000000000000000e+00 -2.8872780488016555e-02 0.0000000000000000e+00  0.0000000000000000e+00 -2.9083579876965623e-02 0.0000000000000000e+00  0.0000000000000000e+00 -4.3853349368061165e-02 0.0000000000000000e+00  0.0000000000000000e+00 -4.3809167742526245e-02 0.0000000000000000e+00  0.0000000000000000e+00 -2.9079304901689862e-02 0.0000000000000000e+00  0.0000000000000000e+00 -2.8868906091410330e-02 0.0000000000000000e+00  0.0000000000000000e+00 -2.8932966164111742e-02 0.0000000000000000e+00  -2.5537160065234195e-03 -2.0180069504013680e-03 0.0000000000000000e+00  -4.6159991425278792e-03 -2.6140125434503335e-03 0.0000000000000000e+00  -6.4652676620562122e-03 -2.7614008566999872e-03 0.0000000000000000e+00  -8.0406560358668461e-03 -2.6531750272651934e-03 0.0000000000000000e+00  -9.3441891150114163e-03 -2.4457123292108201e-03 0.0000000000000000e+00  -1.0426645415480485e-02 -2.2411742959136038e-03 0.0000000000000000e+00  -1.1375322605161288e-02 -2.1067030692809218e-03 0.0000000000000000e+00  -1.2288234549774612e-02 -2.0568938670425755e-03 0.0000000000000000e+00  0.0000000000000000e+00 0.0000000000000000e+00 0.0000000000000000e+00  0.0000000000000000e+00 0.0000000000000000e+00 0.0000000000000000e+00  0.0000000000000000e+00 0.0000000000000000e+00 0.0000000000000000e+00  0.0000000000000000e+00 0.0000000000000000e+00 0.0000000000000000e+00  0.0000000000000000e+00 0.0000000000000000e+00 0.0000000000000000e+00  0.0000000000000000e+00 0.0000000000000000e+00 0.0000000000000000e+00  0.0000000000000000e+00 0.0000000000000000e+00 0.0000000000000000e+00  0.0000000000000000e+00 0.0000000000000000e+00 0.0000000000000000e+00  0.0000000000000000e+00 0.0000000000000000e+00 0.0000000000000000e+00  0.0000000000000000e+00 0.0000000000000000e+00 0.0000000000000000e+00  0.0000000000000000e+00 0.0000000000000000e+00 0.0000000000000000e+00  0.0000000000000000e+00 0.0000000000000000e+00 0.0000000000000000e+00  0.0000000000000000e+00 0.0000000000000000e+00 0.0000000000000000e+00  0.0000000000000000e+00 0.0000000000000000e+00 0.0000000000000000e+00  0.0000000000000000e+00 0.0000000000000000e+00 0.0000000000000000e+00  0.0000000000000000e+00 0.0000000000000000e+00 0.0000000000000000e+00  0.0000000000000000e+00 0.0000000000000000e+00 0.0000000000000000e+00  0.0000000000000000e+00 0.0000000000000000e+00 0.0000000000000000e+00  0.0000000000000000e+00 0.0000000000000000e+00 0.0000000000000000e+00  0.0000000000000000e+00 0.0000000000000000e+00 0.0000000000000000e+00  0.0000000000000000e+00 0.0000000000000000e+00 0.0000000000000000e+00  0.0000000000000000e+00 0.0000000000000000e+00 0.0000000000000000e+00  0.0000000000000000e+00 0.0000000000000000e+00 0.0000000000000000e+00  0.0000000000000000e+00 0.0000000000000000e+00 0.0000000000000000e+00  0.0000000000000000e+00 0.0000000000000000e+00 0.0000000000000000e+00  0.0000000000000000e+00 0.0000000000000000e+00 0.0000000000000000e+00  0.0000000000000000e+00 0.0000000000000000e+00 0.0000000000000000e+00  0.0000000000000000e+00 0.0000000000000000e+00 0.0000000000000000e+00  0.0000000000000000e+00 0.0000000000000000e+00 0.0000000000000000e+00  0.0000000000000000e+00 0.0000000000000000e+00 0.0000000000000000e+00  0.0000000000000000e+00 0.0000000000000000e+00 0.0000000000000000e+00  0.0000000000000000e+00 0.0000000000000000e+00 0.0000000000000000e+00  0.0000000000000000e+00 0.0000000000000000e+00 0.0000000000000000e+00  0.0000000000000000e+00 0.0000000000000000e+00 0.0000000000000000e+00  0.0000000000000000e+00 0.0000000000000000e+00 0.0000000000000000e+00  0.0000000000000000e+00 0.0000000000000000e+00 0.0000000000000000e+00  0.0000000000000000e+00 0.0000000000000000e+00 0.0000000000000000e+00  0.0000000000000000e+00 0.0000000000000000e+00 0.0000000000000000e+00  0.0000000000000000e+00 0.0000000000000000e+00 0.0000000000000000e+00  0.0000000000000000e+00 0.0000000000000000e+00 0.0000000000000000e+00  0.0000000000000000e+00 0.0000000000000000e+00 0.0000000000000000e+00  0.0000000000000000e+00 0.0000000000000000e+00 0.0000000000000000e+00  0.0000000000000000e+00 0.0000000000000000e+00 0.0000000000000000e+00  0.0000000000000000e+00 0.0000000000000000e+00 0.0000000000000000e+00  0.0000000000000000e+00 0.0000000000000000e+00 0.0000000000000000e+00  0.0000000000000000e+00 0.0000000000000000e+00 0.0000000000000000e+00  0.0000000000000000e+00 0.0000000000000000e+00 0.0000000000000000e+00  0.0000000000000000e+00 0.0000000000000000e+00 0.0000000000000000e+00  0.0000000000000000e+00 0.0000000000000000e+00 0.0000000000000000e+00  0.0000000000000000e+00 0.0000000000000000e+00 0.0000000000000000e+00  0.0000000000000000e+00 0.0000000000000000e+00 0.0000000000000000e+00  0.0000000000000000e+00 0.0000000000000000e+00 0.0000000000000000e+00  0.0000000000000000e+00 0.0000000000000000e+00 0.0000000000000000e+00  0.0000000000000000e+00 0.0000000000000000e+00 0.0000000000000000e+00  0.0000000000000000e+00 0.0000000000000000e+00 0.0000000000000000e+00  0.0000000000000000e+00 0.0000000000000000e+00 0.0000000000000000e+00  0.0000000000000000e+00 0.0000000000000000e+00 0.0000000000000000e+00  0.0000000000000000e+00 0.0000000000000000e+00 0.0000000000000000e+00  0.0000000000000000e+00 0.0000000000000000e+00 0.0000000000000000e+00  0.0000000000000000e+00 0.0000000000000000e+00 0.0000000000000000e+00  0.0000000000000000e+00 0.0000000000000000e+00 0.0000000000000000e+00  0.0000000000000000e+00 0.0000000000000000e+00 0.0000000000000000e+00  0.0000000000000000e+00 0.0000000000000000e+00 0.0000000000000000e+00  0.0000000000000000e+00 0.0000000000000000e+00 0.0000000000000000e+00  0.0000000000000000e+00 0.0000000000000000e+00 0.0000000000000000e+00  0.0000000000000000e+00 0.0000000000000000e+00 0.0000000000000000e+00  0.0000000000000000e+00 0.0000000000000000e+00 0.0000000000000000e+00  0.0000000000000000e+00 0.0000000000000000e+00 0.0000000000000000e+00  0.0000000000000000e+00 0.0000000000000000e+00 0.0000000000000000e+00  0.0000000000000000e+00 0.0000000000000000e+00 0.0000000000000000e+00  0.0000000000000000e+00 0.0000000000000000e+00 0.0000000000000000e+00  0.0000000000000000e+00 0.0000000000000000e+00 0.0000000000000000e+00  0.0000000000000000e+00 0.0000000000000000e+00 0.0000000000000000e+00  0.0000000000000000e+00 0.0000000000000000e+00 0.0000000000000000e+00  0.0000000000000000e+00 0.0000000000000000e+00 0.0000000000000000e+00  0.0000000000000000e+00 0.0000000000000000e+00 0.0000000000000000e+00  0.0000000000000000e+00 0.0000000000000000e+00 0.0000000000000000e+00  0.0000000000000000e+00 0.0000000000000000e+00 0.0000000000000000e+00  1.2287411075604330e-02 -2.0572229998481848e-03 0.0000000000000000e+00  1.1375093476398899e-02 -2.1064939799684047e-03 0.0000000000000000e+00  1.0426526767661518e-02 -2.2411839870868878e-03 0.0000000000000000e+00  9.3446295396118605e-03 -2.4458638814694473e-03 0.0000000000000000e+00  8.0414113572148897e-03 -2.6523052279674841e-03 0.0000000000000000e+00  6.4652538576730470e-03 -2.7635494201019390e-03 0.0000000000000000e+00  4.6153961007971431e-03 -2.6162347693265285e-03 0.0000000000000000e+00  2.5551516452032167e-03 -2.0166994723385305e-03 0.0000000000000000e+00  -1.2195392268945711e-04 -2.8929434646530399e-02 0.0000000000000000e+00  -2.5288508833238747e-04 -2.8905065062618945e-02 0.0000000000000000e+00  -3.9879869464119576e-04 -2.8857758348065532e-02 0.0000000000000000e+00  -5.6440338015477918e-04 -2.8777761417365075e-02 0.0000000000000000e+00  -7.6802965218459934e-04 -2.8638748006573064e-02 0.0000000000000000e+00  -1.0559228315361734e-03 -2.8391275592467378e-02 0.0000000000000000e+00  -1.4343941298200296e-03 -2.8011051082400450e-02 0.0000000000000000e+00  -1.9074307412453716e-03 -2.7459299330847120e-02 0.0000000000000000e+00  -2.4498201514383663e-03 -2.6687457650932427e-02 0.0000000000000000e+00  -2.9929369490781254e-03 -2.5632155392044061e-02 0.0000000000000000e+00  -3.3888850334519069e-03 -2.4211760337428327e-02 0.0000000000000000e+00  -3.5913893202171457e-03 -2.2424438761911854e-02 0.0000000000000000e+00  -3.6769649405705603e-03 -2.0400406743247793e-02 0.0000000000000000e+00  -3.6246036104748986e-03 -1.8226707625412512e-02 0.0000000000000000e+00  -3.4447461962497485e-03 -1.6007812893278125e-02 0.0000000000000000e+00  -3.0102741293049767e-03 -1.3883947088438984e-02 0.0000000000000000e+00  -2.3000036538910760e-03 -1.1871454511450906e-02 0.0000000000000000e+00  -1.4079054278618988e-03 -1.0018871519100012e-02 0.0000000000000000e+00  -4.1642812432446207e-04 -8.3370718951554876e-03 0.0000000000000000e+00  6.0896242204616961e-04 -6.8160421796598291e-03 0.0000000000000000e+00  1.6217074704199951e-03 -5.4430407744093237e-03 0.0000000000000000e+00  2.5906378436710395e-03 -4.2063692563361552e-03 0.0000000000000000e+00  3.4976526562964768e-03 -3.0968983421367949e-03 0.0000000000000000e+00  4.3331826164957257e-03 -2.1069953124155092e-03 0.0000000000000000e+00  5.0933906106441695e-03 -1.2293674069814918e-03 0.0000000000000000e+00  5.7811191844433715e-03 -4.5344992938952733e-04 0.0000000000000000e+00  6.4099050906234779e-03 2.3691288244635420e-04 0.0000000000000000e+00  6.9936372528251875e-03 8.5539634473113439e-04 0.0000000000000000e+00  7.5390451502956668e-03 1.4062770799918587e-03 0.0000000000000000e+00  8.0451046549704901e-03 1.8886546624082888e-03 0.0000000000000000e+00  8.5089355505854197e-03 2.2996023801969269e-03 0.0000000000000000e+00  8.9273587682438989e-03 2.6380025457381022e-03 0.0000000000000000e+00  9.3021809130010361e-03 2.9059946061451751e-03 0.0000000000000000e+00  9.6405637530325751e-03 3.1108766990624007e-03 0.0000000000000000e+00  9.9601741333907624e-03 3.2662842096660657e-03 0.0000000000000000e+00  1.0270702769379575e-02 3.3797262716321061e-03 0.0000000000000000e+00  1.0567917464242902e-02 3.4512422232510372e-03 0.0000000000000000e+00  1.0849766387491968e-02 3.4822790337390407e-03 0.0000000000000000e+00  1.1115144603471334e-02 3.4745365645446088e-03 0.0000000000000000e+00  1.1363592093247221e-02 3.4299188070315099e-03 0.0000000000000000e+00  1.1594801208505524e-02 3.3502825813898759e-03 0.0000000000000000e+00  1.1808950929740276e-02 3.2375237317868412e-03 0.0000000000000000e+00  1.2006260631652851e-02 3.0934751050717985e-03 0.0000000000000000e+00  1.2187105165816420e-02 2.9198663989425718e-03 0.0000000000000000e+00  1.2351954254107457e-02 2.7183682295245622e-03 0.0000000000000000e+00  1.2501294432179675e-02 2.4905657734532669e-03 0.0000000000000000e+00  1.2635588342754519e-02 2.2380093679357760e-03 0.0000000000000000e+00  1.2755439757550190e-02 1.9622613564769234e-03 0.0000000000000000e+00  1.2861108079428927e-02 1.6647619155641766e-03 0.0000000000000000e+00  1.2953007923594955e-02 1.3471343819042084e-03 0.0000000000000000e+00  1.3031413192444418e-02 1.0110786738259314e-03 0.0000000000000000e+00  1.3096470267992129e-02 6.5847640819650141e-04 0.0000000000000000e+00  1.3148373467422016e-02 2.9153562472978385e-04 0.0000000000000000e+00  1.3187354823680067e-02 -8.7213440074948887e-05 0.0000000000000000e+00  1.3213895989145451e-02 -4.7477598647229727e-04 0.0000000000000000e+00  1.3229016988198429e-02 -8.6787869829721680e-04 0.0000000000000000e+00  1.3234939305158238e-02 -1.2632119176985875e-03 0.0000000000000000e+00  1.3234913982549572e-02 -1.6582747015176029e-03 0.0000000000000000e+00  0.0000000000000000e+00 -2.8956488034767851e-02 0.0000000000000000e+00  0.0000000000000000e+00 -2.8974612824525566e-02 0.0000000000000000e+00  0.0000000000000000e+00 -2.8990666773627698e-02 0.0000000000000000e+00  0.0000000000000000e+00 -2.9004274080759139e-02 0.0000000000000000e+00  0.0000000000000000e+00 -2.9015123128783717e-02 0.0000000000000000e+00  0.0000000000000000e+00 -2.9023011493640980e-02 0.0000000000000000e+00  0.0000000000000000e+00 -2.9027814187284253e-02 0.0000000000000000e+00  0.0000000000000000e+00 -2.9029493648203914e-02 0.0000000000000000e+00  0.0000000000000000e+00 -2.9028092050268146e-02 0.0000000000000000e+00  0.0000000000000000e+00 -2.9023743661191787e-02 0.0000000000000000e+00  0.0000000000000000e+00 -2.9016646217128548e-02 0.0000000000000000e+00  0.0000000000000000e+00 -2.9007098751851982e-02 0.0000000000000000e+00  0.0000000000000000e+00 -2.8995441328845201e-02 0.0000000000000000e+00  0.0000000000000000e+00 -2.8982110444406295e-02 0.0000000000000000e+00  0.0000000000000000e+00 -2.8967595801329481e-02 0.0000000000000000e+00  0.0000000000000000e+00 -2.8952398189770842e-02 0.0000000000000000e+00  0.0000000000000000e+00 -2.8937120016195871e-02 0.0000000000000000e+00  0.0000000000000000e+00 -2.8922319562060251e-02 0.0000000000000000e+00  0.0000000000000000e+00 -2.8908581659651059e-02 0.0000000000000000e+00  0.0000000000000000e+00 -2.8896453715088009e-02 0.0000000000000000e+00  0.0000000000000000e+00 -2.8886445824830673e-02 0.0000000000000000e+00  0.0000000000000000e+00 -2.8878965766744685e-02 0.0000000000000000e+00  0.0000000000000000e+00 -2.8874344900209254e-02 0.0000000000000000e+00  0.0000000000000000e+00 -2.8871957777495651e-02 0.0000000000000000e+00  0.0000000000000000e+00 -2.8869494757777624e-02 0.0000000000000000e+00  0.0000000000000000e+00 -2.8865410425330751e-02 0.0000000000000000e+00  0.0000000000000000e+00 -2.8859736709323510e-02 0.0000000000000000e+00  0.0000000000000000e+00 -2.8852520667511160e-02 0.0000000000000000e+00  0.0000000000000000e+00 -2.8843824862195496e-02 0.0000000000000000e+00  0.0000000000000000e+00 -2.8833739989810411e-02 0.0000000000000000e+00  0.0000000000000000e+00 -2.8822374312625083e-02 0.0000000000000000e+00  0.0000000000000000e+00 -2.8809868276516683e-02 0.0000000000000000e+00  0.0000000000000000e+00 -2.8796403179552475e-02 0.0000000000000000e+00  0.0000000000000000e+00 -2.8782208592516640e-02 0.0000000000000000e+00  0.0000000000000000e+00 -2.8767578498491951e-02 0.0000000000000000e+00  0.0000000000000000e+00 -2.8752888592466150e-02 0.0000000000000000e+00  0.0000000000000000e+00 -2.8738623194171222e-02 0.0000000000000000e+00  0.0000000000000000e+00 -2.8725431508638332e-02 0.0000000000000000e+00  0.0000000000000000e+00 -2.8714217507144368e-02 0.0000000000000000e+00  0.0000000000000000e+00 -2.8706523213041388e-02 0.0000000000000000e+00  0.0000000000000000e+00 -2.8703233530634312e-02 0.0000000000000000e+00  0.0000000000000000e+00 -2.8702790503738678e-02 0.0000000000000000e+00  0.0000000000000000e+00 -2.8709427255490798e-02 0.0000000000000000e+00  0.0000000000000000e+00 -2.8729140006484494e-02 0.0000000000000000e+00  0.0000000000000000e+00 -2.8771582645463291e-02 0.0000000000000000e+00  0.0000000000000000e+00 -2.8858055674210091e-02 0.0000000000000000e+00  0.0000000000000000e+00 -2.9345865594623953e-02 0.0000000000000000e+00  0.0000000000000000e+00 -2.9540995395023056e-02 0.0000000000000000e+00  0.0000000000000000e+00 -2.9734873977193068e-02 0.0000000000000000e+00  0.0000000000000000e+00 -2.9940778865180335e-02 0.0000000000000000e+00  0.0000000000000000e+00 -3.0160569257695214e-02 0.0000000000000000e+00  0.0000000000000000e+00 -3.0396670826905246e-02 0.0000000000000000e+00  0.0000000000000000e+00 -3.0651496107500713e-02 0.0000000000000000e+00  0.0000000000000000e+00 -3.0926346243950433e-02 0.0000000000000000e+00  0.0000000000000000e+00 -3.1223491075771128e-02 0.0000000000000000e+00  0.0000000000000000e+00 -3.1544431517732847e-02 0.0000000000000000e+00  0.0000000000000000e+00 -3.1893055294965299e-02 0.0000000000000000e+00  0.0000000000000000e+00 -3.2269421154994447e-02 0.0000000000000000e+00  0.0000000000000000e+00 -3.2679465269391875e-02 0.0000000000000000e+00  0.0000000000000000e+00 -3.3124853538737620e-02 0.0000000000000000e+00  0.0000000000000000e+00 -3.3611905072213774e-02 0.0000000000000000e+00  0.0000000000000000e+00 -3.4144846777442200e-02 0.0000000000000000e+00  0.0000000000000000e+00 -3.4730216115127499e-02 0.0000000000000000e+00  0.0000000000000000e+00 -3.5382471105989105e-02 0.0000000000000000e+00  0.0000000000000000e+00 -3.6112655632140306e-02 0.0000000000000000e+00  0.0000000000000000e+00 -3.6942408611102796e-02 0.0000000000000000e+00  0.0000000000000000e+00 -3.7916047622086259e-02 0.0000000000000000e+00  0.0000000000000000e+00 -3.9106996613039562e-02 0.0000000000000000e+00  0.0000000000000000e+00 -4.0932328867304718e-02 0.0000000000000000e+00  -1.5093912652379615e-03 -5.9829160464554706e-02 0.0000000000000000e+00  -1.6539561787325908e-03 -6.8440549745678772e-02 0.0000000000000000e+00  -1.8496465700348465e-03 -7.4967147651473012e-02 0.0000000000000000e+00  -1.9784062767266605e-03 -8.0439985961351310e-02 0.0000000000000000e+00  -2.0359600591410088e-03 -8.5162640813489218e-02 0.0000000000000000e+00  -2.0549621376209576e-03 -8.9312510140240817e-02 0.0000000000000000e+00  -2.0441935021487203e-03 -9.3005925593912436e-02 0.0000000000000000e+00  -2.0077618224544152e-03 -9.6316529578329535e-02 0.0000000000000000e+00  -1.9515816686181307e-03 -9.9297036484829904e-02 0.0000000000000000e+00  -1.8785649146278189e-03 -1.0198716238763926e-01 0.0000000000000000e+00  -1.7917401197743590e-03 -1.0441664740661442e-01 0.0000000000000000e+00  -1.6936411992790864e-03 -1.0660901985667795e-01 0.0000000000000000e+00  -1.5859559752496408e-03 -1.0858279880142395e-01 0.0000000000000000e+00  -1.4703023899627786e-03 -1.1035297810944597e-01 0.0000000000000000e+00  -1.3477349231544214e-03 -1.1193189083103362e-01 0.0000000000000000e+00  -1.2195578283862444e-03 -1.1332954498605023e-01 0.0000000000000000e+00  -1.0865250718730326e-03 -1.1455396671895074e-01 0.0000000000000000e+00  -9.4947226125123899e-04 -1.1561216633123879e-01 0.0000000000000000e+00  -8.0906372888901561e-04 -1.1650981585551104e-01 0.0000000000000000e+00  -6.6601795359403249e-04 -1.1725144580949710e-01 0.0000000000000000e+00  -5.2083576278624615e-04 -1.1784064566497941e-01 0.0000000000000000e+00  -3.7410452560939357e-04 -1.1828013139739051e-01 0.0000000000000000e+00  -2.2620656708231674e-04 -1.1857208459976601e-01 0.0000000000000000e+00  -7.7597554117568869e-05 -1.1871778240578741e-01 0.0000000000000000e+00  7.1136092041798599e-05 -1.1871782081241934e-01 0.0000000000000000e+00  2.1966957657023597e-04 -1.1857231429735733e-01 0.0000000000000000e+00  3.6762665584897145e-04 -1.1828049264682051e-01 0.0000000000000000e+00  5.1431736432234912e-04 -1.1784106381886421e-01 0.0000000000000000e+00  6.5939692534373385e-04 -1.1725206468393549e-01 0.0000000000000000e+00  8.0237808175542174e-04 -1.1651058157195808e-01 0.0000000000000000e+00  9.4269649550482698e-04 -1.1561304241280078e-01 0.0000000000000000e+00  1.0797275951032518e-03 -1.1455492887702905e-01 0.0000000000000000e+00  1.2124911347897178e-03 -1.1333052350370514e-01 0.0000000000000000e+00  1.3406794044914939e-03 -1.1193304626283414e-01 0.0000000000000000e+00  1.4631352589208957e-03 -1.1035423319977831e-01 0.0000000000000000e+00  1.5787344202584474e-03 -1.0858433315889597e-01 0.0000000000000000e+00  1.6861720712155316e-03 -1.0661089860223395e-01 0.0000000000000000e+00  1.7839517247946340e-03 -1.0441889468718675e-01 0.0000000000000000e+00  1.8695933167934070e-03 -1.0198948307363916e-01 0.0000000000000000e+00  1.9431959031145237e-03 -9.9299550478809950e-02 0.0000000000000000e+00  1.9990378029601220e-03 -9.6319108947087451e-02 0.0000000000000000e+00  2.0342474282677579e-03 -9.3009396449608650e-02 0.0000000000000000e+00  2.0442083271547235e-03 -8.9316167310132824e-02 0.0000000000000000e+00  2.0218482641388719e-03 -8.5163897365603064e-02 0.0000000000000000e+00  1.9602859359538270e-03 -8.0442469935358876e-02 0.0000000000000000e+00  1.8366411151420714e-03 -7.4973037506220419e-02 0.0000000000000000e+00  1.6316068355658388e-03 -6.8423023099256325e-02 0.0000000000000000e+00  1.4695699226740244e-03 -5.9765894859318644e-02 0.00