<?xml version="1.0"?>
<VTKFile type="UnstructuredGrid"  version="0.1"  >
<UnstructuredGrid>
<Piece  NumberOfPoints="6382" NumberOfCells="12354">
<Points>
<DataArray  type="Float64"  NumberOfComponents="3"  format="ascii">0 -3 0  0 0 0  10 -3 0  10 0 0  5.2 0 0  5.2 -0.4 0  5.5 -0.4 0  5.5 -0.6000000000000001 0  4.5 -0.6000000000000001 0  4.5 -0.4 0  4.8 -0.4 0  4.8 0 0  0 -2.666666666666667 0  0 -2.333333333333333 0  0 -2 0  0 -1.666666666666667 0  0 -1.333333333333333 0  0 -1 0  0 -0.666666666666667 0  0 -0.3333333333333335 0  9.836518447033493 -3 0  9.676485174132324 -3 0  9.519716728676565 -3 0  9.366040597429432 -3 0  9.215293522901804 -3 0  9.067325347766827 -3 0  8.921978167503752 -3 0  8.779125793186953 -3 0  8.638633440048579 -3 0  8.500376249002967 -3 0  8.364235730108557 -3 0  8.230099119300583 -3 0  8.097858693472926 -3 0  7.96741165420296 -3 0  7.838659590098249 -3 0  7.711508416266758 -3 0  7.585867779025237 -3 0  7.461651037321721 -3 0  7.338774694871047 -3 0  7.217158563845377 -3 0  7.096725097152937 -3 0  6.977399455051415 -3 0  6.859109304538208 -3 0  6.741784490575633 -3 0  6.625356935727237 -3 0  6.509760461250432 -3 0  6.394930659317325 -3 0  6.2808046903675 -3 0  6.167321173775116 -3 0  6.054420032640893 -3 0  5.942042373994132 -3 0  5.830130346471836 -3 0  5.718627047087892 -3 0  5.607476358937133 -3 0  5.496622874861212 -3 0  5.386011773348871 -3 0  5.275588701244851 -3 0  5.1652996754838 -3 0  5.055090972556302 -3 0  4.944909027443701 -3 0  4.834700324516204 -3 0  4.724411298755151 -3 0  4.613988226651132 -3 0  4.50337712513879 -3 0  4.392523641062869 -3 0  4.281372952912111 -3 0  4.169869653528168 -3 0  4.05795762600587 -3 0  3.94557996735911 -3 0  3.832678826224885 -3 0  3.719195309632506 -3 0  3.605069340682676 -3 0  3.490239538749567 -3 0  3.374643064272765 -3 0  3.25821550942437 -3 0  3.140890695461794 -3 0  3.022600544948583 -3 0  2.903274902847057 -3 0  2.782841436154621 -3 0  2.661225305128949 -3 0  2.538348962678273 -3 0  2.414132220974763 -3 0  2.288491583733238 -3 0  2.161340409901745 -3 0  2.032588345797035 -3 0  1.902141306527067 -3 0  1.76990088069941 -3 0  1.63576426989143 -3 0  1.499623750997021 -3 0  1.361366559951406 -3 0  1.220874206813038 -3 0  1.078021832496241 -3 0  0.9326746522331657 -3 0  0.7847064770981866 -3 0  0.6339594025705644 -3 0  0.4802832713234277 -3 0  0.3235148258676688 -3 0  0.1634815529665037 -3 0  10 -0.3333333333333333 0  10 -0.6666666666666666 0  10 -1 0  10 -1.333333333333333 0  10 -1.666666666666667 0  10 -2 0  10 -2.333333333333333 0  10 -2.666666666666667 0  5.242711110725164 0 0  5.286293876642154 0 0  5.330766086609641 0 0  5.37614589213589 0 0  5.422451816439484 0 0  5.469702760205794 0 0  5.517918009017504 0 0  5.567117241892008 0 0  5.617320540096343 0 0  5.668548395644089 0 0  5.720821717893487 0 0  5.774161842649544 0 0  5.828590541642586 0 0  5.88413003019757 0 0  5.940802977381058 0 0  5.998632515893446 0 0  6.057642249375406 0 0  6.117856262977496 0 0  6.179299133651088 0 0  6.241995940085244 0 0  6.305972273082686 0 0  6.371254245606542 0 0  6.43786850326221 0 0  6.505842235920577 0 0  6.575203187664691 0 0  6.645979668539436 0 0  6.71820056760014 0 0  6.791895362764803 0 0  6.867094133292654 0 0  6.943827572794882 0 0  7.022127001289535 0 0  7.10202437703821 0 0  7.183552311040527 0 0  7.266744080707336 0 0  7.351633641831447 0 0  7.438255642584554 0 0  7.526645439439152 0 0  7.616839110330926 0 0  7.708873468012155 0 0  7.802786077905059 0 0  7.898615271449994 0 0  7.996400162886068 0 0  8.096180664647234 0 0  8.197997502517053 0 0  8.301892235188374 0 0  8.407907268711336 0 0  8.516085874431543 0 0  8.626472207031901 0 0  8.739111321743804 0 0  8.854049193814495 0 0  8.971332736524433 0 0  9.091009820696414 0 0  9.21312929427506 0 0  9.337741001971482 0 0  9.464895805719847 0 0  9.594645605970797 0 0  9.727043361679982 0 0  9.862143111819449 0 0  5.2 -0.01666666666666669 0  5.2 -0.03333333333333339 0  5.2 -0.05000000000000009 0  5.2 -0.06666666666666679 0  5.2 -0.0833333333333335 0  5.2 -0.1000000000000002 0  5.2 -0.1166666666666669 0  5.2 -0.1333333333333336 0  5.2 -0.1500000000000002 0  5.2 -0.1666666666666669 0  5.2 -0.1833333333333335 0  5.2 -0.2000000000000001 0  5.2 -0.2166666666666668 0  5.2 -0.2333333333333335 0  5.2 -0.2500000000000002 0  5.2 -0.2666666666666669 0  5.2 -0.2833333333333335 0  5.2 -0.3000000000000002 0  5.2 -0.3166666666666668 0  5.2 -0.3333333333333335 0  5.2 -0.3500000000000001 0  5.2 -0.3666666666666668 0  5.2 -0.3833333333333334 0  5.2125 -0.4 0  5.225 -0.4 0  5.2375 -0.4 0  5.25 -0.4 0  5.2625 -0.4 0  5.275 -0.4 0  5.2875 -0.4 0  5.3 -0.4 0  5.3125 -0.4 0  5.325 -0.4 0  5.337499999999999 -0.4 0  5.35 -0.4 0  5.3625 -0.4 0  5.375 -0.4 0  5.3875 -0.4 0  5.4 -0.4 0  5.4125 -0.4 0  5.425 -0.4 0  5.4375 -0.4 0  5.45 -0.4 0  5.4625 -0.4 0  5.475 -0.4 0  5.4875 -0.4 0  5.5 -0.4083333333333334 0  5.5 -0.4166666666666667 0  5.5 -0.425 0  5.5 -0.4333333333333334 0  5.5 -0.4416666666666668 0  5.5 -0.4500000000000001 0  5.5 -0.4583333333333334 0  5.5 -0.4666666666666668 0  5.5 -0.4750000000000001 0  5.5 -0.4833333333333335 0  5.5 -0.4916666666666668 0  5.5 -0.5000000000000002 0  5.5 -0.5083333333333335 0  5.5 -0.5166666666666668 0  5.5 -0.5250000000000002 0  5.5 -0.5333333333333335 0  5.5 -0.5416666666666669 0  5.5 -0.5500000000000002 0  5.5 -0.5583333333333335 0  5.5 -0.5666666666666668 0  5.5 -0.5750000000000002 0  5.5 -0.5833333333333335 0  5.5 -0.5916666666666668 0  5.479591836734694 -0.6000000000000001 0  5.459183673469388 -0.6000000000000001 0  5.438775510204081 -0.6000000000000001 0  5.418367346938775 -0.6000000000000001 0  5.397959183673469 -0.6000000000000001 0  5.377551020408164 -0.6000000000000001 0  5.357142857142857 -0.6000000000000001 0  5.336734693877551 -0.6000000000000001 0  5.316326530612245 -0.6000000000000001 0  5.295918367346939 -0.6000000000000001 0  5.275510204081633 -0.6000000000000001 0  5.255102040816326 -0.6000000000000001 0  5.23469387755102 -0.6000000000000001 0  5.214285714285714 -0.6000000000000001 0  5.193877551020408 -0.6000000000000001 0  5.173469387755102 -0.6000000000000001 0  5.153061224489796 -0.6000000000000001 0  5.13265306122449 -0.6000000000000001 0  5.112244897959184 -0.6000000000000001 0  5.091836734693878 -0.6000000000000001 0  5.071428571428571 -0.6000000000000001 0  5.051020408163265 -0.6000000000000001 0  5.030612244897959 -0.6000000000000001 0  5.010204081632653 -0.6000000000000001 0  4.989795918367347 -0.6000000000000001 0  4.969387755102041 -0.6000000000000001 0  4.948979591836735 -0.6000000000000001 0  4.928571428571429 -0.6000000000000001 0  4.908163265306122 -0.6000000000000001 0  4.887755102040816 -0.6000000000000001 0  4.86734693877551 -0.6000000000000001 0  4.846938775510204 -0.6000000000000001 0  4.826530612244898 -0.6000000000000001 0  4.806122448979592 -0.6000000000000001 0  4.785714285714286 -0.6000000000000001 0  4.76530612244898 -0.6000000000000001 0  4.744897959183674 -0.6000000000000001 0  4.724489795918368 -0.6000000000000001 0  4.704081632653061 -0.6000000000000001 0  4.683673469387755 -0.6000000000000001 0  4.663265306122449 -0.6000000000000001 0  4.642857142857143 -0.6000000000000001 0  4.622448979591836 -0.6000000000000001 0  4.602040816326531 -0.6000000000000001 0  4.581632653061225 -0.6000000000000001 0  4.561224489795919 -0.6000000000000001 0  4.540816326530612 -0.6000000000000001 0  4.520408163265306 -0.6000000000000001 0  4.5 -0.5916666666666668 0  4.5 -0.5833333333333334 0  4.5 -0.5750000000000001 0  4.5 -0.5666666666666668 0  4.5 -0.5583333333333333 0  4.5 -0.55 0  4.5 -0.5416666666666667 0  4.5 -0.5333333333333333 0  4.5 -0.525 0  4.5 -0.5166666666666666 0  4.5 -0.5083333333333333 0  4.5 -0.4999999999999999 0  4.5 -0.4916666666666666 0  4.5 -0.4833333333333332 0  4.5 -0.4749999999999999 0  4.5 -0.4666666666666666 0  4.5 -0.4583333333333333 0  4.5 -0.45 0  4.5 -0.4416666666666667 0  4.5 -0.4333333333333333 0  4.5 -0.425 0  4.5 -0.4166666666666667 0  4.5 -0.4083333333333334 0  4.5125 -0.4 0  4.525 -0.4 0  4.5375 -0.4 0  4.55 -0.4 0  4.5625 -0.4 0  4.575 -0.4 0  4.587499999999999 -0.4 0  4.6 -0.4 0  4.6125 -0.4 0  4.625 -0.4 0  4.637499999999999 -0.4 0  4.649999999999999 -0.4 0  4.6625 -0.4 0  4.675 -0.4 0  4.6875 -0.4 0  4.699999999999999 -0.4 0  4.712499999999999 -0.4 0  4.725 -0.4 0  4.7375 -0.4 0  4.75 -0.4 0  4.7625 -0.4 0  4.774999999999999 -0.4 0  4.7875 -0.4 0  4.8 -0.3833333333333333 0  4.8 -0.3666666666666666 0  4.8 -0.3499999999999999 0  4.8 -0.3333333333333333 0  4.8 -0.3166666666666665 0  4.8 -0.2999999999999998 0  4.8 -0.2833333333333331 0  4.8 -0.2666666666666664 0  4.8 -0.2499999999999998 0  4.8 -0.2333333333333331 0  4.8 -0.2166666666666665 0  4.8 -0.1999999999999999 0  4.8 -0.1833333333333332 0  4.8 -0.1666666666666665 0  4.8 -0.1499999999999998 0  4.8 -0.1333333333333331 0  4.8 -0.1166666666666665 0  4.8 -0.09999999999999987 0  4.8 -0.0833333333333332 0  4.8 -0.06666666666666654 0  4.8 -0.04999999999999988 0  4.8 -0.03333333333333327 0  4.8 -0.01666666666666661 0  0.1378568875240437 0 0  0.2729566377271358 0 0  0.4053543934976697 0 0  0.5351041938077431 0 0  0.6622589976130751 0 0  0.7868707053643811 0 0  0.9089901789958823 0 0  1.028667263218748 0 0  1.14595080597766 0 0  1.260888678095464 0 0  1.373527792852679 0 0  1.483914125496606 0 0  1.592092731258683 0 0  1.698107764821866 0 0  1.802002497531814 0 0  1.90381933543871 0 0  2.003599837235452 0 0  2.101384728705643 0 0  2.197213922283282 0 0  2.291126532207516 0 0  2.38316088991875 0 0  2.473354560839241 0 0  2.56174435771825 0 0  2.648366358500676 0 0  2.733255919649871 0 0  2.81644768934063 0 0  2.897975623365796 0 0  2.977872999136252 0 0  3.056172427651654 0 0  3.132905867173631 0 0  3.208104637720262 0 0  3.28179943290277 0 0  3.354020331980409 0 0  3.42479681287121 0 0  3.494157764630528 0 0  3.562131497303279 0 0  3.628745754972536 0 0  3.69402772750921 0 0  3.758004060518725 0 0  3.820700866964234 0 0  3.882143737648484 0 0  3.942357751260559 0 0  4.0013674
[...]
<PointData  Vectors="displacement"> 
<DataArray  type="Float64"  Name="displacement"  NumberOfComponents="3" format="ascii">0.0000000000000000e+00 0.0000000000000000e+00 0.0000000000000000e+00  -1.6847194653971730e-04 9.5505843996669429e-05 0.0000000000000000e+00  0.0000000000000000e+00 0.0000000000000000e+00 0.0000000000000000e+00  1.6849855130515718e-04 9.5484368365895671e-05 0.0000000000000000e+00  0.0000000000000000e+00 -3.0563885888486545e-03 0.0000000000000000e+00  0.0000000000000000e+00 -3.1570050987979772e-03 0.0000000000000000e+00  0.0000000000000000e+00 -3.0757996619415161e-03 0.0000000000000000e+00  0.0000000000000000e+00 -3.8800923995820063e-03 0.0000000000000000e+00  0.0000000000000000e+00 -3.8776179392453411e-03 0.0000000000000000e+00  0.0000000000000000e+00 -3.0755631688704470e-03 0.0000000000000000e+00  0.0000000000000000e+00 -3.1567587408270893e-03 0.0000000000000000e+00  0.0000000000000000e+00 -3.0561593516688569e-03 0.0000000000000000e+00  -9.1348205790614238e-05 -5.1807337023089328e-05 0.0000000000000000e+00  -1.6884695135225989e-04 -4.8412319088281673e-05 0.0000000000000000e+00  -2.2313076853699502e-04 -2.2795309261048795e-05 0.0000000000000000e+00  -2.5063381437715355e-04 1.2727828486555492e-05 0.0000000000000000e+00  -2.5341427143100775e-04 4.7681258216284868e-05 0.0000000000000000e+00  -2.3755055445025657e-04 7.5084466702253667e-05 0.0000000000000000e+00  -2.1227177083959006e-04 9.0800849738441135e-05 0.0000000000000000e+00  -1.8734723040105282e-04 9.5740624399452961e-05 0.0000000000000000e+00  0.0000000000000000e+00 0.0000000000000000e+00 0.0000000000000000e+00  0.0000000000000000e+00 0.0000000000000000e+00 0.0000000000000000e+00  0.0000000000000000e+00 0.0000000000000000e+00 0.0000000000000000e+00  0.0000000000000000e+00 0.0000000000000000e+00 0.0000000000000000e+00  0.0000000000000000e+00 0.0000000000000000e+00 0.0000000000000000e+00  0.0000000000000000e+00 0.0000000000000000e+00 0.0000000000000000e+00  0.0000000000000000e+00 0.0000000000000000e+00 0.0000000000000000e+00  0.0000000000000000e+00 0.0000000000000000e+00 0.0000000000000000e+00  0.0000000000000000e+00 0.0000000000000000e+00 0.0000000000000000e+00  0.0000000000000000e+00 0.0000000000000000e+00 0.0000000000000000e+00  0.0000000000000000e+00 0.0000000000000000e+00 0.0000000000000000e+00  0.0000000000000000e+00 0.0000000000000000e+00 0.0000000000000000e+00  0.0000000000000000e+00 0.0000000000000000e+00 0.0000000000000000e+00  0.0000000000000000e+00 0.0000000000000000e+00 0.0000000000000000e+00  0.0000000000000000e+00 0.0000000000000000e+00 0.0000000000000000e+00  0.0000000000000000e+00 0.0000000000000000e+00 0.0000000000000000e+00  0.0000000000000000e+00 0.0000000000000000e+00 0.0000000000000000e+00  0.0000000000000000e+00 0.0000000000000000e+00 0.0000000000000000e+00  0.0000000000000000e+00 0.0000000000000000e+00 0.0000000000000000e+00  0.0000000000000000e+00 0.0000000000000000e+00 0.0000000000000000e+00  0.0000000000000000e+00 0.0000000000000000e+00 0.0000000000000000e+00  0.0000000000000000e+00 0.0000000000000000e+00 0.0000000000000000e+00  0.0000000000000000e+00 0.0000000000000000e+00 0.0000000000000000e+00  0.0000000000000000e+00 0.0000000000000000e+00 0.0000000000000000e+00  0.0000000000000000e+00 0.0000000000000000e+00 0.0000000000000000e+00  0.0000000000000000e+00 0.0000000000000000e+00 0.0000000000000000e+00  0.0000000000000000e+00 0.0000000000000000e+00 0.0000000000000000e+00  0.0000000000000000e+00 0.0000000000000000e+00 0.0000000000000000e+00  0.0000000000000000e+00 0.0000000000000000e+00 0.0000000000000000e+00  0.0000000000000000e+00 0.0000000000000000e+00 0.0000000000000000e+00  0.0000000000000000e+00 0.0000000000000000e+00 0.0000000000000000e+00  0.0000000000000000e+00 0.0000000000000000e+00 0.0000000000000000e+00  0.0000000000000000e+00 0.0000000000000000e+00 0.0000000000000000e+00  0.0000000000000000e+00 0.0000000000000000e+00 0.0000000000000000e+00  0.0000000000000000e+00 0.0000000000000000e+00 0.0000000000000000e+00  0.0000000000000000e+00 0.0000000000000000e+00 0.0000000000000000e+00  0.0000000000000000e+00 0.0000000000000000e+00 0.0000000000000000e+00  0.0000000000000000e+00 0.0000000000000000e+00 0.0000000000000000e+00  0.0000000000000000e+00 0.0000000000000000e+00 0.0000000000000000e+00  0.0000000000000000e+00 0.0000000000000000e+00 0.0000000000000000e+00  0.0000000000000000e+00 0.0000000000000000e+00 0.0000000000000000e+00  0.0000000000000000e+00 0.0000000000000000e+00 0.0000000000000000e+00  0.0000000000000000e+00 0.0000000000000000e+00 0.0000000000000000e+00  0.0000000000000000e+00 0.0000000000000000e+00 0.0000000000000000e+00  0.0000000000000000e+00 0.0000000000000000e+00 0.0000000000000000e+00  0.0000000000000000e+00 0.0000000000000000e+00 0.0000000000000000e+00  0.0000000000000000e+00 0.0000000000000000e+00 0.0000000000000000e+00  0.0000000000000000e+00 0.0000000000000000e+00 0.0000000000000000e+00  0.0000000000000000e+00 0.0000000000000000e+00 0.0000000000000000e+00  0.0000000000000000e+00 0.0000000000000000e+00 0.0000000000000000e+00  0.0000000000000000e+00 0.0000000000000000e+00 0.0000000000000000e+00  0.0000000000000000e+00 0.0000000000000000e+00 0.0000000000000000e+00  0.0000000000000000e+00 0.0000000000000000e+00 0.0000000000000000e+00  0.0000000000000000e+00 0.0000000000000000e+00 0.0000000000000000e+00  0.0000000000000000e+00 0.0000000000000000e+00 0.0000000000000000e+00  0.0000000000000000e+00 0.0000000000000000e+00 0.0000000000000000e+00  0.0000000000000000e+00 0.0000000000000000e+00 0.0000000000000000e+00  0.0000000000000000e+00 0.0000000000000000e+00 0.0000000000000000e+00  0.0000000000000000e+00 0.0000000000000000e+00 0.0000000000000000e+00  0.0000000000000000e+00 0.0000000000000000e+00 0.0000000000000000e+00  0.0000000000000000e+00 0.0000000000000000e+00 0.0000000000000000e+00  0.0000000000000000e+00 0.0000000000000000e+00 0.0000000000000000e+00  0.0000000000000000e+00 0.0000000000000000e+00 0.0000000000000000e+00  0.0000000000000000e+00 0.0000000000000000e+00 0.0000000000000000e+00  0.0000000000000000e+00 0.0000000000000000e+00 0.0000000000000000e+00  0.0000000000000000e+00 0.0000000000000000e+00 0.0000000000000000e+00  0.0000000000000000e+00 0.0000000000000000e+00 0.0000000000000000e+00  0.0000000000000000e+00 0.0000000000000000e+00 0.0000000000000000e+00  0.0000000000000000e+00 0.0000000000000000e+00 0.0000000000000000e+00  0.0000000000000000e+00 0.0000000000000000e+00 0.0000000000000000e+00  0.0000000000000000e+00 0.0000000000000000e+00 0.0000000000000000e+00  0.0000000000000000e+00 0.0000000000000000e+00 0.0000000000000000e+00  0.0000000000000000e+00 0.0000000000000000e+00 0.0000000000000000e+00  0.0000000000000000e+00 0.0000000000000000e+00 0.0000000000000000e+00  0.0000000000000000e+00 0.0000000000000000e+00 0.0000000000000000e+00  0.0000000000000000e+00 0.0000000000000000e+00 0.0000000000000000e+00  0.0000000000000000e+00 0.0000000000000000e+00 0.0000000000000000e+00  0.0000000000000000e+00 0.0000000000000000e+00 0.0000000000000000e+00  1.8734797366412814e-04 9.5671941553897416e-05 0.0000000000000000e+00  2.1229630516753239e-04 9.0876576655342348e-05 0.0000000000000000e+00  2.3757041663313217e-04 7.5070090058085133e-05 0.0000000000000000e+00  2.5346152774965248e-04 4.7675426881893746e-05 0.0000000000000000e+00  2.5069182455588520e-04 1.2785205098531692e-05 0.0000000000000000e+00  2.2312763310779009e-04 -2.2916779103296308e-05 0.0000000000000000e+00  1.6879988383182968e-04 -4.8490317154567689e-05 0.0000000000000000e+00  9.1468825920994301e-05 -5.1796464552730251e-05 0.0000000000000000e+00  -5.0851270909135394e-05 -3.0535275016131754e-03 0.0000000000000000e+00  -1.0277546803146405e-04 -3.0446729129701188e-03 0.0000000000000000e+00  -1.5580778495317518e-04 -3.0293485503112018e-03 0.0000000000000000e+00  -2.0994447212435133e-04 -3.0069682723831833e-03 0.0000000000000000e+00  -2.6507316672296345e-04 -2.9768301898709941e-03 0.0000000000000000e+00  -3.2095855646990226e-04 -2.9381360732932526e-03 0.0000000000000000e+00  -3.7707015812279819e-04 -2.8900378150503126e-03 0.0000000000000000e+00  -4.3265176939680580e-04 -2.8317469806181921e-03 0.0000000000000000e+00  -4.8661092116617524e-04 -2.7627191292218666e-03 0.0000000000000000e+00  -5.3765046814922487e-04 -2.6827772164979015e-03 0.0000000000000000e+00  -5.8433594110367520e-04 -2.5922787049613332e-03 0.0000000000000000e+00  -6.2538789265851420e-04 -2.4921123973961176e-03 0.0000000000000000e+00  -6.5973366720726244e-04 -2.3836435595809943e-03 0.0000000000000000e+00  -6.8668169577864853e-04 -2.2685504222433972e-03 0.0000000000000000e+00  -7.0593762539469481e-04 -2.1486491908580358e-03 0.0000000000000000e+00  -7.1751087106778743e-04 -2.0257390156956864e-03 0.0000000000000000e+00  -7.2181793752438780e-04 -1.9015136983775275e-03 0.0000000000000000e+00  -7.1929920379967881e-04 -1.7774302951987363e-03 0.0000000000000000e+00  -7.1063489658502760e-04 -1.6547384625127306e-03 0.0000000000000000e+00  -6.9655857590525036e-04 -1.5344656626304898e-03 0.0000000000000000e+00  -6.7775375655380714e-04 -1.4174149295982453e-03 0.0000000000000000e+00  -6.5494377180304948e-04 -1.3042044911595455e-03 0.0000000000000000e+00  -6.2873890884104029e-04 -1.1952983104579872e-03 0.0000000000000000e+00  -5.9978953918317986e-04 -1.0910313774372636e-03 0.0000000000000000e+00  -5.6857452281048140e-04 -9.9163504133659174e-04 0.0000000000000000e+00  -5.3560888595449566e-04 -8.9725051478885438e-04 0.0000000000000000e+00  -5.0132601773409476e-04 -8.0795621748343564e-04 0.0000000000000000e+00  -4.6609710890477664e-04 -7.2377247359584247e-04 0.0000000000000000e+00  -4.3024545686259962e-04 -6.4469550370988547e-04 0.0000000000000000e+00  -3.9408956881348777e-04 -5.7067089910083416e-04 0.0000000000000000e+00  -3.5788718272313327e-04 -5.0162810264330624e-04 0.0000000000000000e+00  -3.2187226967509005e-04 -4.3747298973100565e-04 0.0000000000000000e+00  -2.8625293080074434e-04 -3.7809563395005625e-04 0.0000000000000000e+00  -2.5121559954708429e-04 -3.2337206337022361e-04 0.0000000000000000e+00  -2.1693407190359704e-04 -2.7315918085499784e-04 0.0000000000000000e+00  -1.8354407829102685e-04 -2.2732124359891432e-04 0.0000000000000000e+00  -1.5118855077662457e-04 -1.8569576894975136e-04 0.0000000000000000e+00  -1.1998426544335464e-04 -1.4811507875022131e-04 0.0000000000000000e+00  -9.0038108013345522e-05 -1.1440879321991001e-04 0.0000000000000000e+00  -6.1443878228333536e-05 -8.4395761120963572e-05 0.0000000000000000e+00  -3.4289169263256849e-05 -5.7891535151386901e-05 0.0000000000000000e+00  -8.6476718044728104e-06 -3.4697661875961553e-05 0.0000000000000000e+00  1.5413594219736157e-05 -1.4610327106365002e-05 0.0000000000000000e+00  3.7835085592603798e-05 2.5797480922092904e-06 0.0000000000000000e+00  5.8565397981100128e-05 1.7092870483438862e-05 0.0000000000000000e+00  7.7558767800628488e-05 2.9157763122095326e-05 0.0000000000000000e+00  9.4772830741062265e-05 3.9015753704333596e-05 0.0000000000000000e+00  1.1018467824758615e-04 4.6927132911372832e-05 0.0000000000000000e+00  1.2375692423570510e-04 5.3153140441125503e-05 0.0000000000000000e+00  1.3547593272163211e-04 5.7988448446091467e-05 0.0000000000000000e+00  1.4533780642547584e-04 6.1744844781866514e-05 0.0000000000000000e+00  1.5334761545230009e-04 6.4756756162889805e-05 0.0000000000000000e+00  1.5954178011850934e-04 6.7390781666780257e-05 0.0000000000000000e+00  1.6399171629174437e-04 7.0035785621276315e-05 0.0000000000000000e+00  1.6682679379562861e-04 7.3104223792302693e-05 0.0000000000000000e+00  1.6826359403694906e-04 7.6993069266144306e-05 0.0000000000000000e+00  1.6867555989011761e-04 8.2037554237415701e-05 0.0000000000000000e+00  1.6852535860082562e-04 8.8396448015772591e-05 0.0000000000000000e+00  0.0000000000000000e+00 -3.0647048667829710e-03 0.0000000000000000e+00  0.0000000000000000e+00 -3.0726453738136941e-03 0.0000000000000000e+00  0.0000000000000000e+00 -3.0802097895851854e-03 0.0000000000000000e+00  0.0000000000000000e+00 -3.0873994139913627e-03 0.0000000000000000e+00  0.0000000000000000e+00 -3.0942170659046769e-03 0.0000000000000000e+00  0.0000000000000000e+00 -3.1006664053348076e-03 0.0000000000000000e+00  0.0000000000000000e+00 -3.1067517847960741e-03 0.0000000000000000e+00  0.0000000000000000e+00 -3.1124776681551126e-03 0.0000000000000000e+00  0.0000000000000000e+00 -3.1178484505120624e-03 0.0000000000000000e+00  0.0000000000000000e+00 -3.1228682099242772e-03 0.0000000000000000e+00  0.0000000000000000e+00 -3.1275406169733746e-03 0.0000000000000000e+00  0.0000000000000000e+00 -3.1318682556289636e-03 0.0000000000000000e+00  0.0000000000000000e+00 -3.1358536239768395e-03 0.0000000000000000e+00  0.0000000000000000e+00 -3.1394977959156856e-03 0.0000000000000000e+00  0.0000000000000000e+00 -3.1428011866690394e-03 0.0000000000000000e+00  0.0000000000000000e+00 -3.1457639162015645e-03 0.0000000000000000e+00  0.0000000000000000e+00 -3.1483844602972740e-03 0.0000000000000000e+00  0.0000000000000000e+00 -3.1506617555460375e-03 0.0000000000000000e+00  0.0000000000000000e+00 -3.1525937030460732e-03 0.0000000000000000e+00  0.0000000000000000e+00 -3.1541783286251246e-03 0.0000000000000000e+00  0.0000000000000000e+00 -3.1554133564623012e-03 0.0000000000000000e+00  0.0000000000000000e+00 -3.1562971351780187e-03 0.0000000000000000e+00  0.0000000000000000e+00 -3.1568280116582824e-03 0.0000000000000000e+00  0.0000000000000000e+00 -3.1567924824167184e-03 0.0000000000000000e+00  0.0000000000000000e+00 -3.1561551642075953e-03 0.0000000000000000e+00  0.0000000000000000e+00 -3.1550947135182226e-03 0.0000000000000000e+00  0.0000000000000000e+00 -3.1536138059126010e-03 0.0000000000000000e+00  0.0000000000000000e+00 -3.1517162936404758e-03 0.0000000000000000e+00  0.0000000000000000e+00 -3.1494073555619869e-03 0.0000000000000000e+00  0.0000000000000000e+00 -3.1466934697584902e-03 0.0000000000000000e+00  0.0000000000000000e+00 -3.1435828334694551e-03 0.0000000000000000e+00  0.0000000000000000e+00 -3.1400857284682505e-03 0.0000000000000000e+00  0.0000000000000000e+00 -3.1362145370286369e-03 0.0000000000000000e+00  0.0000000000000000e+00 -3.1319844677278239e-03 0.0000000000000000e+00  0.0000000000000000e+00 -3.1274141892261402e-03 0.0000000000000000e+00  0.0000000000000000e+00 -3.1225265001626058e-03 0.0000000000000000e+00  0.0000000000000000e+00 -3.1173498866399591e-03 0.0000000000000000e+00  0.0000000000000000e+00 -3.1119199366096864e-03 0.0000000000000000e+00  0.0000000000000000e+00 -3.1062821461835793e-03 0.0000000000000000e+00  0.0000000000000000e+00 -3.1004952666128589e-03 0.0000000000000000e+00  0.0000000000000000e+00 -3.0946377470623637e-03 0.0000000000000000e+00  0.0000000000000000e+00 -3.0888196541786826e-03 0.0000000000000000e+00  0.0000000000000000e+00 -3.0831990028412455e-03 0.0000000000000000e+00  0.0000000000000000e+00 -3.0780251226156792e-03 0.0000000000000000e+00  0.0000000000000000e+00 -3.0737401815838440e-03 0.0000000000000000e+00  0.0000000000000000e+00 -3.0714016914448485e-03 0.0000000000000000e+00  0.0000000000000000e+00 -3.0898576488069597e-03 0.0000000000000000e+00  0.0000000000000000e+00 -3.1007520875623445e-03 0.0000000000000000e+00  0.0000000000000000e+00 -3.1115146867869881e-03 0.0000000000000000e+00  0.0000000000000000e+00 -3.1225215476016234e-03 0.0000000000000000e+00  0.0000000000000000e+00 -3.1339269546364831e-03 0.0000000000000000e+00  0.0000000000000000e+00 -3.1458204624760554e-03 0.0000000000000000e+00  0.0000000000000000e+00 -3.1582726826688405e-03 0.0000000000000000e+00  0.0000000000000000e+00 -3.1713416767740386e-03 0.0000000000000000e+00  0.0000000000000000e+00 -3.1850875802295303e-03 0.0000000000000000e+00  0.0000000000000000e+00 -3.1995689995266735e-03 0.0000000000000000e+00  0.0000000000000000e+00 -3.2148582641472615e-03 0.0000000000000000e+00  0.0000000000000000e+00 -3.2310171999971205e-03 0.0000000000000000e+00  0.0000000000000000e+00 -3.2481394957930617e-03 0.0000000000000000e+00  0.0000000000000000e+00 -3.2663152781279990e-03 0.0000000000000000e+00  0.0000000000000000e+00 -3.2856639023761112e-03 0.0000000000000000e+00  0.0000000000000000e+00 -3.3063223182659917e-03 0.0000000000000000e+00  0.0000000000000000e+00 -3.3284738288454395e-03 0.0000000000000000e+00  0.0000000000000000e+00 -3.3523875272049243e-03 0.0000000000000000e+00  0.0000000000000000e+00 -3.3784894264760339e-03 0.0000000000000000e+00  0.0000000000000000e+00 -3.4075915595158262e-03 0.0000000000000000e+00  0.0000000000000000e+00 -3.4445349972740480e-03 0.0000000000000000e+00  0.0000000000000000e+00 -3.4918296873691205e-03 0.0000000000000000e+00  0.0000000000000000e+00 -3.5956917482600696e-03 0.0000000000000000e+00  -4.6846954689119477e-04 -4.9637033918861961e-03 0.0000000000000000e+00  -5.0048143891942836e-04 -5.3580277685811757e-03 0.0000000000000000e+00  -5.0965653724202109e-04 -5.6101796754899564e-03 0.0000000000000000e+00  -5.0356652625681557e-04 -5.8149029775135799e-03 0.0000000000000000e+00  -4.9259911772426418e-04 -5.9903744028141845e-03 0.0000000000000000e+00  -4.7803031856700578e-04 -6.1452648861701981e-03 0.0000000000000000e+00  -4.6097980130130567e-04 -6.2841128415036113e-03 0.0000000000000000e+00  -4.4192082798025581e-04 -6.4096416448244549e-03 0.0000000000000000e+00  -4.2118486949936499e-04 -6.5236396401616246e-03 0.0000000000000000e+00  -3.9902035084952991e-04 -6.6273367650705938e-03 0.0000000000000000e+00  -3.7564748637284234e-04 -6.7216591112044081e-03 0.0000000000000000e+00  -3.5123642271764257e-04 -6.8073212412715165e-03 0.0000000000000000e+00  -3.2592913631466564e-04 -6.8848874040350928e-03 0.0000000000000000e+00  -2.9984266578812345e-04 -6.9548076177559969e-03 0.0000000000000000e+00  -2.7308448030140405e-04 -7.0174528146088209e-03 0.0000000000000000e+00  -2.4575352854145022e-04 -7.0731261510329959e-03 0.0000000000000000e+00  -2.1791888416468097e-04 -7.1220713474166404e-03 0.0000000000000000e+00  -1.8966071657291721e-04 -7.1644984464385181e-03 0.0000000000000000e+00  -1.6105071637989620e-04 -7.2005795328416349e-03 0.0000000000000000e+00  -1.3214668275475308e-04 -7.2304504994977628e-03 0.0000000000000000e+00  -1.0301183165733585e-04 -7.2542210669974735e-03 0.0000000000000000e+00  -7.3693159418914444e-05 -7.2719764110523721e-03 0.0000000000000000e+00  -4.4250692034976726e-05 -7.2837809600106336e-03 0.0000000000000000e+00  -1.4736982838515994e-05 -7.2896738272164498e-03 0.0000000000000000e+00  1.4807363057726378e-05 -7.2896759656957688e-03 0.0000000000000000e+00  4.4324525822458862e-05 -7.2837875931570139e-03 0.0000000000000000e+00  7.3762277776338501e-05 -7.2719877017494898e-03 0.0000000000000000e+00  1.0307980753309243e-04 -7.2542367690153322e-03 0.0000000000000000e+00  1.3221444433144378e-04 -7.2304723070054470e-03 0.0000000000000000e+00  1.6111724997490572e-04 -7.2006099758253157e-03 0.0000000000000000e+00  1.8972256357799951e-04 -7.1645367576272153e-03 0.0000000000000000e+00  2.1798408159837593e-04 -7.1221183548466124e-03 0.0000000000000000e+00  2.4580906030554142e-04 -7.0731803717022212e-03 0.0000000000000000e+00  2.7314494234936072e-04 -7.0175185251859446e-03 0.0000000000000000e+00  2.9990069650688502e-04 -6.9548824558696926e-03 0.0000000000000000e+00  3.2598486120851013e-04 -6.8849738084169896e-03 0.0000000000000000e+00  3.5129665879265906e-04 -6.8074247855634496e-03 0.0000000000000000e+00  3.7571747109769744e-04 -6.7217793603394950e-03 0.0000000000000000e+00  3.9907666696141183e-04 -6.6274581484401960e-03 0.0000000000000000e+00  4.2124215848559081e-04 -6.5237692286828257e-03 0.0000000000000000e+00  4.4199875457980866e-04 -6.4097819669818520e-03 0.0000000000000000e+00  4.6106317689213457e-04 -6.2842450299113728e-03 0.0000000000000000e+00  4.7811640989809203e-04 -6.1453840071234349e-03 0.0000000000000000e+00  4.9265839334532136e-04 -5.9904867320670708e-03 0.0000000000000000e+00  5.0387609054767309e-04 -5.8149558276276939e-03 0.0000000000000000e+00  5.0962521390026814e-04 -5.6103425559314510e-03 0.0000000000000000e+00  5.0050804754397222e-04 -5.3579169557108567e-03 0.0000000000000000e+00  4.6795126529500686e-04 -4.96