<?xml version="1.0"?>
<VTKFile type="UnstructuredGrid"  version="0.1"  >
<UnstructuredGrid>
<Piece  NumberOfPoints="6382" NumberOfCells="12354">
<Points>
<DataArray  type="Float64"  NumberOfComponents="3"  format="ascii">0 -3 0  0 0 0  10 -3 0  10 0 0  5.2 0 0  5.2 -0.4 0  5.5 -0.4 0  5.5 -0.6000000000000001 0  4.5 -0.6000000000000001 0  4.5 -0.4 0  4.8 -0.4 0  4.8 0 0  0 -2.666666666666667 0  0 -2.333333333333333 0  0 -2 0  0 -1.666666666666667 0  0 -1.333333333333333 0  0 -1 0  0 -0.666666666666667 0  0 -0.3333333333333335 0  9.836518447033493 -3 0  9.676485174132324 -3 0  9.519716728676565 -3 0  9.366040597429432 -3 0  9.215293522901804 -3 0  9.067325347766827 -3 0  8.921978167503752 -3 0  8.779125793186953 -3 0  8.638633440048579 -3 0  8.500376249002967 -3 0  8.364235730108557 -3 0  8.230099119300583 -3 0  8.097858693472926 -3 0  7.96741165420296 -3 0  7.838659590098249 -3 0  7.711508416266758 -3 0  7.585867779025237 -3 0  7.461651037321721 -3 0  7.338774694871047 -3 0  7.217158563845377 -3 0  7.096725097152937 -3 0  6.977399455051415 -3 0  6.859109304538208 -3 0  6.741784490575633 -3 0  6.625356935727237 -3 0  6.509760461250432 -3 0  6.394930659317325 -3 0  6.2808046903675 -3 0  6.167321173775116 -3 0  6.054420032640893 -3 0  5.942042373994132 -3 0  5.830130346471836 -3 0  5.718627047087892 -3 0  5.607476358937133 -3 0  5.496622874861212 -3 0  5.386011773348871 -3 0  5.275588701244851 -3 0  5.1652996754838 -3 0  5.055090972556302 -3 0  4.944909027443701 -3 0  4.834700324516204 -3 0  4.724411298755151 -3 0  4.613988226651132 -3 0  4.50337712513879 -3 0  4.392523641062869 -3 0  4.281372952912111 -3 0  4.169869653528168 -3 0  4.05795762600587 -3 0  3.94557996735911 -3 0  3.832678826224885 -3 0  3.719195309632506 -3 0  3.605069340682676 -3 0  3.490239538749567 -3 0  3.374643064272765 -3 0  3.25821550942437 -3 0  3.140890695461794 -3 0  3.022600544948583 -3 0  2.903274902847057 -3 0  2.782841436154621 -3 0  2.661225305128949 -3 0  2.538348962678273 -3 0  2.414132220974763 -3 0  2.288491583733238 -3 0  2.161340409901745 -3 0  2.032588345797035 -3 0  1.902141306527067 -3 0  1.76990088069941 -3 0  1.63576426989143 -3 0  1.499623750997021 -3 0  1.361366559951406 -3 0  1.220874206813038 -3 0  1.078021832496241 -3 0  0.9326746522331657 -3 0  0.7847064770981866 -3 0  0.6339594025705644 -3 0  0.4802832713234277 -3 0  0.3235148258676688 -3 0  0.1634815529665037 -3 0  10 -0.3333333333333333 0  10 -0.6666666666666666 0  10 -1 0  10 -1.333333333333333 0  10 -1.666666666666667 0  10 -2 0  10 -2.333333333333333 0  10 -2.666666666666667 0  5.242711110725164 0 0  5.286293876642154 0 0  5.330766086609641 0 0  5.37614589213589 0 0  5.422451816439484 0 0  5.469702760205794 0 0  5.517918009017504 0 0  5.567117241892008 0 0  5.617320540096343 0 0  5.668548395644089 0 0  5.720821717893487 0 0  5.774161842649544 0 0  5.828590541642586 0 0  5.88413003019757 0 0  5.940802977381058 0 0  5.998632515893446 0 0  6.057642249375406 0 0  6.117856262977496 0 0  6.179299133651088 0 0  6.241995940085244 0 0  6.305972273082686 0 0  6.371254245606542 0 0  6.43786850326221 0 0  6.505842235920577 0 0  6.575203187664691 0 0  6.645979668539436 0 0  6.71820056760014 0 0  6.791895362764803 0 0  6.867094133292654 0 0  6.943827572794882 0 0  7.022127001289535 0 0  7.10202437703821 0 0  7.183552311040527 0 0  7.266744080707336 0 0  7.351633641831447 0 0  7.438255642584554 0 0  7.526645439439152 0 0  7.616839110330926 0 0  7.708873468012155 0 0  7.802786077905059 0 0  7.898615271449994 0 0  7.996400162886068 0 0  8.096180664647234 0 0  8.197997502517053 0 0  8.301892235188374 0 0  8.407907268711336 0 0  8.516085874431543 0 0  8.626472207031901 0 0  8.739111321743804 0 0  8.854049193814495 0 0  8.971332736524433 0 0  9.091009820696414 0 0  9.21312929427506 0 0  9.337741001971482 0 0  9.464895805719847 0 0  9.594645605970797 0 0  9.727043361679982 0 0  9.862143111819449 0 0  5.2 -0.01666666666666669 0  5.2 -0.03333333333333339 0  5.2 -0.05000000000000009 0  5.2 -0.06666666666666679 0  5.2 -0.0833333333333335 0  5.2 -0.1000000000000002 0  5.2 -0.1166666666666669 0  5.2 -0.1333333333333336 0  5.2 -0.1500000000000002 0  5.2 -0.1666666666666669 0  5.2 -0.1833333333333335 0  5.2 -0.2000000000000001 0  5.2 -0.2166666666666668 0  5.2 -0.2333333333333335 0  5.2 -0.2500000000000002 0  5.2 -0.2666666666666669 0  5.2 -0.2833333333333335 0  5.2 -0.3000000000000002 0  5.2 -0.3166666666666668 0  5.2 -0.3333333333333335 0  5.2 -0.3500000000000001 0  5.2 -0.3666666666666668 0  5.2 -0.3833333333333334 0  5.2125 -0.4 0  5.225 -0.4 0  5.2375 -0.4 0  5.25 -0.4 0  5.2625 -0.4 0  5.275 -0.4 0  5.2875 -0.4 0  5.3 -0.4 0  5.3125 -0.4 0  5.325 -0.4 0  5.337499999999999 -0.4 0  5.35 -0.4 0  5.3625 -0.4 0  5.375 -0.4 0  5.3875 -0.4 0  5.4 -0.4 0  5.4125 -0.4 0  5.425 -0.4 0  5.4375 -0.4 0  5.45 -0.4 0  5.4625 -0.4 0  5.475 -0.4 0  5.4875 -0.4 0  5.5 -0.4083333333333334 0  5.5 -0.4166666666666667 0  5.5 -0.425 0  5.5 -0.4333333333333334 0  5.5 -0.4416666666666668 0  5.5 -0.4500000000000001 0  5.5 -0.4583333333333334 0  5.5 -0.4666666666666668 0  5.5 -0.4750000000000001 0  5.5 -0.4833333333333335 0  5.5 -0.4916666666666668 0  5.5 -0.5000000000000002 0  5.5 -0.5083333333333335 0  5.5 -0.5166666666666668 0  5.5 -0.5250000000000002 0  5.5 -0.5333333333333335 0  5.5 -0.5416666666666669 0  5.5 -0.5500000000000002 0  5.5 -0.5583333333333335 0  5.5 -0.5666666666666668 0  5.5 -0.5750000000000002 0  5.5 -0.5833333333333335 0  5.5 -0.5916666666666668 0  5.479591836734694 -0.6000000000000001 0  5.459183673469388 -0.6000000000000001 0  5.438775510204081 -0.6000000000000001 0  5.418367346938775 -0.6000000000000001 0  5.397959183673469 -0.6000000000000001 0  5.377551020408164 -0.6000000000000001 0  5.357142857142857 -0.6000000000000001 0  5.336734693877551 -0.6000000000000001 0  5.316326530612245 -0.6000000000000001 0  5.295918367346939 -0.6000000000000001 0  5.275510204081633 -0.6000000000000001 0  5.255102040816326 -0.6000000000000001 0  5.23469387755102 -0.6000000000000001 0  5.214285714285714 -0.6000000000000001 0  5.193877551020408 -0.6000000000000001 0  5.173469387755102 -0.6000000000000001 0  5.153061224489796 -0.6000000000000001 0  5.13265306122449 -0.6000000000000001 0  5.112244897959184 -0.6000000000000001 0  5.091836734693878 -0.6000000000000001 0  5.071428571428571 -0.6000000000000001 0  5.051020408163265 -0.6000000000000001 0  5.030612244897959 -0.6000000000000001 0  5.010204081632653 -0.6000000000000001 0  4.989795918367347 -0.6000000000000001 0  4.969387755102041 -0.6000000000000001 0  4.948979591836735 -0.6000000000000001 0  4.928571428571429 -0.6000000000000001 0  4.908163265306122 -0.6000000000000001 0  4.887755102040816 -0.6000000000000001 0  4.86734693877551 -0.6000000000000001 0  4.846938775510204 -0.6000000000000001 0  4.826530612244898 -0.6000000000000001 0  4.806122448979592 -0.6000000000000001 0  4.785714285714286 -0.6000000000000001 0  4.76530612244898 -0.6000000000000001 0  4.744897959183674 -0.6000000000000001 0  4.724489795918368 -0.6000000000000001 0  4.704081632653061 -0.6000000000000001 0  4.683673469387755 -0.6000000000000001 0  4.663265306122449 -0.6000000000000001 0  4.642857142857143 -0.6000000000000001 0  4.622448979591836 -0.6000000000000001 0  4.602040816326531 -0.6000000000000001 0  4.581632653061225 -0.6000000000000001 0  4.561224489795919 -0.6000000000000001 0  4.540816326530612 -0.6000000000000001 0  4.520408163265306 -0.6000000000000001 0  4.5 -0.5916666666666668 0  4.5 -0.5833333333333334 0  4.5 -0.5750000000000001 0  4.5 -0.5666666666666668 0  4.5 -0.5583333333333333 0  4.5 -0.55 0  4.5 -0.5416666666666667 0  4.5 -0.5333333333333333 0  4.5 -0.525 0  4.5 -0.5166666666666666 0  4.5 -0.5083333333333333 0  4.5 -0.4999999999999999 0  4.5 -0.4916666666666666 0  4.5 -0.4833333333333332 0  4.5 -0.4749999999999999 0  4.5 -0.4666666666666666 0  4.5 -0.4583333333333333 0  4.5 -0.45 0  4.5 -0.4416666666666667 0  4.5 -0.4333333333333333 0  4.5 -0.425 0  4.5 -0.4166666666666667 0  4.5 -0.4083333333333334 0  4.5125 -0.4 0  4.525 -0.4 0  4.5375 -0.4 0  4.55 -0.4 0  4.5625 -0.4 0  4.575 -0.4 0  4.587499999999999 -0.4 0  4.6 -0.4 0  4.6125 -0.4 0  4.625 -0.4 0  4.637499999999999 -0.4 0  4.649999999999999 -0.4 0  4.6625 -0.4 0  4.675 -0.4 0  4.6875 -0.4 0  4.699999999999999 -0.4 0  4.712499999999999 -0.4 0  4.725 -0.4 0  4.7375 -0.4 0  4.75 -0.4 0  4.7625 -0.4 0  4.774999999999999 -0.4 0  4.7875 -0.4 0  4.8 -0.3833333333333333 0  4.8 -0.3666666666666666 0  4.8 -0.3499999999999999 0  4.8 -0.3333333333333333 0  4.8 -0.3166666666666665 0  4.8 -0.2999999999999998 0  4.8 -0.2833333333333331 0  4.8 -0.2666666666666664 0  4.8 -0.2499999999999998 0  4.8 -0.2333333333333331 0  4.8 -0.2166666666666665 0  4.8 -0.1999999999999999 0  4.8 -0.1833333333333332 0  4.8 -0.1666666666666665 0  4.8 -0.1499999999999998 0  4.8 -0.1333333333333331 0  4.8 -0.1166666666666665 0  4.8 -0.09999999999999987 0  4.8 -0.0833333333333332 0  4.8 -0.06666666666666654 0  4.8 -0.04999999999999988 0  4.8 -0.03333333333333327 0  4.8 -0.01666666666666661 0  0.1378568875240437 0 0  0.2729566377271358 0 0  0.4053543934976697 0 0  0.5351041938077431 0 0  0.6622589976130751 0 0  0.7868707053643811 0 0  0.9089901789958823 0 0  1.028667263218748 0 0  1.14595080597766 0 0  1.260888678095464 0 0  1.373527792852679 0 0  1.483914125496606 0 0  1.592092731258683 0 0  1.698107764821866 0 0  1.802002497531814 0 0  1.90381933543871 0 0  2.003599837235452 0 0  2.101384728705643 0 0  2.197213922283282 0 0  2.291126532207516 0 0  2.38316088991875 0 0  2.473354560839241 0 0  2.56174435771825 0 0  2.648366358500676 0 0  2.733255919649871 0 0  2.81644768934063 0 0  2.897975623365796 0 0  2.977872999136252 0 0  3.056172427651654 0 0  3.132905867173631 0 0  3.208104637720262 0 0  3.28179943290277 0 0  3.354020331980409 0 0  3.42479681287121 0 0  3.494157764630528 0 0  3.562131497303279 0 0  3.628745754972536 0 0  3.69402772750921 0 0  3.758004060518725 0 0  3.820700866964234 0 0  3.882143737648484 0 0  3.942357751260559 0 0  4.0013674
[...]
<PointData  Vectors="displacement"> 
<DataArray  type="Float64"  Name="displacement"  NumberOfComponents="3" format="ascii">0.0000000000000000e+00 0.0000000000000000e+00 0.0000000000000000e+00  -1.8335018516574438e-03 -1.9568172430242106e-04 0.0000000000000000e+00  0.0000000000000000e+00 0.0000000000000000e+00 0.0000000000000000e+00  1.8334390381286028e-03 -1.9571150070048213e-04 0.0000000000000000e+00  0.0000000000000000e+00 -7.1067640296874060e-03 0.0000000000000000e+00  0.0000000000000000e+00 -7.2177363412493428e-03 0.0000000000000000e+00  0.0000000000000000e+00 -7.1739108728421869e-03 0.0000000000000000e+00  0.0000000000000000e+00 -1.0767796229185845e-02 0.0000000000000000e+00  0.0000000000000000e+00 -1.0751317677955424e-02 0.0000000000000000e+00  0.0000000000000000e+00 -7.1727878211173459e-03 0.0000000000000000e+00  0.0000000000000000e+00 -7.2166194266943097e-03 0.0000000000000000e+00  0.0000000000000000e+00 -7.1057069441830649e-03 0.0000000000000000e+00  -4.1448857175507245e-04 -3.1044933538384935e-04 0.0000000000000000e+00  -7.7059870922799800e-04 -4.0123839112638388e-04 0.0000000000000000e+00  -1.0700733273508603e-03 -4.0512969237164499e-04 0.0000000000000000e+00  -1.3026207026799773e-03 -3.6036635543713419e-04 0.0000000000000000e+00  -1.4701383234610990e-03 -2.9915149610724897e-04 0.0000000000000000e+00  -1.5851319755022920e-03 -2.4354750247840000e-04 0.0000000000000000e+00  -1.6690688319358322e-03 -2.0832435753915653e-04 0.0000000000000000e+00  -1.7462455915676156e-03 -1.9574322575924584e-04 0.0000000000000000e+00  0.0000000000000000e+00 0.0000000000000000e+00 0.0000000000000000e+00  0.0000000000000000e+00 0.0000000000000000e+00 0.0000000000000000e+00  0.0000000000000000e+00 0.0000000000000000e+00 0.0000000000000000e+00  0.0000000000000000e+00 0.0000000000000000e+00 0.0000000000000000e+00  0.0000000000000000e+00 0.0000000000000000e+00 0.0000000000000000e+00  0.0000000000000000e+00 0.0000000000000000e+00 0.0000000000000000e+00  0.0000000000000000e+00 0.0000000000000000e+00 0.0000000000000000e+00  0.0000000000000000e+00 0.0000000000000000e+00 0.0000000000000000e+00  0.0000000000000000e+00 0.0000000000000000e+00 0.0000000000000000e+00  0.0000000000000000e+00 0.0000000000000000e+00 0.0000000000000000e+00  0.0000000000000000e+00 0.0000000000000000e+00 0.0000000000000000e+00  0.0000000000000000e+00 0.0000000000000000e+00 0.0000000000000000e+00  0.0000000000000000e+00 0.0000000000000000e+00 0.0000000000000000e+00  0.0000000000000000e+00 0.0000000000000000e+00 0.0000000000000000e+00  0.0000000000000000e+00 0.0000000000000000e+00 0.0000000000000000e+00  0.0000000000000000e+00 0.0000000000000000e+00 0.0000000000000000e+00  0.0000000000000000e+00 0.0000000000000000e+00 0.0000000000000000e+00  0.0000000000000000e+00 0.0000000000000000e+00 0.0000000000000000e+00  0.0000000000000000e+00 0.0000000000000000e+00 0.0000000000000000e+00  0.0000000000000000e+00 0.0000000000000000e+00 0.0000000000000000e+00  0.0000000000000000e+00 0.0000000000000000e+00 0.0000000000000000e+00  0.0000000000000000e+00 0.0000000000000000e+00 0.0000000000000000e+00  0.0000000000000000e+00 0.0000000000000000e+00 0.0000000000000000e+00  0.0000000000000000e+00 0.0000000000000000e+00 0.0000000000000000e+00  0.0000000000000000e+00 0.0000000000000000e+00 0.0000000000000000e+00  0.0000000000000000e+00 0.0000000000000000e+00 0.0000000000000000e+00  0.0000000000000000e+00 0.0000000000000000e+00 0.0000000000000000e+00  0.0000000000000000e+00 0.0000000000000000e+00 0.0000000000000000e+00  0.0000000000000000e+00 0.0000000000000000e+00 0.0000000000000000e+00  0.0000000000000000e+00 0.0000000000000000e+00 0.0000000000000000e+00  0.0000000000000000e+00 0.0000000000000000e+00 0.0000000000000000e+00  0.0000000000000000e+00 0.0000000000000000e+00 0.0000000000000000e+00  0.0000000000000000e+00 0.0000000000000000e+00 0.0000000000000000e+00  0.0000000000000000e+00 0.0000000000000000e+00 0.0000000000000000e+00  0.0000000000000000e+00 0.0000000000000000e+00 0.0000000000000000e+00  0.0000000000000000e+00 0.0000000000000000e+00 0.0000000000000000e+00  0.0000000000000000e+00 0.0000000000000000e+00 0.0000000000000000e+00  0.0000000000000000e+00 0.0000000000000000e+00 0.0000000000000000e+00  0.0000000000000000e+00 0.0000000000000000e+00 0.0000000000000000e+00  0.0000000000000000e+00 0.0000000000000000e+00 0.0000000000000000e+00  0.0000000000000000e+00 0.0000000000000000e+00 0.0000000000000000e+00  0.0000000000000000e+00 0.0000000000000000e+00 0.0000000000000000e+00  0.0000000000000000e+00 0.0000000000000000e+00 0.0000000000000000e+00  0.0000000000000000e+00 0.0000000000000000e+00 0.0000000000000000e+00  0.0000000000000000e+00 0.0000000000000000e+00 0.0000000000000000e+00  0.0000000000000000e+00 0.0000000000000000e+00 0.0000000000000000e+00  0.0000000000000000e+00 0.0000000000000000e+00 0.0000000000000000e+00  0.0000000000000000e+00 0.0000000000000000e+00 0.0000000000000000e+00  0.0000000000000000e+00 0.0000000000000000e+00 0.0000000000000000e+00  0.0000000000000000e+00 0.0000000000000000e+00 0.0000000000000000e+00  0.0000000000000000e+00 0.0000000000000000e+00 0.0000000000000000e+00  0.0000000000000000e+00 0.0000000000000000e+00 0.0000000000000000e+00  0.0000000000000000e+00 0.0000000000000000e+00 0.0000000000000000e+00  0.0000000000000000e+00 0.0000000000000000e+00 0.0000000000000000e+00  0.0000000000000000e+00 0.0000000000000000e+00 0.0000000000000000e+00  0.0000000000000000e+00 0.0000000000000000e+00 0.0000000000000000e+00  0.0000000000000000e+00 0.0000000000000000e+00 0.0000000000000000e+00  0.0000000000000000e+00 0.0000000000000000e+00 0.0000000000000000e+00  0.0000000000000000e+00 0.0000000000000000e+00 0.0000000000000000e+00  0.0000000000000000e+00 0.0000000000000000e+00 0.0000000000000000e+00  0.0000000000000000e+00 0.0000000000000000e+00 0.0000000000000000e+00  0.0000000000000000e+00 0.0000000000000000e+00 0.0000000000000000e+00  0.0000000000000000e+00 0.0000000000000000e+00 0.0000000000000000e+00  0.0000000000000000e+00 0.0000000000000000e+00 0.0000000000000000e+00  0.0000000000000000e+00 0.0000000000000000e+00 0.0000000000000000e+00  0.0000000000000000e+00 0.0000000000000000e+00 0.0000000000000000e+00  0.0000000000000000e+00 0.0000000000000000e+00 0.0000000000000000e+00  0.0000000000000000e+00 0.0000000000000000e+00 0.0000000000000000e+00  0.0000000000000000e+00 0.0000000000000000e+00 0.0000000000000000e+00  0.0000000000000000e+00 0.0000000000000000e+00 0.0000000000000000e+00  0.0000000000000000e+00 0.0000000000000000e+00 0.0000000000000000e+00  0.0000000000000000e+00 0.0000000000000000e+00 0.0000000000000000e+00  0.0000000000000000e+00 0.0000000000000000e+00 0.0000000000000000e+00  0.0000000000000000e+00 0.0000000000000000e+00 0.0000000000000000e+00  0.0000000000000000e+00 0.0000000000000000e+00 0.0000000000000000e+00  0.0000000000000000e+00 0.0000000000000000e+00 0.0000000000000000e+00  0.0000000000000000e+00 0.0000000000000000e+00 0.0000000000000000e+00  0.0000000000000000e+00 0.0000000000000000e+00 0.0000000000000000e+00  1.7461159240116948e-03 -1.9582000430406571e-04 0.0000000000000000e+00  1.6690572567455717e-03 -2.0821395707835660e-04 0.0000000000000000e+00  1.5851216511267704e-03 -2.4353189343577400e-04 0.0000000000000000e+00  1.4702310766183612e-03 -2.9914756546473557e-04 0.0000000000000000e+00  1.3027562272633795e-03 -3.6014746782740101e-04 0.0000000000000000e+00  1.0700337215109998e-03 -4.0550298462617066e-04 0.0000000000000000e+00  7.7046418489295761e-04 -4.0151765179251427e-04 0.0000000000000000e+00  4.1489052002835117e-04 -3.1023955624936587e-04 0.0000000000000000e+00  -8.7739045418821395e-05 -7.1016396595165177e-03 0.0000000000000000e+00  -1.7865129045600392e-04 -7.0854494322238181e-03 0.0000000000000000e+00  -2.7406661149066859e-04 -7.0563397850164329e-03 0.0000000000000000e+00  -3.7530112537352328e-04 -7.0113687520486955e-03 0.0000000000000000e+00  -4.8312193238309585e-04 -6.9463626611745216e-03 0.0000000000000000e+00  -5.9731983523438840e-04 -6.8561700305482878e-03 0.0000000000000000e+00  -7.1592996572329964e-04 -6.7349375975555639e-03 0.0000000000000000e+00  -8.3520749521274020e-04 -6.5772896171082153e-03 0.0000000000000000e+00  -9.4941941515235548e-04 -6.3796861175356573e-03 0.0000000000000000e+00  -1.0518956618136191e-03 -6.1413539271484496e-03 0.0000000000000000e+00  -1.1358948693946582e-03 -5.8649961217190939e-03 0.0000000000000000e+00  -1.1962984230510757e-03 -5.5562526154936797e-03 0.0000000000000000e+00  -1.2298749167995152e-03 -5.2227391935332221e-03 0.0000000000000000e+00  -1.2356896970442868e-03 -4.8727317513078926e-03 0.0000000000000000e+00  -1.2146904378303675e-03 -4.5142384701218783e-03 0.0000000000000000e+00  -1.1689338706318063e-03 -4.1543072954384865e-03 0.0000000000000000e+00  -1.1018392990304177e-03 -3.7988904641913343e-03 0.0000000000000000e+00  -1.0163355116404201e-03 -3.4526126880886003e-03 0.0000000000000000e+00  -9.1601719338602809e-04 -3.1190039403709755e-03 0.0000000000000000e+00  -8.0424380892172621e-04 -2.8006184129933192e-03 0.0000000000000000e+00  -6.8390445468253158e-04 -2.4991438781668714e-03 0.0000000000000000e+00  -5.5776910899305011e-04 -2.2155802411658963e-03 0.0000000000000000e+00  -4.2803887583198723e-04 -1.9504211498803813e-03 0.0000000000000000e+00  -2.9681038405851676e-04 -1.7037317104149942e-03 0.0000000000000000e+00  -1.6556034652439160e-04 -1.4753120743576428e-03 0.0000000000000000e+00  -3.5699970134427834e-05 -1.2647056338630203e-03 0.0000000000000000e+00  9.1725827652878084e-05 -1.0713306222964107e-03 0.0000000000000000e+00  2.1586831256836803e-04 -8.9450447544817417e-04 0.0000000000000000e+00  3.3617935878037914e-04 -7.3352425582145163e-04 0.0000000000000000e+00  4.5208035240423833e-04 -5.8763861456056089e-04 0.0000000000000000e+00  5.6328323537375177e-04 -4.5607753229594868e-04 0.0000000000000000e+00  6.6954672162372836e-04 -3.3811195253071049e-04 0.0000000000000000e+00  7.7072499869366962e-04 -2.3302432670145676e-04 0.0000000000000000e+00  8.6673545231273489e-04 -1.4012050344593843e-04 0.0000000000000000e+00  9.5758752053893116e-04 -5.8719132383642424e-05 0.0000000000000000e+00  1.0432767200701202e-03 1.1779537895394520e-05 0.0000000000000000e+00  1.1238631066131783e-03 7.1987228214952484e-05 0.0000000000000000e+00  1.1994706086021012e-03 1.2249010268748363e-04 0.0000000000000000e+00  1.2701504009202283e-03 1.6382298851133853e-04 0.0000000000000000e+00  1.3360753155869840e-03 1.9650492155581187e-04 0.0000000000000000e+00  1.3973133375105920e-03 2.2102112535911318e-04 0.0000000000000000e+00  1.4540384702356362e-03 2.3784669099779677e-04 0.0000000000000000e+00  1.5063672422634877e-03 2.4744193997562711e-04 0.0000000000000000e+00  1.5544287184959945e-03 2.5024010157863547e-04 0.0000000000000000e+00  1.5983493838992895e-03 2.4666836128502752e-04 0.0000000000000000e+00  1.6382409641786391e-03 2.3714362014417575e-04 0.0000000000000000e+00  1.6741963524713008e-03 2.2208736626205599e-04 0.0000000000000000e+00  1.7063345672148438e-03 2.0193944840703651e-04 0.0000000000000000e+00  1.7346883374814446e-03 1.7712299266315652e-04 0.0000000000000000e+00  1.7593280881490233e-03 1.4812282696723022e-04 0.0000000000000000e+00  1.7802973886206271e-03 1.1545574556896320e-04 0.0000000000000000e+00  1.7976185950728141e-03 7.9692815549812587e-05 0.0000000000000000e+00  1.8113404999536538e-03 4.1492994952500978e-05 0.0000000000000000e+00  1.8215408935696004e-03 1.5949411799209012e-06 0.0000000000000000e+00  1.8283818012392100e-03 -3.9156309384699970e-05 0.0000000000000000e+00  1.8321828326487357e-03 -7.9869207969772673e-05 0.0000000000000000e+00  1.8335905340263502e-03 -1.1968086721406183e-04 0.0000000000000000e+00  1.8335054137800508e-03 -1.5798832804540808e-04 0.0000000000000000e+00  0.0000000000000000e+00 -7.1210539047895562e-03 0.0000000000000000e+00  0.0000000000000000e+00 -7.1345503011061295e-03 0.0000000000000000e+00  0.0000000000000000e+00 -7.1471492414180585e-03 0.0000000000000000e+00  0.0000000000000000e+00 -7.1587779682702069e-03 0.0000000000000000e+00  0.0000000000000000e+00 -7.1693803268057937e-03 0.0000000000000000e+00  0.0000000000000000e+00 -7.1789239039915251e-03 0.0000000000000000e+00  0.0000000000000000e+00 -7.1873930718869272e-03 0.0000000000000000e+00  0.0000000000000000e+00 -7.1947892200543038e-03 0.0000000000000000e+00  0.0000000000000000e+00 -7.2011285480047312e-03 0.0000000000000000e+00  0.0000000000000000e+00 -7.2064435641070249e-03 0.0000000000000000e+00  0.0000000000000000e+00 -7.2107780216322855e-03 0.0000000000000000e+00  0.0000000000000000e+00 -7.2141924842430661e-03 0.0000000000000000e+00  0.0000000000000000e+00 -7.2167561599225652e-03 0.0000000000000000e+00  0.0000000000000000e+00 -7.2185547063116093e-03 0.0000000000000000e+00  0.0000000000000000e+00 -7.2196847655057461e-03 0.0000000000000000e+00  0.0000000000000000e+00 -7.2202461812271510e-03 0.0000000000000000e+00  0.0000000000000000e+00 -7.2203583705176440e-03 0.0000000000000000e+00  0.0000000000000000e+00 -7.2201346341557249e-03 0.0000000000000000e+00  0.0000000000000000e+00 -7.2196937190695254e-03 0.0000000000000000e+00  0.0000000000000000e+00 -7.2191482539972701e-03 0.0000000000000000e+00  0.0000000000000000e+00 -7.2186037307325601e-03 0.0000000000000000e+00  0.0000000000000000e+00 -7.2181453578866895e-03 0.0000000000000000e+00  0.0000000000000000e+00 -7.2178423920842682e-03 0.0000000000000000e+00  0.0000000000000000e+00 -7.2173127614487461e-03 0.0000000000000000e+00  0.0000000000000000e+00 -7.2160437296840399e-03 0.0000000000000000e+00  0.0000000000000000e+00 -7.2139351246494612e-03 0.0000000000000000e+00  0.0000000000000000e+00 -7.2109968407487865e-03 0.0000000000000000e+00  0.0000000000000000e+00 -7.2072432974119183e-03 0.0000000000000000e+00  0.0000000000000000e+00 -7.2026936148840391e-03 0.0000000000000000e+00  0.0000000000000000e+00 -7.1973742703604010e-03 0.0000000000000000e+00  0.0000000000000000e+00 -7.1913171215240894e-03 0.0000000000000000e+00  0.0000000000000000e+00 -7.1845628061299894e-03 0.0000000000000000e+00  0.0000000000000000e+00 -7.1771625120386328e-03 0.0000000000000000e+00  0.0000000000000000e+00 -7.1691800749746027e-03 0.0000000000000000e+00  0.0000000000000000e+00 -7.1606957824493726e-03 0.0000000000000000e+00  0.0000000000000000e+00 -7.1518102621158028e-03 0.0000000000000000e+00  0.0000000000000000e+00 -7.1426505821922696e-03 0.0000000000000000e+00  0.0000000000000000e+00 -7.1333807496178105e-03 0.0000000000000000e+00  0.0000000000000000e+00 -7.1242123440347863e-03 0.0000000000000000e+00  0.0000000000000000e+00 -7.1154290294520731e-03 0.0000000000000000e+00  0.0000000000000000e+00 -7.1074168253731345e-03 0.0000000000000000e+00  0.0000000000000000e+00 -7.1007193390296690e-03 0.0000000000000000e+00  0.0000000000000000e+00 -7.0961403260101034e-03 0.0000000000000000e+00  0.0000000000000000e+00 -7.0949974944691128e-03 0.0000000000000000e+00  0.0000000000000000e+00 -7.0996178715930702e-03 0.0000000000000000e+00  0.0000000000000000e+00 -7.1156582300084545e-03 0.0000000000000000e+00  0.0000000000000000e+00 -7.2216982793025615e-03 0.0000000000000000e+00  0.0000000000000000e+00 -7.2548892878367957e-03 0.0000000000000000e+00  0.0000000000000000e+00 -7.2875688788010227e-03 0.0000000000000000e+00  0.0000000000000000e+00 -7.3208568973462517e-03 0.0000000000000000e+00  0.0000000000000000e+00 -7.3552929144363134e-03 0.0000000000000000e+00  0.0000000000000000e+00 -7.3911893139764467e-03 0.0000000000000000e+00  0.0000000000000000e+00 -7.4288224609101033e-03 0.0000000000000000e+00  0.0000000000000000e+00 -7.4685133353786992e-03 0.0000000000000000e+00  0.0000000000000000e+00 -7.5118857038455958e-03 0.0000000000000000e+00  0.0000000000000000e+00 -7.5605695532661903e-03 0.0000000000000000e+00  0.0000000000000000e+00 -7.6159344327445585e-03 0.0000000000000000e+00  0.0000000000000000e+00 -7.6787476483315721e-03 0.0000000000000000e+00  0.0000000000000000e+00 -7.7501720054086688e-03 0.0000000000000000e+00  0.0000000000000000e+00 -7.8310524673229787e-03 0.0000000000000000e+00  0.0000000000000000e+00 -7.9230582439170933e-03 0.0000000000000000e+00  0.0000000000000000e+00 -8.0276772600842011e-03 0.0000000000000000e+00  0.0000000000000000e+00 -8.1470054376482793e-03 0.0000000000000000e+00  0.0000000000000000e+00 -8.2848598986705723e-03 0.0000000000000000e+00  0.0000000000000000e+00 -8.4452592086842228e-03 0.0000000000000000e+00  0.0000000000000000e+00 -8.6356537746498149e-03 0.0000000000000000e+00  0.0000000000000000e+00 -8.8688492790072355e-03 0.0000000000000000e+00  0.0000000000000000e+00 -9.1602079267082970e-03 0.0000000000000000e+00  0.0000000000000000e+00 -9.7016436610169818e-03 0.0000000000000000e+00  -9.9649526600736199e-04 -1.5953386044441537e-02 0.0000000000000000e+00  -1.1107248163373514e-03 -1.8246422768192841e-02 0.0000000000000000e+00  -1.2084287894076036e-03 -1.9825220553159523e-02 0.0000000000000000e+00  -1.2532878120870142e-03 -2.1090489674007354e-02 0.0000000000000000e+00  -1.2619809827345615e-03 -2.2144696539141570e-02 0.0000000000000000e+00  -1.2499728706457289e-03 -2.3047076897784350e-02 0.0000000000000000e+00  -1.2229219669593000e-03 -2.3834405604659659e-02 0.0000000000000000e+00  -1.1847208448363404e-03 -2.4529211284625343e-02 0.0000000000000000e+00  -1.1381430709850944e-03 -2.5147193905891221e-02 0.0000000000000000e+00  -1.0848758636261980e-03 -2.5699591257115573e-02 0.0000000000000000e+00  -1.0262879012406145e-03 -2.6194611464437960e-02 0.0000000000000000e+00  -9.6333909785408444e-04 -2.6638520372522744e-02 0.0000000000000000e+00  -8.9678866364972299e-04 -2.7036140368686817e-02 0.0000000000000000e+00  -8.2721334625202676e-04 -2.7391292898424766e-02 0.0000000000000000e+00  -7.5506584607382664e-04 -2.7707006749217004e-02 0.0000000000000000e+00  -6.8075206972314888e-04 -2.7985724066325650e-02 0.0000000000000000e+00  -6.0462093365227566e-04 -2.8229370859818016e-02 0.0000000000000000e+00  -5.2694152647041550e-04 -2.8439559245408749e-02 0.0000000000000000e+00  -4.4797252370916196e-04 -2.8617599535327123e-02 0.0000000000000000e+00  -3.6796180287105055e-04 -2.8764529734801533e-02 0.0000000000000000e+00  -2.8711306288158278e-04 -2.8881166370420812e-02 0.0000000000000000e+00  -2.0563982611131342e-04 -2.8968107120273669e-02 0.0000000000000000e+00  -1.2371301891852429e-04 -2.9025829307249857e-02 0.0000000000000000e+00  -4.1508818321993802e-05 -2.9054635643754791e-02 0.0000000000000000e+00  4.0762342636361131e-05 -2.9054645053289543e-02 0.0000000000000000e+00  1.2295115306950078e-04 -2.9025875177856892e-02 0.0000000000000000e+00  2.0489348326195990e-04 -2.8968180035741767e-02 0.0000000000000000e+00  2.8635954974971372e-04 -2.8881255661248401e-02 0.0000000000000000e+00  3.6719548054141413e-04 -2.8764664302851798e-02 0.0000000000000000e+00  4.4719750040215378e-04 -2.8617762885526494e-02 0.0000000000000000e+00  5.2616321510999011e-04 -2.8439745987230772e-02 0.0000000000000000e+00  6.0382851446959718e-04 -2.8229586102876746e-02 0.0000000000000000e+00  6.7994283787055083e-04 -2.7985953456543162e-02 0.0000000000000000e+00  7.5425098842891276e-04 -2.7707279319301892e-02 0.0000000000000000e+00  8.2639005457871208e-04 -2.7391596754205216e-02 0.0000000000000000e+00  8.9595954809903663e-04 -2.7036511519109008e-02 0.0000000000000000e+00  9.6247066935653699e-04 -2.6638954776141956e-02 0.0000000000000000e+00  1.0253285484967062e-03 -2.6195137716704842e-02 0.0000000000000000e+00  1.0837503185185794e-03 -2.5700174580709289e-02 0.0000000000000000e+00  1.1371280004233090e-03 -2.5147880298340287e-02 0.0000000000000000e+00  1.1836697006251567e-03 -2.4529941046718060e-02 0.0000000000000000e+00  1.2216923223558242e-03 -2.3835302469827839e-02 0.0000000000000000e+00  1.2485509688328405e-03 -2.3048028776077121e-02 0.0000000000000000e+00  1.2601815370117868e-03 -2.2144953082680639e-02 0.0000000000000000e+00  1.2506149679259446e-03 -2.1090792018563155e-02 0.0000000000000000e+00  1.2064810797627259e-03 -1.9826815500745807e-02 0.0000000000000000e+00  1.1047770491361300e-03 -1.8242695489797549e-02 0.0000000000000000e+00  9.9097516255850253e-04 -1.5940261444