<?xml version="1.0"?>
<VTKFile type="UnstructuredGrid"  version="0.1"  >
<UnstructuredGrid>
<Piece  NumberOfPoints="6382" NumberOfCells="12354">
<Points>
<DataArray  type="Float64"  NumberOfComponents="3"  format="ascii">0 -3 0  0 0 0  10 -3 0  10 0 0  5.2 0 0  5.2 -0.4 0  5.5 -0.4 0  5.5 -0.6000000000000001 0  4.5 -0.6000000000000001 0  4.5 -0.4 0  4.8 -0.4 0  4.8 0 0  0 -2.666666666666667 0  0 -2.333333333333333 0  0 -2 0  0 -1.666666666666667 0  0 -1.333333333333333 0  0 -1 0  0 -0.666666666666667 0  0 -0.3333333333333335 0  9.836518447033493 -3 0  9.676485174132324 -3 0  9.519716728676565 -3 0  9.366040597429432 -3 0  9.215293522901804 -3 0  9.067325347766827 -3 0  8.921978167503752 -3 0  8.779125793186953 -3 0  8.638633440048579 -3 0  8.500376249002967 -3 0  8.364235730108557 -3 0  8.230099119300583 -3 0  8.097858693472926 -3 0  7.96741165420296 -3 0  7.838659590098249 -3 0  7.711508416266758 -3 0  7.585867779025237 -3 0  7.461651037321721 -3 0  7.338774694871047 -3 0  7.217158563845377 -3 0  7.096725097152937 -3 0  6.977399455051415 -3 0  6.859109304538208 -3 0  6.741784490575633 -3 0  6.625356935727237 -3 0  6.509760461250432 -3 0  6.394930659317325 -3 0  6.2808046903675 -3 0  6.167321173775116 -3 0  6.054420032640893 -3 0  5.942042373994132 -3 0  5.830130346471836 -3 0  5.718627047087892 -3 0  5.607476358937133 -3 0  5.496622874861212 -3 0  5.386011773348871 -3 0  5.275588701244851 -3 0  5.1652996754838 -3 0  5.055090972556302 -3 0  4.944909027443701 -3 0  4.834700324516204 -3 0  4.724411298755151 -3 0  4.613988226651132 -3 0  4.50337712513879 -3 0  4.392523641062869 -3 0  4.281372952912111 -3 0  4.169869653528168 -3 0  4.05795762600587 -3 0  3.94557996735911 -3 0  3.832678826224885 -3 0  3.719195309632506 -3 0  3.605069340682676 -3 0  3.490239538749567 -3 0  3.374643064272765 -3 0  3.25821550942437 -3 0  3.140890695461794 -3 0  3.022600544948583 -3 0  2.903274902847057 -3 0  2.782841436154621 -3 0  2.661225305128949 -3 0  2.538348962678273 -3 0  2.414132220974763 -3 0  2.288491583733238 -3 0  2.161340409901745 -3 0  2.032588345797035 -3 0  1.902141306527067 -3 0  1.76990088069941 -3 0  1.63576426989143 -3 0  1.499623750997021 -3 0  1.361366559951406 -3 0  1.220874206813038 -3 0  1.078021832496241 -3 0  0.9326746522331657 -3 0  0.7847064770981866 -3 0  0.6339594025705644 -3 0  0.4802832713234277 -3 0  0.3235148258676688 -3 0  0.1634815529665037 -3 0  10 -0.3333333333333333 0  10 -0.6666666666666666 0  10 -1 0  10 -1.333333333333333 0  10 -1.666666666666667 0  10 -2 0  10 -2.333333333333333 0  10 -2.666666666666667 0  5.242711110725164 0 0  5.286293876642154 0 0  5.330766086609641 0 0  5.37614589213589 0 0  5.422451816439484 0 0  5.469702760205794 0 0  5.517918009017504 0 0  5.567117241892008 0 0  5.617320540096343 0 0  5.668548395644089 0 0  5.720821717893487 0 0  5.774161842649544 0 0  5.828590541642586 0 0  5.88413003019757 0 0  5.940802977381058 0 0  5.998632515893446 0 0  6.057642249375406 0 0  6.117856262977496 0 0  6.179299133651088 0 0  6.241995940085244 0 0  6.305972273082686 0 0  6.371254245606542 0 0  6.43786850326221 0 0  6.505842235920577 0 0  6.575203187664691 0 0  6.645979668539436 0 0  6.71820056760014 0 0  6.791895362764803 0 0  6.867094133292654 0 0  6.943827572794882 0 0  7.022127001289535 0 0  7.10202437703821 0 0  7.183552311040527 0 0  7.266744080707336 0 0  7.351633641831447 0 0  7.438255642584554 0 0  7.526645439439152 0 0  7.616839110330926 0 0  7.708873468012155 0 0  7.802786077905059 0 0  7.898615271449994 0 0  7.996400162886068 0 0  8.096180664647234 0 0  8.197997502517053 0 0  8.301892235188374 0 0  8.407907268711336 0 0  8.516085874431543 0 0  8.626472207031901 0 0  8.739111321743804 0 0  8.854049193814495 0 0  8.971332736524433 0 0  9.091009820696414 0 0  9.21312929427506 0 0  9.337741001971482 0 0  9.464895805719847 0 0  9.594645605970797 0 0  9.727043361679982 0 0  9.862143111819449 0 0  5.2 -0.01666666666666669 0  5.2 -0.03333333333333339 0  5.2 -0.05000000000000009 0  5.2 -0.06666666666666679 0  5.2 -0.0833333333333335 0  5.2 -0.1000000000000002 0  5.2 -0.1166666666666669 0  5.2 -0.1333333333333336 0  5.2 -0.1500000000000002 0  5.2 -0.1666666666666669 0  5.2 -0.1833333333333335 0  5.2 -0.2000000000000001 0  5.2 -0.2166666666666668 0  5.2 -0.2333333333333335 0  5.2 -0.2500000000000002 0  5.2 -0.2666666666666669 0  5.2 -0.2833333333333335 0  5.2 -0.3000000000000002 0  5.2 -0.3166666666666668 0  5.2 -0.3333333333333335 0  5.2 -0.3500000000000001 0  5.2 -0.3666666666666668 0  5.2 -0.3833333333333334 0  5.2125 -0.4 0  5.225 -0.4 0  5.2375 -0.4 0  5.25 -0.4 0  5.2625 -0.4 0  5.275 -0.4 0  5.2875 -0.4 0  5.3 -0.4 0  5.3125 -0.4 0  5.325 -0.4 0  5.337499999999999 -0.4 0  5.35 -0.4 0  5.3625 -0.4 0  5.375 -0.4 0  5.3875 -0.4 0  5.4 -0.4 0  5.4125 -0.4 0  5.425 -0.4 0  5.4375 -0.4 0  5.45 -0.4 0  5.4625 -0.4 0  5.475 -0.4 0  5.4875 -0.4 0  5.5 -0.4083333333333334 0  5.5 -0.4166666666666667 0  5.5 -0.425 0  5.5 -0.4333333333333334 0  5.5 -0.4416666666666668 0  5.5 -0.4500000000000001 0  5.5 -0.4583333333333334 0  5.5 -0.4666666666666668 0  5.5 -0.4750000000000001 0  5.5 -0.4833333333333335 0  5.5 -0.4916666666666668 0  5.5 -0.5000000000000002 0  5.5 -0.5083333333333335 0  5.5 -0.5166666666666668 0  5.5 -0.5250000000000002 0  5.5 -0.5333333333333335 0  5.5 -0.5416666666666669 0  5.5 -0.5500000000000002 0  5.5 -0.5583333333333335 0  5.5 -0.5666666666666668 0  5.5 -0.5750000000000002 0  5.5 -0.5833333333333335 0  5.5 -0.5916666666666668 0  5.479591836734694 -0.6000000000000001 0  5.459183673469388 -0.6000000000000001 0  5.438775510204081 -0.6000000000000001 0  5.418367346938775 -0.6000000000000001 0  5.397959183673469 -0.6000000000000001 0  5.377551020408164 -0.6000000000000001 0  5.357142857142857 -0.6000000000000001 0  5.336734693877551 -0.6000000000000001 0  5.316326530612245 -0.6000000000000001 0  5.295918367346939 -0.6000000000000001 0  5.275510204081633 -0.6000000000000001 0  5.255102040816326 -0.6000000000000001 0  5.23469387755102 -0.6000000000000001 0  5.214285714285714 -0.6000000000000001 0  5.193877551020408 -0.6000000000000001 0  5.173469387755102 -0.6000000000000001 0  5.153061224489796 -0.6000000000000001 0  5.13265306122449 -0.6000000000000001 0  5.112244897959184 -0.6000000000000001 0  5.091836734693878 -0.6000000000000001 0  5.071428571428571 -0.6000000000000001 0  5.051020408163265 -0.6000000000000001 0  5.030612244897959 -0.6000000000000001 0  5.010204081632653 -0.6000000000000001 0  4.989795918367347 -0.6000000000000001 0  4.969387755102041 -0.6000000000000001 0  4.948979591836735 -0.6000000000000001 0  4.928571428571429 -0.6000000000000001 0  4.908163265306122 -0.6000000000000001 0  4.887755102040816 -0.6000000000000001 0  4.86734693877551 -0.6000000000000001 0  4.846938775510204 -0.6000000000000001 0  4.826530612244898 -0.6000000000000001 0  4.806122448979592 -0.6000000000000001 0  4.785714285714286 -0.6000000000000001 0  4.76530612244898 -0.6000000000000001 0  4.744897959183674 -0.6000000000000001 0  4.724489795918368 -0.6000000000000001 0  4.704081632653061 -0.6000000000000001 0  4.683673469387755 -0.6000000000000001 0  4.663265306122449 -0.6000000000000001 0  4.642857142857143 -0.6000000000000001 0  4.622448979591836 -0.6000000000000001 0  4.602040816326531 -0.6000000000000001 0  4.581632653061225 -0.6000000000000001 0  4.561224489795919 -0.6000000000000001 0  4.540816326530612 -0.6000000000000001 0  4.520408163265306 -0.6000000000000001 0  4.5 -0.5916666666666668 0  4.5 -0.5833333333333334 0  4.5 -0.5750000000000001 0  4.5 -0.5666666666666668 0  4.5 -0.5583333333333333 0  4.5 -0.55 0  4.5 -0.5416666666666667 0  4.5 -0.5333333333333333 0  4.5 -0.525 0  4.5 -0.5166666666666666 0  4.5 -0.5083333333333333 0  4.5 -0.4999999999999999 0  4.5 -0.4916666666666666 0  4.5 -0.4833333333333332 0  4.5 -0.4749999999999999 0  4.5 -0.4666666666666666 0  4.5 -0.4583333333333333 0  4.5 -0.45 0  4.5 -0.4416666666666667 0  4.5 -0.4333333333333333 0  4.5 -0.425 0  4.5 -0.4166666666666667 0  4.5 -0.4083333333333334 0  4.5125 -0.4 0  4.525 -0.4 0  4.5375 -0.4 0  4.55 -0.4 0  4.5625 -0.4 0  4.575 -0.4 0  4.587499999999999 -0.4 0  4.6 -0.4 0  4.6125 -0.4 0  4.625 -0.4 0  4.637499999999999 -0.4 0  4.649999999999999 -0.4 0  4.6625 -0.4 0  4.675 -0.4 0  4.6875 -0.4 0  4.699999999999999 -0.4 0  4.712499999999999 -0.4 0  4.725 -0.4 0  4.7375 -0.4 0  4.75 -0.4 0  4.7625 -0.4 0  4.774999999999999 -0.4 0  4.7875 -0.4 0  4.8 -0.3833333333333333 0  4.8 -0.3666666666666666 0  4.8 -0.3499999999999999 0  4.8 -0.3333333333333333 0  4.8 -0.3166666666666665 0  4.8 -0.2999999999999998 0  4.8 -0.2833333333333331 0  4.8 -0.2666666666666664 0  4.8 -0.2499999999999998 0  4.8 -0.2333333333333331 0  4.8 -0.2166666666666665 0  4.8 -0.1999999999999999 0  4.8 -0.1833333333333332 0  4.8 -0.1666666666666665 0  4.8 -0.1499999999999998 0  4.8 -0.1333333333333331 0  4.8 -0.1166666666666665 0  4.8 -0.09999999999999987 0  4.8 -0.0833333333333332 0  4.8 -0.06666666666666654 0  4.8 -0.04999999999999988 0  4.8 -0.03333333333333327 0  4.8 -0.01666666666666661 0  0.1378568875240437 0 0  0.2729566377271358 0 0  0.4053543934976697 0 0  0.5351041938077431 0 0  0.6622589976130751 0 0  0.7868707053643811 0 0  0.9089901789958823 0 0  1.028667263218748 0 0  1.14595080597766 0 0  1.260888678095464 0 0  1.373527792852679 0 0  1.483914125496606 0 0  1.592092731258683 0 0  1.698107764821866 0 0  1.802002497531814 0 0  1.90381933543871 0 0  2.003599837235452 0 0  2.101384728705643 0 0  2.197213922283282 0 0  2.291126532207516 0 0  2.38316088991875 0 0  2.473354560839241 0 0  2.56174435771825 0 0  2.648366358500676 0 0  2.733255919649871 0 0  2.81644768934063 0 0  2.897975623365796 0 0  2.977872999136252 0 0  3.056172427651654 0 0  3.132905867173631 0 0  3.208104637720262 0 0  3.28179943290277 0 0  3.354020331980409 0 0  3.42479681287121 0 0  3.494157764630528 0 0  3.562131497303279 0 0  3.628745754972536 0 0  3.69402772750921 0 0  3.758004060518725 0 0  3.820700866964234 0 0  3.882143737648484 0 0  3.942357751260559 0 0  4.0013674
[...]
<PointData  Vectors="displacement"> 
<DataArray  type="Float64"  Name="displacement"  NumberOfComponents="3" format="ascii">0.0000000000000000e+00 0.0000000000000000e+00 0.0000000000000000e+00  -6.6414787912433210e-03 -1.1106495503437482e-03 0.0000000000000000e+00  0.0000000000000000e+00 0.0000000000000000e+00 0.0000000000000000e+00  6.6411786042819936e-03 -1.1107053594872054e-03 0.0000000000000000e+00  0.0000000000000000e+00 -1.6993646814841258e-02 0.0000000000000000e+00  0.0000000000000000e+00 -1.6968552283881003e-02 0.0000000000000000e+00  0.0000000000000000e+00 -1.7058654673270383e-02 0.0000000000000000e+00  0.0000000000000000e+00 -2.6647848888909691e-02 0.0000000000000000e+00  0.0000000000000000e+00 -2.6615178940232832e-02 0.0000000000000000e+00  0.0000000000000000e+00 -1.7055189830224676e-02 0.0000000000000000e+00  0.0000000000000000e+00 -1.6965154232175587e-02 0.0000000000000000e+00  0.0000000000000000e+00 -1.6990358036232226e-02 0.0000000000000000e+00  -1.2291255251500937e-03 -9.8545021642256858e-04 0.0000000000000000e+00  -2.3041082734005557e-03 -1.3452974872257201e-03 0.0000000000000000e+00  -3.2628127079539254e-03 -1.4572636325571029e-03 0.0000000000000000e+00  -4.0760271763913307e-03 -1.4206095143641326e-03 0.0000000000000000e+00  -4.7411431699176353e-03 -1.3195298289225043e-03 0.0000000000000000e+00  -5.2820297420038635e-03 -1.2123210053720096e-03 0.0000000000000000e+00  -5.7450945158701305e-03 -1.1392915914730070e-03 0.0000000000000000e+00  -6.1848087309582557e-03 -1.1114364899815455e-03 0.0000000000000000e+00  0.0000000000000000e+00 0.0000000000000000e+00 0.0000000000000000e+00  0.0000000000000000e+00 0.0000000000000000e+00 0.0000000000000000e+00  0.0000000000000000e+00 0.0000000000000000e+00 0.0000000000000000e+00  0.0000000000000000e+00 0.0000000000000000e+00 0.0000000000000000e+00  0.0000000000000000e+00 0.0000000000000000e+00 0.0000000000000000e+00  0.0000000000000000e+00 0.0000000000000000e+00 0.0000000000000000e+00  0.0000000000000000e+00 0.0000000000000000e+00 0.0000000000000000e+00  0.0000000000000000e+00 0.0000000000000000e+00 0.0000000000000000e+00  0.0000000000000000e+00 0.0000000000000000e+00 0.0000000000000000e+00  0.0000000000000000e+00 0.0000000000000000e+00 0.0000000000000000e+00  0.0000000000000000e+00 0.0000000000000000e+00 0.0000000000000000e+00  0.0000000000000000e+00 0.0000000000000000e+00 0.0000000000000000e+00  0.0000000000000000e+00 0.0000000000000000e+00 0.0000000000000000e+00  0.0000000000000000e+00 0.0000000000000000e+00 0.0000000000000000e+00  0.0000000000000000e+00 0.0000000000000000e+00 0.0000000000000000e+00  0.0000000000000000e+00 0.0000000000000000e+00 0.0000000000000000e+00  0.0000000000000000e+00 0.0000000000000000e+00 0.0000000000000000e+00  0.0000000000000000e+00 0.0000000000000000e+00 0.0000000000000000e+00  0.0000000000000000e+00 0.0000000000000000e+00 0.0000000000000000e+00  0.0000000000000000e+00 0.0000000000000000e+00 0.0000000000000000e+00  0.0000000000000000e+00 0.0000000000000000e+00 0.0000000000000000e+00  0.0000000000000000e+00 0.0000000000000000e+00 0.0000000000000000e+00  0.0000000000000000e+00 0.0000000000000000e+00 0.0000000000000000e+00  0.0000000000000000e+00 0.0000000000000000e+00 0.0000000000000000e+00  0.0000000000000000e+00 0.0000000000000000e+00 0.0000000000000000e+00  0.0000000000000000e+00 0.0000000000000000e+00 0.0000000000000000e+00  0.0000000000000000e+00 0.0000000000000000e+00 0.0000000000000000e+00  0.0000000000000000e+00 0.0000000000000000e+00 0.0000000000000000e+00  0.0000000000000000e+00 0.0000000000000000e+00 0.0000000000000000e+00  0.0000000000000000e+00 0.0000000000000000e+00 0.0000000000000000e+00  0.0000000000000000e+00 0.0000000000000000e+00 0.0000000000000000e+00  0.0000000000000000e+00 0.0000000000000000e+00 0.0000000000000000e+00  0.0000000000000000e+00 0.0000000000000000e+00 0.0000000000000000e+00  0.0000000000000000e+00 0.0000000000000000e+00 0.0000000000000000e+00  0.0000000000000000e+00 0.0000000000000000e+00 0.0000000000000000e+00  0.0000000000000000e+00 0.0000000000000000e+00 0.0000000000000000e+00  0.0000000000000000e+00 0.0000000000000000e+00 0.0000000000000000e+00  0.0000000000000000e+00 0.0000000000000000e+00 0.0000000000000000e+00  0.0000000000000000e+00 0.0000000000000000e+00 0.0000000000000000e+00  0.0000000000000000e+00 0.0000000000000000e+00 0.0000000000000000e+00  0.0000000000000000e+00 0.0000000000000000e+00 0.0000000000000000e+00  0.0000000000000000e+00 0.0000000000000000e+00 0.0000000000000000e+00  0.0000000000000000e+00 0.0000000000000000e+00 0.0000000000000000e+00  0.0000000000000000e+00 0.0000000000000000e+00 0.0000000000000000e+00  0.0000000000000000e+00 0.0000000000000000e+00 0.0000000000000000e+00  0.0000000000000000e+00 0.0000000000000000e+00 0.0000000000000000e+00  0.0000000000000000e+00 0.0000000000000000e+00 0.0000000000000000e+00  0.0000000000000000e+00 0.0000000000000000e+00 0.0000000000000000e+00  0.0000000000000000e+00 0.0000000000000000e+00 0.0000000000000000e+00  0.0000000000000000e+00 0.0000000000000000e+00 0.0000000000000000e+00  0.0000000000000000e+00 0.0000000000000000e+00 0.0000000000000000e+00  0.0000000000000000e+00 0.0000000000000000e+00 0.0000000000000000e+00  0.0000000000000000e+00 0.0000000000000000e+00 0.0000000000000000e+00  0.0000000000000000e+00 0.0000000000000000e+00 0.0000000000000000e+00  0.0000000000000000e+00 0.0000000000000000e+00 0.0000000000000000e+00  0.0000000000000000e+00 0.0000000000000000e+00 0.0000000000000000e+00  0.0000000000000000e+00 0.0000000000000000e+00 0.0000000000000000e+00  0.0000000000000000e+00 0.0000000000000000e+00 0.0000000000000000e+00  0.0000000000000000e+00 0.0000000000000000e+00 0.0000000000000000e+00  0.0000000000000000e+00 0.0000000000000000e+00 0.0000000000000000e+00  0.0000000000000000e+00 0.0000000000000000e+00 0.0000000000000000e+00  0.0000000000000000e+00 0.0000000000000000e+00 0.0000000000000000e+00  0.0000000000000000e+00 0.0000000000000000e+00 0.0000000000000000e+00  0.0000000000000000e+00 0.0000000000000000e+00 0.0000000000000000e+00  0.0000000000000000e+00 0.0000000000000000e+00 0.0000000000000000e+00  0.0000000000000000e+00 0.0000000000000000e+00 0.0000000000000000e+00  0.0000000000000000e+00 0.0000000000000000e+00 0.0000000000000000e+00  0.0000000000000000e+00 0.0000000000000000e+00 0.0000000000000000e+00  0.0000000000000000e+00 0.0000000000000000e+00 0.0000000000000000e+00  0.0000000000000000e+00 0.0000000000000000e+00 0.0000000000000000e+00  0.0000000000000000e+00 0.0000000000000000e+00 0.0000000000000000e+00  0.0000000000000000e+00 0.0000000000000000e+00 0.0000000000000000e+00  0.0000000000000000e+00 0.0000000000000000e+00 0.0000000000000000e+00  0.0000000000000000e+00 0.0000000000000000e+00 0.0000000000000000e+00  0.0000000000000000e+00 0.0000000000000000e+00 0.0000000000000000e+00  0.0000000000000000e+00 0.0000000000000000e+00 0.0000000000000000e+00  0.0000000000000000e+00 0.0000000000000000e+00 0.0000000000000000e+00  0.0000000000000000e+00 0.0000000000000000e+00 0.0000000000000000e+00  6.1843654626341574e-03 -1.1115164404380091e-03 0.0000000000000000e+00  5.7449871535817272e-03 -1.1391630374093570e-03 0.0000000000000000e+00  5.2819663394005640e-03 -1.2122431791018167e-03 0.0000000000000000e+00  4.7413643943581291e-03 -1.3195364163703976e-03 0.0000000000000000e+00  4.0763694486760935e-03 -1.4200166109683712e-03 0.0000000000000000e+00  3.2627009772222310e-03 -1.4582660616541049e-03 0.0000000000000000e+00  2.3038016329327508e-03 -1.3460884492655957e-03 0.0000000000000000e+00  1.2302293110742473e-03 -9.8471860745510086e-04 0.0000000000000000e+00  -1.0296145290705743e-04 -1.6987736384281568e-02 0.0000000000000000e+00  -2.1321079176116715e-04 -1.6968280975158234e-02 0.0000000000000000e+00  -3.3590722022447546e-04 -1.6930753424129596e-02 0.0000000000000000e+00  -4.7666852719626919e-04 -1.6867024455446349e-02 0.0000000000000000e+00  -6.3946514487135762e-04 -1.6764804731067725e-02 0.0000000000000000e+00  -8.2883886667586913e-04 -1.6605590466922619e-02 0.0000000000000000e+00  -1.0621589564749768e-03 -1.6359804588807012e-02 0.0000000000000000e+00  -1.3397172477458788e-03 -1.6003822129358927e-02 0.0000000000000000e+00  -1.6412170945422743e-03 -1.5515351866711106e-02 0.0000000000000000e+00  -1.9296356976594960e-03 -1.4862691837489441e-02 0.0000000000000000e+00  -2.1485514089543455e-03 -1.4005304576340133e-02 0.0000000000000000e+00  -2.3011420871484000e-03 -1.2964999975921878e-02 0.0000000000000000e+00  -2.3571307744881518e-03 -1.1783885912772962e-02 0.0000000000000000e+00  -2.3045214930020809e-03 -1.0525021394309737e-02 0.0000000000000000e+00  -2.1528611378846913e-03 -9.2543033293257977e-03 0.0000000000000000e+00  -1.9025643855429563e-03 -8.0509205195248342e-03 0.0000000000000000e+00  -1.5096071861944928e-03 -6.9809805723783829e-03 0.0000000000000000e+00  -1.0325713488888466e-03 -6.0002444660307488e-03 0.0000000000000000e+00  -5.3065125389194570e-04 -5.1072191957974734e-03 0.0000000000000000e+00  -4.3066896903349988e-05 -4.3039202510556859e-03 0.0000000000000000e+00  4.1269607792497349e-04 -3.5847510721662965e-03 0.0000000000000000e+00  8.3902118864773070e-04 -2.9350662702936634e-03 0.0000000000000000e+00  1.2416495021785709e-03 -2.3434830977858024e-03 0.0000000000000000e+00  1.6239934423795687e-03 -1.8040732808045606e-03 0.0000000000000000e+00  1.9862625196038833e-03 -1.3148749818219863e-03 0.0000000000000000e+00  2.3267884050391023e-03 -8.7565100095161365e-04 0.0000000000000000e+00  2.6450302489315009e-03 -4.8521862434965882e-04 0.0000000000000000e+00  2.9431930814512080e-03 -1.4083250009721908e-04 0.0000000000000000e+00  3.2275071750474476e-03 1.6297129407912914e-04 0.0000000000000000e+00  3.5050058411727524e-03 4.3140433524273757e-04 0.0000000000000000e+00  3.7722032637558011e-03 6.6510230325440823e-04 0.0000000000000000e+00  4.0274089687320448e-03 8.6552022429059244e-04 0.0000000000000000e+00  4.2696702151902143e-03 1.0343128763869976e-03 0.0000000000000000e+00  4.4984274543938439e-03 1.1731988068843383e-03 0.0000000000000000e+00  4.7134858642326697e-03 1.2839365105949895e-03 0.0000000000000000e+00  4.9147242528157229e-03 1.3681257180254065e-03 0.0000000000000000e+00  5.1022454672357900e-03 1.4274130601815605e-03 0.0000000000000000e+00  5.2763923768747827e-03 1.4633959417320070e-03 0.0000000000000000e+00  5.4373581344429088e-03 1.4775321097251681e-03 0.0000000000000000e+00  5.5857182890284495e-03 1.4712307453840403e-03 0.0000000000000000e+00  5.7217843249288561e-03 1.4457873687326291e-03 0.0000000000000000e+00  5.8462091168456163e-03 1.4024393920724710e-03 0.0000000000000000e+00  5.9595015648449918e-03 1.3423510884353858e-03 0.0000000000000000e+00  6.0622296974759187e-03 1.2665739110638576e-03 0.0000000000000000e+00  6.1549698566690072e-03 1.1760928259399717e-03 0.0000000000000000e+00  6.2382642773830049e-03 1.0718135572971056e-03 0.0000000000000000e+00  6.3126063800877479e-03 9.5459912681884892e-04 0.0000000000000000e+00  6.3785574389497801e-03 8.2529530646517147e-04 0.0000000000000000e+00  6.4364187574015323e-03 6.8465416694914682e-04 0.0000000000000000e+00  6.4865824610441580e-03 5.3351595842544906e-04 0.0000000000000000e+00  6.5293178634085632e-03 3.7274529389720671e-04 0.0000000000000000e+00  6.5647888542547080e-03 2.0330061384609823e-04 0.0000000000000000e+00  6.5931593333126287e-03 2.6315556925598921e-05 0.0000000000000000e+00  6.6145740713855709e-03 -1.5689557448259119e-04 0.0000000000000000e+00  6.6292791146970766e-03 -3.4474255540541181e-04 0.0000000000000000e+00  6.6377836954299848e-03 -5.3544938845874219e-04 0.0000000000000000e+00  6.6412269421530987e-03 -7.2716654888559703e-04 0.0000000000000000e+00  6.6413236547851646e-03 -9.1841595054787068e-04 0.0000000000000000e+00  0.0000000000000000e+00 -1.7010297150776545e-02 0.0000000000000000e+00  0.0000000000000000e+00 -1.7025703369041665e-02 0.0000000000000000e+00  0.0000000000000000e+00 -1.7039457730151267e-02 0.0000000000000000e+00  0.0000000000000000e+00 -1.7051264031012953e-02 0.0000000000000000e+00  0.0000000000000000e+00 -1.7060882778822117e-02 0.0000000000000000e+00  0.0000000000000000e+00 -1.7068164474153508e-02 0.0000000000000000e+00  0.0000000000000000e+00 -1.7073024377939811e-02 0.0000000000000000e+00  0.0000000000000000e+00 -1.7075447710518419e-02 0.0000000000000000e+00  0.0000000000000000e+00 -1.7075480372675571e-02 0.0000000000000000e+00  0.0000000000000000e+00 -1.7073238240913623e-02 0.0000000000000000e+00  0.0000000000000000e+00 -1.7068880400290885e-02 0.0000000000000000e+00  0.0000000000000000e+00 -1.7062641001332864e-02 0.0000000000000000e+00  0.0000000000000000e+00 -1.7054779460888358e-02 0.0000000000000000e+00  0.0000000000000000e+00 -1.7045625250964026e-02 0.0000000000000000e+00  0.0000000000000000e+00 -1.7035543626314743e-02 0.0000000000000000e+00  0.0000000000000000e+00 -1.7024905703191574e-02 0.0000000000000000e+00  0.0000000000000000e+00 -1.7014155717379895e-02 0.0000000000000000e+00  0.0000000000000000e+00 -1.7003703304390171e-02 0.0000000000000000e+00  0.0000000000000000e+00 -1.6993976326035633e-02 0.0000000000000000e+00  0.0000000000000000e+00 -1.6985373873042813e-02 0.0000000000000000e+00  0.0000000000000000e+00 -1.6978266746327835e-02 0.0000000000000000e+00  0.0000000000000000e+00 -1.6972950523910606e-02 0.0000000000000000e+00  0.0000000000000000e+00 -1.6969664896787712e-02 0.0000000000000000e+00  0.0000000000000000e+00 -1.6967874752652004e-02 0.0000000000000000e+00  0.0000000000000000e+00 -1.6965845764738415e-02 0.0000000000000000e+00  0.0000000000000000e+00 -1.6962478769651516e-02 0.0000000000000000e+00  0.0000000000000000e+00 -1.6957796337723836e-02 0.0000000000000000e+00  0.0000000000000000e+00 -1.6951831682368169e-02 0.0000000000000000e+00  0.0000000000000000e+00 -1.6944628843363799e-02 0.0000000000000000e+00  0.0000000000000000e+00 -1.6936251630865505e-02 0.0000000000000000e+00  0.0000000000000000e+00 -1.6926775844476730e-02 0.0000000000000000e+00  0.0000000000000000e+00 -1.6916299476933263e-02 0.0000000000000000e+00  0.0000000000000000e+00 -1.6904948569925721e-02 0.0000000000000000e+00  0.0000000000000000e+00 -1.6892881887870203e-02 0.0000000000000000e+00  0.0000000000000000e+00 -1.6880301262439775e-02 0.0000000000000000e+00  0.0000000000000000e+00 -1.6867462114566394e-02 0.0000000000000000e+00  0.0000000000000000e+00 -1.6854688176853354e-02 0.0000000000000000e+00  0.0000000000000000e+00 -1.6842399725525911e-02 0.0000000000000000e+00  0.0000000000000000e+00 -1.6831138443335406e-02 0.0000000000000000e+00  0.0000000000000000e+00 -1.6821630397631862e-02 0.0000000000000000e+00  0.0000000000000000e+00 -1.6814857304568730e-02 0.0000000000000000e+00  0.0000000000000000e+00 -1.6812184607483176e-02 0.0000000000000000e+00  0.0000000000000000e+00 -1.6815607368161303e-02 0.0000000000000000e+00  0.0000000000000000e+00 -1.6828337897762256e-02 0.0000000000000000e+00  0.0000000000000000e+00 -1.6855903800686911e-02 0.0000000000000000e+00  0.0000000000000000e+00 -1.6911530224830329e-02 0.0000000000000000e+00  0.0000000000000000e+00 -1.7181248578043016e-02 0.0000000000000000e+00  0.0000000000000000e+00 -1.7280379585393978e-02 0.0000000000000000e+00  0.0000000000000000e+00 -1.7381571281200027e-02 0.0000000000000000e+00  0.0000000000000000e+00 -1.7491218032608200e-02 0.0000000000000000e+00  0.0000000000000000e+00 -1.7610416549805788e-02 0.0000000000000000e+00  0.0000000000000000e+00 -1.7740733136920966e-02 0.0000000000000000e+00  0.0000000000000000e+00 -1.7883758044555536e-02 0.0000000000000000e+00  0.0000000000000000e+00 -1.8040435049060926e-02 0.0000000000000000e+00  0.0000000000000000e+00 -1.8212283951972937e-02 0.0000000000000000e+00  0.0000000000000000e+00 -1.8400404404051982e-02 0.0000000000000000e+00  0.0000000000000000e+00 -1.8607330402833706e-02 0.0000000000000000e+00  0.0000000000000000e+00 -1.8833405649500676e-02 0.0000000000000000e+00  0.0000000000000000e+00 -1.9082633392859732e-02 0.0000000000000000e+00  0.0000000000000000e+00 -1.9356369988247878e-02 0.0000000000000000e+00  0.0000000000000000e+00 -1.9659183889126252e-02 0.0000000000000000e+00  0.0000000000000000e+00 -1.9994316700845682e-02 0.0000000000000000e+00  0.0000000000000000e+00 -2.0366604028100060e-02 0.0000000000000000e+00  0.0000000000000000e+00 -2.0786244687221407e-02 0.0000000000000000e+00  0.0000000000000000e+00 -2.1261494730641112e-02 0.0000000000000000e+00  0.0000000000000000e+00 -2.1807771143105687e-02 0.0000000000000000e+00  0.0000000000000000e+00 -2.2455998386868632e-02 0.0000000000000000e+00  0.0000000000000000e+00 -2.3256000015486063e-02 0.0000000000000000e+00  0.0000000000000000e+00 -2.4525708943285277e-02 0.0000000000000000e+00  -1.3181587684439494e-03 -3.7832951264606965e-02 0.0000000000000000e+00  -1.4333533188059736e-03 -4.3554024491310919e-02 0.0000000000000000e+00  -1.5698687017002542e-03 -4.7772874983857801e-02 0.0000000000000000e+00  -1.6472570175874294e-03 -5.1260953587182273e-02 0.0000000000000000e+00  -1.6718499400095847e-03 -5.4237576254500354e-02 0.0000000000000000e+00  -1.6680361586857780e-03 -5.6829908706907559e-02 0.0000000000000000e+00  -1.6428291128991863e-03 -5.9120281214302121e-02 0.0000000000000000e+00  -1.6002270727030878e-03 -6.1160422723396751e-02 0.0000000000000000e+00  -1.5445233662374942e-03 -6.2987278224265184e-02 0.0000000000000000e+00  -1.4779122703267144e-03 -6.4628408475517166e-02 0.0000000000000000e+00  -1.4025487095605639e-03 -6.6104396063422111e-02 0.0000000000000000e+00  -1.3200717126971579e-03 -6.7431458177069553e-02 0.0000000000000000e+00  -1.2316482543388316e-03 -6.8622340898366871e-02 0.0000000000000000e+00  -1.1382884638045897e-03 -6.9687358966879040e-02 0.0000000000000000e+00  -1.0406670950644866e-03 -7.0634935295176962e-02 0.0000000000000000e+00  -9.3956630561442946e-04 -7.1471909351351601e-02 0.0000000000000000e+00  -8.3549667140985005e-04 -7.2203756410362238e-02 0.0000000000000000e+00  -7.2893231385935968e-04 -7.2835223498905755e-02 0.0000000000000000e+00  -6.2028707882451741e-04 -7.3370148356287163e-02 0.0000000000000000e+00  -5.1000409668713084e-04 -7.3811599690276980e-02 0.0000000000000000e+00  -3.9838711303321402e-04 -7.4162002907182251e-02 0.0000000000000000e+00  -2.8580338418350825e-04 -7.4423180006038064e-02 0.0000000000000000e+00  -1.7249093230741031e-04 -7.4596593035399492e-02 0.0000000000000000e+00  -5.8731556378395521e-05 -7.4683112438239760e-02 0.0000000000000000e+00  5.5103079442199385e-05 -7.4683132798295970e-02 0.0000000000000000e+00  1.6880989206606158e-04 -7.4596723993333933e-02 0.0000000000000000e+00  2.8215569394359093e-04 -7.4423386149749166e-02 0.0000000000000000e+00  3.9470278585736223e-04 -7.4162243120457494e-02 0.0000000000000000e+00  5.0624484140276299e-04 -7.3811969771775815e-02 0.0000000000000000e+00  6.1647207574649649e-04 -7.3370616001360439e-02 0.0000000000000000e+00  7.2505081858401284e-04 -7.2835765283731549e-02 0.0000000000000000e+00  8.3156464302781992e-04 -7.2204375808791327e-02 0.0000000000000000e+00  9.3546960356339476e-04 -7.1472559483268638e-02 0.0000000000000000e+00  1.0365375134374262e-03 -7.0635727295057321e-02 0.0000000000000000e+00  1.1340658417135136e-03 -6.9688251368107190e-02 0.0000000000000000e+00  1.2273641036260937e-03 -6.8623449039499962e-02 0.0000000000000000e+00  1.3156025137039302e-03 -6.7432805083788697e-02 0.0000000000000000e+00  1.3978122140609730e-03 -6.6106028556213559e-02 0.0000000000000000e+00  1.4724633235178408e-03 -6.4630166817484749e-02 0.0000000000000000e+00  1.5394178638512344e-03 -6.2989226118226771e-02 0.0000000000000000e+00  1.5949189296086176e-03 -6.1162392470677007e-02 0.0000000000000000e+00  1.6367802947385344e-03 -5.9122754166445843e-02 0.0000000000000000e+00  1.6614384280234820e-03 -5.6832488753825711e-02 0.0000000000000000e+00  1.6633457006365615e-03 -5.4238521675928825e-02 0.0000000000000000e+00  1.6360829239290590e-03 -5.1262617551684694e-02 0.0000000000000000e+00  1.5613404143260937e-03 -4.7777105797910238e-02 0.0000000000000000e+00  1.4166324563814456e-03 -4.3543834061320133e-02 0.0000000000000000e+00  1.2961045517418872e-03 -3.7794578478047673e-02 0