<?xml version="1.0"?>
<VTKFile type="UnstructuredGrid"  version="0.1"  >
<UnstructuredGrid>
<Piece  NumberOfPoints="6382" NumberOfCells="12354">
<Points>
<DataArray  type="Float64"  NumberOfComponents="3"  format="ascii">0 -3 0  0 0 0  10 -3 0  10 0 0  5.2 0 0  5.2 -0.4 0  5.5 -0.4 0  5.5 -0.6000000000000001 0  4.5 -0.6000000000000001 0  4.5 -0.4 0  4.8 -0.4 0  4.8 0 0  0 -2.666666666666667 0  0 -2.333333333333333 0  0 -2 0  0 -1.666666666666667 0  0 -1.333333333333333 0  0 -1 0  0 -0.666666666666667 0  0 -0.3333333333333335 0  9.836518447033493 -3 0  9.676485174132324 -3 0  9.519716728676565 -3 0  9.366040597429432 -3 0  9.215293522901804 -3 0  9.067325347766827 -3 0  8.921978167503752 -3 0  8.779125793186953 -3 0  8.638633440048579 -3 0  8.500376249002967 -3 0  8.364235730108557 -3 0  8.230099119300583 -3 0  8.097858693472926 -3 0  7.96741165420296 -3 0  7.838659590098249 -3 0  7.711508416266758 -3 0  7.585867779025237 -3 0  7.461651037321721 -3 0  7.338774694871047 -3 0  7.217158563845377 -3 0  7.096725097152937 -3 0  6.977399455051415 -3 0  6.859109304538208 -3 0  6.741784490575633 -3 0  6.625356935727237 -3 0  6.509760461250432 -3 0  6.394930659317325 -3 0  6.2808046903675 -3 0  6.167321173775116 -3 0  6.054420032640893 -3 0  5.942042373994132 -3 0  5.830130346471836 -3 0  5.718627047087892 -3 0  5.607476358937133 -3 0  5.496622874861212 -3 0  5.386011773348871 -3 0  5.275588701244851 -3 0  5.1652996754838 -3 0  5.055090972556302 -3 0  4.944909027443701 -3 0  4.834700324516204 -3 0  4.724411298755151 -3 0  4.613988226651132 -3 0  4.50337712513879 -3 0  4.392523641062869 -3 0  4.281372952912111 -3 0  4.169869653528168 -3 0  4.05795762600587 -3 0  3.94557996735911 -3 0  3.832678826224885 -3 0  3.719195309632506 -3 0  3.605069340682676 -3 0  3.490239538749567 -3 0  3.374643064272765 -3 0  3.25821550942437 -3 0  3.140890695461794 -3 0  3.022600544948583 -3 0  2.903274902847057 -3 0  2.782841436154621 -3 0  2.661225305128949 -3 0  2.538348962678273 -3 0  2.414132220974763 -3 0  2.288491583733238 -3 0  2.161340409901745 -3 0  2.032588345797035 -3 0  1.902141306527067 -3 0  1.76990088069941 -3 0  1.63576426989143 -3 0  1.499623750997021 -3 0  1.361366559951406 -3 0  1.220874206813038 -3 0  1.078021832496241 -3 0  0.9326746522331657 -3 0  0.7847064770981866 -3 0  0.6339594025705644 -3 0  0.4802832713234277 -3 0  0.3235148258676688 -3 0  0.1634815529665037 -3 0  10 -0.3333333333333333 0  10 -0.6666666666666666 0  10 -1 0  10 -1.333333333333333 0  10 -1.666666666666667 0  10 -2 0  10 -2.333333333333333 0  10 -2.666666666666667 0  5.242711110725164 0 0  5.286293876642154 0 0  5.330766086609641 0 0  5.37614589213589 0 0  5.422451816439484 0 0  5.469702760205794 0 0  5.517918009017504 0 0  5.567117241892008 0 0  5.617320540096343 0 0  5.668548395644089 0 0  5.720821717893487 0 0  5.774161842649544 0 0  5.828590541642586 0 0  5.88413003019757 0 0  5.940802977381058 0 0  5.998632515893446 0 0  6.057642249375406 0 0  6.117856262977496 0 0  6.179299133651088 0 0  6.241995940085244 0 0  6.305972273082686 0 0  6.371254245606542 0 0  6.43786850326221 0 0  6.505842235920577 0 0  6.575203187664691 0 0  6.645979668539436 0 0  6.71820056760014 0 0  6.791895362764803 0 0  6.867094133292654 0 0  6.943827572794882 0 0  7.022127001289535 0 0  7.10202437703821 0 0  7.183552311040527 0 0  7.266744080707336 0 0  7.351633641831447 0 0  7.438255642584554 0 0  7.526645439439152 0 0  7.616839110330926 0 0  7.708873468012155 0 0  7.802786077905059 0 0  7.898615271449994 0 0  7.996400162886068 0 0  8.096180664647234 0 0  8.197997502517053 0 0  8.301892235188374 0 0  8.407907268711336 0 0  8.516085874431543 0 0  8.626472207031901 0 0  8.739111321743804 0 0  8.854049193814495 0 0  8.971332736524433 0 0  9.091009820696414 0 0  9.21312929427506 0 0  9.337741001971482 0 0  9.464895805719847 0 0  9.594645605970797 0 0  9.727043361679982 0 0  9.862143111819449 0 0  5.2 -0.01666666666666669 0  5.2 -0.03333333333333339 0  5.2 -0.05000000000000009 0  5.2 -0.06666666666666679 0  5.2 -0.0833333333333335 0  5.2 -0.1000000000000002 0  5.2 -0.1166666666666669 0  5.2 -0.1333333333333336 0  5.2 -0.1500000000000002 0  5.2 -0.1666666666666669 0  5.2 -0.1833333333333335 0  5.2 -0.2000000000000001 0  5.2 -0.2166666666666668 0  5.2 -0.2333333333333335 0  5.2 -0.2500000000000002 0  5.2 -0.2666666666666669 0  5.2 -0.2833333333333335 0  5.2 -0.3000000000000002 0  5.2 -0.3166666666666668 0  5.2 -0.3333333333333335 0  5.2 -0.3500000000000001 0  5.2 -0.3666666666666668 0  5.2 -0.3833333333333334 0  5.2125 -0.4 0  5.225 -0.4 0  5.2375 -0.4 0  5.25 -0.4 0  5.2625 -0.4 0  5.275 -0.4 0  5.2875 -0.4 0  5.3 -0.4 0  5.3125 -0.4 0  5.325 -0.4 0  5.337499999999999 -0.4 0  5.35 -0.4 0  5.3625 -0.4 0  5.375 -0.4 0  5.3875 -0.4 0  5.4 -0.4 0  5.4125 -0.4 0  5.425 -0.4 0  5.4375 -0.4 0  5.45 -0.4 0  5.4625 -0.4 0  5.475 -0.4 0  5.4875 -0.4 0  5.5 -0.4083333333333334 0  5.5 -0.4166666666666667 0  5.5 -0.425 0  5.5 -0.4333333333333334 0  5.5 -0.4416666666666668 0  5.5 -0.4500000000000001 0  5.5 -0.4583333333333334 0  5.5 -0.4666666666666668 0  5.5 -0.4750000000000001 0  5.5 -0.4833333333333335 0  5.5 -0.4916666666666668 0  5.5 -0.5000000000000002 0  5.5 -0.5083333333333335 0  5.5 -0.5166666666666668 0  5.5 -0.5250000000000002 0  5.5 -0.5333333333333335 0  5.5 -0.5416666666666669 0  5.5 -0.5500000000000002 0  5.5 -0.5583333333333335 0  5.5 -0.5666666666666668 0  5.5 -0.5750000000000002 0  5.5 -0.5833333333333335 0  5.5 -0.5916666666666668 0  5.479591836734694 -0.6000000000000001 0  5.459183673469388 -0.6000000000000001 0  5.438775510204081 -0.6000000000000001 0  5.418367346938775 -0.6000000000000001 0  5.397959183673469 -0.6000000000000001 0  5.377551020408164 -0.6000000000000001 0  5.357142857142857 -0.6000000000000001 0  5.336734693877551 -0.6000000000000001 0  5.316326530612245 -0.6000000000000001 0  5.295918367346939 -0.6000000000000001 0  5.275510204081633 -0.6000000000000001 0  5.255102040816326 -0.6000000000000001 0  5.23469387755102 -0.6000000000000001 0  5.214285714285714 -0.6000000000000001 0  5.193877551020408 -0.6000000000000001 0  5.173469387755102 -0.6000000000000001 0  5.153061224489796 -0.6000000000000001 0  5.13265306122449 -0.6000000000000001 0  5.112244897959184 -0.6000000000000001 0  5.091836734693878 -0.6000000000000001 0  5.071428571428571 -0.6000000000000001 0  5.051020408163265 -0.6000000000000001 0  5.030612244897959 -0.6000000000000001 0  5.010204081632653 -0.6000000000000001 0  4.989795918367347 -0.6000000000000001 0  4.969387755102041 -0.6000000000000001 0  4.948979591836735 -0.6000000000000001 0  4.928571428571429 -0.6000000000000001 0  4.908163265306122 -0.6000000000000001 0  4.887755102040816 -0.6000000000000001 0  4.86734693877551 -0.6000000000000001 0  4.846938775510204 -0.6000000000000001 0  4.826530612244898 -0.6000000000000001 0  4.806122448979592 -0.6000000000000001 0  4.785714285714286 -0.6000000000000001 0  4.76530612244898 -0.6000000000000001 0  4.744897959183674 -0.6000000000000001 0  4.724489795918368 -0.6000000000000001 0  4.704081632653061 -0.6000000000000001 0  4.683673469387755 -0.6000000000000001 0  4.663265306122449 -0.6000000000000001 0  4.642857142857143 -0.6000000000000001 0  4.622448979591836 -0.6000000000000001 0  4.602040816326531 -0.6000000000000001 0  4.581632653061225 -0.6000000000000001 0  4.561224489795919 -0.6000000000000001 0  4.540816326530612 -0.6000000000000001 0  4.520408163265306 -0.6000000000000001 0  4.5 -0.5916666666666668 0  4.5 -0.5833333333333334 0  4.5 -0.5750000000000001 0  4.5 -0.5666666666666668 0  4.5 -0.5583333333333333 0  4.5 -0.55 0  4.5 -0.5416666666666667 0  4.5 -0.5333333333333333 0  4.5 -0.525 0  4.5 -0.5166666666666666 0  4.5 -0.5083333333333333 0  4.5 -0.4999999999999999 0  4.5 -0.4916666666666666 0  4.5 -0.4833333333333332 0  4.5 -0.4749999999999999 0  4.5 -0.4666666666666666 0  4.5 -0.4583333333333333 0  4.5 -0.45 0  4.5 -0.4416666666666667 0  4.5 -0.4333333333333333 0  4.5 -0.425 0  4.5 -0.4166666666666667 0  4.5 -0.4083333333333334 0  4.5125 -0.4 0  4.525 -0.4 0  4.5375 -0.4 0  4.55 -0.4 0  4.5625 -0.4 0  4.575 -0.4 0  4.587499999999999 -0.4 0  4.6 -0.4 0  4.6125 -0.4 0  4.625 -0.4 0  4.637499999999999 -0.4 0  4.649999999999999 -0.4 0  4.6625 -0.4 0  4.675 -0.4 0  4.6875 -0.4 0  4.699999999999999 -0.4 0  4.712499999999999 -0.4 0  4.725 -0.4 0  4.7375 -0.4 0  4.75 -0.4 0  4.7625 -0.4 0  4.774999999999999 -0.4 0  4.7875 -0.4 0  4.8 -0.3833333333333333 0  4.8 -0.3666666666666666 0  4.8 -0.3499999999999999 0  4.8 -0.3333333333333333 0  4.8 -0.3166666666666665 0  4.8 -0.2999999999999998 0  4.8 -0.2833333333333331 0  4.8 -0.2666666666666664 0  4.8 -0.2499999999999998 0  4.8 -0.2333333333333331 0  4.8 -0.2166666666666665 0  4.8 -0.1999999999999999 0  4.8 -0.1833333333333332 0  4.8 -0.1666666666666665 0  4.8 -0.1499999999999998 0  4.8 -0.1333333333333331 0  4.8 -0.1166666666666665 0  4.8 -0.09999999999999987 0  4.8 -0.0833333333333332 0  4.8 -0.06666666666666654 0  4.8 -0.04999999999999988 0  4.8 -0.03333333333333327 0  4.8 -0.01666666666666661 0  0.1378568875240437 0 0  0.2729566377271358 0 0  0.4053543934976697 0 0  0.5351041938077431 0 0  0.6622589976130751 0 0  0.7868707053643811 0 0  0.9089901789958823 0 0  1.028667263218748 0 0  1.14595080597766 0 0  1.260888678095464 0 0  1.373527792852679 0 0  1.483914125496606 0 0  1.592092731258683 0 0  1.698107764821866 0 0  1.802002497531814 0 0  1.90381933543871 0 0  2.003599837235452 0 0  2.101384728705643 0 0  2.197213922283282 0 0  2.291126532207516 0 0  2.38316088991875 0 0  2.473354560839241 0 0  2.56174435771825 0 0  2.648366358500676 0 0  2.733255919649871 0 0  2.81644768934063 0 0  2.897975623365796 0 0  2.977872999136252 0 0  3.056172427651654 0 0  3.132905867173631 0 0  3.208104637720262 0 0  3.28179943290277 0 0  3.354020331980409 0 0  3.42479681287121 0 0  3.494157764630528 0 0  3.562131497303279 0 0  3.628745754972536 0 0  3.69402772750921 0 0  3.758004060518725 0 0  3.820700866964234 0 0  3.882143737648484 0 0  3.942357751260559 0 0  4.0013674
[...]
<PointData  Vectors="displacement"> 
<DataArray  type="Float64"  Name="displacement"  NumberOfComponents="3" format="ascii">0.0000000000000000e+00 0.0000000000000000e+00 0.0000000000000000e+00  -1.1775151960857324e-03 -7.1337340665483180e-05 0.0000000000000000e+00  0.0000000000000000e+00 0.0000000000000000e+00 0.0000000000000000e+00  1.1774439789060175e-03 -7.1339292329918521e-05 0.0000000000000000e+00  0.0000000000000000e+00 -5.7085114531208528e-03 0.0000000000000000e+00  0.0000000000000000e+00 -5.8214317712703412e-03 0.0000000000000000e+00  0.0000000000000000e+00 -5.7594693075894484e-03 0.0000000000000000e+00  0.0000000000000000e+00 -8.2508287050880001e-03 0.0000000000000000e+00  0.0000000000000000e+00 -8.2394593812187833e-03 0.0000000000000000e+00  0.0000000000000000e+00 -5.7583363035845448e-03 0.0000000000000000e+00  0.0000000000000000e+00 -5.8202912633632566e-03 0.0000000000000000e+00  0.0000000000000000e+00 -5.7074479794342863e-03 0.0000000000000000e+00  -2.9541465281632885e-04 -2.1308288299244995e-04 0.0000000000000000e+00  -5.4810521990148462e-04 -2.6621946594005411e-04 0.0000000000000000e+00  -7.5470052021306812e-04 -2.5601551080149735e-04 0.0000000000000000e+00  -9.0737585053257111e-04 -2.1160412834438869e-04 0.0000000000000000e+00  -1.0083653835663057e-03 -1.5751939852817087e-04 0.0000000000000000e+00  -1.0682224070821262e-03 -1.1046392952031622e-04 0.0000000000000000e+00  -1.1044318487664700e-03 -8.1389824485611040e-05 0.0000000000000000e+00  -1.1364964947656586e-03 -7.1281993381269588e-05 0.0000000000000000e+00  0.0000000000000000e+00 0.0000000000000000e+00 0.0000000000000000e+00  0.0000000000000000e+00 0.0000000000000000e+00 0.0000000000000000e+00  0.0000000000000000e+00 0.0000000000000000e+00 0.0000000000000000e+00  0.0000000000000000e+00 0.0000000000000000e+00 0.0000000000000000e+00  0.0000000000000000e+00 0.0000000000000000e+00 0.0000000000000000e+00  0.0000000000000000e+00 0.0000000000000000e+00 0.0000000000000000e+00  0.0000000000000000e+00 0.0000000000000000e+00 0.0000000000000000e+00  0.0000000000000000e+00 0.0000000000000000e+00 0.0000000000000000e+00  0.0000000000000000e+00 0.0000000000000000e+00 0.0000000000000000e+00  0.0000000000000000e+00 0.0000000000000000e+00 0.0000000000000000e+00  0.0000000000000000e+00 0.0000000000000000e+00 0.0000000000000000e+00  0.0000000000000000e+00 0.0000000000000000e+00 0.0000000000000000e+00  0.0000000000000000e+00 0.0000000000000000e+00 0.0000000000000000e+00  0.0000000000000000e+00 0.0000000000000000e+00 0.0000000000000000e+00  0.0000000000000000e+00 0.0000000000000000e+00 0.0000000000000000e+00  0.0000000000000000e+00 0.0000000000000000e+00 0.0000000000000000e+00  0.0000000000000000e+00 0.0000000000000000e+00 0.0000000000000000e+00  0.0000000000000000e+00 0.0000000000000000e+00 0.0000000000000000e+00  0.0000000000000000e+00 0.0000000000000000e+00 0.0000000000000000e+00  0.0000000000000000e+00 0.0000000000000000e+00 0.0000000000000000e+00  0.0000000000000000e+00 0.0000000000000000e+00 0.0000000000000000e+00  0.0000000000000000e+00 0.0000000000000000e+00 0.0000000000000000e+00  0.0000000000000000e+00 0.0000000000000000e+00 0.0000000000000000e+00  0.0000000000000000e+00 0.0000000000000000e+00 0.0000000000000000e+00  0.0000000000000000e+00 0.0000000000000000e+00 0.0000000000000000e+00  0.0000000000000000e+00 0.0000000000000000e+00 0.0000000000000000e+00  0.0000000000000000e+00 0.0000000000000000e+00 0.0000000000000000e+00  0.0000000000000000e+00 0.0000000000000000e+00 0.0000000000000000e+00  0.0000000000000000e+00 0.0000000000000000e+00 0.0000000000000000e+00  0.0000000000000000e+00 0.0000000000000000e+00 0.0000000000000000e+00  0.0000000000000000e+00 0.0000000000000000e+00 0.0000000000000000e+00  0.0000000000000000e+00 0.0000000000000000e+00 0.0000000000000000e+00  0.0000000000000000e+00 0.0000000000000000e+00 0.0000000000000000e+00  0.0000000000000000e+00 0.0000000000000000e+00 0.0000000000000000e+00  0.0000000000000000e+00 0.0000000000000000e+00 0.0000000000000000e+00  0.0000000000000000e+00 0.0000000000000000e+00 0.0000000000000000e+00  0.0000000000000000e+00 0.0000000000000000e+00 0.0000000000000000e+00  0.0000000000000000e+00 0.0000000000000000e+00 0.0000000000000000e+00  0.0000000000000000e+00 0.0000000000000000e+00 0.0000000000000000e+00  0.0000000000000000e+00 0.0000000000000000e+00 0.0000000000000000e+00  0.0000000000000000e+00 0.0000000000000000e+00 0.0000000000000000e+00  0.0000000000000000e+00 0.0000000000000000e+00 0.0000000000000000e+00  0.0000000000000000e+00 0.0000000000000000e+00 0.0000000000000000e+00  0.0000000000000000e+00 0.0000000000000000e+00 0.0000000000000000e+00  0.0000000000000000e+00 0.0000000000000000e+00 0.0000000000000000e+00  0.0000000000000000e+00 0.0000000000000000e+00 0.0000000000000000e+00  0.0000000000000000e+00 0.0000000000000000e+00 0.0000000000000000e+00  0.0000000000000000e+00 0.0000000000000000e+00 0.0000000000000000e+00  0.0000000000000000e+00 0.0000000000000000e+00 0.0000000000000000e+00  0.0000000000000000e+00 0.0000000000000000e+00 0.0000000000000000e+00  0.0000000000000000e+00 0.0000000000000000e+00 0.0000000000000000e+00  0.0000000000000000e+00 0.0000000000000000e+00 0.0000000000000000e+00  0.0000000000000000e+00 0.0000000000000000e+00 0.0000000000000000e+00  0.0000000000000000e+00 0.0000000000000000e+00 0.0000000000000000e+00  0.0000000000000000e+00 0.0000000000000000e+00 0.0000000000000000e+00  0.0000000000000000e+00 0.0000000000000000e+00 0.0000000000000000e+00  0.0000000000000000e+00 0.0000000000000000e+00 0.0000000000000000e+00  0.0000000000000000e+00 0.0000000000000000e+00 0.0000000000000000e+00  0.0000000000000000e+00 0.0000000000000000e+00 0.0000000000000000e+00  0.0000000000000000e+00 0.0000000000000000e+00 0.0000000000000000e+00  0.0000000000000000e+00 0.0000000000000000e+00 0.0000000000000000e+00  0.0000000000000000e+00 0.0000000000000000e+00 0.0000000000000000e+00  0.0000000000000000e+00 0.0000000000000000e+00 0.0000000000000000e+00  0.0000000000000000e+00 0.0000000000000000e+00 0.0000000000000000e+00  0.0000000000000000e+00 0.0000000000000000e+00 0.0000000000000000e+00  0.0000000000000000e+00 0.0000000000000000e+00 0.0000000000000000e+00  0.0000000000000000e+00 0.0000000000000000e+00 0.0000000000000000e+00  0.0000000000000000e+00 0.0000000000000000e+00 0.0000000000000000e+00  0.0000000000000000e+00 0.0000000000000000e+00 0.0000000000000000e+00  0.0000000000000000e+00 0.0000000000000000e+00 0.0000000000000000e+00  0.0000000000000000e+00 0.0000000000000000e+00 0.0000000000000000e+00  0.0000000000000000e+00 0.0000000000000000e+00 0.0000000000000000e+00  0.0000000000000000e+00 0.0000000000000000e+00 0.0000000000000000e+00  0.0000000000000000e+00 0.0000000000000000e+00 0.0000000000000000e+00  0.0000000000000000e+00 0.0000000000000000e+00 0.0000000000000000e+00  0.0000000000000000e+00 0.0000000000000000e+00 0.0000000000000000e+00  0.0000000000000000e+00 0.0000000000000000e+00 0.0000000000000000e+00  0.0000000000000000e+00 0.0000000000000000e+00 0.0000000000000000e+00  1.1363784177129883e-03 -7.1333850561407998e-05 0.0000000000000000e+00  1.1044059643771304e-03 -8.1260963153355497e-05 0.0000000000000000e+00  1.0682016855101905e-03 -1.1043591020726212e-04 0.0000000000000000e+00  1.0084281341478432e-03 -1.5749669338219308e-04 0.0000000000000000e+00  9.0747640966313138e-04 -2.1142550296873269e-04 0.0000000000000000e+00  7.5467077624644845e-04 -2.5628628534069133e-04 0.0000000000000000e+00  5.4799924331626337e-04 -2.6641811552331442e-04 0.0000000000000000e+00  2.9571556884308868e-04 -2.1294553504928133e-04 0.0000000000000000e+00  -7.4680525922792725e-05 -5.7042093229278763e-03 0.0000000000000000e+00  -1.5167467986234521e-04 -5.6907115666254612e-03 0.0000000000000000e+00  -2.3174487539542321e-04 -5.6667480831919291e-03 0.0000000000000000e+00  -3.1563206291116205e-04 -5.6303888150623753e-03 0.0000000000000000e+00  -4.0373066337305965e-04 -5.5789567221363632e-03 0.0000000000000000e+00  -4.9584454400524065e-04 -5.5091732646651926e-03 0.0000000000000000e+00  -5.9069220979150489e-04 -5.4173110057069325e-03 0.0000000000000000e+00  -6.8590886171292611e-04 -5.2998776241572967e-03 0.0000000000000000e+00  -7.7786699135757730e-04 -5.1544204048072830e-03 0.0000000000000000e+00  -8.6227071314957514e-04 -4.9800928097392698e-03 0.0000000000000000e+00  -9.3459451470985174e-04 -4.7781638222870538e-03 0.0000000000000000e+00  -9.9114542076129118e-04 -4.5518276724910147e-03 0.0000000000000000e+00  -1.0292405415769511e-03 -4.3057709579198663e-03 0.0000000000000000e+00  -1.0476295474142127e-03 -4.0454501253574934e-03 0.0000000000000000e+00  -1.0463839237224251e-03 -3.7764701725458419e-03 0.0000000000000000e+00  -1.0264760866439998e-03 -3.5040536719232272e-03 0.0000000000000000e+00  -9.9001391071996243e-04 -3.2328152137225965e-03 0.0000000000000000e+00  -9.3893927012449099e-04 -2.9664675202045079e-03 0.0000000000000000e+00  -8.7577054419444992e-04 -2.7079377979834524e-03 0.0000000000000000e+00  -8.0295136997843102e-04 -2.4594071949280401e-03 0.0000000000000000e+00  -7.2261924111147896e-04 -2.2223735267770089e-03 0.0000000000000000e+00  -6.3685297618510295e-04 -1.9977910878860791e-03 0.0000000000000000e+00  -5.4731490582400177e-04 -1.7862051347930727e-03 0.0000000000000000e+00  -4.5560818413164909e-04 -1.5878225207109720e-03 0.0000000000000000e+00  -3.6286247003482290e-04 -1.4026304737011620e-03 0.0000000000000000e+00  -2.7017329256696736e-04 -1.2304145989367001e-03 0.0000000000000000e+00  -1.7836606289883952e-04 -1.0708552472647301e-03 0.0000000000000000e+00  -8.8113028386958055e-05 -9.2354704752968281e-04 0.0000000000000000e+00  1.2098798977282411e-07 -7.8806382702905730e-04 0.0000000000000000e+00  8.5857263570276988e-05 -6.6393106861571021e-04 0.0000000000000000e+00  1.6882007852482447e-04 -5.5065849663665290e-04 0.0000000000000000e+00  2.4877143614070348e-04 -4.4777316488278331e-04 0.0000000000000000e+00  3.2554086463965168e-04 -3.5480416649889959e-04 0.0000000000000000e+00  3.9900353324723667e-04 -2.7129010294130239e-04 0.0000000000000000e+00  4.6909306760018312e-04 -1.9676987815690924e-04 0.0000000000000000e+00  5.3574923920098397e-04 -1.3083507086915204e-04 0.0000000000000000e+00  5.9894511577575902e-04 -7.3058024876953109e-05 0.0000000000000000e+00  6.5870072264981924e-04 -2.3023790204761877e-05 0.0000000000000000e+00  7.1499602417991867e-04 1.9654228757113206e-05 0.0000000000000000e+00  7.6788629575728006e-04 5.5358963874397358e-05 0.0000000000000000e+00  8.1736725784580335e-04 8.4456252673193179e-05 0.0000000000000000e+00  8.6350103456926946e-04 1.0731387809629885e-04 0.0000000000000000e+00  9.0631856258274908e-04 1.2429490806435076e-04 0.0000000000000000e+00  9.4586048486087213e-04 1.3575062660599099e-04 0.0000000000000000e+00  9.8216891283996969e-04 1.4203581057473845e-04 0.0000000000000000e+00  1.0152794325285674e-03 1.4350502200724877e-04 0.0000000000000000e+00  1.0452177270515424e-03 1.4052336339122120e-04 0.0000000000000000e+00  1.0720330925335379e-03 1.3347800135667082e-04 0.0000000000000000e+00  1.0957182617525206e-03 1.2274866059408044e-04 0.0000000000000000e+00  1.1162980369348789e-03 1.0877000823312735e-04 0.0000000000000000e+00  1.1337868414235865e-03 9.2006521506765153e-05 0.0000000000000000e+00  1.1481914570663457e-03 7.2967834947682873e-05 0.0000000000000000e+00  1.1595496026481247e-03 5.2234517444233242e-05 0.0000000000000000e+00  1.1679345141128680e-03 3.0448165935272068e-05 0.0000000000000000e+00  1.1734993610395170e-03 8.3280328947198991e-06 0.0000000000000000e+00  1.1765360974698223e-03 -1.3383506905987861e-05 0.0000000000000000e+00  1.1776126661629421e-03 -3.3988960664598083e-05 0.0000000000000000e+00  1.1774976290571209e-03 -5.3031598175975449e-05 0.0000000000000000e+00  0.0000000000000000e+00 -5.7206921257839643e-03 0.0000000000000000e+00  0.0000000000000000e+00 -5.7322405083424042e-03 0.0000000000000000e+00  0.0000000000000000e+00 -5.7430983190503628e-03 0.0000000000000000e+00  0.0000000000000000e+00 -5.7532255067632744e-03 0.0000000000000000e+00  0.0000000000000000e+00 -5.7625920606978161e-03 0.0000000000000000e+00  0.0000000000000000e+00 -5.7711816821831210e-03 0.0000000000000000e+00  0.0000000000000000e+00 -5.7789878402176205e-03 0.0000000000000000e+00  0.0000000000000000e+00 -5.7860136214374688e-03 0.0000000000000000e+00  0.0000000000000000e+00 -5.7922703837639498e-03 0.0000000000000000e+00  0.0000000000000000e+00 -5.7977784904210483e-03 0.0000000000000000e+00  0.0000000000000000e+00 -5.8025643458083287e-03 0.0000000000000000e+00  0.0000000000000000e+00 -5.8066632293972192e-03 0.0000000000000000e+00  0.0000000000000000e+00 -5.8101151066802760e-03 0.0000000000000000e+00  0.0000000000000000e+00 -5.8129683813575765e-03 0.0000000000000000e+00  0.0000000000000000e+00 -5.8152771414046811e-03 0.0000000000000000e+00  0.0000000000000000e+00 -5.8170970321918068e-03 0.0000000000000000e+00  0.0000000000000000e+00 -5.8184936609723794e-03 0.0000000000000000e+00  0.0000000000000000e+00 -5.8195293874033294e-03 0.0000000000000000e+00  0.0000000000000000e+00 -5.8202689991954156e-03 0.0000000000000000e+00  0.0000000000000000e+00 -5.8207739019692957e-03 0.0000000000000000e+00  0.0000000000000000e+00 -5.8211013461140588e-03 0.0000000000000000e+00  0.0000000000000000e+00 -5.8212976528762544e-03 0.0000000000000000e+00  0.0000000000000000e+00 -5.8214002920434294e-03 0.0000000000000000e+00  0.0000000000000000e+00 -5.8210879765740508e-03 0.0000000000000000e+00  0.0000000000000000e+00 -5.8200578256116190e-03 0.0000000000000000e+00  0.0000000000000000e+00 -5.8183454241879824e-03 0.0000000000000000e+00  0.0000000000000000e+00 -5.8159577034344583e-03 0.0000000000000000e+00  0.0000000000000000e+00 -5.8129047434184421e-03 0.0000000000000000e+00  0.0000000000000000e+00 -5.8091999573422863e-03 0.0000000000000000e+00  0.0000000000000000e+00 -5.8048615525515407e-03 0.0000000000000000e+00  0.0000000000000000e+00 -5.7999116761330276e-03 0.0000000000000000e+00  0.0000000000000000e+00 -5.7943785116159347e-03 0.0000000000000000e+00  0.0000000000000000e+00 -5.7882972826512396e-03 0.0000000000000000e+00  0.0000000000000000e+00 -5.7817118395128509e-03 0.0000000000000000e+00  0.0000000000000000e+00 -5.7746771483141663e-03 0.0000000000000000e+00  0.0000000000000000e+00 -5.7672618610616743e-03 0.0000000000000000e+00  0.0000000000000000e+00 -5.7595526331661430e-03 0.0000000000000000e+00  0.0000000000000000e+00 -5.7516608221398887e-03 0.0000000000000000e+00  0.0000000000000000e+00 -5.7437301200830926e-03 0.0000000000000000e+00  0.0000000000000000e+00 -5.7359522528407187e-03 0.0000000000000000e+00  0.0000000000000000e+00 -5.7285878481279839e-03 0.0000000000000000e+00  0.0000000000000000e+00 -5.7220046787215834e-03 0.0000000000000000e+00  0.0000000000000000e+00 -5.7167452832161281e-03 0.0000000000000000e+00  0.0000000000000000e+00 -5.7136965834078055e-03 0.0000000000000000e+00  0.0000000000000000e+00 -5.7144332210498135e-03 0.0000000000000000e+00  0.0000000000000000e+00 -5.7228018508991936e-03 0.0000000000000000e+00  0.0000000000000000e+00 -5.7946262354018193e-03 0.0000000000000000e+00  0.0000000000000000e+00 -5.8206403061990472e-03 0.0000000000000000e+00  0.0000000000000000e+00 -5.8461930703712240e-03 0.0000000000000000e+00  0.0000000000000000e+00 -5.8722512290350819e-03 0.0000000000000000e+00  0.0000000000000000e+00 -5.8992262489539560e-03 0.0000000000000000e+00  0.0000000000000000e+00 -5.9273444098944441e-03 0.0000000000000000e+00  0.0000000000000000e+00 -5.9567995423050520e-03 0.0000000000000000e+00  0.0000000000000000e+00 -5.9877332299911783e-03 0.0000000000000000e+00  0.0000000000000000e+00 -6.0203004586119385e-03 0.0000000000000000e+00  0.0000000000000000e+00 -6.0546399668942076e-03 0.0000000000000000e+00  0.0000000000000000e+00 -6.0909443869794078e-03 0.0000000000000000e+00  0.0000000000000000e+00 -6.1296547095421334e-03 0.0000000000000000e+00  0.0000000000000000e+00 -6.1725298774707804e-03 0.0000000000000000e+00  0.0000000000000000e+00 -6.2211155729620365e-03 0.0000000000000000e+00  0.0000000000000000e+00 -6.2772062946599904e-03 0.0000000000000000e+00  0.0000000000000000e+00 -6.3423008255966270e-03 0.0000000000000000e+00  0.0000000000000000e+00 -6.4180314295243755e-03 0.0000000000000000e+00  0.0000000000000000e+00 -6.5069719833794164e-03 0.0000000000000000e+00  0.0000000000000000e+00 -6.6119830353679855e-03 0.0000000000000000e+00  0.0000000000000000e+00 -6.7381390317500598e-03 0.0000000000000000e+00  0.0000000000000000e+00 -6.8938924317708599e-03 0.0000000000000000e+00  0.0000000000000000e+00 -7.0839421402613140e-03 0.0000000000000000e+00  0.0000000000000000e+00 -7.4549714239325205e-03 0.0000000000000000e+00  -8.8947336219646390e-04 -1.2077983721742800e-02 0.0000000000000000e+00  -1.0020943068728273e-03 -1.3689866953912616e-02 0.0000000000000000e+00  -1.0873273260079324e-03 -1.4776185674456752e-02 0.0000000000000000e+00  -1.1213131094176502e-03 -1.5642083766290730e-02 0.0000000000000000e+00  -1.1235090511654106e-03 -1.6361728599324991e-02 0.0000000000000000e+00  -1.1078092296458819e-03 -1.6977902494918751e-02 0.0000000000000000e+00  -1.0796162576088499e-03 -1.7516369264817585e-02 0.0000000000000000e+00  -1.0425128905018769e-03 -1.7992595498252235e-02 0.0000000000000000e+00  -9.9878277331102929e-04 -1.8417177444853706e-02 0.0000000000000000e+00  -9.4984848136860664e-04 -1.8797563063050599e-02 0.0000000000000000e+00  -8.9679152014194761e-04 -1.9139167563696102e-02 0.0000000000000000e+00  -8.4036918805412608e-04 -1.9446090476837034e-02 0.0000000000000000e+00  -7.8117755805756021e-04 -1.9721480879104154e-02 0.0000000000000000e+00  -7.1966550906609784e-04 -1.9967828092913614e-02 0.0000000000000000e+00  -6.5619196585911836e-04 -2.0187102974520591e-02 0.0000000000000000e+00  -5.9106774451449543e-04 -2.0380901938794996e-02 0.0000000000000000e+00  -5.2455979168945744e-04 -2.0550482606798391e-02 0.0000000000000000e+00  -4.5687897224172601e-04 -2.0696896319681586e-02 0.0000000000000000e+00  -3.8822455839749697e-04 -2.0821002304090768e-02 0.0000000000000000e+00  -3.1878157804094196e-04 -2.0923481049191554e-02 0.0000000000000000e+00  -2.4870822542103182e-04 -2.1004870158347910e-02 0.0000000000000000e+00  -1.7816255933355342e-04 -2.1065563174309881e-02 0.0000000000000000e+00  -1.0727796113514426e-04 -2.1105873085667477e-02 0.0000000000000000e+00  -3.6187724755021545e-05 -2.1126001513564661e-02 0.0000000000000000e+00  3.4955845856817097e-05 -2.1126027070765722e-02 0.0000000000000000e+00  1.0603542355146820e-04 -2.1105959450008465e-02 0.0000000000000000e+00  1.7692512137886652e-04 -2.1065705359133418e-02 0.0000000000000000e+00  2.4746082198819704e-04 -2.1005063622381463e-02 0.0000000000000000e+00  3.1751978922842290e-04 -2.0923744114436274e-02 0.0000000000000000e+00  3.8694913569002403e-04 -2.0821325769890084e-02 0.0000000000000000e+00  4.5559206266112656e-04 -2.0697278760409998e-02 0.0000000000000000e+00  5.2325424923677652e-04 -2.0550928782731813e-02 0.0000000000000000e+00  5.8974203595152667e-04 -2.0381403119403375e-02 0.0000000000000000e+00  6.5485272938850785e-04 -2.0187678974539772e-02 0.0000000000000000e+00  7.1831158808142602e-04 -1.9968468365250493e-02 0.0000000000000000e+00  7.7980895149506297e-04 -1.9722207560730603e-02 0.0000000000000000e+00  8.3896792900065172e-04 -1.9446899778868418e-02 0.0000000000000000e+00  8.9532371041863468e-04 -1.9140073063248726e-02 0.0000000000000000e+00  9.4827320260304211e-04 -1.8798541103600300e-02 0.0000000000000000e+00  9.9725060298657244e-04 -1.8418274744215798e-02 0.0000000000000000e+00  1.0409384419528954e-03 -1.7993791755709535e-02 0.0000000000000000e+00  1.0779260500997090e-03 -1.7517730243869920e-02 0.0000000000000000e+00  1.1059604077691787e-03 -1.6979355826881471e-02 0.0000000000000000e+00  1.1215112132370400e-03 -1.6362767628602570e-02 0.0000000000000000e+00  1.1188504527789168e-03 -1.5643071955410714e-02 0.0000000000000000e+00  1.0854738298555304e-03 -1.4778027029435738e-02 0.0000000000000000e+00  9.9828058459166830e-04 -1.3687306775411650e-02 0.0000000000000000e+00  8.8555338974267994e-04 -1.206876