<?xml version="1.0"?>
<VTKFile type="UnstructuredGrid"  version="0.1"  >
<UnstructuredGrid>
<Piece  NumberOfPoints="6382" NumberOfCells="12354">
<Points>
<DataArray  type="Float64"  NumberOfComponents="3"  format="ascii">0 -3 0  0 0 0  10 -3 0  10 0 0  5.2 0 0  5.2 -0.4 0  5.5 -0.4 0  5.5 -0.6000000000000001 0  4.5 -0.6000000000000001 0  4.5 -0.4 0  4.8 -0.4 0  4.8 0 0  0 -2.666666666666667 0  0 -2.333333333333333 0  0 -2 0  0 -1.666666666666667 0  0 -1.333333333333333 0  0 -1 0  0 -0.666666666666667 0  0 -0.3333333333333335 0  9.836518447033493 -3 0  9.676485174132324 -3 0  9.519716728676565 -3 0  9.366040597429432 -3 0  9.215293522901804 -3 0  9.067325347766827 -3 0  8.921978167503752 -3 0  8.779125793186953 -3 0  8.638633440048579 -3 0  8.500376249002967 -3 0  8.364235730108557 -3 0  8.230099119300583 -3 0  8.097858693472926 -3 0  7.96741165420296 -3 0  7.838659590098249 -3 0  7.711508416266758 -3 0  7.585867779025237 -3 0  7.461651037321721 -3 0  7.338774694871047 -3 0  7.217158563845377 -3 0  7.096725097152937 -3 0  6.977399455051415 -3 0  6.859109304538208 -3 0  6.741784490575633 -3 0  6.625356935727237 -3 0  6.509760461250432 -3 0  6.394930659317325 -3 0  6.2808046903675 -3 0  6.167321173775116 -3 0  6.054420032640893 -3 0  5.942042373994132 -3 0  5.830130346471836 -3 0  5.718627047087892 -3 0  5.607476358937133 -3 0  5.496622874861212 -3 0  5.386011773348871 -3 0  5.275588701244851 -3 0  5.1652996754838 -3 0  5.055090972556302 -3 0  4.944909027443701 -3 0  4.834700324516204 -3 0  4.724411298755151 -3 0  4.613988226651132 -3 0  4.50337712513879 -3 0  4.392523641062869 -3 0  4.281372952912111 -3 0  4.169869653528168 -3 0  4.05795762600587 -3 0  3.94557996735911 -3 0  3.832678826224885 -3 0  3.719195309632506 -3 0  3.605069340682676 -3 0  3.490239538749567 -3 0  3.374643064272765 -3 0  3.25821550942437 -3 0  3.140890695461794 -3 0  3.022600544948583 -3 0  2.903274902847057 -3 0  2.782841436154621 -3 0  2.661225305128949 -3 0  2.538348962678273 -3 0  2.414132220974763 -3 0  2.288491583733238 -3 0  2.161340409901745 -3 0  2.032588345797035 -3 0  1.902141306527067 -3 0  1.76990088069941 -3 0  1.63576426989143 -3 0  1.499623750997021 -3 0  1.361366559951406 -3 0  1.220874206813038 -3 0  1.078021832496241 -3 0  0.9326746522331657 -3 0  0.7847064770981866 -3 0  0.6339594025705644 -3 0  0.4802832713234277 -3 0  0.3235148258676688 -3 0  0.1634815529665037 -3 0  10 -0.3333333333333333 0  10 -0.6666666666666666 0  10 -1 0  10 -1.333333333333333 0  10 -1.666666666666667 0  10 -2 0  10 -2.333333333333333 0  10 -2.666666666666667 0  5.242711110725164 0 0  5.286293876642154 0 0  5.330766086609641 0 0  5.37614589213589 0 0  5.422451816439484 0 0  5.469702760205794 0 0  5.517918009017504 0 0  5.567117241892008 0 0  5.617320540096343 0 0  5.668548395644089 0 0  5.720821717893487 0 0  5.774161842649544 0 0  5.828590541642586 0 0  5.88413003019757 0 0  5.940802977381058 0 0  5.998632515893446 0 0  6.057642249375406 0 0  6.117856262977496 0 0  6.179299133651088 0 0  6.241995940085244 0 0  6.305972273082686 0 0  6.371254245606542 0 0  6.43786850326221 0 0  6.505842235920577 0 0  6.575203187664691 0 0  6.645979668539436 0 0  6.71820056760014 0 0  6.791895362764803 0 0  6.867094133292654 0 0  6.943827572794882 0 0  7.022127001289535 0 0  7.10202437703821 0 0  7.183552311040527 0 0  7.266744080707336 0 0  7.351633641831447 0 0  7.438255642584554 0 0  7.526645439439152 0 0  7.616839110330926 0 0  7.708873468012155 0 0  7.802786077905059 0 0  7.898615271449994 0 0  7.996400162886068 0 0  8.096180664647234 0 0  8.197997502517053 0 0  8.301892235188374 0 0  8.407907268711336 0 0  8.516085874431543 0 0  8.626472207031901 0 0  8.739111321743804 0 0  8.854049193814495 0 0  8.971332736524433 0 0  9.091009820696414 0 0  9.21312929427506 0 0  9.337741001971482 0 0  9.464895805719847 0 0  9.594645605970797 0 0  9.727043361679982 0 0  9.862143111819449 0 0  5.2 -0.01666666666666669 0  5.2 -0.03333333333333339 0  5.2 -0.05000000000000009 0  5.2 -0.06666666666666679 0  5.2 -0.0833333333333335 0  5.2 -0.1000000000000002 0  5.2 -0.1166666666666669 0  5.2 -0.1333333333333336 0  5.2 -0.1500000000000002 0  5.2 -0.1666666666666669 0  5.2 -0.1833333333333335 0  5.2 -0.2000000000000001 0  5.2 -0.2166666666666668 0  5.2 -0.2333333333333335 0  5.2 -0.2500000000000002 0  5.2 -0.2666666666666669 0  5.2 -0.2833333333333335 0  5.2 -0.3000000000000002 0  5.2 -0.3166666666666668 0  5.2 -0.3333333333333335 0  5.2 -0.3500000000000001 0  5.2 -0.3666666666666668 0  5.2 -0.3833333333333334 0  5.2125 -0.4 0  5.225 -0.4 0  5.2375 -0.4 0  5.25 -0.4 0  5.2625 -0.4 0  5.275 -0.4 0  5.2875 -0.4 0  5.3 -0.4 0  5.3125 -0.4 0  5.325 -0.4 0  5.337499999999999 -0.4 0  5.35 -0.4 0  5.3625 -0.4 0  5.375 -0.4 0  5.3875 -0.4 0  5.4 -0.4 0  5.4125 -0.4 0  5.425 -0.4 0  5.4375 -0.4 0  5.45 -0.4 0  5.4625 -0.4 0  5.475 -0.4 0  5.4875 -0.4 0  5.5 -0.4083333333333334 0  5.5 -0.4166666666666667 0  5.5 -0.425 0  5.5 -0.4333333333333334 0  5.5 -0.4416666666666668 0  5.5 -0.4500000000000001 0  5.5 -0.4583333333333334 0  5.5 -0.4666666666666668 0  5.5 -0.4750000000000001 0  5.5 -0.4833333333333335 0  5.5 -0.4916666666666668 0  5.5 -0.5000000000000002 0  5.5 -0.5083333333333335 0  5.5 -0.5166666666666668 0  5.5 -0.5250000000000002 0  5.5 -0.5333333333333335 0  5.5 -0.5416666666666669 0  5.5 -0.5500000000000002 0  5.5 -0.5583333333333335 0  5.5 -0.5666666666666668 0  5.5 -0.5750000000000002 0  5.5 -0.5833333333333335 0  5.5 -0.5916666666666668 0  5.479591836734694 -0.6000000000000001 0  5.459183673469388 -0.6000000000000001 0  5.438775510204081 -0.6000000000000001 0  5.418367346938775 -0.6000000000000001 0  5.397959183673469 -0.6000000000000001 0  5.377551020408164 -0.6000000000000001 0  5.357142857142857 -0.6000000000000001 0  5.336734693877551 -0.6000000000000001 0  5.316326530612245 -0.6000000000000001 0  5.295918367346939 -0.6000000000000001 0  5.275510204081633 -0.6000000000000001 0  5.255102040816326 -0.6000000000000001 0  5.23469387755102 -0.6000000000000001 0  5.214285714285714 -0.6000000000000001 0  5.193877551020408 -0.6000000000000001 0  5.173469387755102 -0.6000000000000001 0  5.153061224489796 -0.6000000000000001 0  5.13265306122449 -0.6000000000000001 0  5.112244897959184 -0.6000000000000001 0  5.091836734693878 -0.6000000000000001 0  5.071428571428571 -0.6000000000000001 0  5.051020408163265 -0.6000000000000001 0  5.030612244897959 -0.6000000000000001 0  5.010204081632653 -0.6000000000000001 0  4.989795918367347 -0.6000000000000001 0  4.969387755102041 -0.6000000000000001 0  4.948979591836735 -0.6000000000000001 0  4.928571428571429 -0.6000000000000001 0  4.908163265306122 -0.6000000000000001 0  4.887755102040816 -0.6000000000000001 0  4.86734693877551 -0.6000000000000001 0  4.846938775510204 -0.6000000000000001 0  4.826530612244898 -0.6000000000000001 0  4.806122448979592 -0.6000000000000001 0  4.785714285714286 -0.6000000000000001 0  4.76530612244898 -0.6000000000000001 0  4.744897959183674 -0.6000000000000001 0  4.724489795918368 -0.6000000000000001 0  4.704081632653061 -0.6000000000000001 0  4.683673469387755 -0.6000000000000001 0  4.663265306122449 -0.6000000000000001 0  4.642857142857143 -0.6000000000000001 0  4.622448979591836 -0.6000000000000001 0  4.602040816326531 -0.6000000000000001 0  4.581632653061225 -0.6000000000000001 0  4.561224489795919 -0.6000000000000001 0  4.540816326530612 -0.6000000000000001 0  4.520408163265306 -0.6000000000000001 0  4.5 -0.5916666666666668 0  4.5 -0.5833333333333334 0  4.5 -0.5750000000000001 0  4.5 -0.5666666666666668 0  4.5 -0.5583333333333333 0  4.5 -0.55 0  4.5 -0.5416666666666667 0  4.5 -0.5333333333333333 0  4.5 -0.525 0  4.5 -0.5166666666666666 0  4.5 -0.5083333333333333 0  4.5 -0.4999999999999999 0  4.5 -0.4916666666666666 0  4.5 -0.4833333333333332 0  4.5 -0.4749999999999999 0  4.5 -0.4666666666666666 0  4.5 -0.4583333333333333 0  4.5 -0.45 0  4.5 -0.4416666666666667 0  4.5 -0.4333333333333333 0  4.5 -0.425 0  4.5 -0.4166666666666667 0  4.5 -0.4083333333333334 0  4.5125 -0.4 0  4.525 -0.4 0  4.5375 -0.4 0  4.55 -0.4 0  4.5625 -0.4 0  4.575 -0.4 0  4.587499999999999 -0.4 0  4.6 -0.4 0  4.6125 -0.4 0  4.625 -0.4 0  4.637499999999999 -0.4 0  4.649999999999999 -0.4 0  4.6625 -0.4 0  4.675 -0.4 0  4.6875 -0.4 0  4.699999999999999 -0.4 0  4.712499999999999 -0.4 0  4.725 -0.4 0  4.7375 -0.4 0  4.75 -0.4 0  4.7625 -0.4 0  4.774999999999999 -0.4 0  4.7875 -0.4 0  4.8 -0.3833333333333333 0  4.8 -0.3666666666666666 0  4.8 -0.3499999999999999 0  4.8 -0.3333333333333333 0  4.8 -0.3166666666666665 0  4.8 -0.2999999999999998 0  4.8 -0.2833333333333331 0  4.8 -0.2666666666666664 0  4.8 -0.2499999999999998 0  4.8 -0.2333333333333331 0  4.8 -0.2166666666666665 0  4.8 -0.1999999999999999 0  4.8 -0.1833333333333332 0  4.8 -0.1666666666666665 0  4.8 -0.1499999999999998 0  4.8 -0.1333333333333331 0  4.8 -0.1166666666666665 0  4.8 -0.09999999999999987 0  4.8 -0.0833333333333332 0  4.8 -0.06666666666666654 0  4.8 -0.04999999999999988 0  4.8 -0.03333333333333327 0  4.8 -0.01666666666666661 0  0.1378568875240437 0 0  0.2729566377271358 0 0  0.4053543934976697 0 0  0.5351041938077431 0 0  0.6622589976130751 0 0  0.7868707053643811 0 0  0.9089901789958823 0 0  1.028667263218748 0 0  1.14595080597766 0 0  1.260888678095464 0 0  1.373527792852679 0 0  1.483914125496606 0 0  1.592092731258683 0 0  1.698107764821866 0 0  1.802002497531814 0 0  1.90381933543871 0 0  2.003599837235452 0 0  2.101384728705643 0 0  2.197213922283282 0 0  2.291126532207516 0 0  2.38316088991875 0 0  2.473354560839241 0 0  2.56174435771825 0 0  2.648366358500676 0 0  2.733255919649871 0 0  2.81644768934063 0 0  2.897975623365796 0 0  2.977872999136252 0 0  3.056172427651654 0 0  3.132905867173631 0 0  3.208104637720262 0 0  3.28179943290277 0 0  3.354020331980409 0 0  3.42479681287121 0 0  3.494157764630528 0 0  3.562131497303279 0 0  3.628745754972536 0 0  3.69402772750921 0 0  3.758004060518725 0 0  3.820700866964234 0 0  3.882143737648484 0 0  3.942357751260559 0 0  4.0013674
[...]
<PointData  Vectors="displacement"> 
<DataArray  type="Float64"  Name="displacement"  NumberOfComponents="3" format="ascii">0.0000000000000000e+00 0.0000000000000000e+00 0.0000000000000000e+00  -1.1447307109956039e-05 1.0015083583208149e-05 0.0000000000000000e+00  0.0000000000000000e+00 0.0000000000000000e+00 0.0000000000000000e+00  1.1450619171540334e-05 1.0012222619882000e-05 0.0000000000000000e+00  0.0000000000000000e+00 -2.8924046796633134e-04 0.0000000000000000e+00  0.0000000000000000e+00 -2.9937149526237190e-04 0.0000000000000000e+00  0.0000000000000000e+00 -2.9146778605121750e-04 0.0000000000000000e+00  0.0000000000000000e+00 -3.5823231367930616e-04 0.0000000000000000e+00  0.0000000000000000e+00 -3.5826603694327579e-04 0.0000000000000000e+00  0.0000000000000000e+00 -2.9146641343424869e-04 0.0000000000000000e+00  0.0000000000000000e+00 -2.9937044576623786e-04 0.0000000000000000e+00  0.0000000000000000e+00 -2.8923954874737127e-04 0.0000000000000000e+00  -7.8019845879612868e-06 -4.2027067287100909e-06 0.0000000000000000e+00  -1.4417484191037380e-05 -3.6004816095123958e-06 0.0000000000000000e+00  -1.8913689561589811e-05 -1.0574438616201992e-06 0.0000000000000000e+00  -2.0966420507731977e-05 2.3221599768075791e-06 0.0000000000000000e+00  -2.0772095610122687e-05 5.5970689224427813e-06 0.0000000000000000e+00  -1.8894259372079552e-05 8.1413518469520444e-06 0.0000000000000000e+00  -1.6182204063050944e-05 9.5893899280476201e-06 0.0000000000000000e+00  -1.3529606441759242e-05 1.0038927971224901e-05 0.0000000000000000e+00  0.0000000000000000e+00 0.0000000000000000e+00 0.0000000000000000e+00  0.0000000000000000e+00 0.0000000000000000e+00 0.0000000000000000e+00  0.0000000000000000e+00 0.0000000000000000e+00 0.0000000000000000e+00  0.0000000000000000e+00 0.0000000000000000e+00 0.0000000000000000e+00  0.0000000000000000e+00 0.0000000000000000e+00 0.0000000000000000e+00  0.0000000000000000e+00 0.0000000000000000e+00 0.0000000000000000e+00  0.0000000000000000e+00 0.0000000000000000e+00 0.0000000000000000e+00  0.0000000000000000e+00 0.0000000000000000e+00 0.0000000000000000e+00  0.0000000000000000e+00 0.0000000000000000e+00 0.0000000000000000e+00  0.0000000000000000e+00 0.0000000000000000e+00 0.0000000000000000e+00  0.0000000000000000e+00 0.0000000000000000e+00 0.0000000000000000e+00  0.0000000000000000e+00 0.0000000000000000e+00 0.0000000000000000e+00  0.0000000000000000e+00 0.0000000000000000e+00 0.0000000000000000e+00  0.0000000000000000e+00 0.0000000000000000e+00 0.0000000000000000e+00  0.0000000000000000e+00 0.0000000000000000e+00 0.0000000000000000e+00  0.0000000000000000e+00 0.0000000000000000e+00 0.0000000000000000e+00  0.0000000000000000e+00 0.0000000000000000e+00 0.0000000000000000e+00  0.0000000000000000e+00 0.0000000000000000e+00 0.0000000000000000e+00  0.0000000000000000e+00 0.0000000000000000e+00 0.0000000000000000e+00  0.0000000000000000e+00 0.0000000000000000e+00 0.0000000000000000e+00  0.0000000000000000e+00 0.0000000000000000e+00 0.0000000000000000e+00  0.0000000000000000e+00 0.0000000000000000e+00 0.0000000000000000e+00  0.0000000000000000e+00 0.0000000000000000e+00 0.0000000000000000e+00  0.0000000000000000e+00 0.0000000000000000e+00 0.0000000000000000e+00  0.0000000000000000e+00 0.0000000000000000e+00 0.0000000000000000e+00  0.0000000000000000e+00 0.0000000000000000e+00 0.0000000000000000e+00  0.0000000000000000e+00 0.0000000000000000e+00 0.0000000000000000e+00  0.0000000000000000e+00 0.0000000000000000e+00 0.0000000000000000e+00  0.0000000000000000e+00 0.0000000000000000e+00 0.0000000000000000e+00  0.0000000000000000e+00 0.0000000000000000e+00 0.0000000000000000e+00  0.0000000000000000e+00 0.0000000000000000e+00 0.0000000000000000e+00  0.0000000000000000e+00 0.0000000000000000e+00 0.0000000000000000e+00  0.0000000000000000e+00 0.0000000000000000e+00 0.0000000000000000e+00  0.0000000000000000e+00 0.0000000000000000e+00 0.0000000000000000e+00  0.0000000000000000e+00 0.0000000000000000e+00 0.0000000000000000e+00  0.0000000000000000e+00 0.0000000000000000e+00 0.0000000000000000e+00  0.0000000000000000e+00 0.0000000000000000e+00 0.0000000000000000e+00  0.0000000000000000e+00 0.0000000000000000e+00 0.0000000000000000e+00  0.0000000000000000e+00 0.0000000000000000e+00 0.0000000000000000e+00  0.0000000000000000e+00 0.0000000000000000e+00 0.0000000000000000e+00  0.0000000000000000e+00 0.0000000000000000e+00 0.0000000000000000e+00  0.0000000000000000e+00 0.0000000000000000e+00 0.0000000000000000e+00  0.0000000000000000e+00 0.0000000000000000e+00 0.0000000000000000e+00  0.0000000000000000e+00 0.0000000000000000e+00 0.0000000000000000e+00  0.0000000000000000e+00 0.0000000000000000e+00 0.0000000000000000e+00  0.0000000000000000e+00 0.0000000000000000e+00 0.0000000000000000e+00  0.0000000000000000e+00 0.0000000000000000e+00 0.0000000000000000e+00  0.0000000000000000e+00 0.0000000000000000e+00 0.0000000000000000e+00  0.0000000000000000e+00 0.0000000000000000e+00 0.0000000000000000e+00  0.0000000000000000e+00 0.0000000000000000e+00 0.0000000000000000e+00  0.0000000000000000e+00 0.0000000000000000e+00 0.0000000000000000e+00  0.0000000000000000e+00 0.0000000000000000e+00 0.0000000000000000e+00  0.0000000000000000e+00 0.0000000000000000e+00 0.0000000000000000e+00  0.0000000000000000e+00 0.0000000000000000e+00 0.0000000000000000e+00  0.0000000000000000e+00 0.0000000000000000e+00 0.0000000000000000e+00  0.0000000000000000e+00 0.0000000000000000e+00 0.0000000000000000e+00  0.0000000000000000e+00 0.0000000000000000e+00 0.0000000000000000e+00  0.0000000000000000e+00 0.0000000000000000e+00 0.0000000000000000e+00  0.0000000000000000e+00 0.0000000000000000e+00 0.0000000000000000e+00  0.0000000000000000e+00 0.0000000000000000e+00 0.0000000000000000e+00  0.0000000000000000e+00 0.0000000000000000e+00 0.0000000000000000e+00  0.0000000000000000e+00 0.0000000000000000e+00 0.0000000000000000e+00  0.0000000000000000e+00 0.0000000000000000e+00 0.0000000000000000e+00  0.0000000000000000e+00 0.0000000000000000e+00 0.0000000000000000e+00  0.0000000000000000e+00 0.0000000000000000e+00 0.0000000000000000e+00  0.0000000000000000e+00 0.0000000000000000e+00 0.0000000000000000e+00  0.0000000000000000e+00 0.0000000000000000e+00 0.0000000000000000e+00  0.0000000000000000e+00 0.0000000000000000e+00 0.0000000000000000e+00  0.0000000000000000e+00 0.0000000000000000e+00 0.0000000000000000e+00  0.0000000000000000e+00 0.0000000000000000e+00 0.0000000000000000e+00  0.0000000000000000e+00 0.0000000000000000e+00 0.0000000000000000e+00  0.0000000000000000e+00 0.0000000000000000e+00 0.0000000000000000e+00  0.0000000000000000e+00 0.0000000000000000e+00 0.0000000000000000e+00  0.0000000000000000e+00 0.0000000000000000e+00 0.0000000000000000e+00  0.0000000000000000e+00 0.0000000000000000e+00 0.0000000000000000e+00  0.0000000000000000e+00 0.0000000000000000e+00 0.0000000000000000e+00  0.0000000000000000e+00 0.0000000000000000e+00 0.0000000000000000e+00  0.0000000000000000e+00 0.0000000000000000e+00 0.0000000000000000e+00  1.3530414473413335e-05 1.0031506353954449e-05 0.0000000000000000e+00  1.6184796446363002e-05 9.5957604384842262e-06 0.0000000000000000e+00  1.8896207532505927e-05 8.1391231102586982e-06 0.0000000000000000e+00  2.0776263852044602e-05 5.5958379784303099e-06 0.0000000000000000e+00  2.0971399011969813e-05 2.3267271068833812e-06 0.0000000000000000e+00  1.8913098628695339e-05 -1.0686282461570753e-06 0.0000000000000000e+00  1.4412902729030330e-05 -3.6074590092212751e-06 0.0000000000000000e+00  7.8125475841124216e-06 -4.2022537099546045e-06 0.0000000000000000e+00  -5.0429490867376276e-06 -2.8895612884054169e-04 0.0000000000000000e+00  -1.0188938750626932e-05 -2.8807679128384201e-04 0.0000000000000000e+00  -1.5438024824740710e-05 -2.8655707953338032e-04 0.0000000000000000e+00  -2.0785818617629160e-05 -2.8434258994267732e-04 0.0000000000000000e+00  -2.6217105758240673e-05 -2.8136987841669253e-04 0.0000000000000000e+00  -3.1705529113403504e-05 -2.7756820960147621e-04 0.0000000000000000e+00  -3.7196625903387537e-05 -2.7286464689343275e-04 0.0000000000000000e+00  -4.2616436415477947e-05 -2.6719332984214274e-04 0.0000000000000000e+00  -4.7860696997913574e-05 -2.6051231260952286e-04 0.0000000000000000e+00  -5.2807618289721556e-05 -2.5281399152814426e-04 0.0000000000000000e+00  -5.7324245451813214e-05 -2.4413995363657077e-04 0.0000000000000000e+00  -6.1293156922830874e-05 -2.3457982674918306e-04 0.0000000000000000e+00  -6.4617273838736783e-05 -2.2426586560769809e-04 0.0000000000000000e+00  -6.7235444023421983e-05 -2.1335744314841470e-04 0.0000000000000000e+00  -6.9123542184652164e-05 -2.0202498090568125e-04 0.0000000000000000e+00  -7.0285385235871749e-05 -1.9043562460239422e-04 0.0000000000000000e+00  -7.0762433097661397e-05 -1.7874548410541489e-04 0.0000000000000000e+00  -7.0597261561189552e-05 -1.6708801041682959e-04 0.0000000000000000e+00  -6.9854594967425518e-05 -1.5557687212179347e-04 0.0000000000000000e+00  -6.8603498339724230e-05 -1.4430500209586293e-04 0.0000000000000000e+00  -6.6907976318922438e-05 -1.3334462382626433e-04 0.0000000000000000e+00  -6.4835567357908360e-05 -1.2275096280527534e-04 0.0000000000000000e+00  -6.2443095917211184e-05 -1.1256522349401144e-04 0.0000000000000000e+00  -5.9791129517664081e-05 -1.0281686685924006e-04 0.0000000000000000e+00  -5.6924185841576339e-05 -9.3526033304816599e-05 0.0000000000000000e+00  -5.3890254505814902e-05 -8.4704676537154973e-05 0.0000000000000000e+00  -5.0729740944083610e-05 -7.6359128705268670e-05 0.0000000000000000e+00  -4.7477309067666946e-05 -6.8490483865061777e-05 0.0000000000000000e+00  -4.4163180692943847e-05 -6.1097744024982766e-05 0.0000000000000000e+00  -4.0817238581156119e-05 -5.4175286749415745e-05 0.0000000000000000e+00  -3.7463699168296965e-05 -4.7716088465896516e-05 0.0000000000000000e+00  -3.4124596581690475e-05 -4.1710990933012057e-05 0.0000000000000000e+00  -3.0819573430408067e-05 -3.6149420994500744e-05 0.0000000000000000e+00  -2.7566264511577487e-05 -3.1019540719394101e-05 0.0000000000000000e+00  -2.4381177108866651e-05 -2.6307759012666165e-05 0.0000000000000000e+00  -2.1277188208702807e-05 -2.2001200851994848e-05 0.0000000000000000e+00  -1.8267920143141456e-05 -1.8084505066321158e-05 0.0000000000000000e+00  -1.5364557064919571e-05 -1.4541853942505394e-05 0.0000000000000000e+00  -1.2577295007251353e-05 -1.1357177243502725e-05 0.0000000000000000e+00  -9.9151836516565747e-06 -8.5134061632994415e-06 0.0000000000000000e+00  -7.3866068328253099e-06 -5.9931622111292046e-06 0.0000000000000000e+00  -4.9987119968066058e-06 -3.7777522504939933e-06 0.0000000000000000e+00  -2.7579698025240826e-06 -1.8479821977058995e-06 0.0000000000000000e+00  -6.7014824132431655e-07 -1.8413160999339443e-07 0.0000000000000000e+00  1.2597655403637046e-06 1.2345608766572717e-06 0.0000000000000000e+00  3.0273419300137563e-06 2.4296549975673028e-06 0.0000000000000000e+00  4.6285040755279864e-06 3.4238956298939985e-06 0.0000000000000000e+00  6.0610341308180975e-06 4.2418017699032248e-06 0.0000000000000000e+00  7.3214221249923907e-06 4.9079808486472681e-06 0.0000000000000000e+00  8.4084396432717271e-06 5.4501377853597534e-06 0.0000000000000000e+00  9.3218437788704276e-06 5.8975307324322620e-06 0.0000000000000000e+00  1.0062303045458756e-05 6.2814753257318061e-06 0.0000000000000000e+00  1.0633503315655217e-05 6.6361705303837497e-06 0.0000000000000000e+00  1.1042471410856601e-05 6.9977471552614825e-06 0.0000000000000000e+00  1.1301691844173258e-05 7.4043267758685720e-06 0.0000000000000000e+00  1.1431782027139243e-05 7.8923179730884062e-06 0.0000000000000000e+00  1.1467865117282909e-05 8.4920644912691172e-06 0.0000000000000000e+00  1.1453065298274400e-05 9.2171841445308208e-06 0.0000000000000000e+00  0.0000000000000000e+00 -2.9006527737561786e-04 0.0000000000000000e+00  0.0000000000000000e+00 -2.9085305427055017e-04 0.0000000000000000e+00  0.0000000000000000e+00 -2.9160404595152378e-04 0.0000000000000000e+00  0.0000000000000000e+00 -2.9231859342028943e-04 0.0000000000000000e+00  0.0000000000000000e+00 -2.9299715878732880e-04 0.0000000000000000e+00  0.0000000000000000e+00 -2.9364023113934417e-04 0.0000000000000000e+00  0.0000000000000000e+00 -2.9424832855797140e-04 0.0000000000000000e+00  0.0000000000000000e+00 -2.9482193352979450e-04 0.0000000000000000e+00  0.0000000000000000e+00 -2.9536148016633340e-04 0.0000000000000000e+00  0.0000000000000000e+00 -2.9586732207797546e-04 0.0000000000000000e+00  0.0000000000000000e+00 -2.9633973981046382e-04 0.0000000000000000e+00  0.0000000000000000e+00 -2.9677884832717536e-04 0.0000000000000000e+00  0.0000000000000000e+00 -2.9718473453758839e-04 0.0000000000000000e+00  0.0000000000000000e+00 -2.9755728621139827e-04 0.0000000000000000e+00  0.0000000000000000e+00 -2.9789629460551351e-04 0.0000000000000000e+00  0.0000000000000000e+00 -2.9820151399186882e-04 0.0000000000000000e+00  0.0000000000000000e+00 -2.9847247156903532e-04 0.0000000000000000e+00  0.0000000000000000e+00 -2.9870876540631598e-04 0.0000000000000000e+00  0.0000000000000000e+00 -2.9890986941249814e-04 0.0000000000000000e+00  0.0000000000000000e+00 -2.9907528959658184e-04 0.0000000000000000e+00  0.0000000000000000e+00 -2.9920451893792417e-04 0.0000000000000000e+00  0.0000000000000000e+00 -2.9929716986253454e-04 0.0000000000000000e+00  0.0000000000000000e+00 -2.9935289427019751e-04 0.0000000000000000e+00  0.0000000000000000e+00 -2.9935068674263887e-04 0.0000000000000000e+00  0.0000000000000000e+00 -2.9928831508199049e-04 0.0000000000000000e+00  0.0000000000000000e+00 -2.9918453759646038e-04 0.0000000000000000e+00  0.0000000000000000e+00 -2.9903962279638789e-04 0.0000000000000000e+00  0.0000000000000000e+00 -2.9885395685894052e-04 0.0000000000000000e+00  0.0000000000000000e+00 -2.9862805956896727e-04 0.0000000000000000e+00  0.0000000000000000e+00 -2.9836257504221332e-04 0.0000000000000000e+00  0.0000000000000000e+00 -2.9805832228735742e-04 0.0000000000000000e+00  0.0000000000000000e+00 -2.9771632704400658e-04 0.0000000000000000e+00  0.0000000000000000e+00 -2.9733781950738123e-04 0.0000000000000000e+00  0.0000000000000000e+00 -2.9692430877992758e-04 0.0000000000000000e+00  0.0000000000000000e+00 -2.9647764351043864e-04 0.0000000000000000e+00  0.0000000000000000e+00 -2.9600007647139328e-04 0.0000000000000000e+00  0.0000000000000000e+00 -2.9549442124942270e-04 0.0000000000000000e+00  0.0000000000000000e+00 -2.9496418406920702e-04 0.0000000000000000e+00  0.0000000000000000e+00 -2.9441384798276516e-04 0.0000000000000000e+00  0.0000000000000000e+00 -2.9384918757518292e-04 0.0000000000000000e+00  0.0000000000000000e+00 -2.9327791186292110e-04 0.0000000000000000e+00  0.0000000000000000e+00 -2.9271085720316534e-04 0.0000000000000000e+00  0.0000000000000000e+00 -2.9216357331043321e-04 0.0000000000000000e+00  0.0000000000000000e+00 -2.9166058579651233e-04 0.0000000000000000e+00  0.0000000000000000e+00 -2.9124560445249661e-04 0.0000000000000000e+00  0.0000000000000000e+00 -2.9102372067014222e-04 0.0000000000000000e+00  0.0000000000000000e+00 -2.9294012014956391e-04 0.0000000000000000e+00  0.0000000000000000e+00 -2.9408186338150666e-04 0.0000000000000000e+00  0.0000000000000000e+00 -2.9521208955880839e-04 0.0000000000000000e+00  0.0000000000000000e+00 -2.9637086952152131e-04 0.0000000000000000e+00  0.0000000000000000e+00 -2.9757526090831959e-04 0.0000000000000000e+00  0.0000000000000000e+00 -2.9883559635053396e-04 0.0000000000000000e+00  0.0000000000000000e+00 -3.0016044509007618e-04 0.0000000000000000e+00  0.0000000000000000e+00 -3.0155719832851056e-04 0.0000000000000000e+00  0.0000000000000000e+00 -3.0303387296329168e-04 0.0000000000000000e+00  0.0000000000000000e+00 -3.0459861959402821e-04 0.0000000000000000e+00  0.0000000000000000e+00 -3.0626188593308790e-04 0.0000000000000000e+00  0.0000000000000000e+00 -3.0803306433426115e-04 0.0000000000000000e+00  0.0000000000000000e+00 -3.0992672526828556e-04 0.0000000000000000e+00  0.0000000000000000e+00 -3.1195769627982814e-04 0.0000000000000000e+00  0.0000000000000000e+00 -3.1414627391740228e-04 0.0000000000000000e+00  0.0000000000000000e+00 -3.1651653214941967e-04 0.0000000000000000e+00  0.0000000000000000e+00 -3.1910069300563926e-04 0.0000000000000000e+00  0.0000000000000000e+00 -3.2194430001305119e-04 0.0000000000000000e+00  0.0000000000000000e+00 -3.2510834588850551e-04 0.0000000000000000e+00  0.0000000000000000e+00 -3.2868592039098722e-04 0.0000000000000000e+00  0.0000000000000000e+00 -3.3283564747011330e-04 0.0000000000000000e+00  0.0000000000000000e+00 -3.3783697611855154e-04 0.0000000000000000e+00  0.0000000000000000e+00 -3.4454588893756730e-04 0.0000000000000000e+00  -2.4069418169544798e-05 -4.0477070647377135e-04 0.0000000000000000e+00  -2.8646107094891992e-05 -4.3357058469208455e-04 0.0000000000000000e+00  -3.0875693926619933e-05 -4.5606202842296615e-04 0.0000000000000000e+00  -3.1871796892176589e-05 -4.7512883182132960e-04 0.0000000000000000e+00  -3.2077781395461517e-05 -4.9176479051534720e-04 0.0000000000000000e+00  -3.1782507775782469e-05 -5.0652484425171851e-04 0.0000000000000000e+00  -3.1123184765102578e-05 -5.1975188047873749e-04 0.0000000000000000e+00  -3.0184363975612166e-05 -5.3167641303369429e-04 0.0000000000000000e+00  -2.9028595996065258e-05 -5.4246393824194808e-04 0.0000000000000000e+00  -2.7698266315284947e-05 -5.5223875716266875e-04 0.0000000000000000e+00  -2.6226207199473280e-05 -5.6109662831720715e-04 0.0000000000000000e+00  -2.4636958027775132e-05 -5.6911276080594871e-04 0.0000000000000000e+00  -2.2949853624761290e-05 -5.7634766973179634e-04 0.0000000000000000e+00  -2.1180025471747071e-05 -5.8285002201999931e-04 0.0000000000000000e+00  -1.9340675084120103e-05 -5.8866030226791455e-04 0.0000000000000000e+00  -1.7443338769205842e-05 -5.9381176856301127e-04 0.0000000000000000e+00  -1.5495764114408289e-05 -5.9833123652281318e-04 0.0000000000000000e+00  -1.3506641033535045e-05 -6.0224179656679657e-04 0.0000000000000000e+00  -1.1483443215381966e-05 -6.0556237696180642e-04 0.0000000000000000e+00  -9.4320211311356229e-06 -6.0830792057703484e-04 0.0000000000000000e+00  -7.3586378126645385e-06 -6.1049049261568565e-04 0.0000000000000000e+00  -5.2678370632172496e-06 -6.1211942428329919e-04 0.0000000000000000e+00  -3.1653767724063135e-06 -6.1320176316903606e-04 0.0000000000000000e+00  -1.0562166016793405e-06 -6.1374180088097287e-04 0.0000000000000000e+00  1.0558456162941470e-06 -6.1374180486769377e-04 0.0000000000000000e+00  3.1653753677117490e-06 -6.1320179881973287e-04 0.0000000000000000e+00  5.2674630055538040e-06 -6.1211947193301735e-04 0.0000000000000000e+00  7.3582691061859583e-06 -6.1049047607764203e-04 0.0000000000000000e+00  9.4317906180780775e-06 -6.0830793912943740e-04 0.0000000000000000e+00  1.1483279350556625e-05 -6.0556257596121777e-04 0.0000000000000000e+00  1.3506177970246639e-05 -6.0224198743023545e-04 0.0000000000000000e+00  1.5495832560574694e-05 -5.9833140629874130e-04 0.0000000000000000e+00  1.7442511373243697e-05 -5.9381166805581094e-04 0.0000000000000000e+00  1.9340514636781034e-05 -5.8866031076061079e-04 0.0000000000000000e+00  2.1179668235050673e-05 -5.8284979670264892e-04 0.0000000000000000e+00  2.2949246755410403e-05 -5.7634742502352338e-04 0.0000000000000000e+00  2.4636873059781584e-05 -5.6911311957499075e-04 0.0000000000000000e+00  2.6227187644234994e-05 -5.6109756188257225e-04 0.0000000000000000e+00  2.7697336796335899e-05 -5.5223869221904254e-04 0.0000000000000000e+00  2.9027256933595715e-05 -5.4246351037406893e-04 0.0000000000000000e+00  3.0184491650377170e-05 -5.3167651062397390e-04 0.0000000000000000e+00  3.1123094725057828e-05 -5.1975223127550207e-04 0.0000000000000000e+00  3.1784152137267159e-05 -5.0652489705002167e-04 0.0000000000000000e+00  3.2074007523102704e-05 -4.9176021106814305e-04 0.0000000000000000e+00  3.1860224690119812e-05 -4.7512173978010990e-04 0.0000000000000000e+00  3.0883601151402104e-05 -4.5605768189858214e-04 0.0000000000000000e+00  2.8668865920311421e-05 -4.3354099486466922e-04 0.0000000000000000e+00  2.3991701059556705e-05 -4