<?xml version="1.0"?>
<VTKFile type="UnstructuredGrid"  version="0.1"  >
<UnstructuredGrid>
<Piece  NumberOfPoints="1691" NumberOfCells="3204">
<Points>
<DataArray  type="Float64"  NumberOfComponents="3"  format="ascii">0 0 0  30 0 0  30 -10 0  0 -10 0  0.1391574078963744 0 0  0.2856388821882616 0 0  0.4398299073010886 0 0  0.6021362569539473 0 0  0.7729850389704483 0 0  0.9528258543586996 0 0  1.142131984380316 0 0  1.34140159760994 0 0  1.551159074717981 0 0  1.771956417032531 0 0  2.004374674080994 0 0  2.249025475789527 0 0  2.506552636773105 0 0  2.777633857742732 0 0  3.062982518028728 0 0  3.363349525995907 0 0  3.679525322337712 0 0  4.01234195575742 0 0  4.362675247811097 0 0  4.731447135329707 0 0  5.119628065610077 0 0  5.528239565804708 0 0  5.958356943167011 0 0  6.411112081475485 0 0  6.887696441559404 0 0  7.389364184530748 0 0  7.917435485335147 0 0  8.473300005202017 0 0  9.058420557070402 0 0  9.674336929103793 0 0  10.32266995225095 0 0  11.00512576896296 0 0  11.72350030646412 0 0  12.47968402994705 0 0  13.27566689579597 0 0  14.1135435963616 0 0  14.9955190732806 0 0  15.92391430904694 0 0  16.90117245730496 0 0  17.92986524844506 0 0  19.01269976086341 0 0  20.15252556282024 0 0  21.35234220269763 0 0  22.61530708683689 0 0  23.94474379751883 0 0  25.34415086349739 0 0  26.81721093579712 0 0  28.3678004819169 0 0  30 -1.111111111111111 0  30 -2.222222222222222 0  30 -3.333333333333333 0  30 -4.444444444444445 0  30 -5.555555555555555 0  30 -6.666666666666666 0  30 -7.777777777777777 0  30 -8.888888888888889 0  28.36780047917311 -10 0  26.8172109305839 -10 0  25.34415085606858 -10 0  23.94474378810899 -10 0  22.61530707566275 -10 0  21.3523421899591 -10 0  20.15252554870171 -10 0  19.01269974553473 -10 0  17.92986523206254 -10 0  16.90117244001232 -10 0  15.92391429097614 -10 0  14.99551905455266 -10 0  14.11354357708742 -10 0  13.27566687607703 -10 0  12.47968400987599 -10 0  11.72350028612546 -10 0  11.00512574843363 -10 0  10.32266993160086 -10 0  9.674336908396342 -10 0  9.058420536362949 -10 0  8.473299984546333 -10 0  7.917435464777824 -10 0  7.389364164113587 -10 0  6.887696420787165 -10 0  6.411112061446698 -10 0  5.95835692337857 -10 0  5.528239546282652 -10 0  5.119628046377237 -10 0  4.731447115907979 -10 0  4.362675229213632 -10 0  4.012341937260036 -10 0  3.679525304434552 -10 0  3.363349508456405 -10 0  3.062982500861274 -10 0  2.777633840953978 -10 0  2.506552620368097 -10 0  2.249025459771861 -10 0  2.004374658452946 -10 0  1.771956401795187 -10 0  1.551159059871345 -10 0  1.341401583153029 -10 0  1.142131970307521 -10 0  0.9528258406748833 -10 0  0.7729850256685147 -10 0  0.6021362439621285 -10 0  0.4398298947504031 -10 0  0.2856388700059078 -10 0  0.1391573960769001 -10 0  0 -9.855072463768115 0  0 -9.710144927536232 0  0 -9.565217391304348 0  0 -9.420289855072463 0  0 -9.27536231884058 0  0 -9.130434782608695 0  0 -8.985507246376812 0  0 -8.840579710144928 0  0 -8.695652173913043 0  0 -8.55072463768116 0  0 -8.405797101449275 0  0 -8.260869565217391 0  0 -8.115942028985508 0  0 -7.971014492753623 0  0 -7.826086956521739 0  0 -7.681159420289855 0  0 -7.536231884057971 0  0 -7.391304347826087 0  0 -7.246376811594203 0  0 -7.101449275362318 0  0 -6.956521739130435 0  0 -6.811594202898551 0  0 -6.666666666666667 0  0 -6.521739130434783 0  0 -6.376811594202898 0  0 -6.231884057971015 0  0 -6.086956521739131 0  0 -5.942028985507246 0  0 -5.797101449275362 0  0 -5.652173913043478 0  0 -5.507246376811594 0  0 -5.36231884057971 0  0 -5.217391304347826 0  0 -5.072463768115941 0  0 -4.927536231884058 0  0 -4.782608695652174 0  0 -4.637681159420289 0  0 -4.492753623188406 0  0 -4.347826086956522 0  0 -4.202898550724638 0  0 -4.057971014492754 0  0 -3.913043478260869 0  0 -3.768115942028985 0  0 -3.623188405797101 0  0 -3.478260869565217 0  0 -3.333333333333334 0  0 -3.188405797101449 0  0 -3.043478260869565 0  0 -2.898550724637681 0  0 -2.753623188405797 0  0 -2.608695652173912 0  0 -2.463768115942029 0  0 -2.318840579710145 0  0 -2.173913043478261 0  0 -2.028985507246377 0  0 -1.884057971014492 0  0 -1.739130434782609 0  0 -1.594202898550725 0  0 -1.44927536231884 0  0 -1.304347826086957 0  0 -1.159420289855072 0  0 -1.014492753623188 0  0 -0.8695652173913047 0  0 -0.72463768115942 0  0 -0.579710144927537 0  0 -0.4347826086956523 0  0 -0.2898550724637676 0  0 -0.1449275362318829 0  0.1309460514202492 -4.990980414828784 0  0.1171526873513358 -5.869565217391296 0  0.1344252986967795 -6.716855800502001 0  0.1221309018586645 -4.161899358592938 0  0.1166997684017801 -3.25954604704229 0  4.961569127360256 -0.3118894787216622 0  4.923897360678746 -9.687537149351071 0  0.1228405945134021 -2.536958536012416 0  0.1335945686177435 -7.466846676638523 0  3.206461751753455 -0.2806173508164562 0  3.213166004658842 -9.746377676274168 0  0.1155250883680452 -8.186784073011673 0  0.1359204609538445 -1.804202625344072 0  6.662432263484016 -9.600124945047963 0  6.631056521209421 -0.3942868763482545 0  2.126700074935258 -0.2065769621215452 0  2.120437876630353 -9.808537401472012 0  8.761385473272522 -9.4914222957189 0  8.786076048231736 -0.4923064159810888 0  0.1195911345135556 -8.749677128895598 0  0.1117474302775605 -1.230589418769438 0  11.3907841305612 -9.402816705944797 0  11.36435727088349 -0.618365439918426 0  1.211504568109637 -0.1471532661956818 0  1.239596144827807 -9.832618358594059 0  13.75158625181508 -9.315497816134139 0  13.7500399625954 -0.6902569910160397 0  0.131402377539402 -3.696772604078816 0  0.1204853385030979 -6.307560917781178 0  0.1346483804691658 -4.550944754283819 0  0.1255109280847009 -5.434782608695652 0  16.39894095075685 -9.180198571581517 0  16.44068234362399 -0.8166544577416346 0  0.1255109280847009 -0.7971014492753632 0  0.1162877148651766 -9.206770243020259 0  19.56645066956165 -9.043742294716539 0  29.11731382843969 -5.098539983867493 0  19.50527862123305 -0.9323941524176265 0  23.28904960561395 -8.8608997858633 0  0.6875606479622149 -0.1442604037134076 0  0.6875606348153145 -9.855739596611892 0  23.37074358394081 -1.15131614182933 0  10.00852704311311 -9.475417469395781 0  10.01049631493635 -0.5545437343697674 0  7.639131123468924 -9.543000896765111 0  7.693537846067955 -0.4574302764599576 0  5.733194300659633 -9.66079268774309 0  5.731454990332523 -0.3687808037058806 0  3.803630689980224 -9.686555789708486 0  3.834043646352164 -0.2754981925697493 0  2.618022704128803 -9.787800068206256 0  2.634320277618269 -0.2392104743186785 0  1.65952286941916 -9.813294854785646 0  1.665360553377539 -0.1820878093930922 0  0.1365068028365961 -1.543352471920677 0  0.1128108295274224 -8.471115901500411 0  0.1249192863256123 -0.5070564851587012 0  0.1172626025927563 -9.49200175151447 0  0.1255109280847009 -2.101449275362318 0  0.1255109280847009 -7.898550724637682 0  0.1247535864599936 -2.824177050114505 0  0.1155424837078822 -7.17494363557847 0  26.05192393553612 -8.777856070543081 0  26.00031291598836 -1.159065252957426 0  0.3627343947446455 -0.1301950113519217 0  0.3690141220077834 -9.868919517536135 0  28.90574865438674 -7.135369011630129 0  29.02069681040884 -2.861993939893059 0  0.1397555488250113 -0.2163338956475025 0  0.1255109280847009 -9.782608695652172 0  24.67098979274125 -8.799958058548517 0  23.93395881668722 -7.700959994796646 0  22.61396570077244 -7.764517377391733 0  23.2032949615693 -6.630776985250927 0  21.94857473380583 -6.690613342424633 0  24.50398505507967 -6.535933305198952 0  22.51489076809043 -5.580432145971667 0  21.29537841406989 -5.639199768252479 0  21.84985259542567 -4.547213342284197 0  20.65342988351128 -4.619546679988924 0  20.11277906893955 -5.663225279336593 0  19.49454290958806 -4.673886314669294 0  18.97860072994828 -5.624185949902217 0  18.40383886642446 -4.729683279047542 0  17.90575400337286 -5.630456854950327 0  17.35903168001753 -4.836859475002379 0  16.91444903556046 -5.680257663405808 0  16.36114434035519 -4.898890029095359 0  15.89440836794127 -5.835214594829282 0  15.41608945577568 -4.979845093198404 0  14.9809818125648 -5.732909169427192 0  14.51777858619734 -4.988431190461874 0  14.14039496103406 -5.776391085527889 0  13.67321261031888 -5.031745046943032 0  13.26988611760758 -5.891550007816156 0  12.85732927991246 -5.095735823822261 0  12.46423889659403 -5.760519953635332 0  12.07741841933393 -5.116608846746942 0  11.73131647445202 -5.75987862647932 0  11.35222911621012 -5.158061768105265 0  11.01225658271747 -5.784828178519854 0  10.65393216495117 -5.205808407572067 0  10.33042159780337 -5.788944717060055 0  9.98551374198097 -5.24118342090078 0  9.687616112021921 -5.812725728827915 0  9.357518717034999 -5.284717467130579 0  9.08157001076583 -5.820057568121996 0  8.766199932316585 -5.320212662582848 0  8.494748056481422 -5.830095453943056 0  8.194406727465122 -5.347802431655208 0  7.942610344706003 -5.833678024304247 0  7.660825631728443 -5.380025954369014 0  7.416702921751611 -5.83684433397813 0  7.147290851157173 -5.413787279190068 0  6.91632006965034 -5.851605397483334 0  6.658527053286988 -5.437627383845131 0  6.441897327469297 -5.862220684948111 0  6.194860224019926 -5.464520225953867 0  5.988748643021736 -5.866336295550595 0  5.755042825355586 -5.482399938780632 0  5.555770501455733 -5.867908174086599 0  5.334991086231989 -5.504761241472904 0  5.145076642106908 -5.873191062890511 0  4.935013388047023 -5.544035964184449 0  4.754345788811499 -5.880090917794126 0  4.554437025256316 -5.569020251233177 0  4.382470744799432 -5.88665007327689 0  4.192208958329529 -5.585677590398814 0  4.029485566904095 -5.896175760774888 0  4.354949258143058 -5.270074521138358 0  4.004482386201769 -5.289207815434526 0  4.158655721068861 -4.98145486433833 0  3.821444856080801 -5.001169872115685 0  3.97033944278737 -4.700814034221719 0  3.642688047138773 -4.720140385706738 0  3.788830742180677 -4.426816067812119 0  3.467446796449556 -4.450112744784491 0  3.325275354457695 -4.730293981808933 0  3.158439978631689 -4.466074367009679 0  3.294707394527546 -4
[...]
<PointData  Vectors="flow"> 
<DataArray  type="Float64"  Name="flow"  NumberOfComponents="3" format="ascii">-1.6325116640739296e-02 5.0253480729392425e-02 0.0000000000000000e+00  3.4045256011441872e-06 1.0486640643965229e-05 0.0000000000000000e+00  -6.5494362028379502e-07 -3.3072098310186323e-07 0.0000000000000000e+00  1.0758085782914906e-06 -5.8907148533159879e-06 0.0000000000000000e+00  4.4501832134582866e-03 3.7526969871632371e-02 0.0000000000000000e+00  -5.1346147711318207e-04 3.2737908263498920e-02 0.0000000000000000e+00  1.0274152905805399e-03 2.8916000024584117e-02 0.0000000000000000e+00  -4.6527318481956028e-05 2.2464876377344338e-02 0.0000000000000000e+00  8.5307733692711820e-04 1.5460186109759902e-02 0.0000000000000000e+00  -1.1463817345280108e-03 1.1737333127762289e-02 0.0000000000000000e+00  3.4248768982353032e-04 8.3750841168824565e-03 0.0000000000000000e+00  3.9315054711233925e-04 5.7349954213556670e-03 0.0000000000000000e+00  -1.6063774928746371e-04 4.5267733513835824e-03 0.0000000000000000e+00  6.5537146066231138e-05 3.3277781606855478e-03 0.0000000000000000e+00  -2.0351977276293501e-06 2.6063254477645130e-03 0.0000000000000000e+00  3.9329040005052740e-05 2.1023207266346322e-03 0.0000000000000000e+00  2.5070504284497235e-06 1.6225087243023795e-03 0.0000000000000000e+00  1.0801399889146456e-04 1.1739975951674962e-03 0.0000000000000000e+00  -5.6732133782109724e-05 1.0062613582848448e-03 0.0000000000000000e+00  5.0395808623604458e-06 8.6918238795725185e-04 0.0000000000000000e+00  1.9073385361312424e-06 7.4249050425638822e-04 0.0000000000000000e+00  -5.3115240207321152e-05 6.6582768910307703e-04 0.0000000000000000e+00  2.9962937492764296e-05 4.6277490053372197e-04 0.0000000000000000e+00  7.9404195354057869e-06 4.2543631036078531e-04 0.0000000000000000e+00  5.3609310611893340e-07 3.5754076941456125e-04 0.0000000000000000e+00  1.2619210827080156e-05 2.9597979138555489e-04 0.0000000000000000e+00  -7.9094161891176967e-07 2.4305980698639411e-04 0.0000000000000000e+00  -4.1427587127779153e-07 2.0077624242118168e-04 0.0000000000000000e+00  1.3270445126788990e-05 1.5250621144295557e-04 0.0000000000000000e+00  -5.7344587297132386e-06 1.2946721419382113e-04 0.0000000000000000e+00  4.3896476170736570e-07 1.1609190521665929e-04 0.0000000000000000e+00  1.6637403915444568e-06 9.7232730772678366e-05 0.0000000000000000e+00  1.8563490730065081e-06 7.7996037963874899e-05 0.0000000000000000e+00  7.9039167147733128e-07 6.2526932858465460e-05 0.0000000000000000e+00  7.1412010193676173e-07 5.1187546907448226e-05 0.0000000000000000e+00  5.6534399915977186e-07 4.2238439553179849e-05 0.0000000000000000e+00  8.4642259555618754e-09 3.3747393897716352e-05 0.0000000000000000e+00  1.9765965955350443e-06 2.5533106426200692e-05 0.0000000000000000e+00  -1.0658626238428258e-06 2.2282688614715957e-05 0.0000000000000000e+00  -5.3291128932010646e-08 2.0738523568088343e-05 0.0000000000000000e+00  1.9115597742494686e-07 1.8617030149128092e-05 0.0000000000000000e+00  6.6784109794586156e-07 1.5652983957058615e-05 0.0000000000000000e+00  4.8931370251201475e-07 1.3577910726446640e-05 0.0000000000000000e+00  1.0524320302650875e-07 1.1989759261647096e-05 0.0000000000000000e+00  2.3688210251837132e-07 1.1363238241902991e-05 0.0000000000000000e+00  -1.5481810722558154e-06 1.2677682507895927e-05 0.0000000000000000e+00  7.9073108490114120e-07 8.1484517414585008e-06 0.0000000000000000e+00  4.7106788085109615e-07 9.5277430943594953e-06 0.0000000000000000e+00  -1.7675710034428739e-07 8.8858208967258599e-06 0.0000000000000000e+00  -1.4669160955272178e-07 8.9585376705698316e-06 0.0000000000000000e+00  7.8066451579358625e-07 7.8455007994612507e-06 0.0000000000000000e+00  -2.3069684141021972e-06 9.2647169839196752e-06 0.0000000000000000e+00  -4.0652242789144271e-07 -1.4434938214578524e-06 0.0000000000000000e+00  -3.1990035864440256e-06 1.2695866609425435e-06 0.0000000000000000e+00  1.0883634952743134e-06 -1.4709543736976317e-06 0.0000000000000000e+00  -1.0710617436378770e-06 3.3233990013838647e-07 0.0000000000000000e+00  -6.6066996954879846e-07 -4.7933469655867570e-07 0.0000000000000000e+00  8.1417876519549607e-07 -2.6151750331028381e-07 0.0000000000000000e+00  -1.0727458453366400e-06 -4.3984219942628582e-08 0.0000000000000000e+00  -1.2982786374982862e-06 -5.1802593350533023e-07 0.0000000000000000e+00  -3.4650074341779395e-07 -1.3608933605949956e-06 0.0000000000000000e+00  2.0742995252893767e-07 -1.5636247919049674e-06 0.0000000000000000e+00  -4.6057331718951591e-07 -2.5927967341803958e-06 0.0000000000000000e+00  4.2379827206154579e-07 -2.5662788265721809e-06 0.0000000000000000e+00  6.0235400019599791e-08 -2.9212828938818070e-06 0.0000000000000000e+00  4.7716163665560829e-07 -3.3418580999062675e-06 0.0000000000000000e+00  3.2452138714743995e-07 -3.6887186669232021e-06 0.0000000000000000e+00  9.0874133855195833e-07 -3.8383927090352926e-06 0.0000000000000000e+00  9.5601315530596334e-07 -3.4867179154149414e-06 0.0000000000000000e+00  1.2884400665740940e-06 -2.8784712845510263e-06 0.0000000000000000e+00  1.4507452018131363e-06 -2.4316271373125325e-06 0.0000000000000000e+00  1.8233137583288249e-06 -1.4121874946059091e-06 0.0000000000000000e+00  2.1266632490777016e-06 -3.4446624510349159e-07 0.0000000000000000e+00  2.2001878066321349e-06 1.5766743136985430e-06 0.0000000000000000e+00  2.8400723606637209e-06 3.5792604774568966e-06 0.0000000000000000e+00  1.2416535560470787e-06 5.9544889081281547e-06 0.0000000000000000e+00  3.5330741277579284e-06 7.0391276762350772e-06 0.0000000000000000e+00  -4.1702351181286649e-07 7.9441949550437913e-06 0.0000000000000000e+00  1.6530551963437247e-06 1.0313631257884787e-05 0.0000000000000000e+00  -3.6790493255601292e-07 1.0964259259468435e-05 0.0000000000000000e+00  -5.7086664655377440e-07 1.1366574429667276e-05 0.0000000000000000e+00  -2.1449759945320703e-06 1.3005116205532154e-05 0.0000000000000000e+00  -3.5190634736954880e-06 1.3286077292859883e-05 0.0000000000000000e+00  -4.7633064239034164e-06 1.4509076354731824e-05 0.0000000000000000e+00  -5.8415297788994788e-06 1.4079558577786037e-05 0.0000000000000000e+00  -1.0015274247456587e-05 1.3499923912389092e-05 0.0000000000000000e+00  -9.8284485132511443e-06 1.1149787540220616e-05 0.0000000000000000e+00  -1.0496913097864774e-05 8.7469994504445388e-06 0.0000000000000000e+00  -1.1911456083391109e-05 6.6788475006151130e-06 0.0000000000000000e+00  -1.2190477104349509e-05 5.5001101442517810e-06 0.0000000000000000e+00  -1.3915065938791894e-05 3.1719127986222187e-06 0.0000000000000000e+00  -1.4156959949660252e-05 9.9817466050232888e-07 0.0000000000000000e+00  -1.3747748550355472e-05 4.5985016443279915e-07 0.0000000000000000e+00  -1.3639942123577548e-05 -1.6829847149928743e-06 0.0000000000000000e+00  -1.4638362919042555e-05 -3.0940598633060867e-06 0.0000000000000000e+00  -1.2323366059174044e-05 -4.1671090294470046e-06 0.0000000000000000e+00  -1.1891914400715626e-05 -4.8814605946813598e-06 0.0000000000000000e+00  -1.1756800676297198e-05 -5.4588532725103088e-06 0.0000000000000000e+00  -1.1018258406969274e-05 -5.9909908305537697e-06 0.0000000000000000e+00  -9.4046922025513933e-06 -6.5180162940331623e-06 0.0000000000000000e+00  -8.1451659333644414e-06 -6.6902366229984477e-06 0.0000000000000000e+00  -7.2632462034647350e-06 -6.9787253721639220e-06 0.0000000000000000e+00  -7.3384235570701569e-06 -6.9835802446781560e-06 0.0000000000000000e+00  -4.3994675378409024e-06 -6.9606963234007300e-06 0.0000000000000000e+00  -2.8883486485140721e-06 -6.4524555960247849e-06 0.0000000000000000e+00  -2.5184404409123312e-06 -5.8543361093288762e-06 0.0000000000000000e+00  -2.7748201100391278e-06 -5.1807901236816890e-06 0.0000000000000000e+00  -1.9769603348324773e-06 -4.8516192920605514e-06 0.0000000000000000e+00  7.6156403834262973e-07 -9.1021961508219935e-06 0.0000000000000000e+00  2.0884544046381287e-07 -8.1627943850294321e-06 0.0000000000000000e+00  2.6571496341059056e-08 -8.3848098806462650e-06 0.0000000000000000e+00  -4.0823081372890465e-07 -8.4349610567758880e-06 0.0000000000000000e+00  -3.5958640751784740e-07 -6.4845234260169021e-06 0.0000000000000000e+00  -1.6521627458671551e-07 -6.8779165824262906e-06 0.0000000000000000e+00  1.1379241002276127e-07 -5.3072746648507044e-06 0.0000000000000000e+00  -2.9322870134151758e-07 -4.1235226861928117e-06 0.0000000000000000e+00  2.2892577822130428e-07 -3.3792700207042555e-06 0.0000000000000000e+00  1.3563308939924578e-08 -3.2869616784515483e-06 0.0000000000000000e+00  -1.3592166628298701e-07 -2.1498049240046157e-06 0.0000000000000000e+00  -1.3043656725978464e-07 -1.9842293162670479e-06 0.0000000000000000e+00  -2.6660058797735545e-07 -7.7816870313260258e-07 0.0000000000000000e+00  -4.8459181662503841e-08 4.8296828132891264e-07 0.0000000000000000e+00  -1.4687283705293547e-07 1.9924447048884277e-07 0.0000000000000000e+00  -1.8489993516639745e-07 1.4614217537145108e-06 0.0000000000000000e+00  -1.9050417249602703e-07 1.0603118012600526e-06 0.0000000000000000e+00  -5.2932495947640814e-07 3.1067521227794488e-06 0.0000000000000000e+00  -2.2753053797286069e-07 3.3742931032740051e-06 0.0000000000000000e+00  -3.7900397762348710e-07 3.5760914421541719e-06 0.0000000000000000e+00  -3.1463713604645711e-07 4.8907337824381765e-06 0.0000000000000000e+00  2.5954272010349141e-08 6.5165560804964896e-06 0.0000000000000000e+00  -8.7697897223629348e-07 6.7545648081195408e-06 0.0000000000000000e+00  3.5293599741352283e-07 7.1052638035379274e-06 0.0000000000000000e+00  1.8005020866847529e-07 9.8098000913521108e-06 0.0000000000000000e+00  -3.8870034504510139e-07 9.0230136297887224e-06 0.0000000000000000e+00  -3.6208708551374120e-07 1.1363445339644857e-05 0.0000000000000000e+00  -2.8974722672664474e-07 1.0980298120115039e-05 0.0000000000000000e+00  -6.6598070818079099e-07 1.2969986025898445e-05 0.0000000000000000e+00  -4.0679422900437211e-07 1.6261088846849358e-05 0.0000000000000000e+00  -1.1566397157789586e-06 1.6385132965052021e-05 0.0000000000000000e+00  -3.3916788815647702e-06 1.8949962440710262e-05 0.0000000000000000e+00  -1.3995406817697388e-06 1.7418813044582284e-05 0.0000000000000000e+00  7.5137116964919807e-07 2.4187019888723505e-05 0.0000000000000000e+00  -2.5836293522969815e-06 2.6930444234859427e-05 0.0000000000000000e+00  1.3626561198700257e-06 2.5458728052124318e-05 0.0000000000000000e+00  -1.5681562630071787e-06 3.1377277423380941e-05 0.0000000000000000e+00  -3.0147908358578388e-06 3.8666956206406636e-05 0.0000000000000000e+00  -2.8800150425878291e-06 3.7546301912489098e-05 0.0000000000000000e+00  -2.3368257060821733e-06 3.7186320854838290e-05 0.0000000000000000e+00  -7.5607250717996375e-07 5.0110527884919878e-05 0.0000000000000000e+00  -8.1715052629587831e-06 5.3756412217125002e-05 0.0000000000000000e+00  3.5727885158161788e-06 5.6486613156936439e-05 0.0000000000000000e+00  -2.7731266056415695e-06 6.8440807576740684e-05 0.0000000000000000e+00  -2.6147430072055884e-06 7.7080979221125912e-05 0.0000000000000000e+00  -2.3483074473884197e-06 9.3931340743347132e-05 0.0000000000000000e+00  -3.9036148048293436e-06 9.2118642778271664e-05 0.0000000000000000e+00  -7.5959105215424940e-06 1.0760598829343527e-04 0.0000000000000000e+00  -4.7312390911818124e-06 1.4936688118498509e-04 0.0000000000000000e+00  -8.2724557321822602e-06 1.7038586484039258e-04 0.0000000000000000e+00  -1.1063869284947368e-05 1.7394843800054308e-04 0.0000000000000000e+00  -1.9693859172927752e-05 2.1131747435450228e-04 0.0000000000000000e+00  -1.6992576479779321e-05 2.8177069326295261e-04 0.0000000000000000e+00  -2.3569343090753969e-05 3.0965701980440174e-04 0.0000000000000000e+00  -2.9561280773075346e-05 3.6834363196676801e-04 0.0000000000000000e+00  -2.1423618355649899e-05 4.7003695367397232e-04 0.0000000000000000e+00  -1.1137374846036280e-04 6.3615641212441730e-04 0.0000000000000000e+00  -9.2128894104148422e-05 7.9578184786226332e-04 0.0000000000000000e+00  -1.1677441362734866e-04 1.1100942360085678e-03 0.0000000000000000e+00  -2.4777367770901750e-04 1.5492028085435040e-03 0.0000000000000000e+00  -3.4373786988842539e-04 2.0980678667463096e-03 0.0000000000000000e+00  -4.6345140920989126e-04 2.9261684206746304e-03 0.0000000000000000e+00  -1.1675941764548708e-03 4.9648865528415121e-03 0.0000000000000000e+00  -2.3751851088858297e-03 9.4334235549884231e-03 0.0000000000000000e+00  -6.5450608406539467e-03 1.6918334533277693e-02 0.0000000000000000e+00  -5.9996529042974792e-03 1.8852763593686518e-02 0.0000000000000000e+00  -1.1707658414974382e-02 -5.0699107022001949e-02 0.0000000000000000e+00  7.1453483211777937e-04 -4.3802278873407700e-02 0.0000000000000000e+00  -2.9950468141382941e-06 2.7283123294918545e-05 0.0000000000000000e+00  -8.1522008460458221e-07 1.1709991285051788e-05 0.0000000000000000e+00  -1.3681069392622884e-06 7.2513045636981907e-06 0.0000000000000000e+00  -3.5587817221977205e-06 4.1944761822589920e-05 0.0000000000000000e+00  -1.2642462542742413e-05 9.2416861811716735e-05 0.0000000000000000e+00  3.6466666740343240e-05 9.9737106552245174e-05 0.0000000000000000e+00  -1.0119483997758808e-05 4.7104153755047345e-06 0.0000000000000000e+00  -2.9183415349885187e-05 1.8207047505875511e-04 0.0000000000000000e+00  -4.9166385625212386e-07 1.9517039583274918e-06 0.0000000000000000e+00  1.3264727086260351e-04 2.6008814978866103e-04 0.0000000000000000e+00  -1.2567305327253234e-05 -6.8406443895761268e-07 0.0000000000000000e+00  -2.6738737761626547e-07 -1.4450129415540593e-06 0.0000000000000000e+00  -1.2318322942446048e-04 5.5129331590343623e-04 0.0000000000000000e+00  -4.7293407733900419e-06 6.4464928316683598e-06 0.0000000000000000e+00  2.1164810062484877e-05 4.5783133370862611e-05 0.0000000000000000e+00  3.6065864325770912e-04 8.6930299098504898e-04 0.0000000000000000e+00  -1.1445364381171871e-05 -5.3486725346414960e-06 0.0000000000000000e+00  -1.0038231036460023e-06 4.5007666603360857e-06 0.0000000000000000e+00  9.0891361751688539e-06 1.1056314948655086e-05 0.0000000000000000e+00  -4.1556243765163742e-07 -3.5408874375809574e-06 0.0000000000000000e+00  -5.6544344081164240e-04 1.7196936084901309e-03 0.0000000000000000e+00  1.7699788896493685e-06 1.5134351346150558e-06 0.0000000000000000e+00  3.3524382558241976e-06 4.1159386933578565e-06 0.0000000000000000e+00  1.2495878114544587e-03 3.3990300863770829e-03 0.0000000000000000e+00  -7.5314809382145296e-06 -7.7266478613200537e-06 0.0000000000000000e+00  1.0118263173526129e-06 -1.7274690926836591e-08 0.0000000000000000e+00  1.9082302372265484e-06 2.6077728899262518e-06 0.0000000000000000e+00  -6.1021978004569991e-06 6.4200936241577634e-05 0.0000000000000000e+00  -1.3554437106155227e-06 9.2471773225485799e-06 0.0000000000000000e+00  -2.3018064779658317e-06 3.3027254690111646e-05 0.0000000000000000e+00  -1.2696415453778571e-06 1.7531716774122618e-05 0.0000000000000000e+00  9.7280487165609183e-07 -5.1914471007583138e-07 0.0000000000000000e+00  5.4267853242370479e-07 1.1476504816779462e-06 0.0000000000000000e+00  -2.7026431564849914e-03 5.5138917894041540e-03 0.0000000000000000e+00  -7.2171671615753064e-07 -6.3690917728513638e-06 0.0000000000000000e+00  4.9306556247623189e-07 -2.6277778896418141e-07 0.0000000000000000e+00  -1.0643810724315408e-07 -5.8929058805327735e-08 0.0000000000000000e+00  2.6573576309803038e-07 1.3518993868496912e-08 0.0000000000000000e+00  2.3266910480503010e-07 -4.5218173153677976e-07 0.0000000000000000e+00  3.6987710375341368e-03 7.1089672984552864e-03 0.0000000000000000e+00  -3.7414599156778026e-06 -8.9031094233038217e-06 0.0000000000000000e+00  1.8250845694439266e-07 -1.4238063459146556e-07 0.0000000000000000e+00  -2.6541411742281068e-07 3.5574770310627864e-06 0.0000000000000000e+00  5.9404291634622622e-06 8.2456885282621978e-06 0.0000000000000000e+00  -3.5214254391129996e-06 6.9532810899967828e-06 0.0000000000000000e+00  1.2504927878250325e-05 1.9765151522161745e-05 0.0000000000000000e+00  -8.8571972951810572e-06 6.9422168975793866e-06 0.0000000000000000e+00  2.5055903268727020e-05 4.4330282490032930e-05 0.0000000000000000e+00  -1.2729339260337262e-05 1.0061147967895174e-06 0.0000000000000000e+00  7.0510261130303539e-05 1.8169497784702927e-04 0.0000000000000000e+00  -1.2846398353756404e-05 -3.9525945841525937e-06 0.0000000000000000e+00  2.1111122731507984e-04 5.7153674612431260e-04 0.0000000000000000e+00  -9.7283312550012639e-06 -7.3307989629563845e-06 0.0000000000000000e+00  7.0710465153651545e-04 1.5007835089857534e-03 0.0000000000000000e+00  -2.1844640366385575e-04 8.2508523779959407e-04 0.0000000000000000e+00  -3.0964798375010296e-07 -2.9297233754132092e-06 0.0000000000000000e+00  -1.3166556293634911e-02 1.5639206955938026e-02 0.0000000000000000e+00  -1.0716618321618257e-06 -8.6688854070578238e-06 0.0000000000000000e+00  -7.5874070796654657e-05 3.3526235851238901e-04 0.0000000000000000e+00  -6.7177294120966370e-07 3.7024424934272866e-07 0.0000000000000000e+00  -2.6529360721638421e-05 1.6131142072389664e-04 0.0000000000000000e+00  -1.0968682177344767e-06 3.5365441515463461e-06 0.0000000000000000e+00  2.7786636909511867e-07 -2.9780394641569465e-07 0.0000000000000000e+00  3.2981819517227468e-07 1.3380280400652851e-07 0.0000000000000000e+00  8.5538674525613743e-05 5.4110697077246143e-03 0.0000000000000000e+00  -2.9419016170821774e-06 -7.7763547351307451e-06 0.0000000000000000e+00  3.4232001297447626e-08 -3.6788515129806701e-07 0.0000000000000000e+00  -1.3835488709789296e-07 9.0745920475056884e-07 0.0000000000000000e+00  -1.2671729613241844e-02 -5.3272453884501560e-02 0.0000000000000000e+00  -5.2625784199201090e-07 -9.5143989757029282e-06 0.0000000000000000e+00  1.1622252500992112e-07 -5.7728187443937374e-07 0.0000000000000000e+00  1.0022802077131550e-07 1.1963403829470595e-07 0.0000000000000000e+00  2.5271802435410396e-07 2.1848838843308537e-07 0.0000000000000000e+00  3.0124264768646905e-07 -1.0192706968624226e-06 0.0000000000000000e+00  3.8600622791948928e-07 -7.9295298342372038e-07 0.0000000000000000e+00  2.2065921960763718e-07 -8.8387175566568801e-07 0.0000000000000000e+00  1.0327709806770206e-07 4.9998460652877846e-07 0.0000000000000000e+00  3.2228267371650375e-07 3.2701919848186267e-07 0.0000000000000000e+00  2.9970752522360177e-07 -9.7762026175286436e-07 0.0000000000000000e+00  6.9852417594126397e-07 -9.2210515034127002e-08 0.0000000000000000e+00  2.8680181254569336e-07 -6.1741003485637878e-07 0.0000000000000000e+00  4.5326955523088631e-07 7.8686776433195136e-07 0.0000000000000000e+00  6.8373216323577470e-07 -9.0169733799218216e-07 0.0000000000000000e+00  4.4639483004863024e-07 5.2180580506037049e-07 0.0000000000000000e+00  2.0831609774518587e-07 -3.2492402208177468e-07 0.0000000000000000e+00  5.6466376974260939e-07 -2.2778769390261411e-07 0.0000000000000000e+00  1.0418965570701441e-06 -1.3212141897265180e-08 0.0000000000000000e+00  7.2755608492925811e-07 -3.6976722323606215e-07 0.0000000000000000e+00  8.1137171781060330e-07 7.2826245310364315e-08 0.0000000000000000e+00  1.0228600678090580e-06 -1.3261498298902413e-08 0.0000000000000000e+00  5.5230035682509883e-07 -9.9591358699084439e-08 0.0000000000000000e+00  9.5761734206227255e-07 3.4370883198130883e-08 0.0000000000000000e+00  1.4467770747747786e-06 -1.8172888764285143e-07 0.0000000000000000e+00  9.6207308210996695e-07 2.8208241621157726e-07 0.0000000000000000e+00  7.7197290350111829e-07 -5.9238280341130152e-08 0.0000000000000000e+00  7.8687261731291093e-07 -3.5244975380005455e-07 0.0000000000000000e+00  6.5871046021979010e-07 3.9510730594523738e-07 0.0000000000000000e+00  1.1907797783349664e-06 -1.0090316718815917e-06 0.0000000000000000e+00  1.1088946028006293e-06 -2.9162413590582278e-07 0.0000000000000000e+00  6.2853215043795017e-07 -2.2992853594899372e-07 0.0000000000000000e+00  5.1474573996182045e-07 -1.6126344295634884e-07 0.0000000000000000e+00  1.2666592993235242e-06 -8.5515230272953811e-07 0.0000000000000000e+00  4.4253440136337100e-07 -6.5019099215331061e-07 0.0000000000000000e+00  -1.3092138427253420e-07 -9.0637783402636684e-07 0.0000000000000000e+00  -4.2846234988681698e-08 -9.1585480430669