<?xml version="1.0"?>
<VTKFile type="UnstructuredGrid"  version="0.1"  >
<UnstructuredGrid>
<Piece  NumberOfPoints="18082" NumberOfCells="35500">
<Points>
<DataArray  type="Float64"  NumberOfComponents="3"  format="ascii">0 0 0  30 0 0  30 -10 0  0 -10 0  0.02360821169319077 0 0  0.04721642338638154 0 0  0.07206717063563725 0 0  0.09691791788489297 0 0  0.1230766011355843 0 0  0.1492352843862757 0 0  0.1767707375239038 0 0  0.204306190661532 0 0  0.2332908770901271 0 0  0.2622755635187223 0 0  0.2927857633803451 0 0  0.323295963241968 0 0  0.3554119623832387 0 0  0.3875279615245094 0 0  0.4213342730081758 0 0  0.4551405844918422 0 0  0.4907261762804851 0 0  0.526311768069128 0 0  0.5637702848355051 0 0  0.6012288016018821 0 0  0.6406588220121138 0 0  0.6800888424223455 0 0  0.721594129780935 0 0  0.7630994171395246 0 0  0.8067891887833475 0 0  0.8504789604271704 0 0  0.8964681941825949 0 0  0.9424574279380195 0 0  0.9908671465681095 0 0  1.039276865198199 0 0  1.090234462786975 0 0  1.141192060375751 0 0  1.194831641933244 0 0  1.248471223490737 0 0  1.304933942963653 0 0  1.361396662436569 0 0  1.420831104471586 0 0  1.480265546506604 0 0  1.542828113436244 0 0  1.605390680365884 0 0  1.671246013469327 0 0  1.73710134657277 0 0  1.806422752814762 0 0  1.875744159056755 0 0  1.948714057431306 0 0  2.021683955805857 0 0  2.098494373901932 0 0  2.175304791998006 0 0  2.256157866653476 0 0  2.337010941308945 0 0  2.422119443935387 0 0  2.50722794656183 0 0  2.596815840700639 0 0  2.686403734839449 0 0  2.780706776094687 0 0  2.875009817349925 0 0  2.974276175689285 0 0  3.073542534028646 0 0  3.178033441002704 0 0  3.282524347976761 0 0  3.392514777963501 0 0  3.502505207950242 0 0  3.618284608533553 0 0  3.734064009116865 0 0  3.855937062816526 0 0  3.977810116516187 0 0  4.106097541496641 0 0  4.234384966477093 0 0  4.369424362562147 0 0  4.5044637586472 0 0  4.646610489729194 0 0  4.788757220811188 0 0  4.938385356669961 0 0  5.088013492528733 0 0  5.24551679218304 0 0  5.403020091837347 0 0  5.568813038399614 0 0  5.73460598496188 0 0  5.909124878408681 0 0  6.083643771855482 0 0  6.267347873338513 0 0  6.451051974821543 0 0  6.644424714363561 0 0  6.83779745390558 0 0  7.041347702348167 0 0  7.244897950790754 0 0  7.459161368238869 0 0  7.673424785686984 0 0  7.898965226038037 0 0  8.124505666389089 0 0  8.361916654054033 0 0  8.599327641718979 0 0  8.849233942517035 0 0  9.099140243315093 0 0  9.362199507946787 0 0  9.625258772578484 0 0  9.902163261537794 0 0  10.1790677504971 0 0  10.47054616023911 0 0  10.76202456998112 0 0  11.06884394887334 0 0  11.37566332776555 0 0  11.69863109504192 0 0  12.02159886231829 0 0  12.3615649378891 0 0  12.7015310134599 0 0  13.05939003847426 0 0  13.41724906348862 0 0  13.79394276982091 0 0  14.1706364761532 0 0  14.5671561683298 0 0  14.96367586050641 0 0  15.38106501332897 0 0  15.79845416615153 0 0  16.23781117165827 0 0  16.677168177165 0 0  17.13964923659526 0 0  17.60213029602552 0 0  18.0889524622663 0 0  18.57577462850707 0 0  19.08821901304263 0 0  19.60066339757818 0 0  20.14007853843172 0 0  20.67949367928525 0 0  21.24729908993883 0 0  21.8151045005924 0 0  22.41279440541421 0 0  23.01048431023601 0 0  23.63963157605829 0 0  24.26877884188056 0 0  24.93103912515648 0 0  25.59329940843241 0 0  26.29041549584691 0 0  26.98753158326142 0 0  27.72133799026916 0 0  28.45514439727691 0 0  29.22757219863846 0 0  30 -0.3571428571428571 0  30 -0.7142857142857142 0  30 -1.071428571428571 0  30 -1.428571428571428 0  30 -1.785714285714286 0  30 -2.142857142857143 0  30 -2.5 0  30 -2.857142857142857 0  30 -3.214285714285714 0  30 -3.571428571428571 0  30 -3.928571428571428 0  30 -4.285714285714286 0  30 -4.642857142857142 0  30 -5 0  30 -5.357142857142857 0  30 -5.714285714285714 0  30 -6.071428571428571 0  30 -6.428571428571428 0  30 -6.785714285714285 0  30 -7.142857142857142 0  30 -7.5 0  30 -7.857142857142857 0  30 -8.214285714285714 0  30 -8.571428571428571 0  30 -8.928571428571427 0  30 -9.285714285714285 0  30 -9.642857142857142 0  29.22757220128658 -10 0  28.45514440257316 -10 0  27.72133799277628 -10 0  26.98753158297939 -10 0  26.29041549304805 -10 0  25.5932994031167 -10 0  24.93103911757599 -10 0  24.26877883203527 -10 0  23.63963156418132 -10 0  23.01048429632737 -10 0  22.41279438968936 -10 0  21.81510448305136 -10 0  21.24729907078059 -10 0  20.67949365850982 -10 0  20.14007851622273 -10 0  19.60066337393564 -10 0  19.08821898813588 -10 0  18.57577460233611 -10 0  18.08895243498708 -10 0  17.60213026763805 -10 0  17.13964920724307 -10 0  16.6771681468481 -10 0  16.2378111405086 -10 0  15.79845413416909 -10 0  15.38106498063496 -10 0  14.96367582710082 -10 0  14.56715613432376 -10 0  14.17063644154669 -10 0  13.79394273471576 -10 0  13.41724902788484 -10 0  13.05939000246495 -10 0  12.70153097704506 -10 0  12.36156490115379 -10 0  12.02159882526251 -10 0  11.69863105774323 -10 0  11.37566329022395 -10 0  11.06884391115945 -10 0  10.76202453209494 -10 0  10.47054612224479 -10 0  10.17906771239465 -10 0  9.902163223385379 -10 0  9.625258734376107 -10 0  9.362199469747061 -10 0  9.099140205118012 -10 0  8.849233904370102 -10 0  8.599327603622193 -10 0  8.361916616050124 -10 0  8.124505628478055 -10 0  7.898965188258209 -10 0  7.673424748038361 -10 0  7.459161330755727 -10 0  7.244897913473093 -10 0  7.041347665226496 -10 0  6.837797416979896 -10 0  6.644424677660922 -10 0  6.451051938341948 -10 0  6.26734783710581 -10 0  6.083643735869675 -10 0  5.90912484269068 -10 0  5.734605949511682 -10 0  5.568813003235423 -10 0  5.403020056959164 -10 0  5.24551675760658 -10 0  5.088013458254 -10 0  4.938385322710374 -10 0  4.788757187166745 -10 0  4.646610456411224 -10 0  4.504463725655707 -10 0  4.369424329906533 -10 0  4.234384934157362 -10 0  4.106097509520442 -10 0  3.977810084883522 -10 0  3.85593703153344 -10 0  3.734063978183357 -10 0  3.618284577954206 -10 0  3.502505177725055 -10 0  3.392514748095728 -10 0  3.282524318466404 -10 0  3.1780334118518 -10 0  3.073542505237196 -10 0  2.97427614725823 -10 0  2.875009789279265 -10 0  2.780706748384375 -10 0  2.686403707489482 -10 0  2.596815813710069 -10 0  2.507227919930656 -10 0  2.422119417661861 -10 0  2.337010915393062 -10 0  2.256157841092762 -10 0  2.175304766792465 -10 0  2.098494349048437 -10 0  2.021683931304413 -10 0  1.948714033278215 -10 0  1.875744135252013 -10 0  1.806422729354161 -10 0  1.737101323456312 -10 0  1.671245990692352 -10 0  1.605390657928396 -10 0  1.542828091333185 -10 0  1.480265524737977 -10 0  1.420831083031992 -10 0  1.36139664132601 -10 0  1.304933922176438 -10 0  1.248471203026863 -10 0  1.194831621786765 -10 0  1.14119204054667 -10 0  1.09023444350921 -10 0  1.039276846471754 -10 0  0.9908671279064798 -10 0  0.942457409341209 -10 0  0.8964681758842019 -10 0  0.8504789424271948 -10 0  0.8067891710751951 -10 0  0.7630993997231954 -10 0  0.7215941126497469 -10 0  0.6800888255762949 -10 0  0.6406588054444597 -10 0  0.6012287853126246 -10 0  0.5637702688178621 -10 0  0.5263117523230996 -10 0  0.4907261607992695 -10 0  0.4551405692754429 -10 0  0.4213342580497894 -10 0  0.3875279468241395 -10 0  0.3554119479341011 -10 0  0.3232959490440663 -10 0  0.2927857494269297 -10 0  0.2622755498097931 -10 0  0.2332908636189828 -10 0  0.2043061774281725 -10 0  0.1767707245216883 -10 0  0.1492352716152006 -10 0  0.1230765885890825 -10 0  0.09691790556296098 -10 0  0.0720671585317838 -10 0  0.04721641150060663 -10 0  0.02360820575030331 -10 0  0 -9.972067039106145 0  0 -9.94413407821229 0  0 -9.916201117318435 0  0 -9.888268156424582 0  0 -9.860335195530727 0  0 -9.832402234636872 0  0 -9.804469273743017 0  0 -9.776536312849162 0  0 -9.748603351955307 0  0 -9.720670391061452 0  0 -9.692737430167599 0  0 -9.664804469273744 0  0 -9.636871508379889 0  0 -9.608938547486034 0  0 -9.581005586592179 0  0 -9.553072625698324 0  0 -9.525139664804469 0  0 -9.497206703910614 0  0 -9.46927374301676 0  0 -9.441340782122905 0  0 -9.41340782122905 0  0 -9.385474860335195 0  0 -9.35754189944134 0  0 -9.329608938547485 0  0 -9.30167597765363 0  0 -9.273743016759777 0  0 -9.245810055865922 0  0 -9.217877094972067 0  0 -9.189944134078212 0  0 -9.162011173184357 0  0 -9.134078212290502 0  0 -9.106145251396647 0  0 -9.078212290502794 0  0 -9.050279329608939 0  0 -9.022346368715084 0  0 -8.994413407821229 0  0 -8.966480446927374 0  0 -8.938547486033519 0  0 -8.910614525139664 0  0 -8.882681564245811 0  0 -8.854748603351956 0  0 -8.826815642458101 0  0 -8.798882681564246 0  0 -8.770949720670391 0  0 -8.743016759776536 0  0 -8.715083798882681 0  0 -8.687150837988828 0  0 -8.659217877094973 0  0 -8.631284916201118 0  0 -8.603351955307263 0  0 -8.575418994413408 0  0 -8.547486033519553 0  0 -8.519553072625698 0  0 -8.491620111731844 0  0 -8.463687150837989 0  0 -8.435754189944134 0  0 -8.407821229050279 0  0 -8.379888268156424 0  0 -8.351955307262569 0  0 -8.324022346368714 0  0 -8.296089385474861 0  0 -8.268156424581006 0  0 -8.240223463687151 0  0 -8.212290502793296 0  0 -8.184357541899441 0  0 -8.156424581005586 0  0 -8.128491620111731 0  0 -8.100558659217878 0  0 -8.072625698324023 0  0 -8.044692737430168 0  0 -8.016759776536313 0  0 -7.988826815642458 0  0 -7.960893854748603 0  0 -7.932960893854748 0  0 -7.905027932960894 0  0 -7.877094972067039 0  0 -7.849162011173184 0  0 -7.82122905027933 0  0 -7.793296089385475 0  0 -7.76536312849162 0  0 -7.737430167597765 0  0 -7.709497206703911 0  0 -7.681564245810056 0  0 -7.653631284916202 0  0 -7.625698324022347 0  0 -7.597765363128492 0  0 -7.569832402234637 0  0 -7.541899441340782 0  0 -7.513966480446927 0  0 -7.486033519553073 0  0 -7.458100558659218 0  0 -7.430167597765363 0  0 -7.402234636871508 0  0 -7.374301675977653 0  0 -7.346368715083798 0  0 -7.318435754189944 0  0 -7.290502793296089 0  0 -7.262569832402235 0  0 -7.23463687150838 0  0 -7.206703910614525 0  0 -7.17877094972067 0  0 -7.150837988826815 0  0 -7.12290502793296 0  0 -7.094972067039106 0  0 -7.067039106145251 
[...]
<PointData  Vectors="flow"> 
<DataArray  type="Float64"  Name="flow"  NumberOfComponents="3" format="ascii">1.9935052701435169e-03 -8.0144867834200766e-03 0.0000000000000000e+00  -6.1842541214850769e-07 1.0828380828176930e-05 0.0000000000000000e+00  2.8517903245190204e-08 -5.9425443465002786e-07 0.0000000000000000e+00  1.5275559630837578e-07 -4.0899569886794098e-07 0.0000000000000000e+00  -5.0510357811702064e-04 -6.5738968556076057e-03 0.0000000000000000e+00  -6.2270989634298702e-05 -3.8828206656332798e-03 0.0000000000000000e+00  1.1791829802898467e-04 -2.9950944981565419e-03 0.0000000000000000e+00  -6.8810717348844787e-04 -9.8995843522917452e-04 0.0000000000000000e+00  2.6535908557247224e-04 5.0631541048904420e-05 0.0000000000000000e+00  -2.8502254120122920e-05 1.3494186199918494e-04 0.0000000000000000e+00  -6.1459372367879895e-06 9.1774957553169569e-04 0.0000000000000000e+00  3.9686302113460834e-05 2.3104249247351051e-03 0.0000000000000000e+00  -3.4468276036045220e-05 4.4550054291676864e-03 0.0000000000000000e+00  -9.4901302266227193e-06 7.0239801737931621e-03 0.0000000000000000e+00  -6.3649407385347836e-06 9.7673702504351232e-03 0.0000000000000000e+00  1.2997428706733284e-06 1.2172597714031619e-02 0.0000000000000000e+00  -1.8890010390172349e-05 1.4249002228368914e-02 0.0000000000000000e+00  1.1237337057576235e-04 1.5662585663621127e-02 0.0000000000000000e+00  -6.0741580179614421e-05 1.6521574787044725e-02 0.0000000000000000e+00  9.6688903210067983e-05 1.6945495386093110e-02 0.0000000000000000e+00  -3.4514657519820026e-05 1.6877832275646810e-02 0.0000000000000000e+00  9.7234773788401366e-05 1.6440699586463752e-02 0.0000000000000000e+00  -3.8614512836780942e-05 1.5837624393016749e-02 0.0000000000000000e+00  6.6114997155922162e-05 1.5052977029574914e-02 0.0000000000000000e+00  -4.9662726161352871e-05 1.4174896686311647e-02 0.0000000000000000e+00  1.2564513782473786e-04 1.3163472748133139e-02 0.0000000000000000e+00  4.7350569155667406e-05 1.2050913345887503e-02 0.0000000000000000e+00  -1.9781394760724609e-04 1.1356270244726175e-02 0.0000000000000000e+00  -1.2367786263472033e-05 1.0749514677750240e-02 0.0000000000000000e+00  1.3476341146918212e-04 9.6451045240918722e-03 0.0000000000000000e+00  -6.6241402819077605e-05 8.9798876764739868e-03 0.0000000000000000e+00  1.4111810028375125e-04 8.1257119440419842e-03 0.0000000000000000e+00  2.8866752961875898e-06 7.4290318873406055e-03 0.0000000000000000e+00  -5.4349498469008113e-05 6.9455762633895534e-03 0.0000000000000000e+00  1.0157986568027950e-05 6.3887245993770551e-03 0.0000000000000000e+00  -9.5466826018644076e-06 5.8998571377225128e-03 0.0000000000000000e+00  -1.3556082607984532e-05 5.4820574942996119e-03 0.0000000000000000e+00  4.7348613499246238e-05 5.0134491315364342e-03 0.0000000000000000e+00  -1.0996959597489280e-05 4.6141003587761272e-03 0.0000000000000000e+00  1.2218866432836295e-05 4.2575979027474602e-03 0.0000000000000000e+00  -8.2020705356536648e-06 3.9614054223556247e-03 0.0000000000000000e+00  2.4191414781649639e-05 3.6430290688225049e-03 0.0000000000000000e+00  -2.4276337298357453e-05 3.3988997760296337e-03 0.0000000000000000e+00  7.0885441398843050e-05 3.0844835048938570e-03 0.0000000000000000e+00  -2.0887081153620857e-06 2.8109116832566615e-03 0.0000000000000000e+00  -2.7386250948911724e-05 2.6557126884320550e-03 0.0000000000000000e+00  4.9461617998524364e-06 2.4812744978535374e-03 0.0000000000000000e+00  -1.4835445602962512e-06 2.3045807328779173e-03 0.0000000000000000e+00  -7.1447803677599920e-08 2.1511817843577518e-03 0.0000000000000000e+00  2.9297155803446296e-06 2.0024016660179292e-03 0.0000000000000000e+00  8.1246787722197726e-07 1.8619657959146143e-03 0.0000000000000000e+00  -4.0064065938594157e-06 1.7428936348515037e-03 0.0000000000000000e+00  -5.2576325314023870e-06 1.6402943569425207e-03 0.0000000000000000e+00  2.1994604585501603e-05 1.5072432986723944e-03 0.0000000000000000e+00  -6.7395583833683265e-06 1.3979394901411028e-03 0.0000000000000000e+00  1.0769741815447639e-05 1.3026361762373121e-03 0.0000000000000000e+00  -2.3125534513928851e-06 1.2138681109729443e-03 0.0000000000000000e+00  3.1755632215631080e-06 1.1355343118819384e-03 0.0000000000000000e+00  -5.3722680458950125e-06 1.0690876085866028e-03 0.0000000000000000e+00  1.8242839027416184e-05 9.8683205286718739e-04 0.0000000000000000e+00  -4.0582909450513271e-06 9.1461714131170241e-04 0.0000000000000000e+00  5.2134522642089069e-06 8.5577730591940586e-04 0.0000000000000000e+00  -9.3219092372506417e-07 8.0281839149326116e-04 0.0000000000000000e+00  1.0764948115079772e-06 7.5498413792252344e-04 0.0000000000000000e+00  -1.9632282429204744e-06 7.0972554676153462e-04 0.0000000000000000e+00  6.6644965289516140e-06 6.5883250147178037e-04 0.0000000000000000e+00  -6.6474409422841708e-06 6.2756972311037596e-04 0.0000000000000000e+00  2.5226668843515239e-05 5.6368938390132200e-04 0.0000000000000000e+00  -2.3323239367771922e-06 5.1301059196687325e-04 0.0000000000000000e+00  -6.0550811235018163e-06 4.9463201230798791e-04 0.0000000000000000e+00  5.6080704626902596e-07 4.6786780133944620e-04 0.0000000000000000e+00  2.8634987412786647e-06 4.3823204185243546e-04 0.0000000000000000e+00  -3.9020070390319070e-07 4.1000786413227099e-04 0.0000000000000000e+00  -4.1108991276557078e-07 3.8752262769650941e-04 0.0000000000000000e+00  2.7172621654769355e-08 3.6577728317722550e-04 0.0000000000000000e+00  4.1419636176947609e-07 3.4372184856112567e-04 0.0000000000000000e+00  -1.3935844365819830e-07 3.2419428375347583e-04 0.0000000000000000e+00  7.0171134445698704e-07 3.0438360837721739e-04 0.0000000000000000e+00  -2.1070027546587335e-07 2.8646934199958308e-04 0.0000000000000000e+00  8.7923951996217202e-07 2.6860852519897935e-04 0.0000000000000000e+00  -1.7264804044187955e-06 2.5459974112950368e-04 0.0000000000000000e+00  8.3258772413745030e-06 2.3072231510259779e-04 0.0000000000000000e+00  -1.0456512837820994e-06 2.0969154515250582e-04 0.0000000000000000e+00  -7.7479803231280986e-08 2.0043064757792461e-04 0.0000000000000000e+00  2.9791511452225931e-07 1.8694985425237785e-04 0.0000000000000000e+00  -1.6808309648915936e-06 1.7735479066733939e-04 0.0000000000000000e+00  1.4342000295332894e-07 1.6873041245748699e-04 0.0000000000000000e+00  9.6525975561150497e-07 1.5657972684909969e-04 0.0000000000000000e+00  -7.3213314459958583e-07 1.4735719828093069e-04 0.0000000000000000e+00  2.8776027965564309e-06 1.3468138286122701e-04 0.0000000000000000e+00  -1.2254276395921043e-06 1.2570091622302542e-04 0.0000000000000000e+00  4.8847131728117768e-06 1.1263937026858591e-04 0.0000000000000000e+00  -4.7776203182145617e-07 1.0165995935198840e-04 0.0000000000000000e+00  -7.8468960755585910e-07 9.7051541439686071e-05 0.0000000000000000e+00  1.2780395314895330e-06 8.9157532077108705e-05 0.0000000000000000e+00  -6.5936097747964896e-06 8.7671976338210794e-05 0.0000000000000000e+00  -7.5145681123901846e-08 9.4474714835240809e-05 0.0000000000000000e+00  5.4267541047712106e-06 7.5261031295685671e-05 0.0000000000000000e+00  -3.8931112765072755e-07 6.6634757840754207e-05 0.0000000000000000e+00  -7.2987738518939076e-07 6.3706586441317412e-05 0.0000000000000000e+00  -1.0977609964834372e-07 5.9575934225179446e-05 0.0000000000000000e+00  1.1605052330234727e-06 5.3970382043391517e-05 0.0000000000000000e+00  -3.5584954741864804e-07 4.9490153457544403e-05 0.0000000000000000e+00  1.2941649600618988e-06 4.4745098107958944e-05 0.0000000000000000e+00  -1.9779426810630642e-07 4.0464394951145970e-05 0.0000000000000000e+00  4.7586168451581389e-07 3.7257597777857121e-05 0.0000000000000000e+00  -2.9260085487382119e-08 3.4118450204061172e-05 0.0000000000000000e+00  1.9761913422745056e-07 3.1559273716771803e-05 0.0000000000000000e+00  -6.6406267706252109e-08 2.9203775208596623e-05 0.0000000000000000e+00  5.0450933088131424e-07 2.6715693166031397e-05 0.0000000000000000e+00  -2.3499687418008388e-07 2.4747862390924018e-05 0.0000000000000000e+00  1.5039178764925954e-06 2.1789061933471644e-05 0.0000000000000000e+00  -2.6287312899528032e-08 1.9152735283516923e-05 0.0000000000000000e+00  -7.2518046568370205e-07 1.8871703739350759e-05 0.0000000000000000e+00  1.3042421466480139e-07 1.8531199298844737e-05 0.0000000000000000e+00  -2.1600396032958194e-07 1.7782649659974813e-05 0.0000000000000000e+00  5.9586526075168851e-08 1.7231427059616503e-05 0.0000000000000000e+00  -2.7959580532307871e-07 1.6761445827554434e-05 0.0000000000000000e+00  3.0941604823659688e-08 1.6590807857021945e-05 0.0000000000000000e+00  2.9646957513282445e-07 1.5581593296535817e-05 0.0000000000000000e+00  -9.1119174903402083e-08 1.4925263579704517e-05 0.0000000000000000e+00  6.4603923211596850e-07 1.3899817738256405e-05 0.0000000000000000e+00  2.0073459436232689e-08 1.2893507061200203e-05 0.0000000000000000e+00  -9.6960594185871253e-07 1.3612828623725522e-05 0.0000000000000000e+00  -2.5456884537422400e-07 1.5432336394491443e-05 0.0000000000000000e+00  5.7942622992639938e-07 1.1339263436737777e-05 0.0000000000000000e+00  8.8500819361244476e-08 1.2389416330117356e-05 0.0000000000000000e+00  -4.2563309590918286e-08 1.2062683497453911e-05 0.0000000000000000e+00  -1.4246513375367935e-08 1.2342956421938468e-05 0.0000000000000000e+00  -2.7852014531367698e-07 1.2079301396296407e-05 0.0000000000000000e+00  -2.5596003280377310e-07 1.3002596840574447e-05 0.0000000000000000e+00  6.2041710784686601e-07 9.1099584038262485e-06 0.0000000000000000e+00  1.5060137846063836e-07 9.7524434951302863e-06 0.0000000000000000e+00  -2.5884494837521369e-07 9.8085346471687630e-06 0.0000000000000000e+00  7.4443232418459444e-08 1.0001193826747056e-05 0.0000000000000000e+00  -7.1452695626106892e-08 9.9127433190053593e-06 0.0000000000000000e+00  -3.0029252286762605e-08 9.9711950232043287e-06 0.0000000000000000e+00  3.0462637675801130e-07 9.6169599373306904e-06 0.0000000000000000e+00  -2.2283938186888130e-07 9.2666031531691138e-06 0.0000000000000000e+00  -4.8961363532877367e-07 9.9692766296332344e-06 0.0000000000000000e+00  2.0857751646114323e-07 1.1060861743653134e-05 0.0000000000000000e+00  1.7194603309327045e-06 1.5100195740618343e-06 0.0000000000000000e+00  -7.2471287066643072e-07 -1.1598961254313051e-07 0.0000000000000000e+00  1.6091921934157783e-07 2.4359515989478046e-07 0.0000000000000000e+00  6.5222335937330958e-08 -4.0965492216982982e-07 0.0000000000000000e+00  5.9510188288066484e-09 -5.6406621466869776e-08 0.0000000000000000e+00  6.4116432098792987e-09 -1.0594704996805185e-07 0.0000000000000000e+00  1.2242947241117710e-08 -1.8559385881435828e-07 0.0000000000000000e+00  4.0993110367655700e-09 -1.2882632490443402e-07 0.0000000000000000e+00  9.1215268128796557e-09 -1.1356510659251156e-07 0.0000000000000000e+00  2.1494738232437137e-08 -1.3229773979629273e-07 0.0000000000000000e+00  -1.2799315444193239e-09 -1.7210254790072979e-07 0.0000000000000000e+00  -2.5705371987884534e-08 -1.2671439788740311e-07 0.0000000000000000e+00  -3.7299299228535016e-08 -1.6410083899099016e-07 0.0000000000000000e+00  -3.1544765315820360e-08 -1.7132643507819954e-07 0.0000000000000000e+00  -2.0246170974109564e-09 -1.2582783224604574e-07 0.0000000000000000e+00  1.6833788326757189e-08 -1.8497114921607899e-07 0.0000000000000000e+00  3.3798449832193317e-08 -2.1121709579889583e-07 0.0000000000000000e+00  2.3056536276349899e-08 -1.7337973809014345e-07 0.0000000000000000e+00  2.2282583064665729e-08 -1.5774149619356440e-07 0.0000000000000000e+00  1.8231701269307149e-08 -1.5901786500749827e-07 0.0000000000000000e+00  -3.9953932641837503e-09 -2.8610429906619761e-07 0.0000000000000000e+00  -5.7007440855641512e-08 -2.1268161574353924e-07 0.0000000000000000e+00  -6.7497886232787573e-08 -1.8793619711580086e-07 0.0000000000000000e+00  -4.9660213676787293e-08 -2.3646404020678693e-07 0.0000000000000000e+00  -7.9314669273290994e-08 5.2824085903736212e-08 0.0000000000000000e+00  -1.4911014874329113e-07 -1.3889358903644160e-07 0.0000000000000000e+00  -3.1998745692902148e-07 -6.1937473049132630e-07 0.0000000000000000e+00  -3.3814505596169767e-09 -4.4128253768103491e-07 0.0000000000000000e+00  -1.6534829410001811e-07 -6.0370056397834155e-07 0.0000000000000000e+00  1.2611556128792978e-07 -6.0889496140901097e-07 0.0000000000000000e+00  -7.5631885590299165e-09 -7.9228617506447377e-07 0.0000000000000000e+00  1.3215286481395014e-08 -7.2139085732173113e-07 0.0000000000000000e+00  4.4504145765594623e-08 -8.0525451995659075e-07 0.0000000000000000e+00  4.6030751038129235e-08 -8.1896100039229505e-07 0.0000000000000000e+00  9.3026519712775368e-09 -8.8241766388585578e-07 0.0000000000000000e+00  1.1998500283319005e-07 -9.1776601325277335e-07 0.0000000000000000e+00  8.2456322054040355e-08 -9.6215473107142699e-07 0.0000000000000000e+00  7.3487850575768066e-08 -9.5856199083496188e-07 0.0000000000000000e+00  3.8865568554073239e-07 -8.7608457825645535e-07 0.0000000000000000e+00  1.8759482239062189e-07 -9.0757341105347754e-07 0.0000000000000000e+00  3.1076272831710664e-07 -8.7480130089258768e-07 0.0000000000000000e+00  2.6690588153881803e-07 -9.3406518454461836e-07 0.0000000000000000e+00  3.8425959975561882e-07 -9.4219129330384324e-07 0.0000000000000000e+00  3.7932794361282537e-07 -9.5110772566255166e-07 0.0000000000000000e+00  4.9719504811871401e-07 -9.2343656914390551e-07 0.0000000000000000e+00  4.6368090605816823e-07 -8.7147047183942381e-07 0.0000000000000000e+00  6.9914789574352319e-07 -7.7301314970444871e-07 0.0000000000000000e+00  6.2558155541205696e-07 -7.3148062691500991e-07 0.0000000000000000e+00  7.6899613400372421e-07 -6.5904827860565033e-07 0.0000000000000000e+00  6.9834496458231556e-07 -6.0629464872825212e-07 0.0000000000000000e+00  7.5012815663395216e-07 -5.9922239822460778e-07 0.0000000000000000e+00  9.8777512554283945e-07 -5.1363167667930715e-07 0.0000000000000000e+00  1.0240684462460584e-06 -3.4021467877852273e-07 0.0000000000000000e+00  9.5381924752703567e-07 -2.6760060495944413e-07 0.0000000000000000e+00  1.1224402015529593e-06 -9.6700003075327497e-08 0.0000000000000000e+00  1.1429425001907651e-06 3.3251781592355416e-09 0.0000000000000000e+00  1.1460612579413144e-06 1.9198024458978434e-07 0.0000000000000000e+00  1.1379586169873321e-06 2.5966992241782598e-07 0.0000000000000000e+00  1.1890671156482487e-06 4.2569535883588605e-07 0.0000000000000000e+00  1.1785419063184852e-06 5.6077282450132194e-07 0.0000000000000000e+00  1.1690824714822233e-06 7.3626999296029971e-07 0.0000000000000000e+00  1.1699351112479913e-06 9.0916448280861188e-07 0.0000000000000000e+00  1.1148751446695930e-06 1.1103160181144954e-06 0.0000000000000000e+00  1.0606282563178117e-06 1.3150297893355126e-06 0.0000000000000000e+00  1.0388403138749551e-06 1.5719488514237706e-06 0.0000000000000000e+00  9.2651225330613118e-07 1.7275167440848019e-06 0.0000000000000000e+00  4.2541616762493225e-07 1.8073536585411186e-06 0.0000000000000000e+00  4.3855695395346527e-07 1.7948810461952877e-06 0.0000000000000000e+00  2.8159011057684352e-07 1.8219316955212293e-06 0.0000000000000000e+00  1.8806434843672810e-07 1.9122929652478525e-06 0.0000000000000000e+00  -1.4148299870880529e-07 1.9728709089787594e-06 0.0000000000000000e+00  -2.4432960066626378e-07 2.0459787420058256e-06 0.0000000000000000e+00  -5.5963232527893277e-07 2.1184137540946699e-06 0.0000000000000000e+00  -7.7204310037098523e-07 2.2049336480261508e-06 0.0000000000000000e+00  -1.0542480171446029e-06 2.3504765403820578e-06 0.0000000000000000e+00  -1.1667984818591395e-06 2.4719601586302991e-06 0.0000000000000000e+00  -1.4548684247070646e-06 2.7402708572019601e-06 0.0000000000000000e+00  -2.1645890873968569e-06 2.8069283178918290e-06 0.0000000000000000e+00  -2.7916205883974298e-06 2.6428212097999499e-06 0.0000000000000000e+00  -2.5047115099727975e-06 2.4522725668289022e-06 0.0000000000000000e+00  -2.9501048179132446e-06 2.5148649717631440e-06 0.0000000000000000e+00  -3.5893842821425000e-06 2.5528603567508548e-06 0.0000000000000000e+00  -4.2041937961945392e-06 2.3140981629590170e-06 0.0000000000000000e+00  -4.3868398932186224e-06 2.1057681902519417e-06 0.0000000000000000e+00  -4.6799293028492645e-06 1.9487813984569522e-06 0.0000000000000000e+00  -4.9078579523331313e-06 1.9005453406671888e-06 0.0000000000000000e+00  -5.2818695337328992e-06 1.7786605033389404e-06 0.0000000000000000e+00  -5.5619311865593436e-06 1.7031976696952726e-06 0.0000000000000000e+00  -5.9408225426482807e-06 1.5590549839806322e-06 0.0000000000000000e+00  -6.2326177435700768e-06 1.4761111143421990e-06 0.0000000000000000e+00  -6.5599618837624658e-06 1.3129247421819860e-06 0.0000000000000000e+00  -6.7714958818932421e-06 1.2201167329338112e-06 0.0000000000000000e+00  -7.0797865202968814e-06 1.0450904325851598e-06 0.0000000000000000e+00  -7.2929551289893736e-06 9.5238326579337917e-07 0.0000000000000000e+00  -7.5671743678912803e-06 8.1786673360778580e-07 0.0000000000000000e+00  -7.7681653413215523e-06 7.3376977200995127e-07 0.0000000000000000e+00  -7.9579848456733190e-06 5.9416189866882349e-07 0.0000000000000000e+00  -8.1089178038293790e-06 5.1516004029422743e-07 0.0000000000000000e+00  -8.2738409657646333e-06 3.7458167859905893e-07 0.0000000000000000e+00  -8.3713002324542068e-06 3.0396119188706421e-07 0.0000000000000000e+00  -8.4704062350180792e-06 1.8103438949390220e-07 0.0000000000000000e+00  -8.5014928671824834e-06 1.0468685719910203e-07 0.0000000000000000e+00  -8.5880599005983481e-06 9.8300424314145508e-09 0.0000000000000000e+00  -8.6294320302303788e-06 -7.1858862776648358e-08 0.0000000000000000e+00  -8.6276275980339014e-06 -1.6473310943020088e-07 0.0000000000000000e+00  -8.7134894415264613e-06 -2.5054031987014521e-07 0.0000000000000000e+00  -8.6269179513923448e-06 -3.3633654669016940e-07 0.0000000000000000e+00  -8.4036165125892851e-06 -1.6589186474047580e-07 0.0000000000000000e+00  -8.5267242438542429e-06 -2.9754284672154041e-07 0.0000000000000000e+00  -8.5189989572528237e-06 -3.8491758183121762e-07 0.0000000000000000e+00  -8.4300759788368362e-06 -4.1803307593179011e-07 0.0000000000000000e+00  -8.2347291312243011e-06 -3.6053093856699118e-07 0.0000000000000000e+00  -8.1445263952963453e-06 -5.0162477411045635e-07 0.0000000000000000e+00  -8.1421225278222416e-06 -6.4705414676444111e-07 0.0000000000000000e+00  -8.0119344394671594e-06 -6.7186228402776125e-07 0.0000000000000000e+00  -7.7984137916364897e-06 -6.4585932995612496e-07 0.0000000000000000e+00  -7.5921589464969829e-06 -6.5063070866544197e-07 0.0000000000000000e+00  -7.3780508799721100e-06 -5.8320181479376294e-07 0.0000000000000000e+00  -7.3359386174868010e-06 -6.4210065649758676e-07 0.0000000000000000e+00  -7.2065469496036223e-06 -6.8202793400944621e-07 0.0000000000000000e+00  -7.0287941565531861e-06 -6.9404533203809018e-07 0.0000000000000000e+00  -6.8414980642282460e-06 -6.9986987747008567e-07 0.0000000000000000e+00  -6.6831206786261033e-06 -7.3515932732114092e-07 0.0000000000000000e+00  -6.5194524205127580e-06 -7.6356802406527896e-07 0.0000000000000000e+00  -6.3221959386863759e-06 -8.0872690408532624e-07 0.0000000000000000e+00  -6.1442342650651356e-06 -8.5430599128857189e-07 0.0000000000000000e+00  -5.8764160527933857e-06 -9.1693226060372642e-07 0.0000000000000000e+00  -5.6889401479832722e-06 -9.9315598169547944e-07 0.0000000000000000e+00  -5.4877024074728383e-06 -8.9508750382572689e-07 0.0000000000000000e+00  -5.1049477428545070e-06 -6.9218286399544805e-07 0.0000000000000000e+00  -5.1424185330869364e-06 -6.8604879854208569e-07 0.0000000000000000e+00  -4.8969017195846091e-06 -4.7781918588331998e-07 0.0000000000000000e+00  -4.7075049221530844e-06 -6.5946957134958431e-07 0.0000000000000000e+00  -4.6200039225737855e-06 -7.6148491099612645e-07 0.0000000000000000e+00  -4.4304550645809492e-06 -7.1519909910163894e-07 0.0000000000000000e+00  -4.1595494508676186e-06 -6.6499212205333586e-07 0.0000000000000000e+00  -3.9886444238750843e-06 -6.6314770460804852e-07 0.0000000000000000e+00  -3.7751975766385853e-06 -6.4585987548792238e-07 0.0000000000000000e+00  -3.6153482987735816e-06 -6.3586495922398280e-07 0.0000000000000000e+00  -3.4143597628097307e-06 -6.288618330