<?xml version="1.0"?>
<VTKFile type="UnstructuredGrid"  version="0.1"  >
<UnstructuredGrid>
<Piece  NumberOfPoints="1691" NumberOfCells="3204">
<Points>
<DataArray  type="Float64"  NumberOfComponents="3"  format="ascii">0 0 0  30 0 0  30 -10 0  0 -10 0  0.1391574078963744 0 0  0.2856388821882616 0 0  0.4398299073010886 0 0  0.6021362569539473 0 0  0.7729850389704483 0 0  0.9528258543586996 0 0  1.142131984380316 0 0  1.34140159760994 0 0  1.551159074717981 0 0  1.771956417032531 0 0  2.004374674080994 0 0  2.249025475789527 0 0  2.506552636773105 0 0  2.777633857742732 0 0  3.062982518028728 0 0  3.363349525995907 0 0  3.679525322337712 0 0  4.01234195575742 0 0  4.362675247811097 0 0  4.731447135329707 0 0  5.119628065610077 0 0  5.528239565804708 0 0  5.958356943167011 0 0  6.411112081475485 0 0  6.887696441559404 0 0  7.389364184530748 0 0  7.917435485335147 0 0  8.473300005202017 0 0  9.058420557070402 0 0  9.674336929103793 0 0  10.32266995225095 0 0  11.00512576896296 0 0  11.72350030646412 0 0  12.47968402994705 0 0  13.27566689579597 0 0  14.1135435963616 0 0  14.9955190732806 0 0  15.92391430904694 0 0  16.90117245730496 0 0  17.92986524844506 0 0  19.01269976086341 0 0  20.15252556282024 0 0  21.35234220269763 0 0  22.61530708683689 0 0  23.94474379751883 0 0  25.34415086349739 0 0  26.81721093579712 0 0  28.3678004819169 0 0  30 -1.111111111111111 0  30 -2.222222222222222 0  30 -3.333333333333333 0  30 -4.444444444444445 0  30 -5.555555555555555 0  30 -6.666666666666666 0  30 -7.777777777777777 0  30 -8.888888888888889 0  28.36780047917311 -10 0  26.8172109305839 -10 0  25.34415085606858 -10 0  23.94474378810899 -10 0  22.61530707566275 -10 0  21.3523421899591 -10 0  20.15252554870171 -10 0  19.01269974553473 -10 0  17.92986523206254 -10 0  16.90117244001232 -10 0  15.92391429097614 -10 0  14.99551905455266 -10 0  14.11354357708742 -10 0  13.27566687607703 -10 0  12.47968400987599 -10 0  11.72350028612546 -10 0  11.00512574843363 -10 0  10.32266993160086 -10 0  9.674336908396342 -10 0  9.058420536362949 -10 0  8.473299984546333 -10 0  7.917435464777824 -10 0  7.389364164113587 -10 0  6.887696420787165 -10 0  6.411112061446698 -10 0  5.95835692337857 -10 0  5.528239546282652 -10 0  5.119628046377237 -10 0  4.731447115907979 -10 0  4.362675229213632 -10 0  4.012341937260036 -10 0  3.679525304434552 -10 0  3.363349508456405 -10 0  3.062982500861274 -10 0  2.777633840953978 -10 0  2.506552620368097 -10 0  2.249025459771861 -10 0  2.004374658452946 -10 0  1.771956401795187 -10 0  1.551159059871345 -10 0  1.341401583153029 -10 0  1.142131970307521 -10 0  0.9528258406748833 -10 0  0.7729850256685147 -10 0  0.6021362439621285 -10 0  0.4398298947504031 -10 0  0.2856388700059078 -10 0  0.1391573960769001 -10 0  0 -9.855072463768115 0  0 -9.710144927536232 0  0 -9.565217391304348 0  0 -9.420289855072463 0  0 -9.27536231884058 0  0 -9.130434782608695 0  0 -8.985507246376812 0  0 -8.840579710144928 0  0 -8.695652173913043 0  0 -8.55072463768116 0  0 -8.405797101449275 0  0 -8.260869565217391 0  0 -8.115942028985508 0  0 -7.971014492753623 0  0 -7.826086956521739 0  0 -7.681159420289855 0  0 -7.536231884057971 0  0 -7.391304347826087 0  0 -7.246376811594203 0  0 -7.101449275362318 0  0 -6.956521739130435 0  0 -6.811594202898551 0  0 -6.666666666666667 0  0 -6.521739130434783 0  0 -6.376811594202898 0  0 -6.231884057971015 0  0 -6.086956521739131 0  0 -5.942028985507246 0  0 -5.797101449275362 0  0 -5.652173913043478 0  0 -5.507246376811594 0  0 -5.36231884057971 0  0 -5.217391304347826 0  0 -5.072463768115941 0  0 -4.927536231884058 0  0 -4.782608695652174 0  0 -4.637681159420289 0  0 -4.492753623188406 0  0 -4.347826086956522 0  0 -4.202898550724638 0  0 -4.057971014492754 0  0 -3.913043478260869 0  0 -3.768115942028985 0  0 -3.623188405797101 0  0 -3.478260869565217 0  0 -3.333333333333334 0  0 -3.188405797101449 0  0 -3.043478260869565 0  0 -2.898550724637681 0  0 -2.753623188405797 0  0 -2.608695652173912 0  0 -2.463768115942029 0  0 -2.318840579710145 0  0 -2.173913043478261 0  0 -2.028985507246377 0  0 -1.884057971014492 0  0 -1.739130434782609 0  0 -1.594202898550725 0  0 -1.44927536231884 0  0 -1.304347826086957 0  0 -1.159420289855072 0  0 -1.014492753623188 0  0 -0.8695652173913047 0  0 -0.72463768115942 0  0 -0.579710144927537 0  0 -0.4347826086956523 0  0 -0.2898550724637676 0  0 -0.1449275362318829 0  0.1309460514202492 -4.990980414828784 0  0.1171526873513358 -5.869565217391296 0  0.1344252986967795 -6.716855800502001 0  0.1221309018586645 -4.161899358592938 0  0.1166997684017801 -3.25954604704229 0  4.961569127360256 -0.3118894787216622 0  4.923897360678746 -9.687537149351071 0  0.1228405945134021 -2.536958536012416 0  0.1335945686177435 -7.466846676638523 0  3.206461751753455 -0.2806173508164562 0  3.213166004658842 -9.746377676274168 0  0.1155250883680452 -8.186784073011673 0  0.1359204609538445 -1.804202625344072 0  6.662432263484016 -9.600124945047963 0  6.631056521209421 -0.3942868763482545 0  2.126700074935258 -0.2065769621215452 0  2.120437876630353 -9.808537401472012 0  8.761385473272522 -9.4914222957189 0  8.786076048231736 -0.4923064159810888 0  0.1195911345135556 -8.749677128895598 0  0.1117474302775605 -1.230589418769438 0  11.3907841305612 -9.402816705944797 0  11.36435727088349 -0.618365439918426 0  1.211504568109637 -0.1471532661956818 0  1.239596144827807 -9.832618358594059 0  13.75158625181508 -9.315497816134139 0  13.7500399625954 -0.6902569910160397 0  0.131402377539402 -3.696772604078816 0  0.1204853385030979 -6.307560917781178 0  0.1346483804691658 -4.550944754283819 0  0.1255109280847009 -5.434782608695652 0  16.39894095075685 -9.180198571581517 0  16.44068234362399 -0.8166544577416346 0  0.1255109280847009 -0.7971014492753632 0  0.1162877148651766 -9.206770243020259 0  19.56645066956165 -9.043742294716539 0  29.11731382843969 -5.098539983867493 0  19.50527862123305 -0.9323941524176265 0  23.28904960561395 -8.8608997858633 0  0.6875606479622149 -0.1442604037134076 0  0.6875606348153145 -9.855739596611892 0  23.37074358394081 -1.15131614182933 0  10.00852704311311 -9.475417469395781 0  10.01049631493635 -0.5545437343697674 0  7.639131123468924 -9.543000896765111 0  7.693537846067955 -0.4574302764599576 0  5.733194300659633 -9.66079268774309 0  5.731454990332523 -0.3687808037058806 0  3.803630689980224 -9.686555789708486 0  3.834043646352164 -0.2754981925697493 0  2.618022704128803 -9.787800068206256 0  2.634320277618269 -0.2392104743186785 0  1.65952286941916 -9.813294854785646 0  1.665360553377539 -0.1820878093930922 0  0.1365068028365961 -1.543352471920677 0  0.1128108295274224 -8.471115901500411 0  0.1249192863256123 -0.5070564851587012 0  0.1172626025927563 -9.49200175151447 0  0.1255109280847009 -2.101449275362318 0  0.1255109280847009 -7.898550724637682 0  0.1247535864599936 -2.824177050114505 0  0.1155424837078822 -7.17494363557847 0  26.05192393553612 -8.777856070543081 0  26.00031291598836 -1.159065252957426 0  0.3627343947446455 -0.1301950113519217 0  0.3690141220077834 -9.868919517536135 0  28.90574865438674 -7.135369011630129 0  29.02069681040884 -2.861993939893059 0  0.1397555488250113 -0.2163338956475025 0  0.1255109280847009 -9.782608695652172 0  24.67098979274125 -8.799958058548517 0  23.93395881668722 -7.700959994796646 0  22.61396570077244 -7.764517377391733 0  23.2032949615693 -6.630776985250927 0  21.94857473380583 -6.690613342424633 0  24.50398505507967 -6.535933305198952 0  22.51489076809043 -5.580432145971667 0  21.29537841406989 -5.639199768252479 0  21.84985259542567 -4.547213342284197 0  20.65342988351128 -4.619546679988924 0  20.11277906893955 -5.663225279336593 0  19.49454290958806 -4.673886314669294 0  18.97860072994828 -5.624185949902217 0  18.40383886642446 -4.729683279047542 0  17.90575400337286 -5.630456854950327 0  17.35903168001753 -4.836859475002379 0  16.91444903556046 -5.680257663405808 0  16.36114434035519 -4.898890029095359 0  15.89440836794127 -5.835214594829282 0  15.41608945577568 -4.979845093198404 0  14.9809818125648 -5.732909169427192 0  14.51777858619734 -4.988431190461874 0  14.14039496103406 -5.776391085527889 0  13.67321261031888 -5.031745046943032 0  13.26988611760758 -5.891550007816156 0  12.85732927991246 -5.095735823822261 0  12.46423889659403 -5.760519953635332 0  12.07741841933393 -5.116608846746942 0  11.73131647445202 -5.75987862647932 0  11.35222911621012 -5.158061768105265 0  11.01225658271747 -5.784828178519854 0  10.65393216495117 -5.205808407572067 0  10.33042159780337 -5.788944717060055 0  9.98551374198097 -5.24118342090078 0  9.687616112021921 -5.812725728827915 0  9.357518717034999 -5.284717467130579 0  9.08157001076583 -5.820057568121996 0  8.766199932316585 -5.320212662582848 0  8.494748056481422 -5.830095453943056 0  8.194406727465122 -5.347802431655208 0  7.942610344706003 -5.833678024304247 0  7.660825631728443 -5.380025954369014 0  7.416702921751611 -5.83684433397813 0  7.147290851157173 -5.413787279190068 0  6.91632006965034 -5.851605397483334 0  6.658527053286988 -5.437627383845131 0  6.441897327469297 -5.862220684948111 0  6.194860224019926 -5.464520225953867 0  5.988748643021736 -5.866336295550595 0  5.755042825355586 -5.482399938780632 0  5.555770501455733 -5.867908174086599 0  5.334991086231989 -5.504761241472904 0  5.145076642106908 -5.873191062890511 0  4.935013388047023 -5.544035964184449 0  4.754345788811499 -5.880090917794126 0  4.554437025256316 -5.569020251233177 0  4.382470744799432 -5.88665007327689 0  4.192208958329529 -5.585677590398814 0  4.029485566904095 -5.896175760774888 0  4.354949258143058 -5.270074521138358 0  4.004482386201769 -5.289207815434526 0  4.158655721068861 -4.98145486433833 0  3.821444856080801 -5.001169872115685 0  3.97033944278737 -4.700814034221719 0  3.642688047138773 -4.720140385706738 0  3.788830742180677 -4.426816067812119 0  3.467446796449556 -4.450112744784491 0  3.325275354457695 -4.730293981808933 0  3.158439978631689 -4.466074367009679 0  3.294707394527546 -4
[...]
<PointData  Vectors="flow"> 
<DataArray  type="Float64"  Name="flow"  NumberOfComponents="3" format="ascii">3.4672899229990303e-04 6.0060647526814356e-03 0.0000000000000000e+00  1.3663449185023728e-05 6.1069515480027459e-05 0.0000000000000000e+00  -1.3804418621042797e-06 -2.3119192188770313e-06 0.0000000000000000e+00  -1.2132057437857512e-07 -5.4367166194781563e-06 0.0000000000000000e+00  -2.6069684481574163e-05 6.1915324663052562e-03 0.0000000000000000e+00  -1.1362526758119120e-04 6.0867917092219609e-03 0.0000000000000000e+00  8.9792716543634415e-05 5.7057173392050598e-03 0.0000000000000000e+00  -7.5242819903769375e-06 5.0529854109036326e-03 0.0000000000000000e+00  2.2977912018934766e-05 4.7056336306680307e-03 0.0000000000000000e+00  -6.8635953538807778e-05 4.8277393339346683e-03 0.0000000000000000e+00  3.1614116884867087e-05 5.3743705768756096e-03 0.0000000000000000e+00  4.6423004203374193e-05 5.8254758332717486e-03 0.0000000000000000e+00  -4.0102772600451101e-05 5.9558067294745902e-03 0.0000000000000000e+00  5.7247295137861601e-05 5.5612934800056369e-03 0.0000000000000000e+00  -1.5785317961288559e-06 5.0807581550583389e-03 0.0000000000000000e+00  -1.5673661171768157e-05 4.6210294509980779e-03 0.0000000000000000e+00  4.4208729225634021e-05 3.9862460482920983e-03 0.0000000000000000e+00  8.9665843951942622e-05 3.3971017182153705e-03 0.0000000000000000e+00  -6.3121740759769247e-05 3.0806596447744100e-03 0.0000000000000000e+00  -5.4899360930222695e-06 2.6574010880030872e-03 0.0000000000000000e+00  1.0851324325975017e-05 2.3128046111852542e-03 0.0000000000000000e+00  -4.5965585813019158e-05 1.9978835273230162e-03 0.0000000000000000e+00  1.4903320986787378e-05 1.7016799143487625e-03 0.0000000000000000e+00  2.3401865939795816e-05 1.4749476992820621e-03 0.0000000000000000e+00  -6.0781412049856942e-06 1.2677392993901324e-03 0.0000000000000000e+00  8.1157667594988191e-06 1.1139511012677559e-03 0.0000000000000000e+00  4.0992135636791847e-06 9.6477626956409249e-04 0.0000000000000000e+00  -8.7792179648288906e-08 8.1363873999636322e-04 0.0000000000000000e+00  2.9323341508708591e-05 6.7482597521963800e-04 0.0000000000000000e+00  -1.7594538633605994e-05 5.9873980496807900e-04 0.0000000000000000e+00  1.5759249026980902e-06 5.1233670984853147e-04 0.0000000000000000e+00  3.5391469953361878e-06 4.3243104973489789e-04 0.0000000000000000e+00  3.7792998667414436e-06 3.6403356969205269e-04 0.0000000000000000e+00  1.6811502695409906e-07 3.1159368962642675e-04 0.0000000000000000e+00  2.1254737705023411e-06 2.6496074360792178e-04 0.0000000000000000e+00  1.8199449673352206e-06 2.2227834910956067e-04 0.0000000000000000e+00  3.6896512896774679e-08 1.8287829885370156e-04 0.0000000000000000e+00  8.0675144981468341e-06 1.4883941963506615e-04 0.0000000000000000e+00  -6.2425983258059687e-06 1.3404510673773739e-04 0.0000000000000000e+00  1.1158862732342127e-06 1.1836908769639445e-04 0.0000000000000000e+00  5.8510473927818565e-09 1.0566612486883915e-04 0.0000000000000000e+00  2.1291017193303882e-06 9.3857169711927704e-05 0.0000000000000000e+00  1.9020064642764973e-06 8.4358810226134266e-05 0.0000000000000000e+00  4.5496530479025237e-07 7.6861512580106393e-05 0.0000000000000000e+00  1.6574885163465918e-07 7.3957071949734185e-05 0.0000000000000000e+00  -4.4803556427970497e-06 7.1667933449686962e-05 0.0000000000000000e+00  1.4964242374307079e-06 5.5944754343455571e-05 0.0000000000000000e+00  1.6631640771459459e-06 6.2188854672998574e-05 0.0000000000000000e+00  -5.5538710961323009e-07 6.0061788673906035e-05 0.0000000000000000e+00  -7.4416006917392366e-08 5.6798331974041031e-05 0.0000000000000000e+00  3.3848837858162170e-06 5.1990894568085049e-05 0.0000000000000000e+00  -9.7538699062384565e-06 5.5694236640043782e-05 0.0000000000000000e+00  3.7417787530702849e-06 3.6336854950616340e-06 0.0000000000000000e+00  -1.7388856226685236e-07 -2.8271860825858198e-06 0.0000000000000000e+00  -1.6137393307693899e-06 -6.4819388248879448e-07 0.0000000000000000e+00  1.5461872639296263e-06 -3.3753210123049641e-06 0.0000000000000000e+00  -1.2176380681937628e-06 -1.2866325653950896e-06 0.0000000000000000e+00  -1.0154384636819556e-08 -3.4849221987334841e-06 0.0000000000000000e+00  4.6640213349352470e-07 -1.5047770403299552e-06 0.0000000000000000e+00  1.5340344421534662e-08 -4.2659571186529379e-06 0.0000000000000000e+00  9.9883111756675689e-09 -4.4138967193036205e-06 0.0000000000000000e+00  -1.3240446935851503e-08 -6.0045276278544218e-06 0.0000000000000000e+00  3.9260791093339966e-08 -6.9285380870349871e-06 0.0000000000000000e+00  1.1919448808128447e-06 -7.4224926026948513e-06 0.0000000000000000e+00  2.8012718435751453e-06 -7.3582777060836298e-06 0.0000000000000000e+00  2.7041073398349328e-06 -7.1152709548231667e-06 0.0000000000000000e+00  3.5446217389771264e-06 -6.0427721907826450e-06 0.0000000000000000e+00  6.0666431161376706e-06 -5.4181788941881141e-06 0.0000000000000000e+00  7.1476076747230719e-06 -5.2940029210930554e-06 0.0000000000000000e+00  8.3625025486195677e-06 -4.7133414192407215e-06 0.0000000000000000e+00  1.0304013286817394e-05 -3.5523077612695525e-06 0.0000000000000000e+00  1.1805030504550855e-05 -2.2537698851118302e-06 0.0000000000000000e+00  1.3059241447353792e-05 -5.8022840269436699e-07 0.0000000000000000e+00  1.3934286186554392e-05 1.0940961106883010e-06 0.0000000000000000e+00  1.3242129191434914e-05 3.5414534713453368e-06 0.0000000000000000e+00  1.4212897952419847e-05 5.0696226520103280e-06 0.0000000000000000e+00  1.1158455993626732e-05 8.7205925412344366e-06 0.0000000000000000e+00  6.3507723136555053e-06 1.0102367402019767e-05 0.0000000000000000e+00  4.9620851330960047e-07 1.0280076012702588e-05 0.0000000000000000e+00  -3.7604890702211885e-06 1.1565290794068806e-05 0.0000000000000000e+00  -1.1322980387765226e-05 1.2552206150669167e-05 0.0000000000000000e+00  -2.0735137375196929e-05 1.3503711410139632e-05 0.0000000000000000e+00  -2.9686943060991861e-05 1.3517196017679381e-05 0.0000000000000000e+00  -3.8788128842239207e-05 1.2059573792437562e-05 0.0000000000000000e+00  -5.2300424379900352e-05 1.1290875995751998e-05 0.0000000000000000e+00  -6.2915239585829383e-05 1.0234924829034842e-05 0.0000000000000000e+00  -7.1805444971937329e-05 7.6199172321243651e-06 0.0000000000000000e+00  -7.8413675269003281e-05 5.8276577587806768e-06 0.0000000000000000e+00  -8.5049256488664433e-05 4.5433681945301503e-06 0.0000000000000000e+00  -9.1911111688229027e-05 3.0292434376309816e-06 0.0000000000000000e+00  -9.6553892692484002e-05 1.9550754421266909e-06 0.0000000000000000e+00  -9.9565908712084529e-05 8.6023559480939365e-07 0.0000000000000000e+00  -1.0004931335661922e-04 -1.0636238080680329e-06 0.0000000000000000e+00  -9.9177386349297690e-05 -1.5691727476618949e-06 0.0000000000000000e+00  -9.6239635680995809e-05 -2.4953962625052213e-06 0.0000000000000000e+00  -9.2717685140531684e-05 -3.4859944921164404e-06 0.0000000000000000e+00  -8.7938711974971123e-05 -3.8876104249752462e-06 0.0000000000000000e+00  -8.2011850941515573e-05 -4.2024498340774518e-06 0.0000000000000000e+00  -7.5362865138034035e-05 -4.9055724524201018e-06 0.0000000000000000e+00  -6.8572805295538173e-05 -5.3228295611301755e-06 0.0000000000000000e+00  -6.0990494616470195e-05 -5.1690195081994441e-06 0.0000000000000000e+00  -5.2743388431521580e-05 -5.5270339511776607e-06 0.0000000000000000e+00  -4.5135869610427458e-05 -5.6106515863653463e-06 0.0000000000000000e+00  -3.6743372066077353e-05 -5.5780174951716684e-06 0.0000000000000000e+00  -2.9807733815600123e-05 -5.4913541945353419e-06 0.0000000000000000e+00  -2.1884272627342823e-05 -4.5443651741744644e-06 0.0000000000000000e+00  -1.4037016661055239e-05 -4.2712014020127433e-06 0.0000000000000000e+00  -7.7813642578124613e-06 -4.1402338730488790e-06 0.0000000000000000e+00  -3.1798230223969304e-07 -2.0340761866607384e-05 0.0000000000000000e+00  -8.8350898480133972e-07 -3.6163493288908872e-05 0.0000000000000000e+00  -1.1816956281328182e-06 -4.5569958047732405e-05 0.0000000000000000e+00  -1.5292413711331760e-06 -4.8188511719476709e-05 0.0000000000000000e+00  -1.6980300824164911e-06 -4.6728925873321253e-05 0.0000000000000000e+00  -2.0264039601878644e-06 -4.2935043318037194e-05 0.0000000000000000e+00  -1.9656161804126348e-06 -3.7837054674623902e-05 0.0000000000000000e+00  -2.0478396987068442e-06 -3.1719750445394078e-05 0.0000000000000000e+00  -1.9182107329357873e-06 -2.6357020637991304e-05 0.0000000000000000e+00  -1.6738371184162999e-06 -2.0484926656982016e-05 0.0000000000000000e+00  -1.6690728413814821e-06 -1.5155692451560252e-05 0.0000000000000000e+00  -1.7827767618364524e-06 -9.5564078582895472e-06 0.0000000000000000e+00  -1.7467198266713673e-06 -3.6886737044603902e-06 0.0000000000000000e+00  -1.7048073439006197e-06 1.5768610309735765e-06 0.0000000000000000e+00  -1.7649351323814295e-06 6.9598667715303213e-06 0.0000000000000000e+00  -1.7204465279575106e-06 1.2440460421660094e-05 0.0000000000000000e+00  -1.8919692226124709e-06 1.7603393473751656e-05 0.0000000000000000e+00  -1.8089505895473865e-06 2.3615820657595414e-05 0.0000000000000000e+00  -1.8857695610791425e-06 2.9229235143837660e-05 0.0000000000000000e+00  -2.0639624025103503e-06 3.5924911862050593e-05 0.0000000000000000e+00  -2.4249773151842763e-06 4.2534018538106701e-05 0.0000000000000000e+00  -1.9473568123956527e-06 4.9189643439212216e-05 0.0000000000000000e+00  -2.9322121915740384e-06 5.7122921771131510e-05 0.0000000000000000e+00  -2.4006970717508949e-06 6.3989584259461666e-05 0.0000000000000000e+00  -2.7005853737419088e-06 7.1784504718863399e-05 0.0000000000000000e+00  -2.9783324323906332e-06 8.0552709490082838e-05 0.0000000000000000e+00  -3.1577719698769192e-06 8.9755294656016150e-05 0.0000000000000000e+00  -3.5481990321583249e-06 9.9564207239725906e-05 0.0000000000000000e+00  -3.6907854432499761e-06 1.1107515045204392e-04 0.0000000000000000e+00  -3.9297775918025143e-06 1.2210953566382985e-04 0.0000000000000000e+00  -4.3537073822390473e-06 1.3512242609976837e-04 0.0000000000000000e+00  -4.8578898839526566e-06 1.5042030775581927e-04 0.0000000000000000e+00  -7.0303677653447360e-06 1.6432358950636705e-04 0.0000000000000000e+00  -6.5952948736769230e-06 1.8067276823494936e-04 0.0000000000000000e+00  -7.3940381597268126e-06 2.0395263819224525e-04 0.0000000000000000e+00  -9.6380004695497445e-06 2.2256856354908668e-04 0.0000000000000000e+00  -8.7832442597059187e-06 2.4910634325374181e-04 0.0000000000000000e+00  -9.6533308302752948e-06 2.7550206699558367e-04 0.0000000000000000e+00  -9.2769158076072366e-06 3.0573103606956764e-04 0.0000000000000000e+00  -1.4469333465715447e-05 3.4057698186732631e-04 0.0000000000000000e+00  -1.4286756534569493e-05 3.7650703920747401e-04 0.0000000000000000e+00  -1.9328656828329799e-05 4.3204288972875079e-04 0.0000000000000000e+00  -2.2264837319572146e-05 4.7775269441416713e-04 0.0000000000000000e+00  -2.0908436082052031e-05 5.4984080628138899e-04 0.0000000000000000e+00  -2.3804867501622428e-05 6.1939054657205459e-04 0.0000000000000000e+00  -3.0213822367210662e-05 7.0652844185585745e-04 0.0000000000000000e+00  -3.8862670265819973e-05 8.1458171695589600e-04 0.0000000000000000e+00  -4.0272280622862048e-05 9.5161922394253553e-04 0.0000000000000000e+00  -4.9666884486780375e-05 1.1004079242240782e-03 0.0000000000000000e+00  -7.4849468445724188e-05 1.2989532387657247e-03 0.0000000000000000e+00  -1.0129343896802878e-04 1.5547811320003606e-03 0.0000000000000000e+00  -1.1869500555545792e-04 1.8911421607102430e-03 0.0000000000000000e+00  -1.5940053971945221e-04 2.2942420361015976e-03 0.0000000000000000e+00  -2.3319070966735196e-04 2.8937248932114075e-03 0.0000000000000000e+00  -3.7564805116495521e-04 3.7205399024185385e-03 0.0000000000000000e+00  -3.7976976903303958e-04 4.9346887603228581e-03 0.0000000000000000e+00  -6.4102700466162662e-04 6.8327903230763955e-03 0.0000000000000000e+00  -7.9461741692331256e-04 7.5941807553403275e-03 0.0000000000000000e+00  -7.1679124087978567e-04 4.7628334245819514e-03 0.0000000000000000e+00  -2.6308819826564216e-04 -6.1740723180593983e-03 0.0000000000000000e+00  3.6968421266437017e-04 -2.2277475362585793e-02 0.0000000000000000e+00  2.9576223845848259e-04 -3.3206288602108627e-02 0.0000000000000000e+00  5.1564726592572799e-04 -2.8542509180486519e-02 0.0000000000000000e+00  7.5302617535633932e-04 -1.0575640516473266e-02 0.0000000000000000e+00  5.2093802703857611e-04 8.3601210514092274e-03 0.0000000000000000e+00  7.1614374455136178e-04 1.7080050389238016e-02 0.0000000000000000e+00  5.9908650176641995e-04 1.4582237850288459e-02 0.0000000000000000e+00  5.7994598083500502e-04 8.8506526999042219e-03 0.0000000000000000e+00  -1.5572129715608137e-05 1.9238485652764035e-04 0.0000000000000000e+00  -8.1777158194168024e-06 1.0488812983143544e-04 0.0000000000000000e+00  -6.6324872459856404e-06 5.3496520574268856e-05 0.0000000000000000e+00  -2.8995790721323988e-05 3.5289630937952992e-04 0.0000000000000000e+00  -7.6294687164925708e-05 7.5978832461348698e-04 0.0000000000000000e+00  1.2717145073238336e-04 9.9160239945549132e-04 0.0000000000000000e+00  -8.0435499877647181e-05 1.4073045460660775e-05 0.0000000000000000e+00  -2.2584561210049991e-04 1.6760193278421934e-03 0.0000000000000000e+00  -5.0060804462158170e-06 2.0178109357555532e-05 0.0000000000000000e+00  3.6061700208597780e-04 2.0276444427603638e-03 0.0000000000000000e+00  -9.7700033363662435e-05 -4.2031652471134902e-06 0.0000000000000000e+00  -3.7795418590570090e-06 -6.6173970173538396e-06 0.0000000000000000e+00  -1.7141681287257508e-03 5.3089620616654492e-03 0.0000000000000000e+00  -4.4457511227858066e-05 2.6523948709891435e-05 0.0000000000000000e+00  8.3238894279473815e-05 5.1130824251953541e-04 0.0000000000000000e+00  4.8200575183735445e-04 3.9119831447561185e-03 0.0000000000000000e+00  -8.3829984644553297e-05 -1.3526809581546218e-05 0.0000000000000000e+00  -8.6063178450676452e-06 2.3869249298901199e-05 0.0000000000000000e+00  4.4244998534255036e-05 2.2601171160698718e-04 0.0000000000000000e+00  -3.7857375550654909e-06 -2.8667598187202543e-05 0.0000000000000000e+00  -3.7079881148845426e-03 -1.3645325600047596e-02 0.0000000000000000e+00  1.0122680226525996e-05 9.9390247726757990e-06 0.0000000000000000e+00  2.2482485505775041e-05 9.7468767836166606e-05 0.0000000000000000e+00  -3.3387016720655492e-04 5.0847280414425839e-03 0.0000000000000000e+00  -5.6410593322756110e-05 -1.8301154213042350e-05 0.0000000000000000e+00  1.1941506903762702e-05 5.5888592742998976e-07 0.0000000000000000e+00  1.2271497122401319e-05 5.5807932579369796e-05 0.0000000000000000e+00  -5.5140946629069495e-05 5.0785825273988450e-04 0.0000000000000000e+00  -6.7905545319254879e-06 7.6204155613279536e-05 0.0000000000000000e+00  -2.3581650480498096e-05 2.6034641705067346e-04 0.0000000000000000e+00  -1.0526362109525506e-05 1.3975836353358697e-04 0.0000000000000000e+00  8.5207425034735187e-06 -4.6316791142369840e-06 0.0000000000000000e+00  4.6992350755671217e-06 3.3078925382016041e-05 0.0000000000000000e+00  5.3225805599340604e-03 -2.0083353128439820e-02 0.0000000000000000e+00  -4.3943773826944325e-06 -4.4781384040002623e-05 0.0000000000000000e+00  4.6188461153165932e-06 -6.4043132028312892e-06 0.0000000000000000e+00  2.8022562725187979e-07 -1.4961000491558012e-06 0.0000000000000000e+00  2.2750580973024767e-06 2.1314254710512972e-05 0.0000000000000000e+00  2.0008421025190881e-06 -5.1538535840949584e-06 0.0000000000000000e+00  3.7011071451789601e-04 5.1846905963108866e-03 0.0000000000000000e+00  -3.2846117113785226e-05 -1.6430560238635225e-05 0.0000000000000000e+00  6.4998267411452220e-07 1.1358960789237997e-05 0.0000000000000000e+00  1.6907147690822878e-06 1.8214138115733465e-05 0.0000000000000000e+00  3.3763596957827620e-05 1.4393980147525879e-04 0.0000000000000000e+00  -2.6552208865333353e-05 2.7027830757380986e-05 0.0000000000000000e+00  6.4654091041038391e-05 3.1333567519439690e-04 0.0000000000000000e+00  -6.6393698977324587e-05 1.9343354438313993e-05 0.0000000000000000e+00  1.0902217866262415e-04 6.6214288360260417e-04 0.0000000000000000e+00  -9.5841425191368516e-05 3.2421965538676152e-06 0.0000000000000000e+00  2.2641176911092578e-04 1.6194099026166540e-03 0.0000000000000000e+00  -9.3758835980636623e-05 -9.6396617357579954e-06 0.0000000000000000e+00  4.2485109903560699e-04 3.0084510851630815e-03 0.0000000000000000e+00  -7.1358783261693193e-05 -1.6694512872177930e-05 0.0000000000000000e+00  2.3607004866579558e-04 4.8045128698278785e-03 0.0000000000000000e+00  -3.6077732524748812e-03 6.4914297742109679e-03 0.0000000000000000e+00  -3.6317486521927942e-06 -1.7797824270296853e-05 0.0000000000000000e+00  4.2588441468621504e-03 1.3196387818472601e-02 0.0000000000000000e+00  -5.0225900269816646e-06 -4.7359449596254511e-05 0.0000000000000000e+00  -5.7833200746014663e-04 3.1393382068193808e-03 0.0000000000000000e+00  -4.4069655617823715e-06 4.5182753397107344e-06 0.0000000000000000e+00  -1.5264554941333582e-04 1.1888490582875563e-03 0.0000000000000000e+00  -4.5882554743698483e-06 3.2476480902344705e-05 0.0000000000000000e+00  9.6010180258586971e-07 -3.7774997908634647e-06 0.0000000000000000e+00  1.1498423130127646e-06 1.5681907457165158e-05 0.0000000000000000e+00  2.4210636152314900e-04 7.0499694874355491e-03 0.0000000000000000e+00  -1.8030155090015566e-05 -1.7886604471488517e-05 0.0000000000000000e+00  1.8891785433672717e-07 -1.8799058531079308e-06 0.0000000000000000e+00  -5.9645372404742112e-07 2.8947441333042859e-06 0.0000000000000000e+00  3.6487896875891365e-04 1.1401778433270376e-02 0.0000000000000000e+00  -6.0572184017387274e-06 -2.9937852408174239e-05 0.0000000000000000e+00  8.1171389986501071e-07 -4.9002316910478362e-06 0.0000000000000000e+00  1.4385736732760220e-06 -2.8224518937727900e-06 0.0000000000000000e+00  2.6982769941919849e-06 -2.6960524634655559e-06 0.0000000000000000e+00  1.6004214724062530e-06 -2.3355546977077748e-06 0.0000000000000000e+00  2.7726056254183774e-06 -1.9108085504903155e-06 0.0000000000000000e+00  1.6230992107840424e-06 -2.0196063857127404e-06 0.0000000000000000e+00  1.9641691280535270e-06 -2.7162681320796933e-06 0.0000000000000000e+00  2.9873931984343018e-06 -1.8067853540308613e-06 0.0000000000000000e+00  1.6811307321613589e-06 -2.5037311845947602e-06 0.0000000000000000e+00  2.9234059763394742e-06 -2.2075378643340179e-06 0.0000000000000000e+00  4.0205369206806316e-06 -1.1808184759253473e-06 0.0000000000000000e+00  4.3404921750983739e-06 -1.9684787616405863e-06 0.0000000000000000e+00  4.1902712549241880e-06 -1.0820460572433431e-06 0.0000000000000000e+00  4.2349094743855298e-06 -1.2938539706073270e-06 0.0000000000000000e+00  4.5535199481030149e-06 -9.3203442384025411e-07 0.0000000000000000e+00  5.0414047415535435e-06 -7.6350637895924417e-08 0.0000000000000000e+00  6.1159339555573746e-06 -4.3724078952890105e-07 0.0000000000000000e+00  7.1376473405007941e-06 3.1228623735626027e-07 0.0000000000000000e+00  6.9610079270405555e-06 -4.3770190473204408e-07 0.0000000000000000e+00  7.1971650705640257e-06 -2.7492819757745223e-07 0.0000000000000000e+00  7.3275966092824015e-06 -6.0920519791152459e-07 0.0000000000000000e+00  7.6172216865845830e-06 -8.2746413242093316e-07 0.0000000000000000e+00  7.9078861280738628e-06 -2.3273443052295906e-07 0.0000000000000000e+00  7.9588924088065801e-06 -9.4350699598429772e-07 0.0000000000000000e+00  7.1621522132265135e-06 -4.2647427531912149e-07 0.0000000000000000e+00  7.6161054649560327e-06 -1.9163153700345359e-06 0.0000000000000000e+00  6.3940596933406704e-06 -1.3402219390429824e-06 0.0000000000000000e+00  7.3047623709386730e-06 -3.7788424425829299e-06 0.0000000000000000e+00  6.0553119279978548e-06 -2.1438124995475884e-06 0.0000000000000000e+00  6.7123363197555451e-06 -4.9085478643237814e-06 0.0000000000000000e+00  4.9288260359096353e-06 -3.5422198742035810e-06 0.0000000000000000e+00  5.0977891709299753e-06 -6.3042733197450970e-06 0.0000000000000000e+00  1.7096719047004510e-06 -5.5022076392725692e-06 0.0000000000000000e+00  1.7346247771570182e-06 -8.9300553999476697e-06 0.0000000000000000e+00  -2.2006208893503180e-06 -7.37