<?xml version="1.0"?>
<VTKFile type="UnstructuredGrid"  version="0.1"  >
<UnstructuredGrid>
<Piece  NumberOfPoints="1691" NumberOfCells="3204">
<Points>
<DataArray  type="Float64"  NumberOfComponents="3"  format="ascii">0 0 0  30 0 0  30 -10 0  0 -10 0  0.1391574078963744 0 0  0.2856388821882616 0 0  0.4398299073010886 0 0  0.6021362569539473 0 0  0.7729850389704483 0 0  0.9528258543586996 0 0  1.142131984380316 0 0  1.34140159760994 0 0  1.551159074717981 0 0  1.771956417032531 0 0  2.004374674080994 0 0  2.249025475789527 0 0  2.506552636773105 0 0  2.777633857742732 0 0  3.062982518028728 0 0  3.363349525995907 0 0  3.679525322337712 0 0  4.01234195575742 0 0  4.362675247811097 0 0  4.731447135329707 0 0  5.119628065610077 0 0  5.528239565804708 0 0  5.958356943167011 0 0  6.411112081475485 0 0  6.887696441559404 0 0  7.389364184530748 0 0  7.917435485335147 0 0  8.473300005202017 0 0  9.058420557070402 0 0  9.674336929103793 0 0  10.32266995225095 0 0  11.00512576896296 0 0  11.72350030646412 0 0  12.47968402994705 0 0  13.27566689579597 0 0  14.1135435963616 0 0  14.9955190732806 0 0  15.92391430904694 0 0  16.90117245730496 0 0  17.92986524844506 0 0  19.01269976086341 0 0  20.15252556282024 0 0  21.35234220269763 0 0  22.61530708683689 0 0  23.94474379751883 0 0  25.34415086349739 0 0  26.81721093579712 0 0  28.3678004819169 0 0  30 -1.111111111111111 0  30 -2.222222222222222 0  30 -3.333333333333333 0  30 -4.444444444444445 0  30 -5.555555555555555 0  30 -6.666666666666666 0  30 -7.777777777777777 0  30 -8.888888888888889 0  28.36780047917311 -10 0  26.8172109305839 -10 0  25.34415085606858 -10 0  23.94474378810899 -10 0  22.61530707566275 -10 0  21.3523421899591 -10 0  20.15252554870171 -10 0  19.01269974553473 -10 0  17.92986523206254 -10 0  16.90117244001232 -10 0  15.92391429097614 -10 0  14.99551905455266 -10 0  14.11354357708742 -10 0  13.27566687607703 -10 0  12.47968400987599 -10 0  11.72350028612546 -10 0  11.00512574843363 -10 0  10.32266993160086 -10 0  9.674336908396342 -10 0  9.058420536362949 -10 0  8.473299984546333 -10 0  7.917435464777824 -10 0  7.389364164113587 -10 0  6.887696420787165 -10 0  6.411112061446698 -10 0  5.95835692337857 -10 0  5.528239546282652 -10 0  5.119628046377237 -10 0  4.731447115907979 -10 0  4.362675229213632 -10 0  4.012341937260036 -10 0  3.679525304434552 -10 0  3.363349508456405 -10 0  3.062982500861274 -10 0  2.777633840953978 -10 0  2.506552620368097 -10 0  2.249025459771861 -10 0  2.004374658452946 -10 0  1.771956401795187 -10 0  1.551159059871345 -10 0  1.341401583153029 -10 0  1.142131970307521 -10 0  0.9528258406748833 -10 0  0.7729850256685147 -10 0  0.6021362439621285 -10 0  0.4398298947504031 -10 0  0.2856388700059078 -10 0  0.1391573960769001 -10 0  0 -9.855072463768115 0  0 -9.710144927536232 0  0 -9.565217391304348 0  0 -9.420289855072463 0  0 -9.27536231884058 0  0 -9.130434782608695 0  0 -8.985507246376812 0  0 -8.840579710144928 0  0 -8.695652173913043 0  0 -8.55072463768116 0  0 -8.405797101449275 0  0 -8.260869565217391 0  0 -8.115942028985508 0  0 -7.971014492753623 0  0 -7.826086956521739 0  0 -7.681159420289855 0  0 -7.536231884057971 0  0 -7.391304347826087 0  0 -7.246376811594203 0  0 -7.101449275362318 0  0 -6.956521739130435 0  0 -6.811594202898551 0  0 -6.666666666666667 0  0 -6.521739130434783 0  0 -6.376811594202898 0  0 -6.231884057971015 0  0 -6.086956521739131 0  0 -5.942028985507246 0  0 -5.797101449275362 0  0 -5.652173913043478 0  0 -5.507246376811594 0  0 -5.36231884057971 0  0 -5.217391304347826 0  0 -5.072463768115941 0  0 -4.927536231884058 0  0 -4.782608695652174 0  0 -4.637681159420289 0  0 -4.492753623188406 0  0 -4.347826086956522 0  0 -4.202898550724638 0  0 -4.057971014492754 0  0 -3.913043478260869 0  0 -3.768115942028985 0  0 -3.623188405797101 0  0 -3.478260869565217 0  0 -3.333333333333334 0  0 -3.188405797101449 0  0 -3.043478260869565 0  0 -2.898550724637681 0  0 -2.753623188405797 0  0 -2.608695652173912 0  0 -2.463768115942029 0  0 -2.318840579710145 0  0 -2.173913043478261 0  0 -2.028985507246377 0  0 -1.884057971014492 0  0 -1.739130434782609 0  0 -1.594202898550725 0  0 -1.44927536231884 0  0 -1.304347826086957 0  0 -1.159420289855072 0  0 -1.014492753623188 0  0 -0.8695652173913047 0  0 -0.72463768115942 0  0 -0.579710144927537 0  0 -0.4347826086956523 0  0 -0.2898550724637676 0  0 -0.1449275362318829 0  0.1309460514202492 -4.990980414828784 0  0.1171526873513358 -5.869565217391296 0  0.1344252986967795 -6.716855800502001 0  0.1221309018586645 -4.161899358592938 0  0.1166997684017801 -3.25954604704229 0  4.961569127360256 -0.3118894787216622 0  4.923897360678746 -9.687537149351071 0  0.1228405945134021 -2.536958536012416 0  0.1335945686177435 -7.466846676638523 0  3.206461751753455 -0.2806173508164562 0  3.213166004658842 -9.746377676274168 0  0.1155250883680452 -8.186784073011673 0  0.1359204609538445 -1.804202625344072 0  6.662432263484016 -9.600124945047963 0  6.631056521209421 -0.3942868763482545 0  2.126700074935258 -0.2065769621215452 0  2.120437876630353 -9.808537401472012 0  8.761385473272522 -9.4914222957189 0  8.786076048231736 -0.4923064159810888 0  0.1195911345135556 -8.749677128895598 0  0.1117474302775605 -1.230589418769438 0  11.3907841305612 -9.402816705944797 0  11.36435727088349 -0.618365439918426 0  1.211504568109637 -0.1471532661956818 0  1.239596144827807 -9.832618358594059 0  13.75158625181508 -9.315497816134139 0  13.7500399625954 -0.6902569910160397 0  0.131402377539402 -3.696772604078816 0  0.1204853385030979 -6.307560917781178 0  0.1346483804691658 -4.550944754283819 0  0.1255109280847009 -5.434782608695652 0  16.39894095075685 -9.180198571581517 0  16.44068234362399 -0.8166544577416346 0  0.1255109280847009 -0.7971014492753632 0  0.1162877148651766 -9.206770243020259 0  19.56645066956165 -9.043742294716539 0  29.11731382843969 -5.098539983867493 0  19.50527862123305 -0.9323941524176265 0  23.28904960561395 -8.8608997858633 0  0.6875606479622149 -0.1442604037134076 0  0.6875606348153145 -9.855739596611892 0  23.37074358394081 -1.15131614182933 0  10.00852704311311 -9.475417469395781 0  10.01049631493635 -0.5545437343697674 0  7.639131123468924 -9.543000896765111 0  7.693537846067955 -0.4574302764599576 0  5.733194300659633 -9.66079268774309 0  5.731454990332523 -0.3687808037058806 0  3.803630689980224 -9.686555789708486 0  3.834043646352164 -0.2754981925697493 0  2.618022704128803 -9.787800068206256 0  2.634320277618269 -0.2392104743186785 0  1.65952286941916 -9.813294854785646 0  1.665360553377539 -0.1820878093930922 0  0.1365068028365961 -1.543352471920677 0  0.1128108295274224 -8.471115901500411 0  0.1249192863256123 -0.5070564851587012 0  0.1172626025927563 -9.49200175151447 0  0.1255109280847009 -2.101449275362318 0  0.1255109280847009 -7.898550724637682 0  0.1247535864599936 -2.824177050114505 0  0.1155424837078822 -7.17494363557847 0  26.05192393553612 -8.777856070543081 0  26.00031291598836 -1.159065252957426 0  0.3627343947446455 -0.1301950113519217 0  0.3690141220077834 -9.868919517536135 0  28.90574865438674 -7.135369011630129 0  29.02069681040884 -2.861993939893059 0  0.1397555488250113 -0.2163338956475025 0  0.1255109280847009 -9.782608695652172 0  24.67098979274125 -8.799958058548517 0  23.93395881668722 -7.700959994796646 0  22.61396570077244 -7.764517377391733 0  23.2032949615693 -6.630776985250927 0  21.94857473380583 -6.690613342424633 0  24.50398505507967 -6.535933305198952 0  22.51489076809043 -5.580432145971667 0  21.29537841406989 -5.639199768252479 0  21.84985259542567 -4.547213342284197 0  20.65342988351128 -4.619546679988924 0  20.11277906893955 -5.663225279336593 0  19.49454290958806 -4.673886314669294 0  18.97860072994828 -5.624185949902217 0  18.40383886642446 -4.729683279047542 0  17.90575400337286 -5.630456854950327 0  17.35903168001753 -4.836859475002379 0  16.91444903556046 -5.680257663405808 0  16.36114434035519 -4.898890029095359 0  15.89440836794127 -5.835214594829282 0  15.41608945577568 -4.979845093198404 0  14.9809818125648 -5.732909169427192 0  14.51777858619734 -4.988431190461874 0  14.14039496103406 -5.776391085527889 0  13.67321261031888 -5.031745046943032 0  13.26988611760758 -5.891550007816156 0  12.85732927991246 -5.095735823822261 0  12.46423889659403 -5.760519953635332 0  12.07741841933393 -5.116608846746942 0  11.73131647445202 -5.75987862647932 0  11.35222911621012 -5.158061768105265 0  11.01225658271747 -5.784828178519854 0  10.65393216495117 -5.205808407572067 0  10.33042159780337 -5.788944717060055 0  9.98551374198097 -5.24118342090078 0  9.687616112021921 -5.812725728827915 0  9.357518717034999 -5.284717467130579 0  9.08157001076583 -5.820057568121996 0  8.766199932316585 -5.320212662582848 0  8.494748056481422 -5.830095453943056 0  8.194406727465122 -5.347802431655208 0  7.942610344706003 -5.833678024304247 0  7.660825631728443 -5.380025954369014 0  7.416702921751611 -5.83684433397813 0  7.147290851157173 -5.413787279190068 0  6.91632006965034 -5.851605397483334 0  6.658527053286988 -5.437627383845131 0  6.441897327469297 -5.862220684948111 0  6.194860224019926 -5.464520225953867 0  5.988748643021736 -5.866336295550595 0  5.755042825355586 -5.482399938780632 0  5.555770501455733 -5.867908174086599 0  5.334991086231989 -5.504761241472904 0  5.145076642106908 -5.873191062890511 0  4.935013388047023 -5.544035964184449 0  4.754345788811499 -5.880090917794126 0  4.554437025256316 -5.569020251233177 0  4.382470744799432 -5.88665007327689 0  4.192208958329529 -5.585677590398814 0  4.029485566904095 -5.896175760774888 0  4.354949258143058 -5.270074521138358 0  4.004482386201769 -5.289207815434526 0  4.158655721068861 -4.98145486433833 0  3.821444856080801 -5.001169872115685 0  3.97033944278737 -4.700814034221719 0  3.642688047138773 -4.720140385706738 0  3.788830742180677 -4.426816067812119 0  3.467446796449556 -4.450112744784491 0  3.325275354457695 -4.730293981808933 0  3.158439978631689 -4.466074367009679 0  3.294707394527546 -4
[...]
<PointData  Vectors="flow"> 
<DataArray  type="Float64"  Name="flow"  NumberOfComponents="3" format="ascii">-5.6080205385936868e-04 -9.1356855785674398e-03 0.0000000000000000e+00  1.4991966039258861e-05 5.3136804282998383e-05 0.0000000000000000e+00  -2.1162466840136831e-06 -1.7841779102485971e-06 0.0000000000000000e+00  1.7273130258658619e-06 -1.2716209806462705e-05 0.0000000000000000e+00  5.6200573365132564e-04 -2.2828464903858706e-03 0.0000000000000000e+00  -6.0245478903472210e-04 -1.4396795584905222e-03 0.0000000000000000e+00  -1.3540670724389357e-04 5.3460555144022460e-04 0.0000000000000000e+00  3.4455642062513318e-04 3.9913990351680200e-03 0.0000000000000000e+00  -5.0893206831792404e-04 8.6624204449968160e-03 0.0000000000000000e+00  9.9132837530716748e-05 1.1838136370351525e-02 0.0000000000000000e+00  1.6303500988869935e-06 1.3019325150629750e-02 0.0000000000000000e+00  5.5273074807610820e-04 1.1755374421707730e-02 0.0000000000000000e+00  -2.3751902678885195e-04 1.0583686588614432e-02 0.0000000000000000e+00  1.3334503503723398e-04 8.8476552949529330e-03 0.0000000000000000e+00  1.7333233588149144e-05 7.5130574737312626e-03 0.0000000000000000e+00  1.8616759904881522e-05 6.4926754017789520e-03 0.0000000000000000e+00  5.4700379040120324e-05 5.3302602318303950e-03 0.0000000000000000e+00  2.4630883162733209e-04 4.1781189846962948e-03 0.0000000000000000e+00  -1.4638873689664441e-04 3.6945843062329100e-03 0.0000000000000000e+00  5.5459523820247022e-06 3.1855409465992878e-03 0.0000000000000000e+00  1.1843569999534553e-05 2.7451842723772379e-03 0.0000000000000000e+00  -1.2619917345294004e-04 2.4065724823094576e-03 0.0000000000000000e+00  6.1396859606383937e-05 1.8628800298660195e-03 0.0000000000000000e+00  3.1007522289389190e-05 1.6598501363556605e-03 0.0000000000000000e+00  -2.3090188625233650e-06 1.4089130488688217e-03 0.0000000000000000e+00  2.8592939868876628e-05 1.2073236619016723e-03 0.0000000000000000e+00  1.9108101159794250e-06 1.0204339019805528e-03 0.0000000000000000e+00  -1.4136352222538970e-06 8.4910523370678402e-04 0.0000000000000000e+00  4.5733366170375079e-05 6.7268583038879116e-04 0.0000000000000000e+00  -2.3428436119759403e-05 5.8566385808031475e-04 0.0000000000000000e+00  2.1200442544897437e-06 5.1397762703811467e-04 0.0000000000000000e+00  5.7634922549508623e-06 4.3127130975272726e-04 0.0000000000000000e+00  6.1078949457825570e-06 3.5421722647298375e-04 0.0000000000000000e+00  1.5586039621674037e-06 2.9548174179202380e-04 0.0000000000000000e+00  3.1268149519994959e-06 2.4733220905092025e-04 0.0000000000000000e+00  2.1552216536475133e-06 2.0535092823535103e-04 0.0000000000000000e+00  8.6109037344504223e-09 1.6634954958986398e-04 0.0000000000000000e+00  8.9900696253765383e-06 1.3012046520922323e-04 0.0000000000000000e+00  -6.0496758265393280e-06 1.1598505360497244e-04 0.0000000000000000e+00  6.7442868741513417e-07 1.0531053596735186e-04 0.0000000000000000e+00  2.9944013944036281e-07 9.4097821332994310e-05 0.0000000000000000e+00  2.8182157649240786e-06 8.1476411034902651e-05 0.0000000000000000e+00  2.0951485843513884e-06 7.1760594010918528e-05 0.0000000000000000e+00  5.1120690859267545e-07 6.4347394154781783e-05 0.0000000000000000e+00  6.6002228873219602e-07 6.1462760997434341e-05 0.0000000000000000e+00  -6.0057732278220054e-06 6.3771965324184028e-05 0.0000000000000000e+00  2.7812623343456533e-06 4.4919005295949675e-05 0.0000000000000000e+00  1.8913232556232682e-06 5.1390647805019345e-05 0.0000000000000000e+00  -6.7291126017677252e-07 4.8871348484819194e-05 0.0000000000000000e+00  -4.4206300378171757e-07 4.7528486024296827e-05 0.0000000000000000e+00  3.5294338201223580e-06 4.2343829275286445e-05 0.0000000000000000e+00  -1.0382439591737614e-05 4.7669027635849318e-05 0.0000000000000000e+00  1.0622386040431972e-06 -3.2910265389427810e-06 0.0000000000000000e+00  -7.5752508966931278e-06 2.6440764148594818e-06 0.0000000000000000e+00  1.3993310241327631e-06 -4.0979520720098351e-06 0.0000000000000000e+00  -1.2687976499057504e-06 -6.1894372359364994e-07 0.0000000000000000e+00  -2.1991053826958948e-06 -1.4887264892453095e-06 0.0000000000000000e+00  1.3789962036179856e-06 -2.2901077145898912e-06 0.0000000000000000e+00  -1.8432829570108877e-06 -6.8753028344467116e-07 0.0000000000000000e+00  -2.4878542660130399e-06 -3.0724370489514939e-06 0.0000000000000000e+00  -8.0658111774748777e-07 -5.3434194240245450e-06 0.0000000000000000e+00  2.6986572990025381e-07 -7.2274437733428289e-06 0.0000000000000000e+00  -9.6840809395215793e-07 -9.8699450436088881e-06 0.0000000000000000e+00  1.4572462038250704e-06 -1.0056290902663532e-05 0.0000000000000000e+00  1.5268379667692779e-06 -1.0729325585247399e-05 0.0000000000000000e+00  2.3564700197718507e-06 -1.1247606522514329e-05 0.0000000000000000e+00  2.3985083397348081e-06 -1.0779211062101649e-05 0.0000000000000000e+00  4.7446255029764975e-06 -1.0581356665095191e-05 0.0000000000000000e+00  5.2904257611913278e-06 -9.9378336946792251e-06 0.0000000000000000e+00  6.5416582838724032e-06 -8.3768942931935629e-06 0.0000000000000000e+00  7.8631525994632720e-06 -6.5374201990889956e-06 0.0000000000000000e+00  9.3219366809971066e-06 -3.9270189228293525e-06 0.0000000000000000e+00  1.0400299167503239e-05 -6.9103153878469808e-07 0.0000000000000000e+00  1.1246307284525389e-05 3.6458169074339345e-06 0.0000000000000000e+00  1.1563836744247330e-05 8.9937884035332578e-06 0.0000000000000000e+00  9.8726903208274783e-06 1.3518903799766935e-05 0.0000000000000000e+00  1.2289303135618448e-05 1.8246623237603532e-05 0.0000000000000000e+00  2.6420174591271962e-06 2.0378220566784476e-05 0.0000000000000000e+00  2.8048391266009699e-06 2.3942346666796332e-05 0.0000000000000000e+00  -1.8419251755623427e-06 2.6027020852580056e-05 0.0000000000000000e+00  -6.4794194510913276e-06 2.7143431687933603e-05 0.0000000000000000e+00  -1.3928947573557918e-05 3.0379962626816761e-05 0.0000000000000000e+00  -2.1175767003738490e-05 3.0508519763199121e-05 0.0000000000000000e+00  -2.7417835606357425e-05 3.0807499169235377e-05 0.0000000000000000e+00  -3.7121278946289149e-05 2.9445297093941171e-05 0.0000000000000000e+00  -4.9393019101111229e-05 2.7645543705510427e-05 0.0000000000000000e+00  -5.3543133854011973e-05 2.2260413662625381e-05 0.0000000000000000e+00  -5.7815936617354327e-05 1.7179394270997448e-05 0.0000000000000000e+00  -6.3467073100964457e-05 1.3291497915636968e-05 0.0000000000000000e+00  -6.8104697250347368e-05 1.0253621048083906e-05 0.0000000000000000e+00  -7.3336162620327825e-05 6.0945326680421926e-06 0.0000000000000000e+00  -7.5343325359628061e-05 1.8836587228659288e-06 0.0000000000000000e+00  -7.4925769906124170e-05 -1.2933582167938811e-07 0.0000000000000000e+00  -7.4389268550191534e-05 -3.8683218501480361e-06 0.0000000000000000e+00  -7.4211428859208899e-05 -6.5825330690510986e-06 0.0000000000000000e+00  -6.8758440421860814e-05 -8.8004972217777353e-06 0.0000000000000000e+00  -6.5656403381938634e-05 -1.0333000708030625e-05 0.0000000000000000e+00  -6.2107421916297154e-05 -1.1315865895923642e-05 0.0000000000000000e+00  -5.7551730463993368e-05 -1.2636255648760473e-05 0.0000000000000000e+00  -5.1425784059595579e-05 -1.3767997862305733e-05 0.0000000000000000e+00  -4.5507678960037772e-05 -1.4018467822436582e-05 0.0000000000000000e+00  -3.9553856208965441e-05 -1.4734433331361021e-05 0.0000000000000000e+00  -3.5447485554161021e-05 -1.4655970711527203e-05 0.0000000000000000e+00  -2.6394329447839145e-05 -1.4570265342967553e-05 0.0000000000000000e+00  -2.0705493747947048e-05 -1.3812880631403217e-05 0.0000000000000000e+00  -1.5690207109136794e-05 -1.2278110429880431e-05 0.0000000000000000e+00  -1.1746386914155055e-05 -1.1012611995680105e-05 0.0000000000000000e+00  -7.3700571696248036e-06 -1.0387932536427048e-05 0.0000000000000000e+00  1.1540704253320054e-06 -2.7729396469473068e-05 0.0000000000000000e+00  -1.4175417344447488e-07 -3.7289029432106459e-05 0.0000000000000000e+00  -6.0990142761924638e-07 -4.1988916811025554e-05 0.0000000000000000e+00  -1.6065385221741654e-06 -4.1747295783822245e-05 0.0000000000000000e+00  -1.5571186734088568e-06 -3.6703852328528086e-05 0.0000000000000000e+00  -1.3414644712899717e-06 -3.4308667874886679e-05 0.0000000000000000e+00  -8.8242928741213876e-07 -2.8592273165954588e-05 0.0000000000000000e+00  -1.5774762969414150e-06 -2.3470474740352641e-05 0.0000000000000000e+00  -6.8849386660094324e-07 -1.9427831988127303e-05 0.0000000000000000e+00  -9.2802797065792170e-07 -1.6115977577836427e-05 0.0000000000000000e+00  -1.1046249861487153e-06 -1.1713875957354477e-05 0.0000000000000000e+00  -1.1292287533528516e-06 -8.3791104494121849e-06 0.0000000000000000e+00  -1.3662462458393519e-06 -3.4247787571555336e-06 0.0000000000000000e+00  -9.6330070478467350e-07 1.1973714424973188e-06 0.0000000000000000e+00  -1.1210929440658170e-06 3.6928407650629256e-06 0.0000000000000000e+00  -1.1547669636164179e-06 8.3300887895441610e-06 0.0000000000000000e+00  -1.2404562311639807e-06 1.0478324650224733e-05 0.0000000000000000e+00  -1.6844570780399574e-06 1.6452207943964136e-05 0.0000000000000000e+00  -1.2252131280437701e-06 1.9857896557503002e-05 0.0000000000000000e+00  -1.6036198283314399e-06 2.4040294161146508e-05 0.0000000000000000e+00  -1.7439565185194851e-06 2.9434701541703527e-05 0.0000000000000000e+00  -1.0502373090326271e-06 3.5181203254153560e-05 0.0000000000000000e+00  -2.8356331425317425e-06 4.0109244888774520e-05 0.0000000000000000e+00  -1.0261096747098580e-06 4.4143739172040851e-05 0.0000000000000000e+00  -1.3438935687078270e-06 5.1572862011974313e-05 0.0000000000000000e+00  -2.1857659067793898e-06 5.5427627066202562e-05 0.0000000000000000e+00  -2.2749066274844008e-06 6.3390680936150064e-05 0.0000000000000000e+00  -2.3486055366922576e-06 6.8557616001008477e-05 0.0000000000000000e+00  -2.9969522167408643e-06 7.7338543016955305e-05 0.0000000000000000e+00  -2.6877498788037572e-06 8.7387230195362441e-05 0.0000000000000000e+00  -3.7269118337429956e-06 9.4713997497835144e-05 0.0000000000000000e+00  -6.8123570827161115e-06 1.0618287625147666e-04 0.0000000000000000e+00  -5.3917884117574086e-06 1.1232963203028466e-04 0.0000000000000000e+00  -2.6769700945530529e-06 1.2913642139172682e-04 0.0000000000000000e+00  -7.3271757713571999e-06 1.4590543817953589e-04 0.0000000000000000e+00  -4.2982863584795162e-06 1.5520877358651421e-04 0.0000000000000000e+00  -7.0471347092229952e-06 1.7606807721423537e-04 0.0000000000000000e+00  -8.6793063265191240e-06 1.9801959404333003e-04 0.0000000000000000e+00  -8.0699870038469984e-06 2.1412906068102682e-04 0.0000000000000000e+00  -1.0332993040159465e-05 2.3370009494407893e-04 0.0000000000000000e+00  -8.6393919274968279e-06 2.6636861434479689e-04 0.0000000000000000e+00  -1.9365652425418800e-05 3.0221076733265398e-04 0.0000000000000000e+00  -9.4503419853069106e-06 3.3152673861195123e-04 0.0000000000000000e+00  -1.5117891590569604e-05 3.8341848082042846e-04 0.0000000000000000e+00  -1.5523098736147388e-05 4.2981813090812787e-04 0.0000000000000000e+00  -1.8711162290837891e-05 4.9405929757219001e-04 0.0000000000000000e+00  -2.4480023781368025e-05 5.5284685484481252e-04 0.0000000000000000e+00  -2.8414266976853866e-05 6.4176132356094043e-04 0.0000000000000000e+00  -3.0944707585700245e-05 7.6170965605949813e-04 0.0000000000000000e+00  -4.9228105120778093e-05 8.9158504380752593e-04 0.0000000000000000e+00  -6.5039523857766436e-05 1.0313914564060909e-03 0.0000000000000000e+00  -8.1476309294809617e-05 1.2314794626605513e-03 0.0000000000000000e+00  -9.8777338114864753e-05 1.4955267619891756e-03 0.0000000000000000e+00  -1.3644383340514541e-04 1.8187030027275455e-03 0.0000000000000000e+00  -1.9147140769625612e-04 2.2385627717220729e-03 0.0000000000000000e+00  -1.5569709114380290e-04 2.8216353650686241e-03 0.0000000000000000e+00  -3.9236532753277135e-04 3.8003529066060978e-03 0.0000000000000000e+00  -6.8798182937571627e-04 4.9509446216609004e-03 0.0000000000000000e+00  -8.4930859498228925e-04 6.6258534461449536e-03 0.0000000000000000e+00  -1.5182798592491050e-03 1.1437403673034599e-02 0.0000000000000000e+00  -6.3802321703398009e-03 1.4310348964016157e-02 0.0000000000000000e+00  -3.5746686064799969e-03 3.0750682940618272e-02 0.0000000000000000e+00  -1.2035662078205101e-02 -2.2394779572763444e-02 0.0000000000000000e+00  8.9861354193574595e-03 -1.0915783732579305e-01 0.0000000000000000e+00  7.9216868892301607e-03 -8.9975812730393637e-02 0.0000000000000000e+00  2.3875169067177054e-02 4.7918812864105514e-02 0.0000000000000000e+00  -8.2094357499143903e-03 8.1457937356728988e-02 0.0000000000000000e+00  -6.9385390862865021e-04 4.2924122251323813e-03 0.0000000000000000e+00  -1.2019638201240779e-05 1.3922094494477549e-04 0.0000000000000000e+00  -5.7033151876352902e-06 7.2425536696877856e-05 0.0000000000000000e+00  -5.4046164127479002e-06 3.8494507965276891e-05 0.0000000000000000e+00  -2.0215175455490874e-05 2.4511642106143629e-04 0.0000000000000000e+00  -5.5339352263861472e-05 5.2261329943734548e-04 0.0000000000000000e+00  1.3944797473556682e-04 7.3740015958019751e-04 0.0000000000000000e+00  -5.8041425191131167e-05 1.6776555136444951e-05 0.0000000000000000e+00  -1.5254328094901532e-04 1.0987389053948640e-03 0.0000000000000000e+00  -3.3653609803687176e-06 1.3065185867310747e-05 0.0000000000000000e+00  4.6081753867419756e-04 1.6579698333452457e-03 0.0000000000000000e+00  -7.1566022040624763e-05 -3.9209930939772978e-06 0.0000000000000000e+00  -2.4250231247800332e-06 -5.9591685141399751e-06 0.0000000000000000e+00  -7.8428888692515762e-04 3.1119287234867327e-03 0.0000000000000000e+00  -3.0303865658168168e-05 2.7866145105392255e-05 0.0000000000000000e+00  8.7913008622564438e-05 3.5553313374362587e-04 0.0000000000000000e+00  9.1482935613078635e-04 4.1150801051405032e-03 0.0000000000000000e+00  -6.2480621305663152e-05 -1.7442033716843862e-05 0.0000000000000000e+00  -5.6478344548654146e-06 2.2487119633234556e-05 0.0000000000000000e+00  4.1489019834785841e-05 1.3110800905779144e-04 0.0000000000000000e+00  -2.5970755376230082e-06 -2.0943209227037868e-05 0.0000000000000000e+00  -4.2092941848702360e-03 1.1499044768424562e-02 0.0000000000000000e+00  8.3311432137159822e-06 8.8601861720803679e-06 0.0000000000000000e+00  1.8600659683574878e-05 5.1407670657336182e-05 0.0000000000000000e+00  5.8252878700060934e-04 9.0258877474949459e-03 0.0000000000000000e+00  -4.1938423975073078e-05 -2.4451010422099588e-05 0.0000000000000000e+00  7.7382392401089207e-06 3.1121104813820569e-07 0.0000000000000000e+00  1.0264682203772806e-05 2.9293883610933187e-05 0.0000000000000000e+00  -3.8352645047670980e-05 3.5526875736246739e-04 0.0000000000000000e+00  -5.6870508677021343e-06 5.3329637265796729e-05 0.0000000000000000e+00  -1.5948697832924249e-05 1.8391219154746015e-04 0.0000000000000000e+00  -7.2465443996112527e-06 9.8585122364322212e-05 0.0000000000000000e+00  5.9267606457392226e-06 -3.5589386942322601e-06 0.0000000000000000e+00  3.4481380933958965e-06 1.5805149946524275e-05 0.0000000000000000e+00  -2.0496738978017341e-02 -5.5423216221948811e-02 0.0000000000000000e+00  -3.3779882286622940e-06 -3.4927910787081367e-05 0.0000000000000000e+00  3.1152573235071059e-06 -3.8270048939936601e-06 0.0000000000000000e+00  -1.9673628817033156e-07 -3.9027690915265681e-07 0.0000000000000000e+00  1.6497459442362769e-06 7.9583552771078639e-06 0.0000000000000000e+00  1.4013649986866478e-06 -3.3187211037200505e-06 0.0000000000000000e+00  -2.5171097726109019e-03 7.6254182647495141e-03 0.0000000000000000e+00  -2.3375222215631972e-05 -2.4722576784078603e-05 0.0000000000000000e+00  7.9306360259269360e-07 3.4144834037915499e-06 0.0000000000000000e+00  3.7671960061361177e-07 1.7826942762824759e-05 0.0000000000000000e+00  2.9849952656193635e-05 8.1912574326152741e-05 0.0000000000000000e+00  -1.9563904569884948e-05 2.9367732010150634e-05 0.0000000000000000e+00  5.9237472807719648e-05 1.9262434385696129e-04 0.0000000000000000e+00  -4.9011941515774960e-05 2.3718668644226459e-05 0.0000000000000000e+00  1.0768165413282201e-04 4.2361597373483123e-04 0.0000000000000000e+00  -7.0813277207131423e-05 3.7093013903854050e-06 0.0000000000000000e+00  2.6396333320817035e-04 1.2706416904971981e-03 0.0000000000000000e+00  -7.0030983147402646e-05 -1.2660821068336297e-05 0.0000000000000000e+00  6.4583786418825288e-04 2.8782990689525416e-03 0.0000000000000000e+00  -5.3323830055132143e-05 -2.2671690985875530e-05 0.0000000000000000e+00  1.0610082669756157e-03 5.9857024081950766e-03 0.0000000000000000e+00  -1.4812568215997266e-03 5.1897318525657259e-03 0.0000000000000000e+00  -2.4025286854786817e-06 -1.4201510639335675e-05 0.0000000000000000e+00  4.5863086454142346e-02 -2.9999192830161236e-02 0.0000000000000000e+00  -4.3094707231593402e-06 -4.2417646316493709e-05 0.0000000000000000e+00  -3.5450989436791147e-04 1.9620234053513482e-03 0.0000000000000000e+00  -3.2846635431428064e-06 2.6700245622801898e-06 0.0000000000000000e+00  -1.0877733519253786e-04 8.2209082371474109e-04 0.0000000000000000e+00  -3.8643574656626711e-06 2.1974860530860074e-05 0.0000000000000000e+00  1.1043836518889283e-06 -2.2402217863118506e-06 0.0000000000000000e+00  1.4479350658268716e-06 6.2492351670954043e-06 0.0000000000000000e+00  -1.2137140974127355e-03 1.1599639031663210e-02 0.0000000000000000e+00  -1.4166967543183162e-05 -2.4233516028101170e-05 0.0000000000000000e+00  1.9806439272223607e-07 -1.4938394997541588e-06 0.0000000000000000e+00  -8.8011566655600579e-07 4.4050989329205939e-06 0.0000000000000000e+00  -9.4503390049733068e-03 3.6775533810453315e-02 0.0000000000000000e+00  -4.2743710910488064e-06 -3.5078961357704345e-05 0.0000000000000000e+00  5.5589515630318067e-07 -3.4866421927979143e-06 0.0000000000000000e+00  8.3614333709048017e-07 -7.2450646183363982e-07 0.0000000000000000e+00  1.8665948773243166e-06 -4.5329300617618439e-07 0.0000000000000000e+00  1.2771661689117261e-06 -3.6056788807226594e-06 0.0000000000000000e+00  2.1061736100768378e-06 -2.8246654107829578e-06 0.0000000000000000e+00  1.2392318851240735e-06 -3.1889167987306398e-06 0.0000000000000000e+00  1.0657576807199160e-06 2.4063895918735347e-07 0.0000000000000000e+00  2.0651981434999005e-06 1.6020846928099329e-07 0.0000000000000000e+00  1.4384223228827548e-06 -3.7823939733626860e-06 0.0000000000000000e+00  2.8299209936731096e-06 -1.3640478971073341e-06 0.0000000000000000e+00  2.4914281408411389e-06 -1.5866017639282210e-06 0.0000000000000000e+00  3.0654746843515460e-06 8.9058747304607137e-07 0.0000000000000000e+00  3.2133578149199418e-06 -2.3742179963117421e-06 0.0000000000000000e+00  3.0524427754457367e-06 9.3163954005689687e-07 0.0000000000000000e+00  2.4269401029157481e-06 -1.3501073483771285e-06 0.0000000000000000e+00  3.4359099385226209e-06 -3.0935426047427847e-07 0.0000000000000000e+00  4.8976058721888270e-06 -3.0704898733563979e-07 0.0000000000000000e+00  4.8884960773613332e-06 -6.3033355645485446e-07 0.0000000000000000e+00  4.9424542916377362e-06 -3.6413479872634982e-08 0.0000000000000000e+00  5.2054614649406067e-06 -4.0761544451890311e-07 0.0000000000000000e+00  4.6353532009016710e-06 -4.7823094229937833e-07 0.0000000000000000e+00  5.4236334435997200e-06 -8.5052549538133603e-07 0.0000000000000000e+00  6.6372050466261018e-06 -2.8135638992597272e-07 0.0000000000000000e+00  5.6994780426092488e-06 -1.9418495505184780e-07 0.0000000000000000e+00  4.8300288506676879e-06 -1.9355036585303172e-07 0.0000000000000000e+00  5.1790198505639940e-06 -1.7039082370015539e-06 0.0000000000000000e+00  4.2960129800678669e-06 -2.7590151964856791e-08 0.0000000000000000e+00  5.7828031274297142e-06 -3.9681440467186177e-06 0.0000000000000000e+00  5.0030882249684010e-06 -1.5534646659224880e-06 0.0000000000000000e+00  4.3901898645998420e-06 -2.9964201582666704e-06 0.0000000000000000e+00  3.5775105203126230e-06 -2.0138767226422102e-06 0.0000000000000000e+00  4.8709340205157715e-06 -4.6273893816891861e-06 0.0000000000000000e+00  1.6059958088660437e-06 -3.9758782362498448e-06 0.0000000000000000e+00  3.6869093703684420e-07 -6.1135326203998200e-06 0.0000000000000000e+00  -1.0454035898968001e-06 -