<?xml version="1.0"?>
<VTKFile type="UnstructuredGrid"  version="0.1"  >
<UnstructuredGrid>
<Piece  NumberOfPoints="18082" NumberOfCells="35500">
<Points>
<DataArray  type="Float64"  NumberOfComponents="3"  format="ascii">0 0 0  30 0 0  30 -10 0  0 -10 0  0.02360821169319077 0 0  0.04721642338638154 0 0  0.07206717063563725 0 0  0.09691791788489297 0 0  0.1230766011355843 0 0  0.1492352843862757 0 0  0.1767707375239038 0 0  0.204306190661532 0 0  0.2332908770901271 0 0  0.2622755635187223 0 0  0.2927857633803451 0 0  0.323295963241968 0 0  0.3554119623832387 0 0  0.3875279615245094 0 0  0.4213342730081758 0 0  0.4551405844918422 0 0  0.4907261762804851 0 0  0.526311768069128 0 0  0.5637702848355051 0 0  0.6012288016018821 0 0  0.6406588220121138 0 0  0.6800888424223455 0 0  0.721594129780935 0 0  0.7630994171395246 0 0  0.8067891887833475 0 0  0.8504789604271704 0 0  0.8964681941825949 0 0  0.9424574279380195 0 0  0.9908671465681095 0 0  1.039276865198199 0 0  1.090234462786975 0 0  1.141192060375751 0 0  1.194831641933244 0 0  1.248471223490737 0 0  1.304933942963653 0 0  1.361396662436569 0 0  1.420831104471586 0 0  1.480265546506604 0 0  1.542828113436244 0 0  1.605390680365884 0 0  1.671246013469327 0 0  1.73710134657277 0 0  1.806422752814762 0 0  1.875744159056755 0 0  1.948714057431306 0 0  2.021683955805857 0 0  2.098494373901932 0 0  2.175304791998006 0 0  2.256157866653476 0 0  2.337010941308945 0 0  2.422119443935387 0 0  2.50722794656183 0 0  2.596815840700639 0 0  2.686403734839449 0 0  2.780706776094687 0 0  2.875009817349925 0 0  2.974276175689285 0 0  3.073542534028646 0 0  3.178033441002704 0 0  3.282524347976761 0 0  3.392514777963501 0 0  3.502505207950242 0 0  3.618284608533553 0 0  3.734064009116865 0 0  3.855937062816526 0 0  3.977810116516187 0 0  4.106097541496641 0 0  4.234384966477093 0 0  4.369424362562147 0 0  4.5044637586472 0 0  4.646610489729194 0 0  4.788757220811188 0 0  4.938385356669961 0 0  5.088013492528733 0 0  5.24551679218304 0 0  5.403020091837347 0 0  5.568813038399614 0 0  5.73460598496188 0 0  5.909124878408681 0 0  6.083643771855482 0 0  6.267347873338513 0 0  6.451051974821543 0 0  6.644424714363561 0 0  6.83779745390558 0 0  7.041347702348167 0 0  7.244897950790754 0 0  7.459161368238869 0 0  7.673424785686984 0 0  7.898965226038037 0 0  8.124505666389089 0 0  8.361916654054033 0 0  8.599327641718979 0 0  8.849233942517035 0 0  9.099140243315093 0 0  9.362199507946787 0 0  9.625258772578484 0 0  9.902163261537794 0 0  10.1790677504971 0 0  10.47054616023911 0 0  10.76202456998112 0 0  11.06884394887334 0 0  11.37566332776555 0 0  11.69863109504192 0 0  12.02159886231829 0 0  12.3615649378891 0 0  12.7015310134599 0 0  13.05939003847426 0 0  13.41724906348862 0 0  13.79394276982091 0 0  14.1706364761532 0 0  14.5671561683298 0 0  14.96367586050641 0 0  15.38106501332897 0 0  15.79845416615153 0 0  16.23781117165827 0 0  16.677168177165 0 0  17.13964923659526 0 0  17.60213029602552 0 0  18.0889524622663 0 0  18.57577462850707 0 0  19.08821901304263 0 0  19.60066339757818 0 0  20.14007853843172 0 0  20.67949367928525 0 0  21.24729908993883 0 0  21.8151045005924 0 0  22.41279440541421 0 0  23.01048431023601 0 0  23.63963157605829 0 0  24.26877884188056 0 0  24.93103912515648 0 0  25.59329940843241 0 0  26.29041549584691 0 0  26.98753158326142 0 0  27.72133799026916 0 0  28.45514439727691 0 0  29.22757219863846 0 0  30 -0.3571428571428571 0  30 -0.7142857142857142 0  30 -1.071428571428571 0  30 -1.428571428571428 0  30 -1.785714285714286 0  30 -2.142857142857143 0  30 -2.5 0  30 -2.857142857142857 0  30 -3.214285714285714 0  30 -3.571428571428571 0  30 -3.928571428571428 0  30 -4.285714285714286 0  30 -4.642857142857142 0  30 -5 0  30 -5.357142857142857 0  30 -5.714285714285714 0  30 -6.071428571428571 0  30 -6.428571428571428 0  30 -6.785714285714285 0  30 -7.142857142857142 0  30 -7.5 0  30 -7.857142857142857 0  30 -8.214285714285714 0  30 -8.571428571428571 0  30 -8.928571428571427 0  30 -9.285714285714285 0  30 -9.642857142857142 0  29.22757220128658 -10 0  28.45514440257316 -10 0  27.72133799277628 -10 0  26.98753158297939 -10 0  26.29041549304805 -10 0  25.5932994031167 -10 0  24.93103911757599 -10 0  24.26877883203527 -10 0  23.63963156418132 -10 0  23.01048429632737 -10 0  22.41279438968936 -10 0  21.81510448305136 -10 0  21.24729907078059 -10 0  20.67949365850982 -10 0  20.14007851622273 -10 0  19.60066337393564 -10 0  19.08821898813588 -10 0  18.57577460233611 -10 0  18.08895243498708 -10 0  17.60213026763805 -10 0  17.13964920724307 -10 0  16.6771681468481 -10 0  16.2378111405086 -10 0  15.79845413416909 -10 0  15.38106498063496 -10 0  14.96367582710082 -10 0  14.56715613432376 -10 0  14.17063644154669 -10 0  13.79394273471576 -10 0  13.41724902788484 -10 0  13.05939000246495 -10 0  12.70153097704506 -10 0  12.36156490115379 -10 0  12.02159882526251 -10 0  11.69863105774323 -10 0  11.37566329022395 -10 0  11.06884391115945 -10 0  10.76202453209494 -10 0  10.47054612224479 -10 0  10.17906771239465 -10 0  9.902163223385379 -10 0  9.625258734376107 -10 0  9.362199469747061 -10 0  9.099140205118012 -10 0  8.849233904370102 -10 0  8.599327603622193 -10 0  8.361916616050124 -10 0  8.124505628478055 -10 0  7.898965188258209 -10 0  7.673424748038361 -10 0  7.459161330755727 -10 0  7.244897913473093 -10 0  7.041347665226496 -10 0  6.837797416979896 -10 0  6.644424677660922 -10 0  6.451051938341948 -10 0  6.26734783710581 -10 0  6.083643735869675 -10 0  5.90912484269068 -10 0  5.734605949511682 -10 0  5.568813003235423 -10 0  5.403020056959164 -10 0  5.24551675760658 -10 0  5.088013458254 -10 0  4.938385322710374 -10 0  4.788757187166745 -10 0  4.646610456411224 -10 0  4.504463725655707 -10 0  4.369424329906533 -10 0  4.234384934157362 -10 0  4.106097509520442 -10 0  3.977810084883522 -10 0  3.85593703153344 -10 0  3.734063978183357 -10 0  3.618284577954206 -10 0  3.502505177725055 -10 0  3.392514748095728 -10 0  3.282524318466404 -10 0  3.1780334118518 -10 0  3.073542505237196 -10 0  2.97427614725823 -10 0  2.875009789279265 -10 0  2.780706748384375 -10 0  2.686403707489482 -10 0  2.596815813710069 -10 0  2.507227919930656 -10 0  2.422119417661861 -10 0  2.337010915393062 -10 0  2.256157841092762 -10 0  2.175304766792465 -10 0  2.098494349048437 -10 0  2.021683931304413 -10 0  1.948714033278215 -10 0  1.875744135252013 -10 0  1.806422729354161 -10 0  1.737101323456312 -10 0  1.671245990692352 -10 0  1.605390657928396 -10 0  1.542828091333185 -10 0  1.480265524737977 -10 0  1.420831083031992 -10 0  1.36139664132601 -10 0  1.304933922176438 -10 0  1.248471203026863 -10 0  1.194831621786765 -10 0  1.14119204054667 -10 0  1.09023444350921 -10 0  1.039276846471754 -10 0  0.9908671279064798 -10 0  0.942457409341209 -10 0  0.8964681758842019 -10 0  0.8504789424271948 -10 0  0.8067891710751951 -10 0  0.7630993997231954 -10 0  0.7215941126497469 -10 0  0.6800888255762949 -10 0  0.6406588054444597 -10 0  0.6012287853126246 -10 0  0.5637702688178621 -10 0  0.5263117523230996 -10 0  0.4907261607992695 -10 0  0.4551405692754429 -10 0  0.4213342580497894 -10 0  0.3875279468241395 -10 0  0.3554119479341011 -10 0  0.3232959490440663 -10 0  0.2927857494269297 -10 0  0.2622755498097931 -10 0  0.2332908636189828 -10 0  0.2043061774281725 -10 0  0.1767707245216883 -10 0  0.1492352716152006 -10 0  0.1230765885890825 -10 0  0.09691790556296098 -10 0  0.0720671585317838 -10 0  0.04721641150060663 -10 0  0.02360820575030331 -10 0  0 -9.972067039106145 0  0 -9.94413407821229 0  0 -9.916201117318435 0  0 -9.888268156424582 0  0 -9.860335195530727 0  0 -9.832402234636872 0  0 -9.804469273743017 0  0 -9.776536312849162 0  0 -9.748603351955307 0  0 -9.720670391061452 0  0 -9.692737430167599 0  0 -9.664804469273744 0  0 -9.636871508379889 0  0 -9.608938547486034 0  0 -9.581005586592179 0  0 -9.553072625698324 0  0 -9.525139664804469 0  0 -9.497206703910614 0  0 -9.46927374301676 0  0 -9.441340782122905 0  0 -9.41340782122905 0  0 -9.385474860335195 0  0 -9.35754189944134 0  0 -9.329608938547485 0  0 -9.30167597765363 0  0 -9.273743016759777 0  0 -9.245810055865922 0  0 -9.217877094972067 0  0 -9.189944134078212 0  0 -9.162011173184357 0  0 -9.134078212290502 0  0 -9.106145251396647 0  0 -9.078212290502794 0  0 -9.050279329608939 0  0 -9.022346368715084 0  0 -8.994413407821229 0  0 -8.966480446927374 0  0 -8.938547486033519 0  0 -8.910614525139664 0  0 -8.882681564245811 0  0 -8.854748603351956 0  0 -8.826815642458101 0  0 -8.798882681564246 0  0 -8.770949720670391 0  0 -8.743016759776536 0  0 -8.715083798882681 0  0 -8.687150837988828 0  0 -8.659217877094973 0  0 -8.631284916201118 0  0 -8.603351955307263 0  0 -8.575418994413408 0  0 -8.547486033519553 0  0 -8.519553072625698 0  0 -8.491620111731844 0  0 -8.463687150837989 0  0 -8.435754189944134 0  0 -8.407821229050279 0  0 -8.379888268156424 0  0 -8.351955307262569 0  0 -8.324022346368714 0  0 -8.296089385474861 0  0 -8.268156424581006 0  0 -8.240223463687151 0  0 -8.212290502793296 0  0 -8.184357541899441 0  0 -8.156424581005586 0  0 -8.128491620111731 0  0 -8.100558659217878 0  0 -8.072625698324023 0  0 -8.044692737430168 0  0 -8.016759776536313 0  0 -7.988826815642458 0  0 -7.960893854748603 0  0 -7.932960893854748 0  0 -7.905027932960894 0  0 -7.877094972067039 0  0 -7.849162011173184 0  0 -7.82122905027933 0  0 -7.793296089385475 0  0 -7.76536312849162 0  0 -7.737430167597765 0  0 -7.709497206703911 0  0 -7.681564245810056 0  0 -7.653631284916202 0  0 -7.625698324022347 0  0 -7.597765363128492 0  0 -7.569832402234637 0  0 -7.541899441340782 0  0 -7.513966480446927 0  0 -7.486033519553073 0  0 -7.458100558659218 0  0 -7.430167597765363 0  0 -7.402234636871508 0  0 -7.374301675977653 0  0 -7.346368715083798 0  0 -7.318435754189944 0  0 -7.290502793296089 0  0 -7.262569832402235 0  0 -7.23463687150838 0  0 -7.206703910614525 0  0 -7.17877094972067 0  0 -7.150837988826815 0  0 -7.12290502793296 0  0 -7.094972067039106 0  0 -7.067039106145251 
[...]
<PointData  Vectors="flow"> 
<DataArray  type="Float64"  Name="flow"  NumberOfComponents="3" format="ascii">1.3116498309496762e-04 -2.3044392729209039e-03 0.0000000000000000e+00  -1.1566331179652493e-06 2.0862222853765519e-05 0.0000000000000000e+00  -1.9934587832040037e-08 -8.0992758724019682e-07 0.0000000000000000e+00  1.9390492421698645e-07 -5.3368454437437312e-07 0.0000000000000000e+00  -2.3843274479775251e-05 -2.2940500491178510e-03 0.0000000000000000e+00  -1.7520087636940011e-05 -2.1993210568384248e-03 0.0000000000000000e+00  1.8626703329110891e-05 -2.2101094345836790e-03 0.0000000000000000e+00  -6.1976908435228115e-05 -2.1479875384833743e-03 0.0000000000000000e+00  2.7218365919270002e-05 -2.1321979311786526e-03 0.0000000000000000e+00  -9.7032728100929349e-06 -2.1874083320324086e-03 0.0000000000000000e+00  -5.0859961720430072e-07 -2.2421773223362698e-03 0.0000000000000000e+00  1.9776942758874170e-05 -2.3609426536947736e-03 0.0000000000000000e+00  -1.2060125600164793e-05 -2.4807922670103525e-03 0.0000000000000000e+00  3.5815772170063379e-05 -2.5904563047224119e-03 0.0000000000000000e+00  -7.0504032317545707e-06 -2.6046729356040614e-03 0.0000000000000000e+00  3.5505320495058026e-06 -2.4584034933177292e-03 0.0000000000000000e+00  2.7010447238038183e-05 -2.2196375566750650e-03 0.0000000000000000e+00  -9.0723665619487837e-05 -1.6290341429564233e-03 0.0000000000000000e+00  2.9983132127098722e-05 -9.9375919799030653e-04 0.0000000000000000e+00  -4.6084376766172373e-05 -2.1997532493222110e-04 0.0000000000000000e+00  1.2395419996662956e-05 6.4470352152494286e-04 0.0000000000000000e+00  -2.5017043361645964e-05 1.5793942146682392e-03 0.0000000000000000e+00  3.6336077658910866e-06 2.4674823915413588e-03 0.0000000000000000e+00  -1.7116840673501339e-05 3.3564971485917938e-03 0.0000000000000000e+00  6.3434082816694567e-06 4.1637001183568124e-03 0.0000000000000000e+00  -1.3271303619513622e-05 4.8963362092559349e-03 0.0000000000000000e+00  -3.3928950056506934e-06 5.4671351000789353e-03 0.0000000000000000e+00  -9.8099941249291871e-06 5.8914152876444531e-03 0.0000000000000000e+00  3.5815653894729005e-06 6.2874861710789228e-03 0.0000000000000000e+00  4.1917818825382063e-05 6.4337632838996264e-03 0.0000000000000000e+00  -3.1713359867157510e-05 6.5550917418773684e-03 0.0000000000000000e+00  6.7210467330463527e-05 6.5234375443464256e-03 0.0000000000000000e+00  -3.7471389815340737e-06 6.4199670179844728e-03 0.0000000000000000e+00  -2.7236948301999936e-05 6.3570239491584184e-03 0.0000000000000000e+00  8.1823292595749922e-06 6.1935371972699476e-03 0.0000000000000000e+00  -5.6724772397199420e-06 5.9930934286991375e-03 0.0000000000000000e+00  -8.9957027085174831e-06 5.7975146236620093e-03 0.0000000000000000e+00  3.1662998537804677e-05 5.5252695464187776e-03 0.0000000000000000e+00  -7.5200549981025103e-06 5.2640291346141895e-03 0.0000000000000000e+00  9.0630286667984640e-06 5.0065501039563013e-03 0.0000000000000000e+00  -7.2258352529183141e-06 4.7757198424048233e-03 0.0000000000000000e+00  2.0833439330735347e-05 4.5080837659279543e-03 0.0000000000000000e+00  -2.2625149854890708e-05 4.2943467533469969e-03 0.0000000000000000e+00  6.0530177647561068e-05 4.0035144604654562e-03 0.0000000000000000e+00  -5.3182177250444087e-07 3.7385558603065766e-03 0.0000000000000000e+00  -2.3250080275604051e-05 3.5683061267010310e-03 0.0000000000000000e+00  4.3784105735842753e-06 3.3734488849801467e-03 0.0000000000000000e+00  -1.5349716515525728e-06 3.1772640042665480e-03 0.0000000000000000e+00  -1.2606647290518205e-07 3.0004065228460414e-03 0.0000000000000000e+00  2.9281495942030229e-06 2.8256904955535934e-03 0.0000000000000000e+00  8.2080906960212503e-07 2.6570575552371167e-03 0.0000000000000000e+00  -3.3290429669209341e-06 2.5082575693070029e-03 0.0000000000000000e+00  -6.2060507605864804e-06 2.3755384073477991e-03 0.0000000000000000e+00  2.2074936360321239e-05 2.2110052289805357e-03 0.0000000000000000e+00  -7.1511610649344997e-06 2.0727440469200339e-03 0.0000000000000000e+00  1.0879434082400311e-05 1.9466722861406598e-03 0.0000000000000000e+00  -2.5294826054866386e-06 1.8290313348449994e-03 0.0000000000000000e+00  3.8229989499348203e-06 1.7211496825032568e-03 0.0000000000000000e+00  -6.8004329898528329e-06 1.6285599361741570e-03 0.0000000000000000e+00  1.9662853438702628e-05 1.5179616713792486e-03 0.0000000000000000e+00  -4.1928266680513290e-06 1.4183504141101698e-03 0.0000000000000000e+00  5.4571548373787470e-06 1.3336443331957025e-03 0.0000000000000000e+00  -1.3584537310373313e-06 1.2581399051056260e-03 0.0000000000000000e+00  1.5657605839149253e-06 1.1873629696348552e-03 0.0000000000000000e+00  -2.4988868574894110e-06 1.1191581163529638e-03 0.0000000000000000e+00  7.6642725291681608e-06 1.0456057376736097e-03 0.0000000000000000e+00  -8.7576623618455720e-06 9.9854812088345812e-04 0.0000000000000000e+00  2.9323567343023933e-05 9.1130896310009642e-04 0.0000000000000000e+00  -2.8059143190593766e-06 8.4050922819126777e-04 0.0000000000000000e+00  -6.3745326779937090e-06 8.0656854512128288e-04 0.0000000000000000e+00  5.2799947337867737e-07 7.6226014843580852e-04 0.0000000000000000e+00  3.4315846733737542e-06 7.1612141407577596e-04 0.0000000000000000e+00  -5.9233331790612363e-07 6.7269824532431360e-04 0.0000000000000000e+00  -4.2690525615854011e-07 6.3657959157214302e-04 0.0000000000000000e+00  -4.8591333335069173e-08 6.0154365082047765e-04 0.0000000000000000e+00  4.9605804103399000e-07 5.6677474240045050e-04 0.0000000000000000e+00  -2.6737165500020965e-07 5.3541729846999422e-04 0.0000000000000000e+00  8.8460949337684008e-07 5.0405629870851128e-04 0.0000000000000000e+00  -4.1386413616256785e-07 4.7534347256172942e-04 0.0000000000000000e+00  1.3236037258023507e-06 4.4670311861826176e-04 0.0000000000000000e+00  -2.6562836502441607e-06 4.2412573218647293e-04 0.0000000000000000e+00  1.0530495241359551e-05 3.8886287406543523e-04 0.0000000000000000e+00  -1.5248063549912886e-06 3.5742593392325885e-04 0.0000000000000000e+00  1.8348107441749233e-07 3.4067406352162645e-04 0.0000000000000000e+00  4.0148404928125299e-07 3.1830234487275580e-04 0.0000000000000000e+00  -2.1245783101912400e-06 3.0148540261554240e-04 0.0000000000000000e+00  1.4064623496586508e-07 2.8625552015679569e-04 0.0000000000000000e+00  1.2383078392670748e-06 2.6688601571896777e-04 0.0000000000000000e+00  -1.1086426082962003e-06 2.5148590849519489e-04 0.0000000000000000e+00  3.7714807575491723e-06 2.3163986486869951e-04 0.0000000000000000e+00  -1.9918833387100638e-06 2.1768949802178226e-04 0.0000000000000000e+00  6.6263962955164364e-06 1.9768902663796982e-04 0.0000000000000000e+00  -7.3727551334242654e-07 1.8040512604907292e-04 0.0000000000000000e+00  -1.0257935363022026e-06 1.7146279839885849e-04 0.0000000000000000e+00  1.9685793761361765e-06 1.5795924420527994e-04 0.0000000000000000e+00  -8.5370132357339875e-06 1.5342253393563736e-04 0.0000000000000000e+00  -1.7090116736419497e-07 1.5938181859945116e-04 0.0000000000000000e+00  6.8223489736768577e-06 1.3172387861525253e-04 0.0000000000000000e+00  -6.8063131878987251e-07 1.1929295396972169e-04 0.0000000000000000e+00  -8.0652580968432867e-07 1.1366836029575194e-04 0.0000000000000000e+00  -2.3410896867979549e-07 1.0621090314763022e-04 0.0000000000000000e+00  1.6188715402857368e-06 9.6953072730946040e-05 0.0000000000000000e+00  -6.1852766697991089e-07 8.9521183025692230e-05 0.0000000000000000e+00  1.8917655941753502e-06 8.1493880832205149e-05 0.0000000000000000e+00  -4.1641117147889159e-07 7.4427423828956940e-05 0.0000000000000000e+00  7.5356791694105620e-07 6.8854287375806516e-05 0.0000000000000000e+00  -1.2798808143857367e-07 6.3436318595619769e-05 0.0000000000000000e+00  3.5346822578240165e-07 5.8874676503476284e-05 0.0000000000000000e+00  -1.7878382605920085e-07 5.4643291799657976e-05 0.0000000000000000e+00  8.2070506823601885e-07 5.0267432452516890e-05 0.0000000000000000e+00  -5.1101357565929674e-07 4.6885386234088538e-05 0.0000000000000000e+00  2.3856219024675699e-06 4.1878193783895263e-05 0.0000000000000000e+00  -1.1471752294267417e-07 3.7452719258217967e-05 0.0000000000000000e+00  -1.1051140791101456e-06 3.6700685637846389e-05 0.0000000000000000e+00  2.4106713534151279e-07 3.5634184823706305e-05 0.0000000000000000e+00  -3.5541667887088625e-07 3.4048821281123265e-05 0.0000000000000000e+00  1.1895860592718027e-07 3.2846157125407625e-05 0.0000000000000000e+00  -4.1341443460610574e-07 3.1757758010928359e-05 0.0000000000000000e+00  1.7855480073109711e-08 3.1259519067620409e-05 0.0000000000000000e+00  4.8291026047000282e-07 2.9502701020043047e-05 0.0000000000000000e+00  -2.0601307619761974e-07 2.8414443058943557e-05 0.0000000000000000e+00  1.0140860079299330e-06 2.6770634602350696e-05 0.0000000000000000e+00  5.2035095770839478e-08 2.5033218639213124e-05 0.0000000000000000e+00  -1.4827001594919454e-06 2.5956095029038305e-05 0.0000000000000000e+00  -3.2718545440935835e-07 2.8527904569460761e-05 0.0000000000000000e+00  8.8771138294037967e-07 2.2528229970318554e-05 0.0000000000000000e+00  1.1855667606341149e-07 2.3785126048290190e-05 0.0000000000000000e+00  -8.5590716465688316e-08 2.3266519022620730e-05 0.0000000000000000e+00  2.3498719359569252e-08 2.3670808703970298e-05 0.0000000000000000e+00  -4.0664887351075874e-07 2.3046865674690574e-05 0.0000000000000000e+00  -4.2273626637652313e-07 2.4564791246155751e-05 0.0000000000000000e+00  1.1213292001505900e-06 1.8659510680060026e-05 0.0000000000000000e+00  1.3948883975152298e-07 1.9375366219316560e-05 0.0000000000000000e+00  -3.8691258421604742e-07 1.9562308704047137e-05 0.0000000000000000e+00  1.1932266339612932e-07 1.9798175058638998e-05 0.0000000000000000e+00  -1.2021668317624742e-07 1.9599926754370527e-05 0.0000000000000000e+00  -2.7209287004578400e-08 1.9648524804414870e-05 0.0000000000000000e+00  4.1863945678881567e-07 1.9175941539088369e-05 0.0000000000000000e+00  -1.7879857311004347e-07 1.8390102154570131e-05 0.0000000000000000e+00  -9.5727518689213715e-07 1.9651801228844396e-05 0.0000000000000000e+00  3.9210455251713163e-07 2.0996225235812250e-05 0.0000000000000000e+00  2.0907093272597912e-06 5.9872394842832246e-06 0.0000000000000000e+00  -3.8950890417515852e-07 8.7993315457964468e-07 0.0000000000000000e+00  3.8292533782864828e-07 -7.8358089940178368e-07 0.0000000000000000e+00  -8.7724031122362570e-08 -1.4879882269037582e-07 0.0000000000000000e+00  -1.2788467988240690e-08 -2.9856125450877891e-07 0.0000000000000000e+00  2.3279412589872029e-08 -3.4600624200218231e-07 0.0000000000000000e+00  -2.6987935979370718e-09 -3.4966735175165694e-07 0.0000000000000000e+00  8.0558127548251515e-09 -3.2433927747589840e-07 0.0000000000000000e+00  1.1257634338781676e-08 -2.8788196465423680e-07 0.0000000000000000e+00  2.3391355550410587e-08 -3.2987734774826499e-07 0.0000000000000000e+00  -2.6899409377230661e-10 -3.8411227607843103e-07 0.0000000000000000e+00  -2.4059957077846650e-08 -3.3309448741452802e-07 0.0000000000000000e+00  -3.4899350277330174e-08 -3.8252510206504249e-07 0.0000000000000000e+00  -2.6166728047093323e-08 -3.8573231453595012e-07 0.0000000000000000e+00  1.6880406124827683e-09 -3.3467968534484103e-07 0.0000000000000000e+00  1.5625428339891955e-08 -4.2648786852049401e-07 0.0000000000000000e+00  3.3637647069967452e-08 -4.7222266948544159e-07 0.0000000000000000e+00  1.8859729034851185e-08 -4.2301655781308227e-07 0.0000000000000000e+00  1.4600347762127870e-08 -3.8946108472953302e-07 0.0000000000000000e+00  1.5938615172695196e-08 -4.1653691226682524e-07 0.0000000000000000e+00  1.4194941798367611e-09 -6.1642529772738733e-07 0.0000000000000000e+00  -4.1726102138141695e-08 -5.3959095966489420e-07 0.0000000000000000e+00  -6.1125192205681088e-08 -4.8352183497535464e-07 0.0000000000000000e+00  -5.0237871680176971e-08 -4.6678710247830583e-07 0.0000000000000000e+00  -1.1199587065025824e-07 -1.1167463705861252e-07 0.0000000000000000e+00  -1.5955749914358615e-07 -4.6619006653480638e-07 0.0000000000000000e+00  -4.3383050977766577e-07 -1.0409620510640587e-06 0.0000000000000000e+00  -2.4642582456713621e-08 -6.8688330820978259e-07 0.0000000000000000e+00  -2.1628501212041455e-07 -9.0347363201208067e-07 0.0000000000000000e+00  1.9648120254664109e-07 -9.5282434285649685e-07 0.0000000000000000e+00  6.3499426981147924e-08 -1.1114294995114144e-06 0.0000000000000000e+00  1.5878684445959708e-08 -1.0570882182510308e-06 0.0000000000000000e+00  1.2721874684697781e-07 -1.1343056276787019e-06 0.0000000000000000e+00  1.1510541772173691e-07 -1.1708488267284828e-06 0.0000000000000000e+00  8.7132633956244130e-08 -1.2551883228362594e-06 0.0000000000000000e+00  2.6732205189184000e-07 -1.3224236063058826e-06 0.0000000000000000e+00  2.2795546282624150e-07 -1.4067124050836356e-06 0.0000000000000000e+00  2.4838380047751924e-07 -1.4227485752743473e-06 0.0000000000000000e+00  6.9672209853929026e-07 -1.3065837726713521e-06 0.0000000000000000e+00  5.3309404404346859e-07 -1.2828267440478960e-06 0.0000000000000000e+00  6.7124882499095676e-07 -1.2223689293278089e-06 0.0000000000000000e+00  6.8572582023471666e-07 -1.2542756055006561e-06 0.0000000000000000e+00  8.5255898755898074e-07 -1.2508307261060278e-06 0.0000000000000000e+00  9.2050118834552855e-07 -1.2484748419045991e-06 0.0000000000000000e+00  1.0738246509035420e-06 -1.1982685994900473e-06 0.0000000000000000e+00  1.1272786010779090e-06 -1.1203420607305577e-06 0.0000000000000000e+00  1.4649309429763670e-06 -9.9136659066068219e-07 0.0000000000000000e+00  1.4939886035182830e-06 -9.2013776627206505e-07 0.0000000000000000e+00  1.6764776748898105e-06 -8.3766601556307278e-07 0.0000000000000000e+00  1.6401039700757400e-06 -7.6732929356784835e-07 0.0000000000000000e+00  1.7904095542351134e-06 -7.5286164019333908e-07 0.0000000000000000e+00  2.1240822844132723e-06 -6.4638291174803218e-07 0.0000000000000000e+00  2.2222143799380253e-06 -4.3531346505410017e-07 0.0000000000000000e+00  2.2137794139441415e-06 -3.0421801275341092e-07 0.0000000000000000e+00  2.4313729298230959e-06 -1.0232394696350681e-07 0.0000000000000000e+00  2.4989981706595156e-06 4.9099126122433427e-08 0.0000000000000000e+00  2.5220908729401328e-06 2.6941150208832613e-07 0.0000000000000000e+00  2.5206785043737675e-06 3.8070281163434344e-07 0.0000000000000000e+00  2.5665403545003097e-06 5.7798963367703385e-07 0.0000000000000000e+00  2.5474337605714203e-06 7.5710519693857193e-07 0.0000000000000000e+00  2.5083618055761618e-06 9.7732260225148682e-07 0.0000000000000000e+00  2.4538341197953096e-06 1.1986313523258966e-06 0.0000000000000000e+00  2.3192325901440240e-06 1.4554760091690836e-06 0.0000000000000000e+00  2.2012282465656778e-06 1.7138740404381141e-06 0.0000000000000000e+00  2.0390343715892916e-06 2.0418414326271148e-06 0.0000000000000000e+00  1.7011012174077597e-06 2.2831543876676812e-06 0.0000000000000000e+00  1.0429811177366243e-06 2.3514823464917102e-06 0.0000000000000000e+00  7.5138496719503666e-07 2.3183916802003208e-06 0.0000000000000000e+00  4.5485400602318927e-07 2.3489641724734316e-06 0.0000000000000000e+00  8.2197571627040940e-08 2.4314533492830454e-06 0.0000000000000000e+00  -4.7161487245303554e-07 2.4819846039299048e-06 0.0000000000000000e+00  -9.1860615521607553e-07 2.5513346861237827e-06 0.0000000000000000e+00  -1.5225216752239678e-06 2.6327898852106445e-06 0.0000000000000000e+00  -2.0894008705529815e-06 2.7289753692164927e-06 0.0000000000000000e+00  -2.7072108541230454e-06 2.9069327751536506e-06 0.0000000000000000e+00  -3.1484344962598324e-06 3.0362699498518147e-06 0.0000000000000000e+00  -3.9521024037021151e-06 3.3636382422712986e-06 0.0000000000000000e+00  -5.0984076362052271e-06 3.5273816018532827e-06 0.0000000000000000e+00  -6.0051507014290420e-06 3.2825574775401880e-06 0.0000000000000000e+00  -6.3043550641122706e-06 2.9349665858578001e-06 0.0000000000000000e+00  -7.2182966125122017e-06 3.1009460836414545e-06 0.0000000000000000e+00  -8.3082773485600346e-06 3.2013444763296963e-06 0.0000000000000000e+00  -9.2841441905642800e-06 2.8568640687523103e-06 0.0000000000000000e+00  -1.0102877540824084e-05 2.5089377575384278e-06 0.0000000000000000e+00  -1.0719140325853000e-05 2.3731028331615836e-06 0.0000000000000000e+00  -1.1343975596572659e-05 2.2894132787491063e-06 0.0000000000000000e+00  -1.2060377494275977e-05 2.1367853003879725e-06 0.0000000000000000e+00  -1.2768810337524296e-05 2.0263210761255652e-06 0.0000000000000000e+00  -1.3490524741637794e-05 1.8602775227573753e-06 0.0000000000000000e+00  -1.4180232050849288e-05 1.7469002266302320e-06 0.0000000000000000e+00  -1.4819007634180626e-05 1.5643617959738740e-06 0.0000000000000000e+00  -1.5400153427146633e-05 1.4358450805735037e-06 0.0000000000000000e+00  -1.5978310315343475e-05 1.2429855467190447e-06 0.0000000000000000e+00  -1.6512012828639688e-05 1.1136036414985640e-06 0.0000000000000000e+00  -1.7024453005969455e-05 9.6444066395001780e-07 0.0000000000000000e+00  -1.7481184366291572e-05 8.5485223874642886e-07 0.0000000000000000e+00  -1.7862603011408509e-05 6.9399364215688931e-07 0.0000000000000000e+00  -1.8208976230276572e-05 5.8837726266032830e-07 0.0000000000000000e+00  -1.8511346523942329e-05 4.3250252277264612e-07 0.0000000000000000e+00  -1.8744867709853875e-05 3.3221921063390600e-07 0.0000000000000000e+00  -1.8930723514006170e-05 1.9750758868206871e-07 0.0000000000000000e+00  -1.9046470346962133e-05 9.4404938610119914e-08 0.0000000000000000e+00  -1.9176200516782578e-05 -1.5156402729201280e-08 0.0000000000000000e+00  -1.9248909657668197e-05 -1.1622818498230112e-07 0.0000000000000000e+00  -1.9252142829466507e-05 -2.2304544703593418e-07 0.0000000000000000e+00  -1.9286121871046835e-05 -3.4189589951818496e-07 0.0000000000000000e+00  -1.9216433330318612e-05 -4.1511779244620199e-07 0.0000000000000000e+00  -1.8918706068547251e-05 -2.1355282114418162e-07 0.0000000000000000e+00  -1.8944207962102095e-05 -3.8241363729577592e-07 0.0000000000000000e+00  -1.8847988102661701e-05 -5.0762324973459977e-07 0.0000000000000000e+00  -1.8670199622778251e-05 -5.3179006979202823e-07 0.0000000000000000e+00  -1.8354931298896203e-05 -4.3784303605843872e-07 0.0000000000000000e+00  -1.8087521276328473e-05 -6.4335179924743115e-07 0.0000000000000000e+00  -1.7952469474824491e-05 -8.2784217216299468e-07 0.0000000000000000e+00  -1.7673519166269042e-05 -8.3637188879470297e-07 0.0000000000000000e+00  -1.7253670773967636e-05 -8.1559299102621637e-07 0.0000000000000000e+00  -1.6924957548821263e-05 -8.0579116908723224e-07 0.0000000000000000e+00  -1.6480511546447428e-05 -7.1716079462252630e-07 0.0000000000000000e+00  -1.6234979737818503e-05 -8.0335866594787168e-07 0.0000000000000000e+00  -1.5900120461218342e-05 -8.5699099624525708e-07 0.0000000000000000e+00  -1.5529053030812201e-05 -8.6632020389979356e-07 0.0000000000000000e+00  -1.5113432834997443e-05 -8.7167227604945229e-07 0.0000000000000000e+00  -1.4734847100169544e-05 -9.1892985494316164e-07 0.0000000000000000e+00  -1.4348782528507703e-05 -9.4982094287032545e-07 0.0000000000000000e+00  -1.3903277110685116e-05 -1.0119906399308477e-06 0.0000000000000000e+00  -1.3523610359619928e-05 -1.0584592583697891e-06 0.0000000000000000e+00  -1.2978644258378143e-05 -1.1476846085473102e-06 0.0000000000000000e+00  -1.2534123892603022e-05 -1.2639966622509147e-06 0.0000000000000000e+00  -1.2227106480968447e-05 -1.1151555556855382e-06 0.0000000000000000e+00  -1.1477306300619659e-05 -8.6330463182734941e-07 0.0000000000000000e+00  -1.1366316402217580e-05 -8.6571090451290840e-07 0.0000000000000000e+00  -1.0844444086314817e-05 -5.8021942238895786e-07 0.0000000000000000e+00  -1.0383789604659916e-05 -8.3457965173894668e-07 0.0000000000000000e+00  -1.0122066700118840e-05 -9.7918616910441311e-07 0.0000000000000000e+00  -9.7100411931803960e-06 -9.0528979205240007e-07 0.0000000000000000e+00  -9.1754092498860238e-06 -8.3528822566457499e-07 0.0000000000000000e+00  -8.8185505261507126e-06 -8.4112813961463621e-07 0.0000000000000000e+00  -8.3654830350320731e-06 -8.1714573975560631e-07 0.0000000000000000e+00  -8.0107615460191163e-06 -8.0645476949715303e-07 0.0000000000000000e+00  -7.5768316429279553e-0