<?xml version="1.0"?>
<VTKFile type="UnstructuredGrid"  version="0.1"  >
<UnstructuredGrid>
<Piece  NumberOfPoints="13179" NumberOfCells="25814">
<Points>
<DataArray  type="Float64"  NumberOfComponents="3"  format="ascii">0 0 0  30 0 0  30 -10 0  0 -10 0  0.02360821169319077 0 0  0.04721642338638154 0 0  0.07206717063563725 0 0  0.09691791788489297 0 0  0.1230766011355843 0 0  0.1492352843862757 0 0  0.1767707375239038 0 0  0.204306190661532 0 0  0.2332908770901271 0 0  0.2622755635187223 0 0  0.2927857633803451 0 0  0.323295963241968 0 0  0.3554119623832387 0 0  0.3875279615245094 0 0  0.4213342730081758 0 0  0.4551405844918422 0 0  0.4907261762804851 0 0  0.526311768069128 0 0  0.5637702848355051 0 0  0.6012288016018821 0 0  0.6406588220121138 0 0  0.6800888424223455 0 0  0.721594129780935 0 0  0.7630994171395246 0 0  0.8067891887833475 0 0  0.8504789604271704 0 0  0.8964681941825949 0 0  0.9424574279380195 0 0  0.9908671465681095 0 0  1.039276865198199 0 0  1.090234462786975 0 0  1.141192060375751 0 0  1.194831641933244 0 0  1.248471223490737 0 0  1.304933942963653 0 0  1.361396662436569 0 0  1.420831104471586 0 0  1.480265546506604 0 0  1.542828113436244 0 0  1.605390680365884 0 0  1.671246013469327 0 0  1.73710134657277 0 0  1.806422752814762 0 0  1.875744159056755 0 0  1.948714057431306 0 0  2.021683955805857 0 0  2.098494373901932 0 0  2.175304791998006 0 0  2.256157866653476 0 0  2.337010941308945 0 0  2.422119443935387 0 0  2.50722794656183 0 0  2.596815840700639 0 0  2.686403734839449 0 0  2.780706776094687 0 0  2.875009817349925 0 0  2.974276175689285 0 0  3.073542534028646 0 0  3.178033441002704 0 0  3.282524347976761 0 0  3.392514777963501 0 0  3.502505207950242 0 0  3.618284608533553 0 0  3.734064009116865 0 0  3.855937062816526 0 0  3.977810116516187 0 0  4.106097541496641 0 0  4.234384966477093 0 0  4.369424362562147 0 0  4.5044637586472 0 0  4.646610489729194 0 0  4.788757220811188 0 0  4.938385356669961 0 0  5.088013492528733 0 0  5.24551679218304 0 0  5.403020091837347 0 0  5.568813038399614 0 0  5.73460598496188 0 0  5.909124878408681 0 0  6.083643771855482 0 0  6.267347873338513 0 0  6.451051974821543 0 0  6.644424714363561 0 0  6.83779745390558 0 0  7.041347702348167 0 0  7.244897950790754 0 0  7.459161368238869 0 0  7.673424785686984 0 0  7.898965226038037 0 0  8.124505666389089 0 0  8.361916654054033 0 0  8.599327641718979 0 0  8.849233942517035 0 0  9.099140243315093 0 0  9.362199507946787 0 0  9.625258772578484 0 0  9.902163261537794 0 0  10.1790677504971 0 0  10.47054616023911 0 0  10.76202456998112 0 0  11.06884394887334 0 0  11.37566332776555 0 0  11.69863109504192 0 0  12.02159886231829 0 0  12.3615649378891 0 0  12.7015310134599 0 0  13.05939003847426 0 0  13.41724906348862 0 0  13.79394276982091 0 0  14.1706364761532 0 0  14.5671561683298 0 0  14.96367586050641 0 0  15.38106501332897 0 0  15.79845416615153 0 0  16.23781117165827 0 0  16.677168177165 0 0  17.13964923659526 0 0  17.60213029602552 0 0  18.0889524622663 0 0  18.57577462850707 0 0  19.08821901304263 0 0  19.60066339757818 0 0  20.14007853843172 0 0  20.67949367928525 0 0  21.24729908993883 0 0  21.8151045005924 0 0  22.41279440541421 0 0  23.01048431023601 0 0  23.63963157605829 0 0  24.26877884188056 0 0  24.93103912515648 0 0  25.59329940843241 0 0  26.29041549584691 0 0  26.98753158326142 0 0  27.72133799026916 0 0  28.45514439727691 0 0  29.22757219863846 0 0  30 -0.3571428571428571 0  30 -0.7142857142857142 0  30 -1.071428571428571 0  30 -1.428571428571428 0  30 -1.785714285714286 0  30 -2.142857142857143 0  30 -2.5 0  30 -2.857142857142857 0  30 -3.214285714285714 0  30 -3.571428571428571 0  30 -3.928571428571428 0  30 -4.285714285714286 0  30 -4.642857142857142 0  30 -5 0  30 -5.357142857142857 0  30 -5.714285714285714 0  30 -6.071428571428571 0  30 -6.428571428571428 0  30 -6.785714285714285 0  30 -7.142857142857142 0  30 -7.5 0  30 -7.857142857142857 0  30 -8.214285714285714 0  30 -8.571428571428571 0  30 -8.928571428571427 0  30 -9.285714285714285 0  30 -9.642857142857142 0  29.22757220128658 -10 0  28.45514440257316 -10 0  27.72133799277628 -10 0  26.98753158297939 -10 0  26.29041549304805 -10 0  25.5932994031167 -10 0  24.93103911757599 -10 0  24.26877883203527 -10 0  23.63963156418132 -10 0  23.01048429632737 -10 0  22.41279438968936 -10 0  21.81510448305136 -10 0  21.24729907078059 -10 0  20.67949365850982 -10 0  20.14007851622273 -10 0  19.60066337393564 -10 0  19.08821898813588 -10 0  18.57577460233611 -10 0  18.08895243498708 -10 0  17.60213026763805 -10 0  17.13964920724307 -10 0  16.6771681468481 -10 0  16.2378111405086 -10 0  15.79845413416909 -10 0  15.38106498063496 -10 0  14.96367582710082 -10 0  14.56715613432376 -10 0  14.17063644154669 -10 0  13.79394273471576 -10 0  13.41724902788484 -10 0  13.05939000246495 -10 0  12.70153097704506 -10 0  12.36156490115379 -10 0  12.02159882526251 -10 0  11.69863105774323 -10 0  11.37566329022395 -10 0  11.06884391115945 -10 0  10.76202453209494 -10 0  10.47054612224479 -10 0  10.17906771239465 -10 0  9.902163223385379 -10 0  9.625258734376107 -10 0  9.362199469747061 -10 0  9.099140205118012 -10 0  8.849233904370102 -10 0  8.599327603622193 -10 0  8.361916616050124 -10 0  8.124505628478055 -10 0  7.898965188258209 -10 0  7.673424748038361 -10 0  7.459161330755727 -10 0  7.244897913473093 -10 0  7.041347665226496 -10 0  6.837797416979896 -10 0  6.644424677660922 -10 0  6.451051938341948 -10 0  6.26734783710581 -10 0  6.083643735869675 -10 0  5.90912484269068 -10 0  5.734605949511682 -10 0  5.568813003235423 -10 0  5.403020056959164 -10 0  5.24551675760658 -10 0  5.088013458254 -10 0  4.938385322710374 -10 0  4.788757187166745 -10 0  4.646610456411224 -10 0  4.504463725655707 -10 0  4.369424329906533 -10 0  4.234384934157362 -10 0  4.106097509520442 -10 0  3.977810084883522 -10 0  3.85593703153344 -10 0  3.734063978183357 -10 0  3.618284577954206 -10 0  3.502505177725055 -10 0  3.392514748095728 -10 0  3.282524318466404 -10 0  3.1780334118518 -10 0  3.073542505237196 -10 0  2.97427614725823 -10 0  2.875009789279265 -10 0  2.780706748384375 -10 0  2.686403707489482 -10 0  2.596815813710069 -10 0  2.507227919930656 -10 0  2.422119417661861 -10 0  2.337010915393062 -10 0  2.256157841092762 -10 0  2.175304766792465 -10 0  2.098494349048437 -10 0  2.021683931304413 -10 0  1.948714033278215 -10 0  1.875744135252013 -10 0  1.806422729354161 -10 0  1.737101323456312 -10 0  1.671245990692352 -10 0  1.605390657928396 -10 0  1.542828091333185 -10 0  1.480265524737977 -10 0  1.420831083031992 -10 0  1.36139664132601 -10 0  1.304933922176438 -10 0  1.248471203026863 -10 0  1.194831621786765 -10 0  1.14119204054667 -10 0  1.09023444350921 -10 0  1.039276846471754 -10 0  0.9908671279064798 -10 0  0.942457409341209 -10 0  0.8964681758842019 -10 0  0.8504789424271948 -10 0  0.8067891710751951 -10 0  0.7630993997231954 -10 0  0.7215941126497469 -10 0  0.6800888255762949 -10 0  0.6406588054444597 -10 0  0.6012287853126246 -10 0  0.5637702688178621 -10 0  0.5263117523230996 -10 0  0.4907261607992695 -10 0  0.4551405692754429 -10 0  0.4213342580497894 -10 0  0.3875279468241395 -10 0  0.3554119479341011 -10 0  0.3232959490440663 -10 0  0.2927857494269297 -10 0  0.2622755498097931 -10 0  0.2332908636189828 -10 0  0.2043061774281725 -10 0  0.1767707245216883 -10 0  0.1492352716152006 -10 0  0.1230765885890825 -10 0  0.09691790556296098 -10 0  0.0720671585317838 -10 0  0.04721641150060663 -10 0  0.02360820575030331 -10 0  0 -9.957983193277311 0  0 -9.915966386554622 0  0 -9.873949579831933 0  0 -9.831932773109244 0  0 -9.789915966386555 0  0 -9.747899159663866 0  0 -9.705882352941176 0  0 -9.663865546218487 0  0 -9.621848739495798 0  0 -9.579831932773109 0  0 -9.53781512605042 0  0 -9.495798319327731 0  0 -9.453781512605042 0  0 -9.411764705882353 0  0 -9.369747899159664 0  0 -9.327731092436975 0  0 -9.285714285714286 0  0 -9.243697478991596 0  0 -9.201680672268907 0  0 -9.159663865546218 0  0 -9.117647058823529 0  0 -9.07563025210084 0  0 -9.033613445378151 0  0 -8.991596638655462 0  0 -8.949579831932773 0  0 -8.907563025210084 0  0 -8.865546218487395 0  0 -8.823529411764707 0  0 -8.781512605042018 0  0 -8.739495798319329 0  0 -8.69747899159664 0  0 -8.655462184873949 0  0 -8.61344537815126 0  0 -8.571428571428571 0  0 -8.529411764705882 0  0 -8.487394957983193 0  0 -8.445378151260504 0  0 -8.403361344537815 0  0 -8.361344537815127 0  0 -8.319327731092438 0  0 -8.277310924369749 0  0 -8.235294117647058 0  0 -8.193277310924369 0  0 -8.15126050420168 0  0 -8.109243697478991 0  0 -8.067226890756302 0  0 -8.025210084033613 0  0 -7.983193277310924 0  0 -7.941176470588236 0  0 -7.899159663865547 0  0 -7.857142857142857 0  0 -7.815126050420168 0  0 -7.773109243697479 0  0 -7.73109243697479 0  0 -7.689075630252101 0  0 -7.647058823529411 0  0 -7.605042016806722 0  0 -7.563025210084033 0  0 -7.521008403361344 0  0 -7.478991596638656 0  0 -7.436974789915967 0  0 -7.394957983193278 0  0 -7.352941176470589 0  0 -7.3109243697479 0  0 -7.26890756302521 0  0 -7.226890756302521 0  0 -7.184873949579832 0  0 -7.142857142857143 0  0 -7.100840336134453 0  0 -7.058823529411764 0  0 -7.016806722689076 0  0 -6.974789915966387 0  0 -6.932773109243698 0  0 -6.890756302521009 0  0 -6.84873949579832 0  0 -6.806722689075631 0  0 -6.764705882352941 0  0 -6.722689075630252 0  0 -6.680672268907563 0  0 -6.638655462184874 0  0 -6.596638655462185 0  0 -6.554621848739496 0  0 -6.512605042016807 0  0 -6.470588235294118 0  0 -6.428571428571429 0  0 -6.38655462184874 0  0 -6.344537815126051 0  0 -6.302521008403362 0  0 -6.260504201680672 0  0 -6.218487394957983 0  0 -6.176470588235294 0  0 -6.134453781512605 0  0 -6.092436974789917 0  0 -6.050420168067227 0  0 -6.008403361344538 0  0 -5.966386554621849 0  0 -5.92436974789916 0  0 -5.882352941176471 0  0 -5.840336134453782 0  0 -5.798319327731092 0  0 -5.756302521008403 0  0 -5.714285714285714 0  0 -5.672268907563025 0  0 -5.630252100840336 0  0 -5.588235294117647 0 
[...]
<PointData  Vectors="flow"> 
<DataArray  type="Float64"  Name="flow"  NumberOfComponents="3" format="ascii">-8.2118827541753509e-03 1.5720023824690529e-01 0.0000000000000000e+00  1.0721010814998766e-05 1.8979470322530440e-04 0.0000000000000000e+00  -4.2886455810752538e-06 -3.8851595719977740e-06 0.0000000000000000e+00  -3.0938938094425235e-06 7.4083209217531400e-06 0.0000000000000000e+00  -7.1828333263986423e-04 1.5264762711822508e-01 0.0000000000000000e+00  2.4600077786540268e-03 1.4922103452022523e-01 0.0000000000000000e+00  -1.1061901676396369e-03 1.3750614867909830e-01 0.0000000000000000e+00  1.2760245892601549e-03 1.2430191448156012e-01 0.0000000000000000e+00  -7.7775465638889958e-04 1.1356185804216293e-01 0.0000000000000000e+00  -2.8625618988748608e-04 1.0410039187764417e-01 0.0000000000000000e+00  7.4516911463246799e-05 9.3514911044059360e-02 0.0000000000000000e+00  5.6790610750728071e-04 8.3394143478950522e-02 0.0000000000000000e+00  -1.0884248774066562e-03 7.7146372141150429e-02 0.0000000000000000e+00  6.4845597128429218e-04 6.8607493897492614e-02 0.0000000000000000e+00  -9.6471259697489113e-04 6.4422036028598986e-02 0.0000000000000000e+00  5.7479325296846376e-04 5.6254638818607199e-02 0.0000000000000000e+00  -1.5191645285773448e-04 5.0624642001062793e-02 0.0000000000000000e+00  7.8153033719506903e-07 4.5744305106441924e-02 0.0000000000000000e+00  5.9191212822068591e-04 4.0001508173670396e-02 0.0000000000000000e+00  -4.9261221857975458e-04 3.6454800980801991e-02 0.0000000000000000e+00  -4.3435183090661774e-04 3.2520159748667808e-02 0.0000000000000000e+00  1.4476799767489535e-04 2.8596487673614633e-02 0.0000000000000000e+00  3.8907672033740602e-04 2.5085046911439021e-02 0.0000000000000000e+00  -2.5192035122656138e-04 2.2710703127913207e-02 0.0000000000000000e+00  -1.0291950334521916e-04 2.0059440430934269e-02 0.0000000000000000e+00  2.7830174640422353e-04 1.7808873444961484e-02 0.0000000000000000e+00  -3.8418998879215189e-04 1.6153197497967807e-02 0.0000000000000000e+00  4.5462047253117292e-05 1.4249866649841358e-02 0.0000000000000000e+00  2.1324027804797731e-04 1.2543145982866185e-02 0.0000000000000000e+00  -1.4132304582227924e-04 1.1443717920910462e-02 0.0000000000000000e+00  5.3023864805124272e-05 1.0028773317468717e-02 0.0000000000000000e+00  -1.9299736710947661e-05 9.0327183764941036e-03 0.0000000000000000e+00  6.2996985420036929e-05 8.0838365051154656e-03 0.0000000000000000e+00  -4.3701480450716010e-06 7.2364474133501519e-03 0.0000000000000000e+00  2.7921049051517682e-05 6.5285825154898841e-03 0.0000000000000000e+00  -9.9895499158436157e-06 5.8303675972591514e-03 0.0000000000000000e+00  -2.9410647819074126e-06 5.2229562285360789e-03 0.0000000000000000e+00  2.7798415195145276e-08 4.6908059437573138e-03 0.0000000000000000e+00  1.0287245756782818e-05 4.1639527551489766e-03 0.0000000000000000e+00  4.5528124798367788e-05 3.7315054710716973e-03 0.0000000000000000e+00  -1.0348954768186393e-04 3.3547087524794955e-03 0.0000000000000000e+00  6.4406693543577826e-05 2.9231646949763740e-03 0.0000000000000000e+00  -2.4364199336108996e-05 2.6283095158107055e-03 0.0000000000000000e+00  5.3267927831310206e-05 2.2277216459076180e-03 0.0000000000000000e+00  -5.3349773706169100e-05 2.0496210779930753e-03 0.0000000000000000e+00  1.4900821775999187e-06 1.8356868940469547e-03 0.0000000000000000e+00  3.5562093795684084e-06 1.5893436214138347e-03 0.0000000000000000e+00  6.0110565828987208e-07 1.3897460898680298e-03 0.0000000000000000e+00  7.7363285136227856e-06 1.2113035969276151e-03 0.0000000000000000e+00  -4.4519075896506373e-06 1.0392200808802790e-03 0.0000000000000000e+00  1.3024543846149248e-05 8.6068202099217586e-04 0.0000000000000000e+00  -7.6927284921519751e-06 7.4918013736178428e-04 0.0000000000000000e+00  -3.8230493004313370e-08 6.2102176046660042e-04 0.0000000000000000e+00  6.2630556228817140e-08 5.0785488186600467e-04 0.0000000000000000e+00  -8.1341170761659300e-07 3.9920871831376591e-04 0.0000000000000000e+00  2.1333505367937905e-06 2.9899220496473332e-04 0.0000000000000000e+00  -1.2383254269460445e-06 2.1913137746394163e-04 0.0000000000000000e+00  2.9600806041556633e-06 1.4047079343049699e-04 0.0000000000000000e+00  7.5516237063281828e-07 6.0656181755291830e-05 0.0000000000000000e+00  -2.3476089922687976e-06 -1.0114417120483729e-06 0.0000000000000000e+00  -3.1291027012322723e-06 -4.5140175092306022e-05 0.0000000000000000e+00  -4.1167594074110775e-07 -9.3530308634853305e-05 0.0000000000000000e+00  5.2425807382423317e-06 -1.5340330704953229e-04 0.0000000000000000e+00  -5.5457690955968903e-06 -1.9220202005477364e-04 0.0000000000000000e+00  2.9015649020105882e-06 -2.2589385944654566e-04 0.0000000000000000e+00  -2.4971218805133155e-06 -2.6627102807393743e-04 0.0000000000000000e+00  -2.0231261930979498e-06 -2.8797971502507967e-04 0.0000000000000000e+00  -1.1547997673141798e-06 -3.1053508290615115e-04 0.0000000000000000e+00  -5.0053241050429114e-06 -3.2832418902254502e-04 0.0000000000000000e+00  2.5582173532766821e-06 -3.3840659378580197e-04 0.0000000000000000e+00  -5.0690846487802365e-06 -3.3806961337361089e-04 0.0000000000000000e+00  -3.6828891630905382e-06 -3.3692179603094950e-04 0.0000000000000000e+00  4.6715594796297905e-06 -3.5928881229917154e-04 0.0000000000000000e+00  -5.7694768696084338e-07 -3.7815324476867912e-04 0.0000000000000000e+00  -1.5269268504481174e-06 -3.7615390306675793e-04 0.0000000000000000e+00  -4.4082516967201139e-07 -3.7640944905948471e-04 0.0000000000000000e+00  -3.7982024573187159e-06 -3.7051234728962336e-04 0.0000000000000000e+00  -6.1801369420269199e-07 -3.6292938127990788e-04 0.0000000000000000e+00  -3.1682443692072672e-06 -3.5428916454369603e-04 0.0000000000000000e+00  6.3205224980329296e-07 -3.4401703464371933e-04 0.0000000000000000e+00  9.5610693121248805e-07 -3.3472449032066027e-04 0.0000000000000000e+00  -9.6064397547361411e-06 -3.3197796955836085e-04 0.0000000000000000e+00  2.9321888290791203e-05 -3.2222934476179203e-04 0.0000000000000000e+00  -2.4505992817449614e-05 -2.9883199439814564e-04 0.0000000000000000e+00  6.9535660281320050e-07 -2.7917575869078288e-04 0.0000000000000000e+00  -1.0746459904418867e-06 -2.5880231287207149e-04 0.0000000000000000e+00  1.6020194375139556e-06 -2.3351389862308894e-04 0.0000000000000000e+00  -9.8388864529042377e-06 -2.0947296443254282e-04 0.0000000000000000e+00  1.0101026753599197e-05 -2.0121318509855484e-04 0.0000000000000000e+00  8.8036779511458612e-07 -1.8798853471281311e-04 0.0000000000000000e+00  -4.1564038429319250e-06 -1.6379813749565467e-04 0.0000000000000000e+00  -2.4663109959876533e-06 -1.3890594850942716e-04 0.0000000000000000e+00  -3.8247175685260735e-07 -1.1289606464278548e-04 0.0000000000000000e+00  -1.4031117070694503e-07 -8.8609493011433685e-05 0.0000000000000000e+00  -1.1738426647010611e-06 -6.5633659160397990e-05 0.0000000000000000e+00  2.3751557053362302e-07 -4.2139694564573253e-05 0.0000000000000000e+00  4.5265223478900248e-07 -1.9660271665663250e-05 0.0000000000000000e+00  -1.6726033608140122e-06 4.3272195384013464e-06 0.0000000000000000e+00  5.2705236262253861e-07 2.4547237218279559e-05 0.0000000000000000e+00  -9.8986892479062624e-07 4.7482248579513754e-05 0.0000000000000000e+00  2.8839360950879476e-06 6.6061074220475201e-05 0.0000000000000000e+00  -1.0634105204908712e-06 8.5322218414409084e-05 0.0000000000000000e+00  6.2042316816822180e-07 1.0644862459031474e-04 0.0000000000000000e+00  -1.2702800601541238e-06 1.2379611180949424e-04 0.0000000000000000e+00  1.3140097911554687e-06 1.4561533075163374e-04 0.0000000000000000e+00  -7.4419138214757639e-06 1.6225105799789149e-04 0.0000000000000000e+00  -3.7276754045168816e-06 1.5411833880506960e-04 0.0000000000000000e+00  1.8210392816881962e-05 1.9096576683900088e-04 0.0000000000000000e+00  -2.3744460995235459e-05 2.0503089776604860e-04 0.0000000000000000e+00  2.9038732441535468e-05 2.0645873587736742e-04 0.0000000000000000e+00  -2.1591914480471881e-05 2.1267950696026946e-04 0.0000000000000000e+00  -4.3709337338429793e-06 1.9762260977750412e-04 0.0000000000000000e+00  2.1998989697233928e-05 2.4713563607440560e-04 0.0000000000000000e+00  -7.1241323575337168e-06 2.4948479684200775e-04 0.0000000000000000e+00  7.4857205182500624e-07 2.4906360858279055e-04 0.0000000000000000e+00  2.1504008211557932e-05 2.2114838304279071e-04 0.0000000000000000e+00  -1.2229847306791233e-05 2.2126430150008869e-04 0.0000000000000000e+00  -4.0954558237535658e-06 2.4279483289841480e-04 0.0000000000000000e+00  8.1026388618942258e-07 2.5453133676701050e-04 0.0000000000000000e+00  -2.6185545894631171e-06 2.4989442232301046e-04 0.0000000000000000e+00  2.0442859226388662e-05 2.2145992434000655e-04 0.0000000000000000e+00  -1.0540436324922830e-05 2.1882000099427752e-04 0.0000000000000000e+00  -4.6373122555858719e-07 2.2925565750963256e-04 0.0000000000000000e+00  2.0212906143929471e-06 2.3013656453063945e-04 0.0000000000000000e+00  1.1907473602814567e-06 2.2573330827180987e-04 0.0000000000000000e+00  7.7483175310712888e-07 2.2060498994081653e-04 0.0000000000000000e+00  2.4570969960092812e-06 2.1171657941142246e-04 0.0000000000000000e+00  3.4378892194167789e-06 2.0070045261759797e-04 0.0000000000000000e+00  6.6599848418340070e-07 1.9416235083341766e-04 0.0000000000000000e+00  -3.1217443648554657e-06 1.9366177118612009e-04 0.0000000000000000e+00  1.7899194704612456e-06 1.9090084790453711e-04 0.0000000000000000e+00  7.9430037655208300e-07 1.8218616405222469e-04 0.0000000000000000e+00  5.7078145773107337e-06 1.7046084438430739e-04 0.0000000000000000e+00  -2.0823578868591016e-06 1.6568268470196868e-04 0.0000000000000000e+00  -3.5133005514331988e-06 1.6390820060311622e-04 0.0000000000000000e+00  1.2016070539213215e-05 1.3959662070369620e-04 0.0000000000000000e+00  2.4889063025200556e-06 1.2404088188323309e-04 0.0000000000000000e+00  -8.3803148223272866e-06 1.2807624756721963e-04 0.0000000000000000e+00  1.2747958020695815e-06 1.3980206310367535e-04 0.0000000000000000e+00  1.0616786532556351e-06 1.3478176746366420e-04 0.0000000000000000e+00  -1.4684619916193532e-05 1.3425216297277998e-04 0.0000000000000000e+00  4.9856205264783190e-05 4.2893338219120256e-05 0.0000000000000000e+00  4.2531629860068761e-05 -6.4650095942295435e-05 0.0000000000000000e+00  -1.6196269021418846e-05 4.1988417392545635e-05 0.0000000000000000e+00  6.8844175597300106e-06 -2.0768516696655431e-05 0.0000000000000000e+00  -2.1290466444158835e-06 3.5474135451524676e-06 0.0000000000000000e+00  -7.7602233522536284e-07 -3.7136883108668030e-06 0.0000000000000000e+00  8.9413172186059079e-07 -1.5998684366268183e-06 0.0000000000000000e+00  -4.5606198885956028e-07 -1.7663236758041669e-06 0.0000000000000000e+00  6.3091819808321857e-07 -2.8500081746757498e-06 0.0000000000000000e+00  6.6186138895457975e-07 -1.0011400632954984e-06 0.0000000000000000e+00  2.6332941035701766e-07 -2.8195682276901202e-06 0.0000000000000000e+00  1.4470487697425285e-07 -1.5126586341500896e-06 0.0000000000000000e+00  1.7554798940166455e-07 -3.2517830992653874e-06 0.0000000000000000e+00  -8.5813362362129513e-08 -1.6031739294525017e-06 0.0000000000000000e+00  2.1385264892581654e-07 -3.3403503411437004e-06 0.0000000000000000e+00  -3.2311955468059495e-08 -2.3437909004299119e-06 0.0000000000000000e+00  3.0922909051853515e-07 -1.9799092785481509e-06 0.0000000000000000e+00  8.1536469492708021e-07 -2.2451067844289163e-06 0.0000000000000000e+00  -1.7952604441071273e-09 -3.2991712275618984e-06 0.0000000000000000e+00  -8.5598115359974292e-07 -1.3899858957195545e-06 0.0000000000000000e+00  -1.4220416261637055e-06 -2.6788949347318008e-06 0.0000000000000000e+00  6.1938348409775847e-07 -3.1027066220164562e-06 0.0000000000000000e+00  -4.9552513192778405e-07 -1.5112329563627420e-06 0.0000000000000000e+00  1.0044061482897321e-08 -2.6309583405829306e-06 0.0000000000000000e+00  -2.5813172804457174e-07 -2.1968330209301296e-06 0.0000000000000000e+00  -1.2936106755108594e-06 -1.3133874118273561e-06 0.0000000000000000e+00  -5.1693110677821310e-06 -2.7773639747592319e-06 0.0000000000000000e+00  -1.3647579277801605e-06 -1.0809703389399143e-05 0.0000000000000000e+00  -1.3059981749690377e-06 -1.2232803072115215e-05 0.0000000000000000e+00  2.0595246563268488e-06 -1.3806648517969188e-05 0.0000000000000000e+00  -1.7217638118727341e-06 -1.1546488219327710e-05 0.0000000000000000e+00  3.3360364404152601e-07 -9.9106744344053028e-06 0.0000000000000000e+00  1.5441335925173911e-06 -9.9874530183694700e-06 0.0000000000000000e+00  -8.3997027423383854e-07 -1.1781107875784029e-05 0.0000000000000000e+00  5.1189296858626859e-07 -1.0299057533009753e-05 0.0000000000000000e+00  -1.2123454010949241e-07 -1.0054103252351587e-05 0.0000000000000000e+00  -6.6163691574237432e-07 -1.0344671901002970e-05 0.0000000000000000e+00  -8.8770668297165974e-07 -1.0873804932479537e-05 0.0000000000000000e+00  -6.1892609527155751e-07 -1.1814439699049986e-05 0.0000000000000000e+00  -7.1851758157200730e-07 -1.2660850977821464e-05 0.0000000000000000e+00  -6.2199534034249446e-07 -1.3504040807573517e-05 0.0000000000000000e+00  -5.8396855940883085e-07 -1.4957431099977714e-05 0.0000000000000000e+00  -1.2041380062119525e-06 -1.5284473565856873e-05 0.0000000000000000e+00  -2.6480672936626472e-07 -1.6169112613603410e-05 0.0000000000000000e+00  -3.5452470011462688e-07 -1.6680438653713446e-05 0.0000000000000000e+00  -2.3272700842501714e-07 -1.7175316489924678e-05 0.0000000000000000e+00  -4.6577921909515473e-07 -1.8655307309062678e-05 0.0000000000000000e+00  6.3182488553417856e-07 -1.9509520121362310e-05 0.0000000000000000e+00  4.6651983242219591e-08 -2.1333970534502005e-05 0.0000000000000000e+00  8.5286711509614793e-07 -2.3098963390860283e-05 0.0000000000000000e+00  8.1561168419464076e-07 -2.3197293299145891e-05 0.0000000000000000e+00  3.8970606568915538e-06 -2.4039716543374729e-05 0.0000000000000000e+00  9.7727830234815893e-07 -2.4881479907933960e-05 0.0000000000000000e+00  5.8187136064682164e-06 -2.7087104753825358e-05 0.0000000000000000e+00  2.2964568576047460e-06 -2.4840184937990960e-05 0.0000000000000000e+00  1.8236953890858432e-05 -2.4926587018098523e-05 0.0000000000000000e+00  5.8637221554390192e-06 -2.0258484775483904e-05 0.0000000000000000e+00  -3.3405778340623688e-06 -2.9251164516320450e-05 0.0000000000000000e+00  1.4425595564043759e-05 -2.5987758476318513e-05 0.0000000000000000e+00  6.9582283994020306e-06 -3.2915213048071209e-05 0.0000000000000000e+00  1.5159506816535718e-05 -3.2284983492121697e-05 0.0000000000000000e+00  1.4537889372520520e-05 -3.3373802555755557e-05 0.0000000000000000e+00  2.1040713618702913e-05 -3.0927408755947320e-05 0.0000000000000000e+00  2.0203012002668939e-05 -2.9731509244589227e-05 0.0000000000000000e+00  2.7873806735900843e-05 -2.8001786202946206e-05 0.0000000000000000e+00  1.9013169452509274e-05 -3.0197043499178803e-05 0.0000000000000000e+00  2.4693496517802088e-05 -2.8160343855831756e-05 0.0000000000000000e+00  2.7376757379569891e-05 -2.9711548198007931e-05 0.0000000000000000e+00  3.5043524213105178e-05 -2.7046467844181725e-05 0.0000000000000000e+00  3.1391937794789013e-05 -2.7425937945377415e-05 0.0000000000000000e+00  3.7313881224329585e-05 -2.5594024866428814e-05 0.0000000000000000e+00  3.9870314754859481e-05 -2.4940404555030377e-05 0.0000000000000000e+00  4.2389990609789222e-05 -2.3631111849804288e-05 0.0000000000000000e+00  4.4237597982818031e-05 -2.2254275573471419e-05 0.0000000000000000e+00  4.7667933609502000e-05 -2.1003180707177719e-05 0.0000000000000000e+00  5.0734039072053562e-05 -1.9387520022202243e-05 0.0000000000000000e+00  5.2444212304061614e-05 -1.8168478821297654e-05 0.0000000000000000e+00  5.5000604737332457e-05 -1.6736052377376342e-05 0.0000000000000000e+00  5.8284012788624048e-05 -1.5217481918477157e-05 0.0000000000000000e+00  6.0439334232088500e-05 -1.3486290452322490e-05 0.0000000000000000e+00  6.2268203421619699e-05 -1.1863212649472355e-05 0.0000000000000000e+00  6.4283026035047634e-05 -1.0033842636095011e-05 0.0000000000000000e+00  6.6229003881617350e-05 -8.5761090437717019e-06 0.0000000000000000e+00  6.8300633585283813e-05 -7.2258959599016835e-06 0.0000000000000000e+00  6.8867320829637234e-05 -5.5952150978514039e-06 0.0000000000000000e+00  7.2797909271273687e-05 -4.4965851235028189e-06 0.0000000000000000e+00  7.5913130313427614e-05 -2.3924438479242689e-06 0.0000000000000000e+00  7.2230051680994490e-05 -1.6927614516764430e-06 0.0000000000000000e+00  7.4715132905386328e-05 2.0169669298057852e-07 0.0000000000000000e+00  7.6621812610477629e-05 1.3334273982433925e-06 0.0000000000000000e+00  7.7609528409490678e-05 2.3790128009324688e-06 0.0000000000000000e+00  7.8598988023554310e-05 3.6454011200501140e-06 0.0000000000000000e+00  7.9171692540761898e-05 4.5860776521683366e-06 0.0000000000000000e+00  7.9477513111390763e-05 5.6856626275547936e-06 0.0000000000000000e+00  7.9484403546489085e-05 6.5372019581414769e-06 0.0000000000000000e+00  7.9066795109534587e-05 7.3396368453445244e-06 0.0000000000000000e+00  7.9175565473867303e-05 7.6138943204582107e-06 0.0000000000000000e+00  7.9031862402960835e-05 8.3864502064648907e-06 0.0000000000000000e+00  7.9233662895088165e-05 8.7028836272759745e-06 0.0000000000000000e+00  7.8747790368992622e-05 9.4926891725743229e-06 0.0000000000000000e+00  7.8423466406249672e-05 9.7739930274566687e-06 0.0000000000000000e+00  7.7903870629173738e-05 1.0412113294942617e-05 0.0000000000000000e+00  7.7356087515440244e-05 1.1068329939789062e-05 0.0000000000000000e+00  7.5898862277160343e-05 1.1574363366807609e-05 0.0000000000000000e+00  7.4700757549892607e-05 1.1791264306420298e-05 0.0000000000000000e+00  7.3355988685694774e-05 1.2098227126437771e-05 0.0000000000000000e+00  7.2221307026033691e-05 1.1812280509158375e-05 0.0000000000000000e+00  7.1819487699074591e-05 1.1853660579626999e-05 0.0000000000000000e+00  7.1063557122848933e-05 1.1980973385436058e-05 0.0000000000000000e+00  6.9726122691292025e-05 1.2128997335885244e-05 0.0000000000000000e+00  6.8733116549289853e-05 1.2531064474432604e-05 0.0000000000000000e+00  6.6946695628557855e-05 1.2455372911870341e-05 0.0000000000000000e+00  6.5319562856664057e-05 1.2455480441384737e-05 0.0000000000000000e+00  6.3721625387996823e-05 1.2069995722892374e-05 0.0000000000000000e+00  6.1307052764056146e-05 1.2010979321283808e-05 0.0000000000000000e+00  6.0363397868331520e-05 1.1859092912819743e-05 0.0000000000000000e+00  5.8184378151564157e-05 1.1948242918140833e-05 0.0000000000000000e+00  5.6800188157218232e-05 1.2585449175223497e-05 0.0000000000000000e+00  5.7969627340108348e-05 1.3220211798249536e-05 0.0000000000000000e+00  5.3019842463636059e-05 1.6530062660245044e-05 0.0000000000000000e+00  5.1431853316048338e-05 1.3825414242540015e-05 0.0000000000000000e+00  5.1401988411354186e-05 1.2606549924518624e-05 0.0000000000000000e+00  4.8391177943968742e-05 1.2303663996017880e-05 0.0000000000000000e+00  4.8109949428114784e-05 1.1706142781205752e-05 0.0000000000000000e+00  4.6195667519798511e-05 1.1557639716229458e-05 0.0000000000000000e+00  4.4859431390571118e-05 1.1512354484519279e-05 0.0000000000000000e+00  4.4128584467806619e-05 1.1030557160639021e-05 0.0000000000000000e+00  4.2517484800044605e-05 1.0794419933036359e-05 0.0000000000000000e+00  4.0391818175381903e-05 1.0616554612949975e-05 0.0000000000000000e+00  3.8988997071857871e-05 1.0365168786239679e-05 0.0000000000000000e+00  3.7172320817980786e-05 1.0083060837975538e-05 0.0000000000000000e+00  3.6227526255303207e-05 9.9942733681543829e-06 0.0000000000000000e+00  3.4477697905654480e-05 1.0013491305277552e-05 0.0000000000000000e+00  3.2885363292591398e-05 1.0153923774327684e-05 0.0000000000000000e+00  3.1197495353380093e-05 9.5667821930158240e-06 0.0000000000000000e+00  2.9521124633423090e-05 8.7489415414151512e-06 0.0000000000000000e+00  2.8011592713103783e-05 8.5420192513593505e-06 0.0000000000000000e+00  2.7315252289661468e-05 8.5742930253537758e-06 0.0000000000000000e+00  2.6029423054881841e-05 8.4565158393542180e-06 0.0000000000000000e+00  2.4843084178066840e-05 8.2316360971981685e-06 0.0000000000000000e