<?xml version="1.0"?>
<VTKFile type="UnstructuredGrid"  version="0.1"  >
<UnstructuredGrid>
<Piece  NumberOfPoints="13179" NumberOfCells="25814">
<Points>
<DataArray  type="Float64"  NumberOfComponents="3"  format="ascii">0 0 0  30 0 0  30 -10 0  0 -10 0  0.02360821169319077 0 0  0.04721642338638154 0 0  0.07206717063563725 0 0  0.09691791788489297 0 0  0.1230766011355843 0 0  0.1492352843862757 0 0  0.1767707375239038 0 0  0.204306190661532 0 0  0.2332908770901271 0 0  0.2622755635187223 0 0  0.2927857633803451 0 0  0.323295963241968 0 0  0.3554119623832387 0 0  0.3875279615245094 0 0  0.4213342730081758 0 0  0.4551405844918422 0 0  0.4907261762804851 0 0  0.526311768069128 0 0  0.5637702848355051 0 0  0.6012288016018821 0 0  0.6406588220121138 0 0  0.6800888424223455 0 0  0.721594129780935 0 0  0.7630994171395246 0 0  0.8067891887833475 0 0  0.8504789604271704 0 0  0.8964681941825949 0 0  0.9424574279380195 0 0  0.9908671465681095 0 0  1.039276865198199 0 0  1.090234462786975 0 0  1.141192060375751 0 0  1.194831641933244 0 0  1.248471223490737 0 0  1.304933942963653 0 0  1.361396662436569 0 0  1.420831104471586 0 0  1.480265546506604 0 0  1.542828113436244 0 0  1.605390680365884 0 0  1.671246013469327 0 0  1.73710134657277 0 0  1.806422752814762 0 0  1.875744159056755 0 0  1.948714057431306 0 0  2.021683955805857 0 0  2.098494373901932 0 0  2.175304791998006 0 0  2.256157866653476 0 0  2.337010941308945 0 0  2.422119443935387 0 0  2.50722794656183 0 0  2.596815840700639 0 0  2.686403734839449 0 0  2.780706776094687 0 0  2.875009817349925 0 0  2.974276175689285 0 0  3.073542534028646 0 0  3.178033441002704 0 0  3.282524347976761 0 0  3.392514777963501 0 0  3.502505207950242 0 0  3.618284608533553 0 0  3.734064009116865 0 0  3.855937062816526 0 0  3.977810116516187 0 0  4.106097541496641 0 0  4.234384966477093 0 0  4.369424362562147 0 0  4.5044637586472 0 0  4.646610489729194 0 0  4.788757220811188 0 0  4.938385356669961 0 0  5.088013492528733 0 0  5.24551679218304 0 0  5.403020091837347 0 0  5.568813038399614 0 0  5.73460598496188 0 0  5.909124878408681 0 0  6.083643771855482 0 0  6.267347873338513 0 0  6.451051974821543 0 0  6.644424714363561 0 0  6.83779745390558 0 0  7.041347702348167 0 0  7.244897950790754 0 0  7.459161368238869 0 0  7.673424785686984 0 0  7.898965226038037 0 0  8.124505666389089 0 0  8.361916654054033 0 0  8.599327641718979 0 0  8.849233942517035 0 0  9.099140243315093 0 0  9.362199507946787 0 0  9.625258772578484 0 0  9.902163261537794 0 0  10.1790677504971 0 0  10.47054616023911 0 0  10.76202456998112 0 0  11.06884394887334 0 0  11.37566332776555 0 0  11.69863109504192 0 0  12.02159886231829 0 0  12.3615649378891 0 0  12.7015310134599 0 0  13.05939003847426 0 0  13.41724906348862 0 0  13.79394276982091 0 0  14.1706364761532 0 0  14.5671561683298 0 0  14.96367586050641 0 0  15.38106501332897 0 0  15.79845416615153 0 0  16.23781117165827 0 0  16.677168177165 0 0  17.13964923659526 0 0  17.60213029602552 0 0  18.0889524622663 0 0  18.57577462850707 0 0  19.08821901304263 0 0  19.60066339757818 0 0  20.14007853843172 0 0  20.67949367928525 0 0  21.24729908993883 0 0  21.8151045005924 0 0  22.41279440541421 0 0  23.01048431023601 0 0  23.63963157605829 0 0  24.26877884188056 0 0  24.93103912515648 0 0  25.59329940843241 0 0  26.29041549584691 0 0  26.98753158326142 0 0  27.72133799026916 0 0  28.45514439727691 0 0  29.22757219863846 0 0  30 -0.3571428571428571 0  30 -0.7142857142857142 0  30 -1.071428571428571 0  30 -1.428571428571428 0  30 -1.785714285714286 0  30 -2.142857142857143 0  30 -2.5 0  30 -2.857142857142857 0  30 -3.214285714285714 0  30 -3.571428571428571 0  30 -3.928571428571428 0  30 -4.285714285714286 0  30 -4.642857142857142 0  30 -5 0  30 -5.357142857142857 0  30 -5.714285714285714 0  30 -6.071428571428571 0  30 -6.428571428571428 0  30 -6.785714285714285 0  30 -7.142857142857142 0  30 -7.5 0  30 -7.857142857142857 0  30 -8.214285714285714 0  30 -8.571428571428571 0  30 -8.928571428571427 0  30 -9.285714285714285 0  30 -9.642857142857142 0  29.22757220128658 -10 0  28.45514440257316 -10 0  27.72133799277628 -10 0  26.98753158297939 -10 0  26.29041549304805 -10 0  25.5932994031167 -10 0  24.93103911757599 -10 0  24.26877883203527 -10 0  23.63963156418132 -10 0  23.01048429632737 -10 0  22.41279438968936 -10 0  21.81510448305136 -10 0  21.24729907078059 -10 0  20.67949365850982 -10 0  20.14007851622273 -10 0  19.60066337393564 -10 0  19.08821898813588 -10 0  18.57577460233611 -10 0  18.08895243498708 -10 0  17.60213026763805 -10 0  17.13964920724307 -10 0  16.6771681468481 -10 0  16.2378111405086 -10 0  15.79845413416909 -10 0  15.38106498063496 -10 0  14.96367582710082 -10 0  14.56715613432376 -10 0  14.17063644154669 -10 0  13.79394273471576 -10 0  13.41724902788484 -10 0  13.05939000246495 -10 0  12.70153097704506 -10 0  12.36156490115379 -10 0  12.02159882526251 -10 0  11.69863105774323 -10 0  11.37566329022395 -10 0  11.06884391115945 -10 0  10.76202453209494 -10 0  10.47054612224479 -10 0  10.17906771239465 -10 0  9.902163223385379 -10 0  9.625258734376107 -10 0  9.362199469747061 -10 0  9.099140205118012 -10 0  8.849233904370102 -10 0  8.599327603622193 -10 0  8.361916616050124 -10 0  8.124505628478055 -10 0  7.898965188258209 -10 0  7.673424748038361 -10 0  7.459161330755727 -10 0  7.244897913473093 -10 0  7.041347665226496 -10 0  6.837797416979896 -10 0  6.644424677660922 -10 0  6.451051938341948 -10 0  6.26734783710581 -10 0  6.083643735869675 -10 0  5.90912484269068 -10 0  5.734605949511682 -10 0  5.568813003235423 -10 0  5.403020056959164 -10 0  5.24551675760658 -10 0  5.088013458254 -10 0  4.938385322710374 -10 0  4.788757187166745 -10 0  4.646610456411224 -10 0  4.504463725655707 -10 0  4.369424329906533 -10 0  4.234384934157362 -10 0  4.106097509520442 -10 0  3.977810084883522 -10 0  3.85593703153344 -10 0  3.734063978183357 -10 0  3.618284577954206 -10 0  3.502505177725055 -10 0  3.392514748095728 -10 0  3.282524318466404 -10 0  3.1780334118518 -10 0  3.073542505237196 -10 0  2.97427614725823 -10 0  2.875009789279265 -10 0  2.780706748384375 -10 0  2.686403707489482 -10 0  2.596815813710069 -10 0  2.507227919930656 -10 0  2.422119417661861 -10 0  2.337010915393062 -10 0  2.256157841092762 -10 0  2.175304766792465 -10 0  2.098494349048437 -10 0  2.021683931304413 -10 0  1.948714033278215 -10 0  1.875744135252013 -10 0  1.806422729354161 -10 0  1.737101323456312 -10 0  1.671245990692352 -10 0  1.605390657928396 -10 0  1.542828091333185 -10 0  1.480265524737977 -10 0  1.420831083031992 -10 0  1.36139664132601 -10 0  1.304933922176438 -10 0  1.248471203026863 -10 0  1.194831621786765 -10 0  1.14119204054667 -10 0  1.09023444350921 -10 0  1.039276846471754 -10 0  0.9908671279064798 -10 0  0.942457409341209 -10 0  0.8964681758842019 -10 0  0.8504789424271948 -10 0  0.8067891710751951 -10 0  0.7630993997231954 -10 0  0.7215941126497469 -10 0  0.6800888255762949 -10 0  0.6406588054444597 -10 0  0.6012287853126246 -10 0  0.5637702688178621 -10 0  0.5263117523230996 -10 0  0.4907261607992695 -10 0  0.4551405692754429 -10 0  0.4213342580497894 -10 0  0.3875279468241395 -10 0  0.3554119479341011 -10 0  0.3232959490440663 -10 0  0.2927857494269297 -10 0  0.2622755498097931 -10 0  0.2332908636189828 -10 0  0.2043061774281725 -10 0  0.1767707245216883 -10 0  0.1492352716152006 -10 0  0.1230765885890825 -10 0  0.09691790556296098 -10 0  0.0720671585317838 -10 0  0.04721641150060663 -10 0  0.02360820575030331 -10 0  0 -9.957983193277311 0  0 -9.915966386554622 0  0 -9.873949579831933 0  0 -9.831932773109244 0  0 -9.789915966386555 0  0 -9.747899159663866 0  0 -9.705882352941176 0  0 -9.663865546218487 0  0 -9.621848739495798 0  0 -9.579831932773109 0  0 -9.53781512605042 0  0 -9.495798319327731 0  0 -9.453781512605042 0  0 -9.411764705882353 0  0 -9.369747899159664 0  0 -9.327731092436975 0  0 -9.285714285714286 0  0 -9.243697478991596 0  0 -9.201680672268907 0  0 -9.159663865546218 0  0 -9.117647058823529 0  0 -9.07563025210084 0  0 -9.033613445378151 0  0 -8.991596638655462 0  0 -8.949579831932773 0  0 -8.907563025210084 0  0 -8.865546218487395 0  0 -8.823529411764707 0  0 -8.781512605042018 0  0 -8.739495798319329 0  0 -8.69747899159664 0  0 -8.655462184873949 0  0 -8.61344537815126 0  0 -8.571428571428571 0  0 -8.529411764705882 0  0 -8.487394957983193 0  0 -8.445378151260504 0  0 -8.403361344537815 0  0 -8.361344537815127 0  0 -8.319327731092438 0  0 -8.277310924369749 0  0 -8.235294117647058 0  0 -8.193277310924369 0  0 -8.15126050420168 0  0 -8.109243697478991 0  0 -8.067226890756302 0  0 -8.025210084033613 0  0 -7.983193277310924 0  0 -7.941176470588236 0  0 -7.899159663865547 0  0 -7.857142857142857 0  0 -7.815126050420168 0  0 -7.773109243697479 0  0 -7.73109243697479 0  0 -7.689075630252101 0  0 -7.647058823529411 0  0 -7.605042016806722 0  0 -7.563025210084033 0  0 -7.521008403361344 0  0 -7.478991596638656 0  0 -7.436974789915967 0  0 -7.394957983193278 0  0 -7.352941176470589 0  0 -7.3109243697479 0  0 -7.26890756302521 0  0 -7.226890756302521 0  0 -7.184873949579832 0  0 -7.142857142857143 0  0 -7.100840336134453 0  0 -7.058823529411764 0  0 -7.016806722689076 0  0 -6.974789915966387 0  0 -6.932773109243698 0  0 -6.890756302521009 0  0 -6.84873949579832 0  0 -6.806722689075631 0  0 -6.764705882352941 0  0 -6.722689075630252 0  0 -6.680672268907563 0  0 -6.638655462184874 0  0 -6.596638655462185 0  0 -6.554621848739496 0  0 -6.512605042016807 0  0 -6.470588235294118 0  0 -6.428571428571429 0  0 -6.38655462184874 0  0 -6.344537815126051 0  0 -6.302521008403362 0  0 -6.260504201680672 0  0 -6.218487394957983 0  0 -6.176470588235294 0  0 -6.134453781512605 0  0 -6.092436974789917 0  0 -6.050420168067227 0  0 -6.008403361344538 0  0 -5.966386554621849 0  0 -5.92436974789916 0  0 -5.882352941176471 0  0 -5.840336134453782 0  0 -5.798319327731092 0  0 -5.756302521008403 0  0 -5.714285714285714 0  0 -5.672268907563025 0  0 -5.630252100840336 0  0 -5.588235294117647 0 
[...]
<PointData  Vectors="flow"> 
<DataArray  type="Float64"  Name="flow"  NumberOfComponents="3" format="ascii">-2.3039843584183688e-02 1.1244630862927754e-01 0.0000000000000000e+00  3.1092531956130331e-06 4.3240801090992627e-05 0.0000000000000000e+00  -1.6333829119679065e-06 -8.7299436469055995e-07 0.0000000000000000e+00  -8.8064739324271375e-07 2.1660937736482077e-06 0.0000000000000000e+00  2.2410852409691677e-03 1.0426070105547199e-01 0.0000000000000000e+00  5.7176651174353083e-03 1.0093761133323283e-01 0.0000000000000000e+00  -2.8625267009154418e-03 8.7174087887479587e-02 0.0000000000000000e+00  2.5580988261193660e-03 7.5528532519665167e-02 0.0000000000000000e+00  -1.1279264203165247e-03 6.5913072030057682e-02 0.0000000000000000e+00  -1.5237906342335255e-05 5.8570394562991769e-02 0.0000000000000000e+00  -2.9821343263554276e-04 4.9824788255339356e-02 0.0000000000000000e+00  6.5020741656908476e-04 4.1506668007575673e-02 0.0000000000000000e+00  -8.4884246690957680e-04 3.6384130909331104e-02 0.0000000000000000e+00  5.5929794036859576e-04 2.9946758771638438e-02 0.0000000000000000e+00  -6.6233230917332601e-04 2.6970849619532142e-02 0.0000000000000000e+00  3.2915299310589085e-04 2.1866619401598782e-02 0.0000000000000000e+00  -8.4399795081747174e-05 1.8579160163200038e-02 0.0000000000000000e+00  9.7024614966362411e-06 1.6061003456605247e-02 0.0000000000000000e+00  2.7220469795490471e-04 1.3312045845457657e-02 0.0000000000000000e+00  -2.1020363013020925e-04 1.1730083411282413e-02 0.0000000000000000e+00  -1.8057607933713324e-04 1.0135453598892423e-02 0.0000000000000000e+00  6.5827090633512921e-05 8.6601715702790388e-03 0.0000000000000000e+00  1.5144084917674606e-04 7.4017120318467990e-03 0.0000000000000000e+00  -9.9756969031261102e-05 6.5972999101326568e-03 0.0000000000000000e+00  -3.1909858435720730e-05 5.7328206854914939e-03 0.0000000000000000e+00  9.7206173424947015e-05 5.0282465609383480e-03 0.0000000000000000e+00  -1.3163257599876140e-04 4.5162800330440182e-03 0.0000000000000000e+00  1.8885680232692890e-05 3.9467384347924728e-03 0.0000000000000000e+00  7.7646062160634016e-05 3.4356562682562397e-03 0.0000000000000000e+00  -5.1149460359424194e-05 3.1159833794349432e-03 0.0000000000000000e+00  1.9207997642094798e-05 2.7081983083284389e-03 0.0000000000000000e+00  -7.1701122589560414e-06 2.4248465015998819e-03 0.0000000000000000e+00  1.9847168655907919e-05 2.1594269451033496e-03 0.0000000000000000e+00  -7.7862460262602652e-07 1.9213496413734157e-03 0.0000000000000000e+00  7.6452413666295797e-06 1.7273791999377331e-03 0.0000000000000000e+00  -2.9221807015649286e-06 1.5352982869808300e-03 0.0000000000000000e+00  -7.9668209195771186e-07 1.3680480348786592e-03 0.0000000000000000e+00  -4.2704381423011546e-07 1.2243879644720313e-03 0.0000000000000000e+00  3.6956515909993769e-06 1.0803034554782373e-03 0.0000000000000000e+00  1.2563336226709072e-05 9.6528890902940667e-04 0.0000000000000000e+00  -2.9802169047194866e-05 8.6336128992019624e-04 0.0000000000000000e+00  2.0669846819839177e-05 7.4742302702361532e-04 0.0000000000000000e+00  -7.4106382737332858e-06 6.6900568142506977e-04 0.0000000000000000e+00  1.6543225384710509e-05 5.6114589978416502e-04 0.0000000000000000e+00  -1.6103372749464241e-05 5.1614949580740992e-04 0.0000000000000000e+00  7.0927985163773100e-07 4.6125116062891770e-04 0.0000000000000000e+00  1.1318661529439040e-06 3.9549308504627066e-04 0.0000000000000000e+00  8.9674345914387019e-09 3.4325758006566138e-04 0.0000000000000000e+00  1.7384648307819330e-06 2.9764705712096953e-04 0.0000000000000000e+00  -6.1835732536225563e-07 2.5278902815528914e-04 0.0000000000000000e+00  3.3024679959122521e-06 2.0677438295437485e-04 0.0000000000000000e+00  -1.9352584179159583e-06 1.7837530800728378e-04 0.0000000000000000e+00  1.0469780331207497e-07 1.4515462357518643e-04 0.0000000000000000e+00  -1.0290695297090850e-08 1.1568297713467787e-04 0.0000000000000000e+00  -2.2878602859201366e-07 8.8473458511853707e-05 0.0000000000000000e+00  1.2732741197551146e-07 6.3585621761541418e-05 0.0000000000000000e+00  1.0847000932417822e-07 4.3088064999758090e-05 0.0000000000000000e+00  3.1079476831254105e-07 2.2750044694188011e-05 0.0000000000000000e+00  1.2445476441626799e-07 2.3193292810754234e-06 0.0000000000000000e+00  -4.2353531028446916e-07 -1.3028501044101682e-05 0.0000000000000000e+00  -8.9155427330973909e-07 -2.3136356607789454e-05 0.0000000000000000e+00  -7.0067785060385935e-07 -3.4263369960161736e-05 0.0000000000000000e+00  1.1241456576619411e-06 -4.9678656557836853e-05 0.0000000000000000e+00  -6.4640235528586413e-07 -5.9596962262464477e-05 0.0000000000000000e+00  2.9495299729077381e-07 -6.8066589203672921e-05 0.0000000000000000e+00  -1.3319581722157552e-06 -7.8016677820367955e-05 0.0000000000000000e+00  -2.8658498475493695e-08 -8.2547212625033473e-05 0.0000000000000000e+00  -8.9895443705822080e-07 -8.7571315895900508e-05 0.0000000000000000e+00  -1.9349328041840279e-06 -9.0816812138430514e-05 0.0000000000000000e+00  1.3591513966243479e-06 -9.2696046448236596e-05 0.0000000000000000e+00  -1.4875916830437043e-06 -9.1885941292764171e-05 0.0000000000000000e+00  -1.3198922974203043e-06 -9.0307460509273416e-05 0.0000000000000000e+00  7.0212171800894861e-07 -9.5774862424193225e-05 0.0000000000000000e+00  2.4894834341438624e-07 -1.0076781990467518e-04 0.0000000000000000e+00  -6.6173928465608138e-07 -9.9748664185993931e-05 0.0000000000000000e+00  -1.3410549575303499e-07 -9.9657420710847817e-05 0.0000000000000000e+00  -1.3959333981282123e-06 -9.7531957844314862e-05 0.0000000000000000e+00  -2.8190039817500369e-07 -9.4808368295604969e-05 0.0000000000000000e+00  -9.9155696046291103e-07 -9.2067424343952918e-05 0.0000000000000000e+00  2.3912118343563761e-07 -8.9156479855082845e-05 0.0000000000000000e+00  4.1388714474932253e-07 -8.6771825610086509e-05 0.0000000000000000e+00  -3.2586521341915371e-06 -8.4885305939453131e-05 0.0000000000000000e+00  1.0502315050536991e-05 -8.3962588326111237e-05 0.0000000000000000e+00  -9.1650473225783065e-06 -7.8486308497781405e-05 0.0000000000000000e+00  -1.8055272152572864e-08 -7.0386386400819991e-05 0.0000000000000000e+00  -8.6782391850046933e-08 -6.5365444982802364e-05 0.0000000000000000e+00  6.4035249705013344e-07 -5.9162353493532752e-05 0.0000000000000000e+00  -3.0680348941224241e-06 -5.2085384114817787e-05 0.0000000000000000e+00  2.9836779017538018e-06 -5.0273871245319079e-05 0.0000000000000000e+00  3.7837304648375238e-07 -4.8266455251097144e-05 0.0000000000000000e+00  -1.3148328913071488e-06 -4.1983242668235185e-05 0.0000000000000000e+00  -1.0882533702583517e-06 -3.4856440863830271e-05 0.0000000000000000e+00  1.8729774260234702e-07 -2.8136372498565389e-05 0.0000000000000000e+00  -8.8399898580459752e-08 -2.2381591880283806e-05 0.0000000000000000e+00  -4.1841925096721733e-07 -1.6604754503126364e-05 0.0000000000000000e+00  1.2254347701564774e-07 -1.0787838349379597e-05 0.0000000000000000e+00  9.3571397186763084e-08 -5.2953416671640910e-06 0.0000000000000000e+00  -4.1999700127841404e-07 6.5268521715512410e-07 0.0000000000000000e+00  1.1712342239926115e-07 5.5302456832014912e-06 0.0000000000000000e+00  -3.5640350891140915e-07 1.0949321640178965e-05 0.0000000000000000e+00  9.6389985762614180e-07 1.4933813280860275e-05 0.0000000000000000e+00  -4.5158047031975730e-07 1.9674638096549315e-05 0.0000000000000000e+00  2.7177403865217925e-07 2.4912624011346343e-05 0.0000000000000000e+00  -4.5611871413591224e-07 2.8830653626927204e-05 0.0000000000000000e+00  5.6408548418216756e-07 3.3965330239870265e-05 0.0000000000000000e+00  -2.4475469480223281e-06 3.8713347306934765e-05 0.0000000000000000e+00  -7.8610486592971644e-07 3.4979221802023544e-05 0.0000000000000000e+00  4.9698263100837446e-06 4.4232774825161964e-05 0.0000000000000000e+00  -6.8484971093715283e-06 4.8077256924656674e-05 0.0000000000000000e+00  8.1525465966865892e-06 4.7097260573276796e-05 0.0000000000000000e+00  -5.9954177610948107e-06 4.8613228533469618e-05 0.0000000000000000e+00  -9.9064674319358783e-07 4.4039845526773382e-05 0.0000000000000000e+00  6.2077914450923828e-06 5.6871821674847321e-05 0.0000000000000000e+00  -2.0289688541981797e-06 5.5992453103209956e-05 0.0000000000000000e+00  1.9061838253448616e-08 5.6733611101467153e-05 0.0000000000000000e+00  5.3816663221586570e-06 4.9283199422741086e-05 0.0000000000000000e+00  -2.7163053331530850e-06 4.8358847010728191e-05 0.0000000000000000e+00  -1.1594306299495668e-06 5.3893239959984934e-05 0.0000000000000000e+00  3.2908474559987693e-07 5.6696737473502019e-05 0.0000000000000000e+00  -8.9233426362574104e-07 5.6228050110151798e-05 0.0000000000000000e+00  5.0874188665846181e-06 4.8872579978373632e-05 0.0000000000000000e+00  -2.3039680919735795e-06 4.7389720934862098e-05 0.0000000000000000e+00  -2.1420729099695497e-07 5.0266853751912736e-05 0.0000000000000000e+00  6.0539564259006277e-07 5.0343293655698440e-05 0.0000000000000000e+00  2.6499156751427596e-07 4.9107986587119349e-05 0.0000000000000000e+00  2.7165812487212033e-07 4.7825811157627230e-05 0.0000000000000000e+00  3.7846800124588570e-07 4.6150380861530278e-05 0.0000000000000000e+00  9.8696285777683264e-07 4.3563072320738702e-05 0.0000000000000000e+00  1.6185248248743809e-07 4.1523038768663581e-05 0.0000000000000000e+00  -7.1135781279780216e-07 4.1497525212191147e-05 0.0000000000000000e+00  3.1652641421809336e-07 4.1319799806808295e-05 0.0000000000000000e+00  2.4712737579504500e-07 3.9444647077462071e-05 0.0000000000000000e+00  1.3574445533545348e-06 3.6354242126834639e-05 0.0000000000000000e+00  -3.0649251444932954e-07 3.4754585310316016e-05 0.0000000000000000e+00  -1.0855004023486265e-06 3.5055272404127333e-05 0.0000000000000000e+00  2.8011687622997382e-06 2.9963285615344537e-05 0.0000000000000000e+00  5.6066494371742100e-07 2.6000008171715859e-05 0.0000000000000000e+00  -1.7362927181494755e-06 2.6901320780360569e-05 0.0000000000000000e+00  3.6726504380984820e-07 2.9377573763880771e-05 0.0000000000000000e+00  -9.0770801434168884e-08 2.8737380613474904e-05 0.0000000000000000e+00  -3.4379160786631013e-06 2.8602429010980229e-05 0.0000000000000000e+00  1.4578942144407454e-05 4.1988810778400250e-06 0.0000000000000000e+00  1.4012051181855739e-05 -1.4640965448230451e-05 0.0000000000000000e+00  -6.7507809406935486e-06 1.2968294670288623e-05 0.0000000000000000e+00  4.0245150683416340e-06 -7.6712624379465438e-06 0.0000000000000000e+00  -1.6607813811212802e-06 2.8924576908563277e-06 0.0000000000000000e+00  3.1327575972542028e-07 -1.8233913009259800e-06 0.0000000000000000e+00  9.6820593971363074e-08 5.8001801339086954e-08 0.0000000000000000e+00  -1.3288663308333360e-07 -3.7368699718004328e-07 0.0000000000000000e+00  1.5443736228773530e-07 -6.2651213220774163e-07 0.0000000000000000e+00  2.6066839451262038e-07 -7.4240731601865401e-08 0.0000000000000000e+00  8.2175028452105227e-08 -6.6681598516347543e-07 0.0000000000000000e+00  7.2314076900560009e-08 -1.5668734534596800e-07 0.0000000000000000e+00  4.7556454440471153e-08 -7.7288240595035631e-07 0.0000000000000000e+00  -2.8544329579005650e-08 -1.6891419761449892e-07 0.0000000000000000e+00  1.2171668082924990e-07 -7.6759242190853739e-07 0.0000000000000000e+00  6.2117308091012456e-09 -3.8799950394821710e-07 0.0000000000000000e+00  1.3998797661505565e-07 -4.3115561445108658e-07 0.0000000000000000e+00  2.8494847156552481e-07 -3.9468188364856581e-07 0.0000000000000000e+00  -7.7720764497187881e-08 -6.3839971566062537e-07 0.0000000000000000e+00  -3.8889266908656558e-07 -1.6173850168419524e-07 0.0000000000000000e+00  -5.6387004293134764e-07 -5.7709576381940023e-07 0.0000000000000000e+00  4.2201230568961166e-07 -5.2366629371379835e-07 0.0000000000000000e+00  -2.9187340112648445e-07 -3.8603935216035955e-07 0.0000000000000000e+00  2.9966271873525312e-07 -2.3524734074300224e-07 0.0000000000000000e+00  -1.2142584669747765e-07 -6.9013203046869256e-07 0.0000000000000000e+00  -1.8879865930963361e-07 -4.1240313708289633e-08 0.0000000000000000e+00  -2.0711398188811177e-06 -1.2717860234379036e-07 0.0000000000000000e+00  -2.8045104112179938e-07 -3.1241349172411408e-06 0.0000000000000000e+00  -4.0903338451384105e-07 -3.3380832222555318e-06 0.0000000000000000e+00  6.5738416675434499e-07 -3.9818652934375562e-06 0.0000000000000000e+00  -5.2529878938258289e-07 -2.9127044112000841e-06 0.0000000000000000e+00  7.2231324784746026e-08 -2.5367328244152112e-06 0.0000000000000000e+00  5.0894185127469056e-07 -2.6791382843859081e-06 0.0000000000000000e+00  -3.3458922702131101e-07 -3.4552572600164288e-06 0.0000000000000000e+00  2.6243311138013093e-07 -2.8589137108288965e-06 0.0000000000000000e+00  -6.3776035039214472e-08 -2.9441732938580640e-06 0.0000000000000000e+00  -1.2056339214730677e-07 -3.0160264365664933e-06 0.0000000000000000e+00  -2.1607876231781827e-07 -3.1691755841555602e-06 0.0000000000000000e+00  -1.1984765077742167e-07 -3.4493522337578537e-06 0.0000000000000000e+00  -1.8326592675787817e-07 -3.7069568782672714e-06 0.0000000000000000e+00  -1.2903480905172890e-07 -4.0156028360873095e-06 0.0000000000000000e+00  -1.4444366623438913e-07 -4.6148101147221730e-06 0.0000000000000000e+00  -2.2413308890303746e-07 -4.8081232902931811e-06 0.0000000000000000e+00  -5.8383740833224509e-08 -5.1599647851009640e-06 0.0000000000000000e+00  -4.7369578467783459e-08 -5.3235319359776720e-06 0.0000000000000000e+00  -1.7091821378975697e-08 -5.4007728462779928e-06 0.0000000000000000e+00  -1.3715422399882321e-07 -5.7892631700015168e-06 0.0000000000000000e+00  1.7062873035082425e-07 -6.0014667661276978e-06 0.0000000000000000e+00  -8.8625287697655997e-08 -6.6412692152930379e-06 0.0000000000000000e+00  2.7994822084822458e-07 -7.3880361687031671e-06 0.0000000000000000e+00  -3.3783223114919568e-08 -7.3115866231767689e-06 0.0000000000000000e+00  1.0492329600382300e-06 -7.5502882532128357e-06 0.0000000000000000e+00  -1.4807890595230129e-07 -7.5107311487372666e-06 0.0000000000000000e+00  1.7346790584765026e-06 -8.2849513451650845e-06 0.0000000000000000e+00  -3.8352763468202589e-07 -7.4117638203876332e-06 0.0000000000000000e+00  4.8164691697112720e-06 -8.3013571854807342e-06 0.0000000000000000e+00  7.4158054575379629e-07 -8.2310342115636489e-06 0.0000000000000000e+00  -1.9534274657612092e-06 -1.0243510373787966e-05 0.0000000000000000e+00  3.7533758192907800e-06 -8.1000008703265299e-06 0.0000000000000000e+00  4.9846929030265764e-07 -1.0592989960266727e-05 0.0000000000000000e+00  3.5723045982105830e-06 -9.7813364691147568e-06 0.0000000000000000e+00  2.3124719080580146e-06 -1.0493929351663894e-05 0.0000000000000000e+00  4.7207845039677360e-06 -9.9804317630773302e-06 0.0000000000000000e+00  3.2331564688206545e-06 -9.6890535876002927e-06 0.0000000000000000e+00  6.8663309352521608e-06 -9.4872873252778796e-06 0.0000000000000000e+00  2.2262789347007108e-06 -1.0854237128461494e-05 0.0000000000000000e+00  5.1817175905141866e-06 -9.1399864137301436e-06 0.0000000000000000e+00  4.9861569628899675e-06 -9.6960330410996364e-06 0.0000000000000000e+00  7.2810295296830000e-06 -8.5572493409581940e-06 0.0000000000000000e+00  5.5966088526024330e-06 -8.8820951953380463e-06 0.0000000000000000e+00  7.4929247306406801e-06 -8.2243343130186572e-06 0.0000000000000000e+00  7.6128640173628950e-06 -8.2102302609300971e-06 0.0000000000000000e+00  8.2552101903437405e-06 -7.7341270676327025e-06 0.0000000000000000e+00  8.5053516398885659e-06 -7.3231779028987029e-06 0.0000000000000000e+00  9.2137163098080840e-06 -6.9811101742552278e-06 0.0000000000000000e+00  9.8691708884172626e-06 -6.4078923696393039e-06 0.0000000000000000e+00  1.0052444488842937e-05 -6.0253052588547714e-06 0.0000000000000000e+00  1.0578403369148243e-05 -5.5385110644567040e-06 0.0000000000000000e+00  1.1299450244441610e-05 -5.0600766817040797e-06 0.0000000000000000e+00  1.1668296924601433e-05 -4.4916855676507495e-06 0.0000000000000000e+00  1.1987034677845819e-05 -3.9721257309924910e-06 0.0000000000000000e+00  1.2388614264430727e-05 -3.3535155650804734e-06 0.0000000000000000e+00  1.2714769315682279e-05 -2.8937212360126884e-06 0.0000000000000000e+00  1.3229319148575448e-05 -2.4427156007970637e-06 0.0000000000000000e+00  1.3009240823955411e-05 -1.8979270144868799e-06 0.0000000000000000e+00  1.4033816656778571e-05 -1.6139036414088269e-06 0.0000000000000000e+00  1.5046726862726302e-05 -8.1328192353999174e-07 0.0000000000000000e+00  1.3382743450328074e-05 -6.8409969383340767e-07 0.0000000000000000e+00  1.4414880824574021e-05 2.4617654178415246e-08 0.0000000000000000e+00  1.4768013178259861e-05 3.4583960798322715e-07 0.0000000000000000e+00  1.4843065273246455e-05 6.6345296519991633e-07 0.0000000000000000e+00  1.5076017499319850e-05 1.1339757666100092e-06 0.0000000000000000e+00  1.5163487036970778e-05 1.4426709671516244e-06 0.0000000000000000e+00  1.5215355288873799e-05 1.8135914333936819e-06 0.0000000000000000e+00  1.5239720676210651e-05 2.0689079367996273e-06 0.0000000000000000e+00  1.5044803319232462e-05 2.3519898568037235e-06 0.0000000000000000e+00  1.5151341107278019e-05 2.4060559937421843e-06 0.0000000000000000e+00  1.5028901476228630e-05 2.6896014066534968e-06 0.0000000000000000e+00  1.5219482340381511e-05 2.7526347757682823e-06 0.0000000000000000e+00  1.5013936100912811e-05 3.0321562795256300e-06 0.0000000000000000e+00  1.4973821458698446e-05 3.1298044868639796e-06 0.0000000000000000e+00  1.4877487461046676e-05 3.3357902937790058e-06 0.0000000000000000e+00  1.4875685203868126e-05 3.5355573344300129e-06 0.0000000000000000e+00  1.4431698877875493e-05 3.7233156460636619e-06 0.0000000000000000e+00  1.4271070920439436e-05 3.7719167586268169e-06 0.0000000000000000e+00  1.3927612321765916e-05 3.8511855489432417e-06 0.0000000000000000e+00  1.3696965056157016e-05 3.7528160911074151e-06 0.0000000000000000e+00  1.3742517866656160e-05 3.7549683440801018e-06 0.0000000000000000e+00  1.3560335312564057e-05 3.8181477148661047e-06 0.0000000000000000e+00  1.3349950910700820e-05 3.8502748325167574e-06 0.0000000000000000e+00  1.3162734816473347e-05 3.9847678228396120e-06 0.0000000000000000e+00  1.2754379969383418e-05 3.9768237044314330e-06 0.0000000000000000e+00  1.2436485390999373e-05 3.9814011720511101e-06 0.0000000000000000e+00  1.2155185850469240e-05 3.8671520482380490e-06 0.0000000000000000e+00  1.1590212399509446e-05 3.8434202021556310e-06 0.0000000000000000e+00  1.1467082800073215e-05 3.7856262544154853e-06 0.0000000000000000e+00  1.0963236528125887e-05 3.8555990220594448e-06 0.0000000000000000e+00  1.0921205555441189e-05 3.9998101538421524e-06 0.0000000000000000e+00  1.1339526391713244e-05 4.1657939179234394e-06 0.0000000000000000e+00  9.8899809144890660e-06 5.0198343459169489e-06 0.0000000000000000e+00  9.5956085841714614e-06 4.3562414069665582e-06 0.0000000000000000e+00  9.8845502580609796e-06 4.0245598343952317e-06 0.0000000000000000e+00  8.9395017849183822e-06 3.9095174483973535e-06 0.0000000000000000e+00  9.1567315220612250e-06 3.6973480505401878e-06 0.0000000000000000e+00  8.7335326344558442e-06 3.6433519847141403e-06 0.0000000000000000e+00  8.4499033110453807e-06 3.6040040953975543e-06 0.0000000000000000e+00  8.5293989914862082e-06 3.4738072153377138e-06 0.0000000000000000e+00  8.2074921514618208e-06 3.4005045907772385e-06 0.0000000000000000e+00  7.6777834205085916e-06 3.3288015067066808e-06 0.0000000000000000e+00  7.3730313471295044e-06 3.2540321002431210e-06 0.0000000000000000e+00  7.0150480719762836e-06 3.1635739104250747e-06 0.0000000000000000e+00  6.9296904350183078e-06 3.1337266456088788e-06 0.0000000000000000e+00  6.6531539746789412e-06 3.1224919271850079e-06 0.0000000000000000e+00  6.2954549696507599e-06 3.1434113115771927e-06 0.0000000000000000e+00  5.8443075605673795e-06 2.9700960982225191e-06 0.0000000000000000e+00  5.4904549476921821e-06 2.7353072164049214e-06 0.0000000000000000e+00  5.2254368736602675e-06 2.6578405544698849e-06 0.0000000000000000e+00  5.1948905926902164e-06 2.6495980937977235e-06 0.0000000000000000e+00  4.9890860841472636e-06 2.6107575796943671e-06 0.0000000000000000e+00  4.7698254354238152e-06 2.5416269607345524e-06 0.0000000000000000