<?xml version="1.0"?>
<VTKFile type="UnstructuredGrid"  version="0.1"  >
<UnstructuredGrid>
<Piece  NumberOfPoints="13179" NumberOfCells="25814">
<Points>
<DataArray  type="Float64"  NumberOfComponents="3"  format="ascii">0 0 0  30 0 0  30 -10 0  0 -10 0  0.02360821169319077 0 0  0.04721642338638154 0 0  0.07206717063563725 0 0  0.09691791788489297 0 0  0.1230766011355843 0 0  0.1492352843862757 0 0  0.1767707375239038 0 0  0.204306190661532 0 0  0.2332908770901271 0 0  0.2622755635187223 0 0  0.2927857633803451 0 0  0.323295963241968 0 0  0.3554119623832387 0 0  0.3875279615245094 0 0  0.4213342730081758 0 0  0.4551405844918422 0 0  0.4907261762804851 0 0  0.526311768069128 0 0  0.5637702848355051 0 0  0.6012288016018821 0 0  0.6406588220121138 0 0  0.6800888424223455 0 0  0.721594129780935 0 0  0.7630994171395246 0 0  0.8067891887833475 0 0  0.8504789604271704 0 0  0.8964681941825949 0 0  0.9424574279380195 0 0  0.9908671465681095 0 0  1.039276865198199 0 0  1.090234462786975 0 0  1.141192060375751 0 0  1.194831641933244 0 0  1.248471223490737 0 0  1.304933942963653 0 0  1.361396662436569 0 0  1.420831104471586 0 0  1.480265546506604 0 0  1.542828113436244 0 0  1.605390680365884 0 0  1.671246013469327 0 0  1.73710134657277 0 0  1.806422752814762 0 0  1.875744159056755 0 0  1.948714057431306 0 0  2.021683955805857 0 0  2.098494373901932 0 0  2.175304791998006 0 0  2.256157866653476 0 0  2.337010941308945 0 0  2.422119443935387 0 0  2.50722794656183 0 0  2.596815840700639 0 0  2.686403734839449 0 0  2.780706776094687 0 0  2.875009817349925 0 0  2.974276175689285 0 0  3.073542534028646 0 0  3.178033441002704 0 0  3.282524347976761 0 0  3.392514777963501 0 0  3.502505207950242 0 0  3.618284608533553 0 0  3.734064009116865 0 0  3.855937062816526 0 0  3.977810116516187 0 0  4.106097541496641 0 0  4.234384966477093 0 0  4.369424362562147 0 0  4.5044637586472 0 0  4.646610489729194 0 0  4.788757220811188 0 0  4.938385356669961 0 0  5.088013492528733 0 0  5.24551679218304 0 0  5.403020091837347 0 0  5.568813038399614 0 0  5.73460598496188 0 0  5.909124878408681 0 0  6.083643771855482 0 0  6.267347873338513 0 0  6.451051974821543 0 0  6.644424714363561 0 0  6.83779745390558 0 0  7.041347702348167 0 0  7.244897950790754 0 0  7.459161368238869 0 0  7.673424785686984 0 0  7.898965226038037 0 0  8.124505666389089 0 0  8.361916654054033 0 0  8.599327641718979 0 0  8.849233942517035 0 0  9.099140243315093 0 0  9.362199507946787 0 0  9.625258772578484 0 0  9.902163261537794 0 0  10.1790677504971 0 0  10.47054616023911 0 0  10.76202456998112 0 0  11.06884394887334 0 0  11.37566332776555 0 0  11.69863109504192 0 0  12.02159886231829 0 0  12.3615649378891 0 0  12.7015310134599 0 0  13.05939003847426 0 0  13.41724906348862 0 0  13.79394276982091 0 0  14.1706364761532 0 0  14.5671561683298 0 0  14.96367586050641 0 0  15.38106501332897 0 0  15.79845416615153 0 0  16.23781117165827 0 0  16.677168177165 0 0  17.13964923659526 0 0  17.60213029602552 0 0  18.0889524622663 0 0  18.57577462850707 0 0  19.08821901304263 0 0  19.60066339757818 0 0  20.14007853843172 0 0  20.67949367928525 0 0  21.24729908993883 0 0  21.8151045005924 0 0  22.41279440541421 0 0  23.01048431023601 0 0  23.63963157605829 0 0  24.26877884188056 0 0  24.93103912515648 0 0  25.59329940843241 0 0  26.29041549584691 0 0  26.98753158326142 0 0  27.72133799026916 0 0  28.45514439727691 0 0  29.22757219863846 0 0  30 -0.3571428571428571 0  30 -0.7142857142857142 0  30 -1.071428571428571 0  30 -1.428571428571428 0  30 -1.785714285714286 0  30 -2.142857142857143 0  30 -2.5 0  30 -2.857142857142857 0  30 -3.214285714285714 0  30 -3.571428571428571 0  30 -3.928571428571428 0  30 -4.285714285714286 0  30 -4.642857142857142 0  30 -5 0  30 -5.357142857142857 0  30 -5.714285714285714 0  30 -6.071428571428571 0  30 -6.428571428571428 0  30 -6.785714285714285 0  30 -7.142857142857142 0  30 -7.5 0  30 -7.857142857142857 0  30 -8.214285714285714 0  30 -8.571428571428571 0  30 -8.928571428571427 0  30 -9.285714285714285 0  30 -9.642857142857142 0  29.22757220128658 -10 0  28.45514440257316 -10 0  27.72133799277628 -10 0  26.98753158297939 -10 0  26.29041549304805 -10 0  25.5932994031167 -10 0  24.93103911757599 -10 0  24.26877883203527 -10 0  23.63963156418132 -10 0  23.01048429632737 -10 0  22.41279438968936 -10 0  21.81510448305136 -10 0  21.24729907078059 -10 0  20.67949365850982 -10 0  20.14007851622273 -10 0  19.60066337393564 -10 0  19.08821898813588 -10 0  18.57577460233611 -10 0  18.08895243498708 -10 0  17.60213026763805 -10 0  17.13964920724307 -10 0  16.6771681468481 -10 0  16.2378111405086 -10 0  15.79845413416909 -10 0  15.38106498063496 -10 0  14.96367582710082 -10 0  14.56715613432376 -10 0  14.17063644154669 -10 0  13.79394273471576 -10 0  13.41724902788484 -10 0  13.05939000246495 -10 0  12.70153097704506 -10 0  12.36156490115379 -10 0  12.02159882526251 -10 0  11.69863105774323 -10 0  11.37566329022395 -10 0  11.06884391115945 -10 0  10.76202453209494 -10 0  10.47054612224479 -10 0  10.17906771239465 -10 0  9.902163223385379 -10 0  9.625258734376107 -10 0  9.362199469747061 -10 0  9.099140205118012 -10 0  8.849233904370102 -10 0  8.599327603622193 -10 0  8.361916616050124 -10 0  8.124505628478055 -10 0  7.898965188258209 -10 0  7.673424748038361 -10 0  7.459161330755727 -10 0  7.244897913473093 -10 0  7.041347665226496 -10 0  6.837797416979896 -10 0  6.644424677660922 -10 0  6.451051938341948 -10 0  6.26734783710581 -10 0  6.083643735869675 -10 0  5.90912484269068 -10 0  5.734605949511682 -10 0  5.568813003235423 -10 0  5.403020056959164 -10 0  5.24551675760658 -10 0  5.088013458254 -10 0  4.938385322710374 -10 0  4.788757187166745 -10 0  4.646610456411224 -10 0  4.504463725655707 -10 0  4.369424329906533 -10 0  4.234384934157362 -10 0  4.106097509520442 -10 0  3.977810084883522 -10 0  3.85593703153344 -10 0  3.734063978183357 -10 0  3.618284577954206 -10 0  3.502505177725055 -10 0  3.392514748095728 -10 0  3.282524318466404 -10 0  3.1780334118518 -10 0  3.073542505237196 -10 0  2.97427614725823 -10 0  2.875009789279265 -10 0  2.780706748384375 -10 0  2.686403707489482 -10 0  2.596815813710069 -10 0  2.507227919930656 -10 0  2.422119417661861 -10 0  2.337010915393062 -10 0  2.256157841092762 -10 0  2.175304766792465 -10 0  2.098494349048437 -10 0  2.021683931304413 -10 0  1.948714033278215 -10 0  1.875744135252013 -10 0  1.806422729354161 -10 0  1.737101323456312 -10 0  1.671245990692352 -10 0  1.605390657928396 -10 0  1.542828091333185 -10 0  1.480265524737977 -10 0  1.420831083031992 -10 0  1.36139664132601 -10 0  1.304933922176438 -10 0  1.248471203026863 -10 0  1.194831621786765 -10 0  1.14119204054667 -10 0  1.09023444350921 -10 0  1.039276846471754 -10 0  0.9908671279064798 -10 0  0.942457409341209 -10 0  0.8964681758842019 -10 0  0.8504789424271948 -10 0  0.8067891710751951 -10 0  0.7630993997231954 -10 0  0.7215941126497469 -10 0  0.6800888255762949 -10 0  0.6406588054444597 -10 0  0.6012287853126246 -10 0  0.5637702688178621 -10 0  0.5263117523230996 -10 0  0.4907261607992695 -10 0  0.4551405692754429 -10 0  0.4213342580497894 -10 0  0.3875279468241395 -10 0  0.3554119479341011 -10 0  0.3232959490440663 -10 0  0.2927857494269297 -10 0  0.2622755498097931 -10 0  0.2332908636189828 -10 0  0.2043061774281725 -10 0  0.1767707245216883 -10 0  0.1492352716152006 -10 0  0.1230765885890825 -10 0  0.09691790556296098 -10 0  0.0720671585317838 -10 0  0.04721641150060663 -10 0  0.02360820575030331 -10 0  0 -9.957983193277311 0  0 -9.915966386554622 0  0 -9.873949579831933 0  0 -9.831932773109244 0  0 -9.789915966386555 0  0 -9.747899159663866 0  0 -9.705882352941176 0  0 -9.663865546218487 0  0 -9.621848739495798 0  0 -9.579831932773109 0  0 -9.53781512605042 0  0 -9.495798319327731 0  0 -9.453781512605042 0  0 -9.411764705882353 0  0 -9.369747899159664 0  0 -9.327731092436975 0  0 -9.285714285714286 0  0 -9.243697478991596 0  0 -9.201680672268907 0  0 -9.159663865546218 0  0 -9.117647058823529 0  0 -9.07563025210084 0  0 -9.033613445378151 0  0 -8.991596638655462 0  0 -8.949579831932773 0  0 -8.907563025210084 0  0 -8.865546218487395 0  0 -8.823529411764707 0  0 -8.781512605042018 0  0 -8.739495798319329 0  0 -8.69747899159664 0  0 -8.655462184873949 0  0 -8.61344537815126 0  0 -8.571428571428571 0  0 -8.529411764705882 0  0 -8.487394957983193 0  0 -8.445378151260504 0  0 -8.403361344537815 0  0 -8.361344537815127 0  0 -8.319327731092438 0  0 -8.277310924369749 0  0 -8.235294117647058 0  0 -8.193277310924369 0  0 -8.15126050420168 0  0 -8.109243697478991 0  0 -8.067226890756302 0  0 -8.025210084033613 0  0 -7.983193277310924 0  0 -7.941176470588236 0  0 -7.899159663865547 0  0 -7.857142857142857 0  0 -7.815126050420168 0  0 -7.773109243697479 0  0 -7.73109243697479 0  0 -7.689075630252101 0  0 -7.647058823529411 0  0 -7.605042016806722 0  0 -7.563025210084033 0  0 -7.521008403361344 0  0 -7.478991596638656 0  0 -7.436974789915967 0  0 -7.394957983193278 0  0 -7.352941176470589 0  0 -7.3109243697479 0  0 -7.26890756302521 0  0 -7.226890756302521 0  0 -7.184873949579832 0  0 -7.142857142857143 0  0 -7.100840336134453 0  0 -7.058823529411764 0  0 -7.016806722689076 0  0 -6.974789915966387 0  0 -6.932773109243698 0  0 -6.890756302521009 0  0 -6.84873949579832 0  0 -6.806722689075631 0  0 -6.764705882352941 0  0 -6.722689075630252 0  0 -6.680672268907563 0  0 -6.638655462184874 0  0 -6.596638655462185 0  0 -6.554621848739496 0  0 -6.512605042016807 0  0 -6.470588235294118 0  0 -6.428571428571429 0  0 -6.38655462184874 0  0 -6.344537815126051 0  0 -6.302521008403362 0  0 -6.260504201680672 0  0 -6.218487394957983 0  0 -6.176470588235294 0  0 -6.134453781512605 0  0 -6.092436974789917 0  0 -6.050420168067227 0  0 -6.008403361344538 0  0 -5.966386554621849 0  0 -5.92436974789916 0  0 -5.882352941176471 0  0 -5.840336134453782 0  0 -5.798319327731092 0  0 -5.756302521008403 0  0 -5.714285714285714 0  0 -5.672268907563025 0  0 -5.630252100840336 0  0 -5.588235294117647 0 
[...]
<PointData  Vectors="flow"> 
<DataArray  type="Float64"  Name="flow"  NumberOfComponents="3" format="ascii">-8.5304860926040185e-03 1.7273612288168330e-01 0.0000000000000000e+00  1.3479233814960926e-05 2.4275210169109085e-04 0.0000000000000000e+00  -5.2201814905439646e-06 -4.9373639562480719e-06 0.0000000000000000e+00  -3.9365003303464336e-06 9.4202256444194714e-06 0.0000000000000000e+00  -6.0940616927177905e-04 1.6871005569173059e-01 0.0000000000000000e+00  2.5027074100242089e-03 1.6511856508263581e-01 0.0000000000000000e+00  -1.1457934612257678e-03 1.5316005011032482e-01 0.0000000000000000e+00  1.3348424112810051e-03 1.3945848386001958e-01 0.0000000000000000e+00  -8.2604077245168204e-04 1.2797591460777136e-01 0.0000000000000000e+00  -3.2002988529817482e-04 1.1744019568118791e-01 0.0000000000000000e+00  1.1289836782443370e-04 1.0542744579746657e-01 0.0000000000000000e+00  5.7411763136717454e-04 9.3547174523734830e-02 0.0000000000000000e+00  -1.1495238941868233e-03 8.6180592203024042e-02 0.0000000000000000e+00  5.5568048239096205e-04 7.6253766940724776e-02 0.0000000000000000e+00  -9.5850216053873711e-04 7.1362515197415405e-02 0.0000000000000000e+00  5.8973883722877873e-04 6.2168994078087840e-02 0.0000000000000000e+00  -1.9686991236113078e-04 5.5935397702946456e-02 0.0000000000000000e+00  8.0210817269072631e-06 5.0609738992125571e-02 0.0000000000000000e+00  5.7510803353135083e-04 4.4408044724782568e-02 0.0000000000000000e+00  -4.7651257130117819e-04 4.0514914636870396e-02 0.0000000000000000e+00  -4.4103653920762734e-04 3.6133524465859310e-02 0.0000000000000000e+00  1.1989203801661135e-04 3.1856432943629762e-02 0.0000000000000000e+00  3.6799892288220482e-04 2.8055762247228670e-02 0.0000000000000000e+00  -2.3040344766063795e-04 2.5430253896457058e-02 0.0000000000000000e+00  -1.1651355208520797e-04 2.2468234291608154e-02 0.0000000000000000e+00  2.7328211666093028e-04 1.9950684233392236e-02 0.0000000000000000e+00  -3.7937980930175094e-04 1.8092417145120405e-02 0.0000000000000000e+00  3.1499561915049570e-05 1.5938191130376717e-02 0.0000000000000000e+00  1.9241841239187279e-04 1.4055281955748303e-02 0.0000000000000000e+00  -1.2657266829256517e-04 1.2815706944209136e-02 0.0000000000000000e+00  4.8023017943760035e-05 1.1218970913384804e-02 0.0000000000000000e+00  -1.8938155037658456e-05 1.0092664493218112e-02 0.0000000000000000e+00  6.3559126520279258e-05 9.0156380249753754e-03 0.0000000000000000e+00  -7.5906707512506924e-06 8.0623815526303499e-03 0.0000000000000000e+00  2.9538636037959203e-05 7.2567652676959003e-03 0.0000000000000000e+00  -8.2414387150008389e-06 6.4638366313764517e-03 0.0000000000000000e+00  -4.8295716222983988e-06 5.7760066750827581e-03 0.0000000000000000e+00  2.6601813025759774e-06 5.1689513875016720e-03 0.0000000000000000e+00  7.3523211492771384e-06 4.5788442556811233e-03 0.0000000000000000e+00  4.6439026014347056e-05 4.0828352344882395e-03 0.0000000000000000e+00  -9.9401808523445100e-05 3.6570604635369802e-03 0.0000000000000000e+00  4.8686606217538897e-05 3.1739096079530429e-03 0.0000000000000000e+00  -1.8717648845864699e-05 2.8458407618165895e-03 0.0000000000000000e+00  4.1158637109765296e-05 2.4109904317006011e-03 0.0000000000000000e+00  -4.2914740210932590e-05 2.1957473211943199e-03 0.0000000000000000e+00  5.8456438435476359e-08 1.9361861485573304e-03 0.0000000000000000e+00  2.7393185290955779e-06 1.6632445299240546e-03 0.0000000000000000e+00  1.9690789199926672e-07 1.4383907344946083e-03 0.0000000000000000e+00  6.7145235795737351e-06 1.2328042406367953e-03 0.0000000000000000e+00  -4.3781078286436846e-06 1.0396368438657048e-03 0.0000000000000000e+00  4.5438064123664336e-06 8.4797922977907945e-04 0.0000000000000000e+00  -1.0996609541311665e-06 7.1657039414789350e-04 0.0000000000000000e+00  -1.0589079972382926e-06 5.6806877752415619e-04 0.0000000000000000e+00  3.1086668227443641e-07 4.3811709036587257e-04 0.0000000000000000e+00  -2.9584646213849858e-06 3.2203486222732850e-04 0.0000000000000000e+00  -1.8971953249165202e-07 2.1134653681931947e-04 0.0000000000000000e+00  1.1598442693471739e-06 1.1737981302209182e-04 0.0000000000000000e+00  2.8903881818109295e-06 2.5222086578162720e-05 0.0000000000000000e+00  3.5702815573733647e-08 -6.8331356334769451e-05 0.0000000000000000e+00  -2.3318371287943063e-06 -1.3504937893387634e-04 0.0000000000000000e+00  -5.6511716024269600e-06 -1.7736047745013766e-04 0.0000000000000000e+00  -1.4316110414476443e-06 -2.2868610455259417e-04 0.0000000000000000e+00  6.7406353894968372e-06 -3.0137153742023064e-04 0.0000000000000000e+00  -6.4612779999402877e-06 -3.4322139880592318e-04 0.0000000000000000e+00  3.5636085878932780e-06 -3.7930159815357330e-04 0.0000000000000000e+00  -4.7101073413739797e-06 -4.2567841187401571e-04 0.0000000000000000e+00  -2.2048340844060210e-06 -4.4588942299359868e-04 0.0000000000000000e+00  -2.2437788939950028e-06 -4.6905763726364186e-04 0.0000000000000000e+00  -7.7198178837080068e-06 -4.8596375053722239e-04 0.0000000000000000e+00  4.3191452242796933e-06 -4.9401798114046306e-04 0.0000000000000000e+00  -7.2039606675860398e-06 -4.8825967214382774e-04 0.0000000000000000e+00  -5.1886358892414567e-06 -4.8145818206844418e-04 0.0000000000000000e+00  5.8982543072707883e-06 -5.0801504300977847e-04 0.0000000000000000e+00  -5.6828255887164271e-07 -5.2995390510112827e-04 0.0000000000000000e+00  -2.1501180462219319e-06 -5.2376987379182383e-04 0.0000000000000000e+00  -6.9163886802835076e-07 -5.2138760092691598e-04 0.0000000000000000e+00  -5.2459530285645209e-06 -5.1096007987714144e-04 0.0000000000000000e+00  -9.0976049473432982e-07 -4.9861635516279480e-04 0.0000000000000000e+00  -4.3230253389058384e-06 -4.8492849011358424e-04 0.0000000000000000e+00  9.1162335823022695e-07 -4.6947561393337811e-04 0.0000000000000000e+00  1.2784474921349804e-06 -4.5562476502035562e-04 0.0000000000000000e+00  -1.2997122746525812e-05 -4.5039614895933070e-04 0.0000000000000000e+00  4.0178692329991826e-05 -4.3756996233577092e-04 0.0000000000000000e+00  -3.3784752367254388e-05 -4.0540980836192831e-04 0.0000000000000000e+00  9.9794984406511500e-07 -3.7764991973079080e-04 0.0000000000000000e+00  -1.4804543854652666e-06 -3.5031865220934097e-04 0.0000000000000000e+00  2.2199898682316390e-06 -3.1632965802584021e-04 0.0000000000000000e+00  -1.3166102492615007e-05 -2.8388830170312607e-04 0.0000000000000000e+00  1.3480090159128740e-05 -2.7280670963677713e-04 0.0000000000000000e+00  1.3044638995229795e-06 -2.5544778695342751e-04 0.0000000000000000e+00  -5.7478907147899324e-06 -2.2307686512572383e-04 0.0000000000000000e+00  -3.3370188159196946e-06 -1.8997685347653539e-04 0.0000000000000000e+00  -4.9192054638665180e-07 -1.5573083996030699e-04 0.0000000000000000e+00  -2.2954405814392636e-07 -1.2363583093384195e-04 0.0000000000000000e+00  -1.6181040450979881e-06 -9.3480043446030173e-05 0.0000000000000000e+00  3.0759358116463947e-07 -6.2817301945623986e-05 0.0000000000000000e+00  7.0036390328812305e-07 -3.3330330657297225e-05 0.0000000000000000e+00  -2.6252500315958637e-06 -1.3765131397370178e-06 0.0000000000000000e+00  1.0302366827638949e-06 2.4950797176897854e-05 0.0000000000000000e+00  -1.1733624253120084e-06 5.4372531381945540e-05 0.0000000000000000e+00  3.4029827985420375e-06 7.9067138134659398e-05 0.0000000000000000e+00  -1.4719506500439551e-06 1.0440698207456158e-04 0.0000000000000000e+00  8.9761858352994824e-07 1.3175826391534205e-04 0.0000000000000000e+00  -1.5993533014525146e-06 1.5434892710811218e-04 0.0000000000000000e+00  1.5893480435336670e-06 1.8249165433124466e-04 0.0000000000000000e+00  -8.9759230703799417e-06 2.0361392578029509e-04 0.0000000000000000e+00  -4.8354465609172586e-06 1.9527613063561331e-04 0.0000000000000000e+00  2.2494596720910533e-05 2.4203800898909124e-04 0.0000000000000000e+00  -2.9278412451719415e-05 2.6010069808501496e-04 0.0000000000000000e+00  3.6034217347365712e-05 2.6286514910670223e-04 0.0000000000000000e+00  -2.6809029756367716e-05 2.7090070792666149e-04 0.0000000000000000e+00  -5.6683410205189811e-06 2.5263251746479489e-04 0.0000000000000000e+00  2.7448052848139200e-05 3.1508614667629417e-04 0.0000000000000000e+00  -8.8530569450655688e-06 3.1882085670585647e-04 0.0000000000000000e+00  9.9302430653290097e-07 3.1825986385302870e-04 0.0000000000000000e+00  2.7167189158607722e-05 2.8347661860273507e-04 0.0000000000000000e+00  -1.5554029311486178e-05 2.8402969074978917e-04 0.0000000000000000e+00  -5.1526726052135534e-06 3.1116101922846936e-04 0.0000000000000000e+00  1.0181655025547567e-06 3.2607811381217560e-04 0.0000000000000000e+00  -3.2416433692815124e-06 3.2004522231852229e-04 0.0000000000000000e+00  2.5876425843918461e-05 2.8439314931064693e-04 0.0000000000000000e+00  -1.3433729583407575e-05 2.8132740505944893e-04 0.0000000000000000e+00  -5.6859965465486696e-07 2.9433916274582670e-04 0.0000000000000000e+00  2.4986231011535708e-06 2.9559216868819846e-04 0.0000000000000000e+00  1.5330113672609834e-06 2.9002616645711283e-04 0.0000000000000000e+00  9.6012840890164185e-07 2.8341677346456647e-04 0.0000000000000000e+00  3.1835612730378564e-06 2.7200236335382503e-04 0.0000000000000000e+00  4.2984384986029052e-06 2.5808878699770899e-04 0.0000000000000000e+00  8.3663027652190474e-07 2.4993518820963680e-04 0.0000000000000000e+00  -3.9388575852634479e-06 2.4910620856830951e-04 0.0000000000000000e+00  2.2904233310935355e-06 2.4535065990604997e-04 0.0000000000000000e+00  1.0016246832952652e-06 2.3424543122475125e-04 0.0000000000000000e+00  7.2194687759559156e-06 2.1947896788258471e-04 0.0000000000000000e+00  -2.6963927561390834e-06 2.1353038847362281e-04 0.0000000000000000e+00  -4.3582225162350127e-06 2.1086858190471413e-04 0.0000000000000000e+00  1.5312508702558408e-05 1.7971434200776557e-04 0.0000000000000000e+00  3.1755864030080164e-06 1.6005036806940868e-04 0.0000000000000000e+00  -1.0798269792114316e-05 1.6517055052481597e-04 0.0000000000000000e+00  1.6218043062234687e-06 1.8019164163399462e-04 0.0000000000000000e+00  1.4961473743193745e-06 1.7356433154206634e-04 0.0000000000000000e+00  -1.8685881011482797e-05 1.7288807317104534e-04 0.0000000000000000e+00  6.2481887299366008e-05 5.8015690432007193e-05 0.0000000000000000e+00  5.2602092530379072e-05 -8.1323493326082466e-05 0.0000000000000000e+00  -1.9658320212509009e-05 5.0856780783714154e-05 0.0000000000000000e+00  8.0352666595069317e-06 -2.4762713835296897e-05 0.0000000000000000e+00  -2.5902981067636427e-06 3.7350503797653499e-06 0.0000000000000000e+00  -9.4389265803255372e-07 -4.6417732569117248e-06 0.0000000000000000e+00  1.0614376306182468e-06 -2.1199056630271225e-06 0.0000000000000000e+00  -4.8106192922344401e-07 -2.3946360203559721e-06 0.0000000000000000e+00  7.8544699464219257e-07 -3.6460919893804632e-06 0.0000000000000000e+00  8.4333672678227671e-07 -1.3895264294224232e-06 0.0000000000000000e+00  3.1993722244629062e-07 -3.6208396419055289e-06 0.0000000000000000e+00  2.0380383824802042e-07 -2.0374811759535249e-06 0.0000000000000000e+00  2.1050727569841526e-07 -4.1767599582506178e-06 0.0000000000000000e+00  -9.3679785443687243e-08 -2.1630848635776938e-06 0.0000000000000000e+00  2.6688775906279225e-07 -4.3096073266362013e-06 0.0000000000000000e+00  -3.4679118505069911e-08 -3.0740903715429772e-06 0.0000000000000000e+00  3.7996948728245798e-07 -2.5751913368076106e-06 0.0000000000000000e+00  9.7948885203534511e-07 -2.9444683461561820e-06 0.0000000000000000e+00  -1.9259923759132004e-08 -4.2781184257532825e-06 0.0000000000000000e+00  -1.0483935400765344e-06 -1.8806625063036240e-06 0.0000000000000000e+00  -1.7491280637227952e-06 -3.4947748657937234e-06 0.0000000000000000e+00  7.1326042888740014e-07 -4.0118285429660028e-06 0.0000000000000000e+00  -6.0081420129672187e-07 -2.0400598738664781e-06 0.0000000000000000e+00  7.6354674326829945e-08 -3.4762281092278655e-06 0.0000000000000000e+00  -2.4961754407643453e-07 -2.7575214019403890e-06 0.0000000000000000e+00  -1.6355350132322468e-06 -1.8709180569110413e-06 0.0000000000000000e+00  -6.2074402208831088e-06 -3.7073758487791351e-06 0.0000000000000000e+00  -1.7469983346374383e-06 -1.3510817715745628e-05 0.0000000000000000e+00  -1.6091682996016285e-06 -1.5327479868334092e-05 0.0000000000000000e+00  2.5284924251794689e-06 -1.7228840028656188e-05 0.0000000000000000e+00  -2.1286732670116431e-06 -1.4502881574014302e-05 0.0000000000000000e+00  4.1602064298630770e-07 -1.2457785976816681e-05 0.0000000000000000e+00  1.8951731738302122e-06 -1.2484300450930839e-05 0.0000000000000000e+00  -1.0240059585574291e-06 -1.4652508001979473e-05 0.0000000000000000e+00  5.7878061514450102e-07 -1.2858851544658071e-05 0.0000000000000000e+00  -1.6277214586086989e-07 -1.2537668028325511e-05 0.0000000000000000e+00  -8.6697080928368405e-07 -1.2902501377302674e-05 0.0000000000000000e+00  -1.1511581357874966e-06 -1.3567563632725986e-05 0.0000000000000000e+00  -8.0977321923430806e-07 -1.4747527148208399e-05 0.0000000000000000e+00  -9.4876844426402865e-07 -1.5788437441289360e-05 0.0000000000000000e+00  -8.1952544008773060e-07 -1.6837851050381933e-05 0.0000000000000000e+00  -7.9743567168287711e-07 -1.8633462326198947e-05 0.0000000000000000e+00  -1.5976630921355292e-06 -1.9049915159199097e-05 0.0000000000000000e+00  -3.8093368321459265e-07 -2.0156793338748263e-05 0.0000000000000000e+00  -5.1463483846362705e-07 -2.0820747864727761e-05 0.0000000000000000e+00  -3.2871232950691615e-07 -2.1478625777157042e-05 0.0000000000000000e+00  -6.1827772986791990e-07 -2.3336187463822838e-05 0.0000000000000000e+00  7.5961424340645087e-07 -2.4422474639373954e-05 0.0000000000000000e+00  4.4774235823273481e-08 -2.6687721037462501e-05 0.0000000000000000e+00  1.0323478159795364e-06 -2.8909379675773626e-05 0.0000000000000000e+00  1.0703547249345495e-06 -2.9087991570117096e-05 0.0000000000000000e+00  4.9456383716296200e-06 -3.0163783296576566e-05 0.0000000000000000e+00  1.3612905068956625e-06 -3.1252645708761076e-05 0.0000000000000000e+00  7.3899780239308545e-06 -3.4016763582000548e-05 0.0000000000000000e+00  3.2610757212927832e-06 -3.1140201762006065e-05 0.0000000000000000e+00  2.3044344041315732e-05 -3.1191925607275295e-05 0.0000000000000000e+00  7.7316028632254214e-06 -2.4896482216508969e-05 0.0000000000000000e+00  -3.7561879520585059e-06 -3.6530849373784018e-05 0.0000000000000000e+00  1.8391238559653023e-05 -3.2834027015046332e-05 0.0000000000000000e+00  9.4126138548608014e-06 -4.1462245020238301e-05 0.0000000000000000e+00  1.9687698267788886e-05 -4.0591082229677675e-05 0.0000000000000000e+00  1.9057269617159335e-05 -4.1997133471370740e-05 0.0000000000000000e+00  2.7269270976841192e-05 -3.8743486228548464e-05 0.0000000000000000e+00  2.6527622155376522e-05 -3.7378378451598090e-05 0.0000000000000000e+00  3.5963909108340462e-05 -3.4985883580918892e-05 0.0000000000000000e+00  2.5342260476706589e-05 -3.7475877814618686e-05 0.0000000000000000e+00  3.2250146996417755e-05 -3.5444217320456791e-05 0.0000000000000000e+00  3.5917947779088524e-05 -3.7482894749178114e-05 0.0000000000000000e+00  4.5672757142811168e-05 -3.4182450674559363e-05 0.0000000000000000e+00  4.1245391185492963e-05 -3.4728932003377174e-05 0.0000000000000000e+00  4.8860984471122370e-05 -3.2392936259059414e-05 0.0000000000000000e+00  5.2209331813400359e-05 -3.1645094887661726e-05 0.0000000000000000e+00  5.5555470492144470e-05 -3.0022556803726042e-05 0.0000000000000000e+00  5.8058508250847799e-05 -2.8283541307688340e-05 0.0000000000000000e+00  6.2517806162601055e-05 -2.6726580906124416e-05 0.0000000000000000e+00  6.6554839503528136e-05 -2.4693105549688400e-05 0.0000000000000000e+00  6.8852658304281649e-05 -2.3182732436634932e-05 0.0000000000000000e+00  7.2235442184683592e-05 -2.1393725751686558e-05 0.0000000000000000e+00  7.6517612370182272e-05 -1.9475258288063527e-05 0.0000000000000000e+00  7.9379650192623347e-05 -1.7316939267732959e-05 0.0000000000000000e+00  8.1821748203525545e-05 -1.5274993695103039e-05 0.0000000000000000e+00  8.4485312858744081e-05 -1.2980512679589055e-05 0.0000000000000000e+00  8.7068069633985278e-05 -1.1143625680004482e-05 0.0000000000000000e+00  8.9793340565692074e-05 -9.4492673165801624e-06 0.0000000000000000e+00  9.0648481827012808e-05 -7.4111461674615190e-06 0.0000000000000000e+00  9.5706567988149997e-05 -6.0160630117695536e-06 0.0000000000000000e+00  9.9733572048932680e-05 -3.3910032580702571e-06 0.0000000000000000e+00  9.5206794414439053e-05 -2.4651459065571353e-06 0.0000000000000000e+00  9.8359327595393044e-05 -1.1432378655176260e-07 0.0000000000000000e+00  1.0089010388702887e-04 1.3544967707357227e-06 0.0000000000000000e+00  1.0214193469931150e-04 2.6618757553962299e-06 0.0000000000000000e+00  1.0352267330574134e-04 4.2645431624483465e-06 0.0000000000000000e+00  1.0426577740491008e-04 5.4742499576861237e-06 0.0000000000000000e+00  1.0468748456342302e-04 6.8442993407941395e-06 0.0000000000000000e+00  1.0473822411554540e-04 7.9578933500031445e-06 0.0000000000000000e+00  1.0423932378436858e-04 8.9670914590826904e-06 0.0000000000000000e+00  1.0434601464467582e-04 9.3535358605170818e-06 0.0000000000000000e+00  1.0422844487129833e-04 1.0316191458847395e-05 0.0000000000000000e+00  1.0442889913202644e-04 1.0750526336780252e-05 0.0000000000000000e+00  1.0384233417274672e-04 1.1746887367043336e-05 0.0000000000000000e+00  1.0339316259199994e-04 1.2117452675351352e-05 0.0000000000000000e+00  1.0272985603508147e-04 1.2929718068340888e-05 0.0000000000000000e+00  1.0197728295863686e-04 1.3774639405186534e-05 0.0000000000000000e+00  1.0014441406746492e-04 1.4416655198017616e-05 0.0000000000000000e+00  9.8556621547041330e-05 1.4717461340205648e-05 0.0000000000000000e+00  9.6832569817166688e-05 1.5113036228774847e-05 0.0000000000000000e+00  9.5346518646565723e-05 1.4770311701476690e-05 0.0000000000000000e+00  9.4755329026051139e-05 1.4835110312814248e-05 0.0000000000000000e+00  9.3775905014890370e-05 1.4992329632289387e-05 0.0000000000000000e+00  9.1998575604576531e-05 1.5196941100162541e-05 0.0000000000000000e+00  9.0681971151011179e-05 1.5720254097557335e-05 0.0000000000000000e+00  8.8356692867365918e-05 1.5637622999894826e-05 0.0000000000000000e+00  8.6227865232471553e-05 1.5648231361582653e-05 0.0000000000000000e+00  8.4130501774525761e-05 1.5167557375853461e-05 0.0000000000000000e+00  8.0987411321852936e-05 1.5091522279421990e-05 0.0000000000000000e+00  7.9692907894029252e-05 1.4910885655996154e-05 0.0000000000000000e+00  7.6901708846091417e-05 1.5001101924714944e-05 0.0000000000000000e+00  7.5000912488610964e-05 1.5830972516384530e-05 0.0000000000000000e+00  7.6398720160251389e-05 1.6637702560404374e-05 0.0000000000000000e+00  7.0121392457222483e-05 2.0888537062533040e-05 0.0000000000000000e+00  6.8027251628589497e-05 1.7411695520582673e-05 0.0000000000000000e+00  6.7827366014692661e-05 1.5847431470139486e-05 0.0000000000000000e+00  6.4031918901957222e-05 1.5471041733534470e-05 0.0000000000000000e+00  6.3536433001190400e-05 1.4734491531530921e-05 0.0000000000000000e+00  6.1040356548051431e-05 1.4547045043151256e-05 0.0000000000000000e+00  5.9291295616439502e-05 1.4506291578019216e-05 0.0000000000000000e+00  5.8241186026995457e-05 1.3901031281609318e-05 0.0000000000000000e+00  5.6128286353303579e-05 1.3605842021074652e-05 0.0000000000000000e+00  5.3361208034700699e-05 1.3388372674741432e-05 0.0000000000000000e+00  5.1497743659062463e-05 1.3074104821207130e-05 0.0000000000000000e+00  4.9112017330360271e-05 1.2724662301815743e-05 0.0000000000000000e+00  4.7847267714205545e-05 1.2614614216688586e-05 0.0000000000000000e+00  4.5529594114149618e-05 1.2642278128662755e-05 0.0000000000000000e+00  4.3442386805311131e-05 1.2825559535294637e-05 0.0000000000000000e+00  4.1252761420380852e-05 1.2082074136619987e-05 0.0000000000000000e+00  3.9043665980805245e-05 1.1044144629614466e-05 0.0000000000000000e+00  3.7045431568814534e-05 1.0789618062726420e-05 0.0000000000000000e+00  3.6092621050445127e-05 1.0838357555838816e-05 0.0000000000000000e+00  3.4390775562868600e-05 1.0688662455258806e-05 0.0000000000000000e+00  3.2821792644083287e-05 1.0403799163946123e-05 0.00000000000000