<?xml version="1.0"?>
<VTKFile type="UnstructuredGrid"  version="0.1"  >
<UnstructuredGrid>
<Piece  NumberOfPoints="1691" NumberOfCells="3204">
<Points>
<DataArray  type="Float64"  NumberOfComponents="3"  format="ascii">0 0 0  30 0 0  30 -10 0  0 -10 0  0.1391574078963744 0 0  0.2856388821882616 0 0  0.4398299073010886 0 0  0.6021362569539473 0 0  0.7729850389704483 0 0  0.9528258543586996 0 0  1.142131984380316 0 0  1.34140159760994 0 0  1.551159074717981 0 0  1.771956417032531 0 0  2.004374674080994 0 0  2.249025475789527 0 0  2.506552636773105 0 0  2.777633857742732 0 0  3.062982518028728 0 0  3.363349525995907 0 0  3.679525322337712 0 0  4.01234195575742 0 0  4.362675247811097 0 0  4.731447135329707 0 0  5.119628065610077 0 0  5.528239565804708 0 0  5.958356943167011 0 0  6.411112081475485 0 0  6.887696441559404 0 0  7.389364184530748 0 0  7.917435485335147 0 0  8.473300005202017 0 0  9.058420557070402 0 0  9.674336929103793 0 0  10.32266995225095 0 0  11.00512576896296 0 0  11.72350030646412 0 0  12.47968402994705 0 0  13.27566689579597 0 0  14.1135435963616 0 0  14.9955190732806 0 0  15.92391430904694 0 0  16.90117245730496 0 0  17.92986524844506 0 0  19.01269976086341 0 0  20.15252556282024 0 0  21.35234220269763 0 0  22.61530708683689 0 0  23.94474379751883 0 0  25.34415086349739 0 0  26.81721093579712 0 0  28.3678004819169 0 0  30 -1.111111111111111 0  30 -2.222222222222222 0  30 -3.333333333333333 0  30 -4.444444444444445 0  30 -5.555555555555555 0  30 -6.666666666666666 0  30 -7.777777777777777 0  30 -8.888888888888889 0  28.36780047917311 -10 0  26.8172109305839 -10 0  25.34415085606858 -10 0  23.94474378810899 -10 0  22.61530707566275 -10 0  21.3523421899591 -10 0  20.15252554870171 -10 0  19.01269974553473 -10 0  17.92986523206254 -10 0  16.90117244001232 -10 0  15.92391429097614 -10 0  14.99551905455266 -10 0  14.11354357708742 -10 0  13.27566687607703 -10 0  12.47968400987599 -10 0  11.72350028612546 -10 0  11.00512574843363 -10 0  10.32266993160086 -10 0  9.674336908396342 -10 0  9.058420536362949 -10 0  8.473299984546333 -10 0  7.917435464777824 -10 0  7.389364164113587 -10 0  6.887696420787165 -10 0  6.411112061446698 -10 0  5.95835692337857 -10 0  5.528239546282652 -10 0  5.119628046377237 -10 0  4.731447115907979 -10 0  4.362675229213632 -10 0  4.012341937260036 -10 0  3.679525304434552 -10 0  3.363349508456405 -10 0  3.062982500861274 -10 0  2.777633840953978 -10 0  2.506552620368097 -10 0  2.249025459771861 -10 0  2.004374658452946 -10 0  1.771956401795187 -10 0  1.551159059871345 -10 0  1.341401583153029 -10 0  1.142131970307521 -10 0  0.9528258406748833 -10 0  0.7729850256685147 -10 0  0.6021362439621285 -10 0  0.4398298947504031 -10 0  0.2856388700059078 -10 0  0.1391573960769001 -10 0  0 -9.855072463768115 0  0 -9.710144927536232 0  0 -9.565217391304348 0  0 -9.420289855072463 0  0 -9.27536231884058 0  0 -9.130434782608695 0  0 -8.985507246376812 0  0 -8.840579710144928 0  0 -8.695652173913043 0  0 -8.55072463768116 0  0 -8.405797101449275 0  0 -8.260869565217391 0  0 -8.115942028985508 0  0 -7.971014492753623 0  0 -7.826086956521739 0  0 -7.681159420289855 0  0 -7.536231884057971 0  0 -7.391304347826087 0  0 -7.246376811594203 0  0 -7.101449275362318 0  0 -6.956521739130435 0  0 -6.811594202898551 0  0 -6.666666666666667 0  0 -6.521739130434783 0  0 -6.376811594202898 0  0 -6.231884057971015 0  0 -6.086956521739131 0  0 -5.942028985507246 0  0 -5.797101449275362 0  0 -5.652173913043478 0  0 -5.507246376811594 0  0 -5.36231884057971 0  0 -5.217391304347826 0  0 -5.072463768115941 0  0 -4.927536231884058 0  0 -4.782608695652174 0  0 -4.637681159420289 0  0 -4.492753623188406 0  0 -4.347826086956522 0  0 -4.202898550724638 0  0 -4.057971014492754 0  0 -3.913043478260869 0  0 -3.768115942028985 0  0 -3.623188405797101 0  0 -3.478260869565217 0  0 -3.333333333333334 0  0 -3.188405797101449 0  0 -3.043478260869565 0  0 -2.898550724637681 0  0 -2.753623188405797 0  0 -2.608695652173912 0  0 -2.463768115942029 0  0 -2.318840579710145 0  0 -2.173913043478261 0  0 -2.028985507246377 0  0 -1.884057971014492 0  0 -1.739130434782609 0  0 -1.594202898550725 0  0 -1.44927536231884 0  0 -1.304347826086957 0  0 -1.159420289855072 0  0 -1.014492753623188 0  0 -0.8695652173913047 0  0 -0.72463768115942 0  0 -0.579710144927537 0  0 -0.4347826086956523 0  0 -0.2898550724637676 0  0 -0.1449275362318829 0  0.1309460514202492 -4.990980414828784 0  0.1171526873513358 -5.869565217391296 0  0.1344252986967795 -6.716855800502001 0  0.1221309018586645 -4.161899358592938 0  0.1166997684017801 -3.25954604704229 0  4.961569127360256 -0.3118894787216622 0  4.923897360678746 -9.687537149351071 0  0.1228405945134021 -2.536958536012416 0  0.1335945686177435 -7.466846676638523 0  3.206461751753455 -0.2806173508164562 0  3.213166004658842 -9.746377676274168 0  0.1155250883680452 -8.186784073011673 0  0.1359204609538445 -1.804202625344072 0  6.662432263484016 -9.600124945047963 0  6.631056521209421 -0.3942868763482545 0  2.126700074935258 -0.2065769621215452 0  2.120437876630353 -9.808537401472012 0  8.761385473272522 -9.4914222957189 0  8.786076048231736 -0.4923064159810888 0  0.1195911345135556 -8.749677128895598 0  0.1117474302775605 -1.230589418769438 0  11.3907841305612 -9.402816705944797 0  11.36435727088349 -0.618365439918426 0  1.211504568109637 -0.1471532661956818 0  1.239596144827807 -9.832618358594059 0  13.75158625181508 -9.315497816134139 0  13.7500399625954 -0.6902569910160397 0  0.131402377539402 -3.696772604078816 0  0.1204853385030979 -6.307560917781178 0  0.1346483804691658 -4.550944754283819 0  0.1255109280847009 -5.434782608695652 0  16.39894095075685 -9.180198571581517 0  16.44068234362399 -0.8166544577416346 0  0.1255109280847009 -0.7971014492753632 0  0.1162877148651766 -9.206770243020259 0  19.56645066956165 -9.043742294716539 0  29.11731382843969 -5.098539983867493 0  19.50527862123305 -0.9323941524176265 0  23.28904960561395 -8.8608997858633 0  0.6875606479622149 -0.1442604037134076 0  0.6875606348153145 -9.855739596611892 0  23.37074358394081 -1.15131614182933 0  10.00852704311311 -9.475417469395781 0  10.01049631493635 -0.5545437343697674 0  7.639131123468924 -9.543000896765111 0  7.693537846067955 -0.4574302764599576 0  5.733194300659633 -9.66079268774309 0  5.731454990332523 -0.3687808037058806 0  3.803630689980224 -9.686555789708486 0  3.834043646352164 -0.2754981925697493 0  2.618022704128803 -9.787800068206256 0  2.634320277618269 -0.2392104743186785 0  1.65952286941916 -9.813294854785646 0  1.665360553377539 -0.1820878093930922 0  0.1365068028365961 -1.543352471920677 0  0.1128108295274224 -8.471115901500411 0  0.1249192863256123 -0.5070564851587012 0  0.1172626025927563 -9.49200175151447 0  0.1255109280847009 -2.101449275362318 0  0.1255109280847009 -7.898550724637682 0  0.1247535864599936 -2.824177050114505 0  0.1155424837078822 -7.17494363557847 0  26.05192393553612 -8.777856070543081 0  26.00031291598836 -1.159065252957426 0  0.3627343947446455 -0.1301950113519217 0  0.3690141220077834 -9.868919517536135 0  28.90574865438674 -7.135369011630129 0  29.02069681040884 -2.861993939893059 0  0.1397555488250113 -0.2163338956475025 0  0.1255109280847009 -9.782608695652172 0  24.67098979274125 -8.799958058548517 0  23.93395881668722 -7.700959994796646 0  22.61396570077244 -7.764517377391733 0  23.2032949615693 -6.630776985250927 0  21.94857473380583 -6.690613342424633 0  24.50398505507967 -6.535933305198952 0  22.51489076809043 -5.580432145971667 0  21.29537841406989 -5.639199768252479 0  21.84985259542567 -4.547213342284197 0  20.65342988351128 -4.619546679988924 0  20.11277906893955 -5.663225279336593 0  19.49454290958806 -4.673886314669294 0  18.97860072994828 -5.624185949902217 0  18.40383886642446 -4.729683279047542 0  17.90575400337286 -5.630456854950327 0  17.35903168001753 -4.836859475002379 0  16.91444903556046 -5.680257663405808 0  16.36114434035519 -4.898890029095359 0  15.89440836794127 -5.835214594829282 0  15.41608945577568 -4.979845093198404 0  14.9809818125648 -5.732909169427192 0  14.51777858619734 -4.988431190461874 0  14.14039496103406 -5.776391085527889 0  13.67321261031888 -5.031745046943032 0  13.26988611760758 -5.891550007816156 0  12.85732927991246 -5.095735823822261 0  12.46423889659403 -5.760519953635332 0  12.07741841933393 -5.116608846746942 0  11.73131647445202 -5.75987862647932 0  11.35222911621012 -5.158061768105265 0  11.01225658271747 -5.784828178519854 0  10.65393216495117 -5.205808407572067 0  10.33042159780337 -5.788944717060055 0  9.98551374198097 -5.24118342090078 0  9.687616112021921 -5.812725728827915 0  9.357518717034999 -5.284717467130579 0  9.08157001076583 -5.820057568121996 0  8.766199932316585 -5.320212662582848 0  8.494748056481422 -5.830095453943056 0  8.194406727465122 -5.347802431655208 0  7.942610344706003 -5.833678024304247 0  7.660825631728443 -5.380025954369014 0  7.416702921751611 -5.83684433397813 0  7.147290851157173 -5.413787279190068 0  6.91632006965034 -5.851605397483334 0  6.658527053286988 -5.437627383845131 0  6.441897327469297 -5.862220684948111 0  6.194860224019926 -5.464520225953867 0  5.988748643021736 -5.866336295550595 0  5.755042825355586 -5.482399938780632 0  5.555770501455733 -5.867908174086599 0  5.334991086231989 -5.504761241472904 0  5.145076642106908 -5.873191062890511 0  4.935013388047023 -5.544035964184449 0  4.754345788811499 -5.880090917794126 0  4.554437025256316 -5.569020251233177 0  4.382470744799432 -5.88665007327689 0  4.192208958329529 -5.585677590398814 0  4.029485566904095 -5.896175760774888 0  4.354949258143058 -5.270074521138358 0  4.004482386201769 -5.289207815434526 0  4.158655721068861 -4.98145486433833 0  3.821444856080801 -5.001169872115685 0  3.97033944278737 -4.700814034221719 0  3.642688047138773 -4.720140385706738 0  3.788830742180677 -4.426816067812119 0  3.467446796449556 -4.450112744784491 0  3.325275354457695 -4.730293981808933 0  3.158439978631689 -4.466074367009679 0  3.294707394527546 -4
[...]
<PointData  Vectors="flow"> 
<DataArray  type="Float64"  Name="flow"  NumberOfComponents="3" format="ascii">-9.4927233678300608e-05 7.8429329725703597e-03 0.0000000000000000e+00  6.7879784489941598e-06 4.5054263828703736e-05 0.0000000000000000e+00  -5.3774826076448556e-07 -1.9967826838564241e-06 0.0000000000000000e+00  -7.9279101027056631e-07 -2.6055923762966838e-06 0.0000000000000000e+00  -1.3565680298974629e-05 7.5597912825893900e-03 0.0000000000000000e+00  1.0179746827638941e-05 7.0071255552855974e-03 0.0000000000000000e+00  1.5753629214447279e-05 6.1516867634209610e-03 0.0000000000000000e+00  3.0703069897902015e-05 5.1364778916327836e-03 0.0000000000000000e+00  2.1121488704328317e-05 4.2353692301981003e-03 0.0000000000000000e+00  -6.0440204889348134e-05 3.7214502371995632e-03 0.0000000000000000e+00  3.6697804275126000e-06 3.3135282358434663e-03 0.0000000000000000e+00  2.6467553150743484e-05 3.2458440796125057e-03 0.0000000000000000e+00  -2.3006048120871819e-05 3.2516140985878084e-03 0.0000000000000000e+00  1.7497979120148269e-05 3.1230102468806126e-03 0.0000000000000000e+00  -2.6883628517262710e-06 2.9647410236910594e-03 0.0000000000000000e+00  -7.4545922310957597e-06 2.7637987393255097e-03 0.0000000000000000e+00  1.9247758729664471e-05 2.4506048462529812e-03 0.0000000000000000e+00  2.7481045417882552e-05 2.1523172394533733e-03 0.0000000000000000e+00  -1.9646000946815398e-05 1.9589612300062163e-03 0.0000000000000000e+00  -4.5742036182531108e-06 1.6928770616601754e-03 0.0000000000000000e+00  5.5215401082194008e-06 1.4760097582021535e-03 0.0000000000000000e+00  -1.8583117423760614e-05 1.2899232881615934e-03 0.0000000000000000e+00  8.1909112614351012e-06 1.1169896294805153e-03 0.0000000000000000e+00  1.0388636044431116e-05 9.5841178478308178e-04 0.0000000000000000e+00  -4.8880023133062963e-06 8.2968091209024335e-04 0.0000000000000000e+00  1.8149136766409638e-06 7.3034903363626937e-04 0.0000000000000000e+00  1.8229526245441067e-06 6.3555901690712550e-04 0.0000000000000000e+00  7.0461581946029855e-07 5.4133661445375958e-04 0.0000000000000000e+00  1.0276583849745046e-05 4.6032243159689748e-04 0.0000000000000000e+00  -6.1505907669495813e-06 4.0938543750161936e-04 0.0000000000000000e+00  1.0803455592448612e-08 3.4547436349651383e-04 0.0000000000000000e+00  1.2881189096169662e-06 2.9432249641739988e-04 0.0000000000000000e+00  1.3671740089558021e-06 2.5123898617898795e-04 0.0000000000000000e+00  6.7319850080337563e-08 2.1583423130411554e-04 0.0000000000000000e+00  5.3735610666092599e-07 1.8439842656341223e-04 0.0000000000000000e+00  9.6010439778887195e-07 1.5633956382471749e-04 0.0000000000000000e+00  9.6884610346395049e-08 1.3047790498737073e-04 0.0000000000000000e+00  3.7614858624753617e-06 1.0978749982296878e-04 0.0000000000000000e+00  -2.9733635317831134e-06 9.8545966471530152e-05 0.0000000000000000e+00  4.0561886395508498e-07 8.5214415696324586e-05 0.0000000000000000e+00  1.5556307872377514e-07 7.5988194638433509e-05 0.0000000000000000e+00  6.6405299435367699e-07 6.8126897023314248e-05 0.0000000000000000e+00  1.0131256101175517e-06 6.2310746252671180e-05 0.0000000000000000e+00  1.4131269309426467e-07 5.7526918005251959e-05 0.0000000000000000e+00  -9.9749608982506825e-08 5.5481826171671385e-05 0.0000000000000000e+00  -1.8118957862387419e-06 5.1581294890976736e-05 0.0000000000000000e+00  7.7422798595131311e-09 4.4272577947280595e-05 0.0000000000000000e+00  1.0194112241410020e-06 4.7371343247816446e-05 0.0000000000000000e+00  -3.0019363711966035e-07 4.5939898537931853e-05 0.0000000000000000e+00  2.0393214521541152e-07 4.3149264457317132e-05 0.0000000000000000e+00  1.9200746485889729e-06 4.1110256483416114e-05 0.0000000000000000e+00  -5.0825537769344233e-06 4.2009762380776799e-05 0.0000000000000000e+00  2.7377053310097002e-06 1.1427799980801174e-05 0.0000000000000000e+00  2.2900377463988954e-06 -6.1503893820598855e-06 0.0000000000000000e+00  -8.8386794937665100e-07 3.7912222527317495e-07 0.0000000000000000e+00  6.9862868115235903e-07 -2.9032152063559515e-06 0.0000000000000000e+00  5.5796088500875444e-08 -2.2255778823788570e-06 0.0000000000000000e+00  3.7872641888603384e-08 -2.5065621783542013e-06 0.0000000000000000e+00  4.0753215244088184e-07 -2.2528215914392695e-06 0.0000000000000000e+00  6.8371389743880632e-08 -3.6560836876243753e-06 0.0000000000000000e+00  2.9670465891723235e-07 -2.2441677799756305e-06 0.0000000000000000e+00  2.1748842795920847e-07 -2.2892291297566987e-06 0.0000000000000000e+00  3.6904310098455684e-07 -2.4295380301258211e-06 0.0000000000000000e+00  1.0787708952264932e-06 -2.7598118045422047e-06 0.0000000000000000e+00  2.3941615608050834e-06 -2.7650533992553216e-06 0.0000000000000000e+00  2.4859310733204459e-06 -2.7768601234889226e-06 0.0000000000000000e+00  3.3915584429113669e-06 -2.7964127697483638e-06 0.0000000000000000e+00  5.5737925398896015e-06 -2.6241775775467764e-06 0.0000000000000000e+00  6.8463801309415160e-06 -2.4039332082185173e-06 0.0000000000000000e+00  8.0510945275565566e-06 -1.9705927865369487e-06 0.0000000000000000e+00  9.6164425033789732e-06 -1.4473598630112855e-06 0.0000000000000000e+00  1.0993791856750695e-05 -9.0389919888021281e-07 0.0000000000000000e+00  1.2120780550371131e-05 -2.8742803426226034e-07 0.0000000000000000e+00  1.2671038770768827e-05 4.3661784112389239e-07 0.0000000000000000e+00  1.2463530955495110e-05 1.4971565746703542e-06 0.0000000000000000e+00  1.2282560814560025e-05 2.2190694551795230e-06 0.0000000000000000e+00  8.8831421222869373e-06 3.7314198980308383e-06 0.0000000000000000e+00  5.8254516094164620e-06 4.3502512287599793e-06 0.0000000000000000e+00  2.6608567552267539e-07 4.4562998912695586e-06 0.0000000000000000e+00  -5.2534597982766603e-06 4.9549846258156093e-06 0.0000000000000000e+00  -1.2346168980522561e-05 5.4278164773085795e-06 0.0000000000000000e+00  -2.0596799403769347e-05 5.7298747728017331e-06 0.0000000000000000e+00  -2.9474969219615318e-05 5.6873519794022351e-06 0.0000000000000000e+00  -3.8802293030232361e-05 5.0546748715534048e-06 0.0000000000000000e+00  -4.9761260645296348e-05 4.9476572346693074e-06 0.0000000000000000e+00  -5.9087115861214474e-05 4.6055515871550742e-06 0.0000000000000000e+00  -6.7998139518891782e-05 3.3104683908917756e-06 0.0000000000000000e+00  -7.5252569573582110e-05 2.4143348895821866e-06 0.0000000000000000e+00  -8.1395784892158296e-05 1.8763050144231515e-06 0.0000000000000000e+00  -8.6946490381223859e-05 1.1286204996390760e-06 0.0000000000000000e+00  -9.0694997371506682e-05 6.9531516912361187e-07 0.0000000000000000e+00  -9.3202629058298744e-05 1.7722066202605856e-07 0.0000000000000000e+00  -9.3722676361507188e-05 -6.3727067709743881e-07 0.0000000000000000e+00  -9.2796873446493108e-05 -7.7588968741276331e-07 0.0000000000000000e+00  -9.0007155259176616e-05 -1.1718584338124177e-06 0.0000000000000000e+00  -8.6641041434643991e-05 -1.6684747686196100e-06 0.0000000000000000e+00  -8.2142419437336006e-05 -1.8186181885175206e-06 0.0000000000000000e+00  -7.6533231044334618e-05 -1.9151879167067890e-06 0.0000000000000000e+00  -7.0215110041592244e-05 -2.2627961390858148e-06 0.0000000000000000e+00  -6.3713854128440153e-05 -2.4538473640237334e-06 0.0000000000000000e+00  -5.6651028400724464e-05 -2.3067217735040104e-06 0.0000000000000000e+00  -4.9125077498701773e-05 -2.5267418066169671e-06 0.0000000000000000e+00  -4.1919046836796800e-05 -2.6121317157921383e-06 0.0000000000000000e+00  -3.4334583410117376e-05 -2.5599773509587442e-06 0.0000000000000000e+00  -2.7561386730211480e-05 -2.5360662288217402e-06 0.0000000000000000e+00  -2.0188251198988890e-05 -2.0282722909624583e-06 0.0000000000000000e+00  -1.2921203081899962e-05 -1.9645964291970934e-06 0.0000000000000000e+00  -6.7291638867216403e-06 -1.9121183783069633e-06 0.0000000000000000e+00  -7.2340365561238074e-07 -1.1241573042375094e-05 0.0000000000000000e+00  -9.1409453737825997e-07 -2.1149359631624577e-05 0.0000000000000000e+00  -1.0007077669022229e-06 -2.9317639622538759e-05 0.0000000000000000e+00  -1.1877271234140078e-06 -3.4200215980355939e-05 0.0000000000000000e+00  -1.3289703943863718e-06 -3.6274603926974001e-05 0.0000000000000000e+00  -1.7238039739538699e-06 -3.5789105412319484e-05 0.0000000000000000e+00  -1.8158259705976116e-06 -3.3471648507033303e-05 0.0000000000000000e+00  -1.9056209640374099e-06 -2.9145634326155868e-05 0.0000000000000000e+00  -1.8354206844881734e-06 -2.4777965883601355e-05 0.0000000000000000e+00  -1.6355215128759271e-06 -1.9448736471357986e-05 0.0000000000000000e+00  -1.6359417505204818e-06 -1.4424179232100837e-05 0.0000000000000000e+00  -1.7494960940538632e-06 -9.1115733772416717e-06 0.0000000000000000e+00  -1.7176861997992409e-06 -3.5267878114224236e-06 0.0000000000000000e+00  -1.6854264204889308e-06 1.5687044051344793e-06 0.0000000000000000e+00  -1.7543809863788215e-06 6.9422077343668488e-06 0.0000000000000000e+00  -1.7102683759131942e-06 1.2518243083428677e-05 0.0000000000000000e+00  -1.8729740886868147e-06 1.7758960287117336e-05 0.0000000000000000e+00  -1.7802019771530243e-06 2.3733572596342653e-05 0.0000000000000000e+00  -1.8452789518138851e-06 2.9211128736539744e-05 0.0000000000000000e+00  -2.0103546390099015e-06 3.5670071537926572e-05 0.0000000000000000e+00  -2.3522522328113066e-06 4.2001114237960651e-05 0.0000000000000000e+00  -1.8729323195098168e-06 4.8429633694036454e-05 0.0000000000000000e+00  -2.8342331454979975e-06 5.6228193595040258e-05 0.0000000000000000e+00  -2.3021084973662627e-06 6.3131888042625698e-05 0.0000000000000000e+00  -2.5744627027374304e-06 7.0972072445541059e-05 0.0000000000000000e+00  -2.8266821965421381e-06 7.9745420830436325e-05 0.0000000000000000e+00  -3.0211618543757183e-06 8.8858125931651956e-05 0.0000000000000000e+00  -3.4231130907458919e-06 9.8518517948899313e-05 0.0000000000000000e+00  -3.5853942513938077e-06 1.0980166752943012e-04 0.0000000000000000e+00  -3.8621852003301901e-06 1.2070081360617677e-04 0.0000000000000000e+00  -4.2991753220942649e-06 1.3373860999287441e-04 0.0000000000000000e+00  -4.7892776236522618e-06 1.4902279960863520e-04 0.0000000000000000e+00  -6.9123812741079015e-06 1.6274890712826299e-04 0.0000000000000000e+00  -6.4529864936055285e-06 1.7857486990345889e-04 0.0000000000000000e+00  -7.2045695845034758e-06 2.0118774979762985e-04 0.0000000000000000e+00  -9.4293753304888506e-06 2.1945978684957641e-04 0.0000000000000000e+00  -8.5617785024368065e-06 2.4570277711283154e-04 0.0000000000000000e+00  -9.4272527118730932e-06 2.7214422213119212e-04 0.0000000000000000e+00  -9.1019005835171028e-06 3.0260321197241833e-04 0.0000000000000000e+00  -1.4201770240470609e-05 3.3762188839788821e-04 0.0000000000000000e+00  -1.3876656920146636e-05 3.7346847750481256e-04 0.0000000000000000e+00  -1.8767679878871512e-05 4.2843006663755392e-04 0.0000000000000000e+00  -2.1751688205657608e-05 4.7375779622174652e-04 0.0000000000000000e+00  -2.0415762482664620e-05 5.4510033599468192e-04 0.0000000000000000e+00  -2.3404797859605246e-05 6.1496879250676922e-04 0.0000000000000000e+00  -2.9861267950841129e-05 7.0287220414018067e-04 0.0000000000000000e+00  -3.8449319486939675e-05 8.1156762431298284e-04 0.0000000000000000e+00  -3.9759302605163675e-05 9.4771072519520677e-04 0.0000000000000000e+00  -4.9208308453336915e-05 1.0950172323811653e-03 0.0000000000000000e+00  -7.4181461454858862e-05 1.2934086508025102e-03 0.0000000000000000e+00  -9.9635933770175864e-05 1.5464664864550282e-03 0.0000000000000000e+00  -1.1365683741428986e-04 1.8565221958877698e-03 0.0000000000000000e+00  -1.3843119614477905e-04 2.1626242997687954e-03 0.0000000000000000e+00  -1.8208790625981783e-04 2.4401170023953551e-03 0.0000000000000000e+00  -2.0034576327389192e-04 2.5026444971527240e-03 0.0000000000000000e+00  -1.7489174669193389e-04 2.0914425299071657e-03 0.0000000000000000e+00  -6.9201764335311409e-05 9.4763430585799273e-04 0.0000000000000000e+00  3.1866982689784759e-05 -1.0810271727131864e-03 0.0000000000000000e+00  -1.7278838448261393e-04 -3.5801106469596903e-03 0.0000000000000000e+00  -8.7937735589239668e-06 -6.4592994553582814e-03 0.0000000000000000e+00  -1.2407445276416882e-05 -8.4976584280249696e-03 0.0000000000000000e+00  -6.3873335617945819e-05 -9.1499875165185936e-03 0.0000000000000000e+00  -4.4615133715236392e-05 -8.0193778117691183e-03 0.0000000000000000e+00  -4.7661004877968123e-05 -5.3540731672894783e-03 0.0000000000000000e+00  -5.2103804049152602e-05 -1.7438618721703594e-03 0.0000000000000000e+00  -4.5126748081395645e-05 1.8011998484255673e-03 0.0000000000000000e+00  1.0691281858706069e-05 4.8713657079480135e-03 0.0000000000000000e+00  -6.5592761825771214e-05 6.9548674422883613e-03 0.0000000000000000e+00  -1.5228997816088594e-05 1.8996295846922731e-04 0.0000000000000000e+00  -7.8913488446635502e-06 1.0370228744533162e-04 0.0000000000000000e+00  -6.3426263604130014e-06 5.2697033893037215e-05 0.0000000000000000e+00  -2.8124740991579399e-05 3.4998193418481172e-04 0.0000000000000000e+00  -7.5007273914298045e-05 7.5648467756874490e-04 0.0000000000000000e+00  9.0363710165050696e-05 7.5706179805337160e-04 0.0000000000000000e+00  -7.7699190984295493e-05 8.0294843397123496e-06 0.0000000000000000e+00  -2.2514614927748329e-04 1.6603993494373284e-03 0.0000000000000000e+00  -4.9201332504203713e-06 2.0340707384544920e-05 0.0000000000000000e+00  2.2506522861678559e-04 1.5038229845511285e-03 0.0000000000000000e+00  -9.2347082926054345e-05 -2.6489753997494956e-06 0.0000000000000000e+00  -3.7527669693195061e-06 -6.3196969617530065e-06 0.0000000000000000e+00  -1.0381482878126078e-03 1.4537870909998439e-03 0.0000000000000000e+00  -4.3999628433561744e-05 1.5650661049455705e-05 0.0000000000000000e+00  5.6739807764887788e-05 4.1303804779221806e-04 0.0000000000000000e+00  2.0436749245769130e-04 2.5434248879536328e-03 0.0000000000000000e+00  -7.8718799232380257e-05 -7.6782768303310347e-06 0.0000000000000000e+00  -9.5118941804503251e-06 1.5443304100454187e-05 0.0000000000000000e+00  3.2380981429383358e-05 2.0240749922093547e-04 0.0000000000000000e+00  -3.8341965410337548e-06 -2.6774113912439836e-05 0.0000000000000000e+00  -5.9288561838308576e-04 -7.5086484740653232e-03 0.0000000000000000e+00  9.4052451037157920e-06 6.4905138357621182e-06 0.0000000000000000e+00  1.7176873377741344e-05 9.6891854377048918e-05 0.0000000000000000e+00  7.7726968962606109e-05 3.1253901664515900e-03 0.0000000000000000e+00  -5.2641065635721074e-05 -1.0086287729664887e-05 0.0000000000000000e+00  1.1563610809682594e-05 3.5188193608522875e-07 0.0000000000000000e+00  9.3506795868871514e-06 5.7300714190045872e-05 0.0000000000000000e+00  -5.3474038235429468e-05 5.0347211449612420e-04 0.0000000000000000e+00  -6.3640510076622294e-06 7.5395114725801076e-05 0.0000000000000000e+00  -2.2920399363469216e-05 2.5702938764865204e-04 0.0000000000000000e+00  -1.0366465583809528e-05 1.3838741081060907e-04 0.0000000000000000e+00  8.3199510471528936e-06 -3.4380142589833885e-06 0.0000000000000000e+00  4.0067031327541490e-06 3.6928847589969344e-05 0.0000000000000000e+00  4.4372596271709497e-04 -6.7175745585384451e-03 0.0000000000000000e+00  -4.3519346366819958e-06 -3.6156745510712785e-05 0.0000000000000000e+00  4.5462627813378996e-06 -5.1441726242583150e-06 0.0000000000000000e+00  4.0471376701066910e-07 -2.8320333726827264e-06 0.0000000000000000e+00  1.9866362517291146e-06 2.6383990679684258e-05 0.0000000000000000e+00  1.9166047181632452e-06 -4.7361163774207855e-06 0.0000000000000000e+00  6.9105352537932692e-04 4.3635650171364292e-03 0.0000000000000000e+00  -3.0716808726960198e-05 -8.9800116401996061e-06 0.0000000000000000e+00  2.7094085289440425e-07 1.6444867424422045e-05 0.0000000000000000e+00  1.9378130800651541e-06 1.1097603003901049e-05 0.0000000000000000e+00  2.4175199085392806e-05 1.3736774743646057e-04 0.0000000000000000e+00  -2.5581637454691600e-05 1.5970405110950294e-05 0.0000000000000000e+00  4.6969083207869309e-05 2.7553603953278227e-04 0.0000000000000000e+00  -6.3244287931127095e-05 1.1257428013430063e-05 0.0000000000000000e+00  7.8620659200545593e-05 5.5249991128541336e-04 0.0000000000000000e+00  -9.0878839705703441e-05 1.5880891082723422e-06 0.0000000000000000e+00  1.4609866776656833e-04 1.1971652224479013e-03 0.0000000000000000e+00  -8.7994070910070511e-05 -5.5822357648219458e-06 0.0000000000000000e+00  2.3948005873031602e-04 2.0665633231026371e-03 0.0000000000000000e+00  -6.6639332876029567e-05 -9.2781420426645956e-06 0.0000000000000000e+00  6.7669779469137610e-05 2.8612138059931022e-03 0.0000000000000000e+00  -1.0935242385404261e-03 -2.0129236965601926e-03 0.0000000000000000e+00  -3.6230080500901265e-06 -1.6927797237539198e-05 0.0000000000000000e+00  7.9349651427105129e-04 8.2141037999083316e-05 0.0000000000000000e+00  -4.7473418590021919e-06 -3.2047538675950986e-05 0.0000000000000000e+00  -5.3979261025482680e-04 2.4432443492411605e-03 0.0000000000000000e+00  -4.3557055661018300e-06 4.4864119296113311e-06 0.0000000000000000e+00  -1.5118104513645763e-04 1.1832566405369463e-03 0.0000000000000000e+00  -4.4999756873945874e-06 3.2354518833864450e-05 0.0000000000000000e+00  6.2821740935699561e-07 -3.8712638506243561e-06 0.0000000000000000e+00  3.1306437938674257e-07 1.9176988312976252e-05 0.0000000000000000e+00  7.0709545251835615e-04 6.0582230351698208e-03 0.0000000000000000e+00  -1.6674349848083432e-05 -9.7340421033411013e-06 0.0000000000000000e+00  1.5989507555734927e-07 -2.0621753484517344e-06 0.0000000000000000e+00  4.8215528983773288e-07 -2.0375713461435863e-06 0.0000000000000000e+00  5.5955335315511384e-04 5.7289843609679104e-03 0.0000000000000000e+00  -5.4011184508633617e-06 -1.6866350709935808e-05 0.0000000000000000e+00  9.5582514295906233e-07 -4.4433409478295323e-06 0.0000000000000000e+00  1.5532074521870744e-06 -3.5718880455114823e-06 0.0000000000000000e+00  2.3552026418195739e-06 -3.6181380367095235e-06 0.0000000000000000e+00  1.8479637043968980e-06 -1.4366117660023730e-06 0.0000000000000000e+00  2.6396687305166043e-06 -1.3284713887441058e-06 0.0000000000000000e+00  1.4882037743539170e-06 -1.2987795021349708e-06 0.0000000000000000e+00  2.0266100439153867e-06 -3.4760979087199154e-06 0.0000000000000000e+00  2.6638680249441678e-06 -2.6190909137499418e-06 0.0000000000000000e+00  1.9106983145812901e-06 -2.4720526304223086e-07 0.0000000000000000e+00  2.9190272336966015e-06 -1.0883613571965679e-06 0.0000000000000000e+00  3.7707436369405607e-06 -1.9510859098370649e-06 0.0000000000000000e+00  3.8930240143582635e-06 -1.6360349031375261e-06 0.0000000000000000e+00  4.2674235239319470e-06 -1.5238390403103136e-06 0.0000000000000000e+00  3.8291639372830111e-06 -1.6853555380602292e-06 0.0000000000000000e+00  4.8170387160553393e-06 -7.2403403582567573e-07 0.0000000000000000e+00  4.9636457142417693e-06 -9.0691269825898102e-07 0.0000000000000000e+00  6.0417258342207084e-06 -2.0161472806575508e-07 0.0000000000000000e+00  6.5430295070983171e-06 -3.2580168447467095e-07 0.0000000000000000e+00  6.9270546166572627e-06 -1.8774135645001114e-07 0.0000000000000000e+00  7.1482070824870207e-06 -1.1169210077568541e-07 0.0000000000000000e+00  7.3471227532229181e-06 -3.7712785373594909e-08 0.0000000000000000e+00  7.5159201158658088e-06 1.7360702826017072e-07 0.0000000000000000e+00  7.4144980757853848e-06 -1.2629935023337426e-07 0.0000000000000000e+00  7.9481430888140967e-06 -2.1415739463697693e-07 0.0000000000000000e+00  7.1297989373753700e-06 -4.0521474003440240e-07 0.0000000000000000e+00  7.6643392258137445e-06 -1.1863871340507238e-06 0.0000000000000000e+00  6.6132589794549196e-06 -1.2690207258662972e-06 0.0000000000000000e+00  7.3110830566645411e-06 -2.6613674700562171e-06 0.0000000000000000e+00  5.8758069867609967e-06 -2.0529952352807129e-06 0.0000000000000000e+00  6.6542017652304947e-06 -4.3254570915431250e-06 0.0000000000000000e+00  4.5087379886782047e-06 -3.3741162434599149e-06 0.0000000000000000e+00  4.8949756251375553e-06 -6.0823637057678078e-06 0.0000000000000000e+00  1.7674722413020678e-06 -5.2028667212322671e-06 0.0000000000000000e+00  2.4254490923260542e-06 -8.7000337954189963e-06 0.0000000000000000e+00  -1.8093771160161963e-06 -7.