<?xml version="1.0"?>
<VTKFile type="UnstructuredGrid"  version="0.1"  >
<UnstructuredGrid>
<Piece  NumberOfPoints="13179" NumberOfCells="25814">
<Points>
<DataArray  type="Float64"  NumberOfComponents="3"  format="ascii">0 0 0  30 0 0  30 -10 0  0 -10 0  0.02360821169319077 0 0  0.04721642338638154 0 0  0.07206717063563725 0 0  0.09691791788489297 0 0  0.1230766011355843 0 0  0.1492352843862757 0 0  0.1767707375239038 0 0  0.204306190661532 0 0  0.2332908770901271 0 0  0.2622755635187223 0 0  0.2927857633803451 0 0  0.323295963241968 0 0  0.3554119623832387 0 0  0.3875279615245094 0 0  0.4213342730081758 0 0  0.4551405844918422 0 0  0.4907261762804851 0 0  0.526311768069128 0 0  0.5637702848355051 0 0  0.6012288016018821 0 0  0.6406588220121138 0 0  0.6800888424223455 0 0  0.721594129780935 0 0  0.7630994171395246 0 0  0.8067891887833475 0 0  0.8504789604271704 0 0  0.8964681941825949 0 0  0.9424574279380195 0 0  0.9908671465681095 0 0  1.039276865198199 0 0  1.090234462786975 0 0  1.141192060375751 0 0  1.194831641933244 0 0  1.248471223490737 0 0  1.304933942963653 0 0  1.361396662436569 0 0  1.420831104471586 0 0  1.480265546506604 0 0  1.542828113436244 0 0  1.605390680365884 0 0  1.671246013469327 0 0  1.73710134657277 0 0  1.806422752814762 0 0  1.875744159056755 0 0  1.948714057431306 0 0  2.021683955805857 0 0  2.098494373901932 0 0  2.175304791998006 0 0  2.256157866653476 0 0  2.337010941308945 0 0  2.422119443935387 0 0  2.50722794656183 0 0  2.596815840700639 0 0  2.686403734839449 0 0  2.780706776094687 0 0  2.875009817349925 0 0  2.974276175689285 0 0  3.073542534028646 0 0  3.178033441002704 0 0  3.282524347976761 0 0  3.392514777963501 0 0  3.502505207950242 0 0  3.618284608533553 0 0  3.734064009116865 0 0  3.855937062816526 0 0  3.977810116516187 0 0  4.106097541496641 0 0  4.234384966477093 0 0  4.369424362562147 0 0  4.5044637586472 0 0  4.646610489729194 0 0  4.788757220811188 0 0  4.938385356669961 0 0  5.088013492528733 0 0  5.24551679218304 0 0  5.403020091837347 0 0  5.568813038399614 0 0  5.73460598496188 0 0  5.909124878408681 0 0  6.083643771855482 0 0  6.267347873338513 0 0  6.451051974821543 0 0  6.644424714363561 0 0  6.83779745390558 0 0  7.041347702348167 0 0  7.244897950790754 0 0  7.459161368238869 0 0  7.673424785686984 0 0  7.898965226038037 0 0  8.124505666389089 0 0  8.361916654054033 0 0  8.599327641718979 0 0  8.849233942517035 0 0  9.099140243315093 0 0  9.362199507946787 0 0  9.625258772578484 0 0  9.902163261537794 0 0  10.1790677504971 0 0  10.47054616023911 0 0  10.76202456998112 0 0  11.06884394887334 0 0  11.37566332776555 0 0  11.69863109504192 0 0  12.02159886231829 0 0  12.3615649378891 0 0  12.7015310134599 0 0  13.05939003847426 0 0  13.41724906348862 0 0  13.79394276982091 0 0  14.1706364761532 0 0  14.5671561683298 0 0  14.96367586050641 0 0  15.38106501332897 0 0  15.79845416615153 0 0  16.23781117165827 0 0  16.677168177165 0 0  17.13964923659526 0 0  17.60213029602552 0 0  18.0889524622663 0 0  18.57577462850707 0 0  19.08821901304263 0 0  19.60066339757818 0 0  20.14007853843172 0 0  20.67949367928525 0 0  21.24729908993883 0 0  21.8151045005924 0 0  22.41279440541421 0 0  23.01048431023601 0 0  23.63963157605829 0 0  24.26877884188056 0 0  24.93103912515648 0 0  25.59329940843241 0 0  26.29041549584691 0 0  26.98753158326142 0 0  27.72133799026916 0 0  28.45514439727691 0 0  29.22757219863846 0 0  30 -0.3571428571428571 0  30 -0.7142857142857142 0  30 -1.071428571428571 0  30 -1.428571428571428 0  30 -1.785714285714286 0  30 -2.142857142857143 0  30 -2.5 0  30 -2.857142857142857 0  30 -3.214285714285714 0  30 -3.571428571428571 0  30 -3.928571428571428 0  30 -4.285714285714286 0  30 -4.642857142857142 0  30 -5 0  30 -5.357142857142857 0  30 -5.714285714285714 0  30 -6.071428571428571 0  30 -6.428571428571428 0  30 -6.785714285714285 0  30 -7.142857142857142 0  30 -7.5 0  30 -7.857142857142857 0  30 -8.214285714285714 0  30 -8.571428571428571 0  30 -8.928571428571427 0  30 -9.285714285714285 0  30 -9.642857142857142 0  29.22757220128658 -10 0  28.45514440257316 -10 0  27.72133799277628 -10 0  26.98753158297939 -10 0  26.29041549304805 -10 0  25.5932994031167 -10 0  24.93103911757599 -10 0  24.26877883203527 -10 0  23.63963156418132 -10 0  23.01048429632737 -10 0  22.41279438968936 -10 0  21.81510448305136 -10 0  21.24729907078059 -10 0  20.67949365850982 -10 0  20.14007851622273 -10 0  19.60066337393564 -10 0  19.08821898813588 -10 0  18.57577460233611 -10 0  18.08895243498708 -10 0  17.60213026763805 -10 0  17.13964920724307 -10 0  16.6771681468481 -10 0  16.2378111405086 -10 0  15.79845413416909 -10 0  15.38106498063496 -10 0  14.96367582710082 -10 0  14.56715613432376 -10 0  14.17063644154669 -10 0  13.79394273471576 -10 0  13.41724902788484 -10 0  13.05939000246495 -10 0  12.70153097704506 -10 0  12.36156490115379 -10 0  12.02159882526251 -10 0  11.69863105774323 -10 0  11.37566329022395 -10 0  11.06884391115945 -10 0  10.76202453209494 -10 0  10.47054612224479 -10 0  10.17906771239465 -10 0  9.902163223385379 -10 0  9.625258734376107 -10 0  9.362199469747061 -10 0  9.099140205118012 -10 0  8.849233904370102 -10 0  8.599327603622193 -10 0  8.361916616050124 -10 0  8.124505628478055 -10 0  7.898965188258209 -10 0  7.673424748038361 -10 0  7.459161330755727 -10 0  7.244897913473093 -10 0  7.041347665226496 -10 0  6.837797416979896 -10 0  6.644424677660922 -10 0  6.451051938341948 -10 0  6.26734783710581 -10 0  6.083643735869675 -10 0  5.90912484269068 -10 0  5.734605949511682 -10 0  5.568813003235423 -10 0  5.403020056959164 -10 0  5.24551675760658 -10 0  5.088013458254 -10 0  4.938385322710374 -10 0  4.788757187166745 -10 0  4.646610456411224 -10 0  4.504463725655707 -10 0  4.369424329906533 -10 0  4.234384934157362 -10 0  4.106097509520442 -10 0  3.977810084883522 -10 0  3.85593703153344 -10 0  3.734063978183357 -10 0  3.618284577954206 -10 0  3.502505177725055 -10 0  3.392514748095728 -10 0  3.282524318466404 -10 0  3.1780334118518 -10 0  3.073542505237196 -10 0  2.97427614725823 -10 0  2.875009789279265 -10 0  2.780706748384375 -10 0  2.686403707489482 -10 0  2.596815813710069 -10 0  2.507227919930656 -10 0  2.422119417661861 -10 0  2.337010915393062 -10 0  2.256157841092762 -10 0  2.175304766792465 -10 0  2.098494349048437 -10 0  2.021683931304413 -10 0  1.948714033278215 -10 0  1.875744135252013 -10 0  1.806422729354161 -10 0  1.737101323456312 -10 0  1.671245990692352 -10 0  1.605390657928396 -10 0  1.542828091333185 -10 0  1.480265524737977 -10 0  1.420831083031992 -10 0  1.36139664132601 -10 0  1.304933922176438 -10 0  1.248471203026863 -10 0  1.194831621786765 -10 0  1.14119204054667 -10 0  1.09023444350921 -10 0  1.039276846471754 -10 0  0.9908671279064798 -10 0  0.942457409341209 -10 0  0.8964681758842019 -10 0  0.8504789424271948 -10 0  0.8067891710751951 -10 0  0.7630993997231954 -10 0  0.7215941126497469 -10 0  0.6800888255762949 -10 0  0.6406588054444597 -10 0  0.6012287853126246 -10 0  0.5637702688178621 -10 0  0.5263117523230996 -10 0  0.4907261607992695 -10 0  0.4551405692754429 -10 0  0.4213342580497894 -10 0  0.3875279468241395 -10 0  0.3554119479341011 -10 0  0.3232959490440663 -10 0  0.2927857494269297 -10 0  0.2622755498097931 -10 0  0.2332908636189828 -10 0  0.2043061774281725 -10 0  0.1767707245216883 -10 0  0.1492352716152006 -10 0  0.1230765885890825 -10 0  0.09691790556296098 -10 0  0.0720671585317838 -10 0  0.04721641150060663 -10 0  0.02360820575030331 -10 0  0 -9.957983193277311 0  0 -9.915966386554622 0  0 -9.873949579831933 0  0 -9.831932773109244 0  0 -9.789915966386555 0  0 -9.747899159663866 0  0 -9.705882352941176 0  0 -9.663865546218487 0  0 -9.621848739495798 0  0 -9.579831932773109 0  0 -9.53781512605042 0  0 -9.495798319327731 0  0 -9.453781512605042 0  0 -9.411764705882353 0  0 -9.369747899159664 0  0 -9.327731092436975 0  0 -9.285714285714286 0  0 -9.243697478991596 0  0 -9.201680672268907 0  0 -9.159663865546218 0  0 -9.117647058823529 0  0 -9.07563025210084 0  0 -9.033613445378151 0  0 -8.991596638655462 0  0 -8.949579831932773 0  0 -8.907563025210084 0  0 -8.865546218487395 0  0 -8.823529411764707 0  0 -8.781512605042018 0  0 -8.739495798319329 0  0 -8.69747899159664 0  0 -8.655462184873949 0  0 -8.61344537815126 0  0 -8.571428571428571 0  0 -8.529411764705882 0  0 -8.487394957983193 0  0 -8.445378151260504 0  0 -8.403361344537815 0  0 -8.361344537815127 0  0 -8.319327731092438 0  0 -8.277310924369749 0  0 -8.235294117647058 0  0 -8.193277310924369 0  0 -8.15126050420168 0  0 -8.109243697478991 0  0 -8.067226890756302 0  0 -8.025210084033613 0  0 -7.983193277310924 0  0 -7.941176470588236 0  0 -7.899159663865547 0  0 -7.857142857142857 0  0 -7.815126050420168 0  0 -7.773109243697479 0  0 -7.73109243697479 0  0 -7.689075630252101 0  0 -7.647058823529411 0  0 -7.605042016806722 0  0 -7.563025210084033 0  0 -7.521008403361344 0  0 -7.478991596638656 0  0 -7.436974789915967 0  0 -7.394957983193278 0  0 -7.352941176470589 0  0 -7.3109243697479 0  0 -7.26890756302521 0  0 -7.226890756302521 0  0 -7.184873949579832 0  0 -7.142857142857143 0  0 -7.100840336134453 0  0 -7.058823529411764 0  0 -7.016806722689076 0  0 -6.974789915966387 0  0 -6.932773109243698 0  0 -6.890756302521009 0  0 -6.84873949579832 0  0 -6.806722689075631 0  0 -6.764705882352941 0  0 -6.722689075630252 0  0 -6.680672268907563 0  0 -6.638655462184874 0  0 -6.596638655462185 0  0 -6.554621848739496 0  0 -6.512605042016807 0  0 -6.470588235294118 0  0 -6.428571428571429 0  0 -6.38655462184874 0  0 -6.344537815126051 0  0 -6.302521008403362 0  0 -6.260504201680672 0  0 -6.218487394957983 0  0 -6.176470588235294 0  0 -6.134453781512605 0  0 -6.092436974789917 0  0 -6.050420168067227 0  0 -6.008403361344538 0  0 -5.966386554621849 0  0 -5.92436974789916 0  0 -5.882352941176471 0  0 -5.840336134453782 0  0 -5.798319327731092 0  0 -5.756302521008403 0  0 -5.714285714285714 0  0 -5.672268907563025 0  0 -5.630252100840336 0  0 -5.588235294117647 0 
[...]
<PointData  Vectors="flow"> 
<DataArray  type="Float64"  Name="flow"  NumberOfComponents="3" format="ascii">-5.0691102718575685e-03 1.1156463811987946e-01 0.0000000000000000e+00  4.0657497423000963e-06 5.9443779682174976e-05 0.0000000000000000e+00  -2.0584207282789219e-06 -1.2119280770326807e-06 0.0000000000000000e+00  -1.1389963480909448e-06 2.7776301490355380e-06 0.0000000000000000e+00  -3.5740339868824455e-03 9.6812698480607945e-02 0.0000000000000000e+00  2.5157025376819210e-03 9.6174885195236565e-02 0.0000000000000000e+00  -1.0705640333486296e-03 8.6491418223328953e-02 0.0000000000000000e+00  1.4625760813344341e-03 7.7658174232069430e-02 0.0000000000000000e+00  -8.9085221764508124e-04 7.1959445257939833e-02 0.0000000000000000e+00  -8.4971997848451569e-05 6.7248885903216080e-02 0.0000000000000000e+00  -2.4135413482378207e-04 5.9776673266338655e-02 0.0000000000000000e+00  7.7529432998209031e-04 5.1918297078598519e-02 0.0000000000000000e+00  -1.0522379770512196e-03 4.6640963692824243e-02 0.0000000000000000e+00  8.3426267750511072e-04 3.9413460898332413e-02 0.0000000000000000e+00  -9.1593381483450116e-04 3.6044509563110394e-02 0.0000000000000000e+00  4.7480452225794886e-04 2.9922817156726119e-02 0.0000000000000000e+00  -8.8965000594554082e-05 2.5794650027732735e-02 0.0000000000000000e+00  -1.1536511131727167e-06 2.2525699978222014e-02 0.0000000000000000e+00  4.2259067366429289e-04 1.8841802354327877e-02 0.0000000000000000e+00  -3.3105249299024100e-04 1.6737214411747997e-02 0.0000000000000000e+00  -2.7773417654338437e-04 1.4642108284325999e-02 0.0000000000000000e+00  1.2254836197823525e-04 1.2575687247832973e-02 0.0000000000000000e+00  2.4888695780442554e-04 1.0742485927670613e-02 0.0000000000000000e+00  -1.7037759488009751e-04 9.6048349211547146e-03 0.0000000000000000e+00  -4.3833694807501253e-05 8.3997124765033716e-03 0.0000000000000000e+00  1.6122691302208013e-04 7.3836830603044509e-03 0.0000000000000000e+00  -2.1843202167436457e-04 6.6532212647765548e-03 0.0000000000000000e+00  4.0673969712840952e-05 5.8456140055264750e-03 0.0000000000000000e+00  1.3219452829027345e-04 5.0740461334449621e-03 0.0000000000000000e+00  -8.8420637674002696e-05 4.6095046921384129e-03 0.0000000000000000e+00  3.2030718206230284e-05 4.0251209354186792e-03 0.0000000000000000e+00  -1.0100426528230741e-05 3.6112821432786142e-03 0.0000000000000000e+00  3.2641037523681829e-05 3.2234711521885932e-03 0.0000000000000000e+00  -9.1106119027440689e-07 2.8730722918206076e-03 0.0000000000000000e+00  1.4412537039131912e-05 2.5885923758021761e-03 0.0000000000000000e+00  -7.7952868683942167e-06 2.3079791056783718e-03 0.0000000000000000e+00  5.2445879557425789e-07 2.0647330702241590e-03 0.0000000000000000e+00  -1.9550141293219655e-06 1.8551065791850519e-03 0.0000000000000000e+00  6.2831091321567736e-06 1.6405721022404202e-03 0.0000000000000000e+00  2.2244630905284388e-05 1.4711007143426629e-03 0.0000000000000000e+00  -5.4240363488208312e-05 1.3235966079491355e-03 0.0000000000000000e+00  4.3114002499147930e-05 1.1491610936523221e-03 0.0000000000000000e+00  -1.6131794403357707e-05 1.0298597495799540e-03 0.0000000000000000e+00  3.2252411740357963e-05 8.6370973441621637e-04 0.0000000000000000e+00  -2.9955449031811375e-05 7.9936537705462083e-04 0.0000000000000000e+00  1.2308540745135489e-06 7.2694503113466548e-04 0.0000000000000000e+00  1.8450617260951059e-06 6.2883297978764063e-04 0.0000000000000000e+00  2.8370343362191112e-07 5.5089207321497519e-04 0.0000000000000000e+00  4.5298595047348952e-06 4.8317705508239557e-04 0.0000000000000000e+00  -2.4584643893394410e-06 4.1631890348029063e-04 0.0000000000000000e+00  9.0421886711154088e-06 3.4313257788107053e-04 0.0000000000000000e+00  -5.6674416535628876e-06 3.0261277021061415e-04 0.0000000000000000e+00  5.1387410855248492e-07 2.5614648871454372e-04 0.0000000000000000e+00  -1.0298035220036034e-07 2.1327485196784597e-04 0.0000000000000000e+00  3.5455799681491113e-08 1.7055355501950607e-04 0.0000000000000000e+00  1.4673450305221331e-06 1.3156049254542116e-04 0.0000000000000000e+00  -1.0337210650085019e-06 1.0232992884959061e-04 0.0000000000000000e+00  1.4220593708901477e-06 7.3457406827275899e-05 0.0000000000000000e+00  4.6906159110822989e-07 4.3335278858995768e-05 0.0000000000000000e+00  -1.0676248211118828e-06 1.9961553785458385e-05 0.0000000000000000e+00  -7.6030334501276405e-07 2.8961274244184936e-06 0.0000000000000000e+00  -3.0812518023495744e-07 -1.5612431359088682e-05 0.0000000000000000e+00  1.9990754476556573e-06 -3.7834171750660342e-05 0.0000000000000000e+00  -1.9382121366509604e-06 -5.2521252981588498e-05 0.0000000000000000e+00  9.1025079609342352e-07 -6.5259907805273777e-05 0.0000000000000000e+00  -8.9298503562608958e-07 -8.0642167038070514e-05 0.0000000000000000e+00  -5.7320804831560463e-07 -8.8785654662363705e-05 0.0000000000000000e+00  -6.1638393102055345e-07 -9.7018074717075719e-05 0.0000000000000000e+00  -1.8953712614654280e-06 -1.0366992860290785e-04 0.0000000000000000e+00  1.1457151551382891e-06 -1.0749478136189738e-04 0.0000000000000000e+00  -1.7658744843637198e-06 -1.0757620886784221e-04 0.0000000000000000e+00  -1.4899211100038155e-06 -1.0725353226401679e-04 0.0000000000000000e+00  1.3792185463884616e-06 -1.1552395706826851e-04 0.0000000000000000e+00  2.2367481952338435e-08 -1.2270554104517578e-04 0.0000000000000000e+00  -6.9707654883952285e-07 -1.2219445953352669e-04 0.0000000000000000e+00  -1.1818186693079935e-07 -1.2280627972762902e-04 0.0000000000000000e+00  -1.5886489518729167e-06 -1.2095551759472474e-04 0.0000000000000000e+00  -2.9988656641497934e-07 -1.1823383882087703e-04 0.0000000000000000e+00  -1.1737914467499191e-06 -1.1537299270052010e-04 0.0000000000000000e+00  2.2323253762624135e-07 -1.1204598166898073e-04 0.0000000000000000e+00  5.1429953243458888e-07 -1.0929674316270311e-04 0.0000000000000000e+00  -3.9165407706476448e-06 -1.0771593683517143e-04 0.0000000000000000e+00  1.2165345363426413e-05 -1.0574592312846348e-04 0.0000000000000000e+00  -1.0454378970238762e-05 -9.8716720556350285e-05 0.0000000000000000e+00  6.2319931868609093e-08 -8.9948485967410749e-05 0.0000000000000000e+00  -1.6015163744530033e-07 -8.3490290078794984e-05 0.0000000000000000e+00  6.9656231706102695e-07 -7.5370779872061344e-05 0.0000000000000000e+00  -3.7447949289110178e-06 -6.6642209334857056e-05 0.0000000000000000e+00  3.7429718158458059e-06 -6.4325993329781146e-05 0.0000000000000000e+00  3.6743739874347978e-07 -6.1179067228484666e-05 0.0000000000000000e+00  -1.5422882777773812e-06 -5.3112729233106743e-05 0.0000000000000000e+00  -1.2103663951813612e-06 -4.4263314631108831e-05 0.0000000000000000e+00  1.1278370994027370e-07 -3.5512806633868269e-05 0.0000000000000000e+00  -7.0967972827695696e-08 -2.7849161791593676e-05 0.0000000000000000e+00  -4.9232686837553871e-07 -2.0299246158021162e-05 0.0000000000000000e+00  1.5558907609223211e-07 -1.2632484167662334e-05 0.0000000000000000e+00  8.3621312666182478e-08 -5.3363848058577726e-06 0.0000000000000000e+00  -4.4867133993469752e-07 2.3908952269802286e-06 0.0000000000000000e+00  1.0235661169362419e-07 8.8472841771725301e-06 0.0000000000000000e+00  -4.7261229277566290e-07 1.6245048371905359e-05 0.0000000000000000e+00  1.2612953829282948e-06 2.1665104960803768e-05 0.0000000000000000e+00  -4.8266944495462822e-07 2.7848272659589390e-05 0.0000000000000000e+00  2.7086570147682572e-07 3.4830098014322627e-05 0.0000000000000000e+00  -5.4686417945470939e-07 4.0172402253044399e-05 0.0000000000000000e+00  6.8287117108489365e-07 4.7105628891580384e-05 0.0000000000000000e+00  -3.1894599636525701e-06 5.3340833784309357e-05 0.0000000000000000e+00  -1.0850878346726152e-06 4.8500033290403677e-05 0.0000000000000000e+00  6.6775572344741960e-06 6.0944722388729596e-05 0.0000000000000000e+00  -9.0851611657489918e-06 6.5991181197144432e-05 0.0000000000000000e+00  1.0844888815841398e-05 6.4970441294759913e-05 0.0000000000000000e+00  -7.9876478250822712e-06 6.6990681853576362e-05 0.0000000000000000e+00  -1.3414526492752932e-06 6.0953251446146657e-05 0.0000000000000000e+00  8.2078216322290785e-06 7.8158295373164939e-05 0.0000000000000000e+00  -2.6744256405675337e-06 7.7326027098679405e-05 0.0000000000000000e+00  6.7906634953458200e-08 7.8042989918538779e-05 0.0000000000000000e+00  7.2793141953913172e-06 6.8060312691010030e-05 0.0000000000000000e+00  -3.7738273413447078e-06 6.7067546536845484e-05 0.0000000000000000e+00  -1.5238263542966824e-06 7.4509932016957265e-05 0.0000000000000000e+00  4.0184877014337806e-07 7.8326594275324854e-05 0.0000000000000000e+00  -1.1352004226131559e-06 7.7482589576528048e-05 0.0000000000000000e+00  6.8780023039239736e-06 6.7579310465796515e-05 0.0000000000000000e+00  -3.2100315108757092e-06 6.5814592938385610e-05 0.0000000000000000e+00  -2.5784302969722825e-07 6.9637698025520913e-05 0.0000000000000000e+00  7.9233020130981097e-07 6.9766635334393584e-05 0.0000000000000000e+00  3.6502563053204740e-07 6.8145167764973008e-05 0.0000000000000000e+00  3.4356451473019301e-07 6.6433071630218554e-05 0.0000000000000000e+00  5.7983839084050907e-07 6.4009191334013876e-05 0.0000000000000000e+00  1.2981852223922236e-06 6.0451427170991858e-05 0.0000000000000000e+00  2.2075771580966018e-07 5.7815531589855225e-05 0.0000000000000000e+00  -9.8643120594846578e-07 5.7780557363768134e-05 0.0000000000000000e+00  4.6836661573952092e-07 5.7407341558110836e-05 0.0000000000000000e+00  3.1786306777204387e-07 5.4781358810815210e-05 0.0000000000000000e+00  1.8578490793867047e-06 5.0648901000502052e-05 0.0000000000000000e+00  -4.7747292519575887e-07 4.8611589351651227e-05 0.0000000000000000e+00  -1.4096210639568011e-06 4.8831178651462141e-05 0.0000000000000000e+00  3.8363724776055737e-06 4.1677766059351968e-05 0.0000000000000000e+00  7.7398233130798911e-07 3.6346195895113093e-05 0.0000000000000000e+00  -2.4366853612567832e-06 3.7598221634672944e-05 0.0000000000000000e+00  4.7756609438997590e-07 4.1069417679214548e-05 0.0000000000000000e+00  -2.4608217088868434e-08 4.0038144422586702e-05 0.0000000000000000e+00  -4.7073929055141355e-06 3.9858100108408302e-05 0.0000000000000000e+00  1.9061886004359719e-05 7.3089973816012989e-06 0.0000000000000000e+00  1.7963963645808217e-05 -2.0367535118715191e-05 0.0000000000000000e+00  -8.3393576987776032e-06 1.7045090073356417e-05 0.0000000000000000e+00  4.7611622268498589e-06 -9.7729807405015878e-06 0.0000000000000000e+00  -1.8766368882662650e-06 3.3466044450482032e-06 0.0000000000000000e+00  2.4542253995243231e-07 -2.1624720364812259e-06 0.0000000000000000e+00  1.9587017604390050e-07 -6.7707879475075327e-08 0.0000000000000000e+00  -2.1026983841872429e-07 -4.9339855745969999e-07 0.0000000000000000e+00  2.0830268745405094e-07 -8.7443772108337407e-07 0.0000000000000000e+00  3.1353931404601278e-07 -1.3770101816932041e-07 0.0000000000000000e+00  1.1075789192581619e-07 -9.0885875094159175e-07 0.0000000000000000e+00  7.3832109315992610e-08 -2.6510009194220655e-07 0.0000000000000000e+00  6.7043447274874414e-08 -1.0507405803561534e-06 0.0000000000000000e+00  -3.9706666824086321e-08 -2.8519275601765309e-07 0.0000000000000000e+00  1.4308068438942692e-07 -1.0473657181808994e-06 0.0000000000000000e+00  1.9194519218705506e-09 -5.7442862669360493e-07 0.0000000000000000e+00  1.6869317588191523e-07 -5.9450480195220335e-07 0.0000000000000000e+00  3.7027777739710830e-07 -5.7381094258873078e-07 0.0000000000000000e+00  -7.2096862522920650e-08 -9.0927636482618370e-07 0.0000000000000000e+00  -4.7042415307234522e-07 -2.6343062851518108e-07 0.0000000000000000e+00  -6.9598511077142697e-07 -7.9484188629351767e-07 0.0000000000000000e+00  5.1448496169396126e-07 -7.7810695486891926e-07 0.0000000000000000e+00  -3.5096858537819516e-07 -4.9374548966741006e-07 0.0000000000000000e+00  2.6165727370650132e-07 -4.3905303968876660e-07 0.0000000000000000e+00  -1.6620078477629249e-07 -8.8912926515038345e-07 0.0000000000000000e+00  -2.9093377270766812e-07 -1.2290562088357596e-07 0.0000000000000000e+00  -2.6428567642140329e-06 -3.2413767052350909e-07 0.0000000000000000e+00  -3.9423522486476574e-07 -4.1017212381816981e-06 0.0000000000000000e+00  -5.3217167244806604e-07 -4.4420301846447905e-06 0.0000000000000000e+00  8.5188603495693283e-07 -5.2405611482628999e-06 0.0000000000000000e+00  -6.8501450497958206e-07 -3.9426564104838384e-06 0.0000000000000000e+00  1.0203943418313851e-07 -3.4214504406710013e-06 0.0000000000000000e+00  6.5556438937906759e-07 -3.5821485088647776e-06 0.0000000000000000e+00  -4.1613800806361963e-07 -4.5371115858014627e-06 0.0000000000000000e+00  3.2005177687916980e-07 -3.7940833426251609e-06 0.0000000000000000e+00  -7.3171200389073902e-08 -3.8604177047157515e-06 0.0000000000000000e+00  -1.7366007049640882e-07 -3.9583680019575804e-06 0.0000000000000000e+00  -2.8936728845847126e-07 -4.1588102113096403e-06 0.0000000000000000e+00  -1.6993106184499144e-07 -4.5239787926987839e-06 0.0000000000000000e+00  -2.3973174520658638e-07 -4.8609928337782254e-06 0.0000000000000000e+00  -1.7853119954425277e-07 -5.2465880030970019e-06 0.0000000000000000e+00  -1.8611773332642639e-07 -5.9834498403578135e-06 0.0000000000000000e+00  -3.1737924663354361e-07 -6.2045914251013013e-06 0.0000000000000000e+00  -7.3880314525089076e-08 -6.6372892422319266e-06 0.0000000000000000e+00  -6.7629402928736387e-08 -6.8422840029719067e-06 0.0000000000000000e+00  -3.2074473244594953e-08 -6.9571989758968582e-06 0.0000000000000000e+00  -1.7305866103763455e-07 -7.4809038734269230e-06 0.0000000000000000e+00  2.3229618494760621e-07 -7.7631291713011646e-06 0.0000000000000000e+00  -8.2653481865305132e-08 -8.5721250315453049e-06 0.0000000000000000e+00  3.6377807899331322e-07 -9.4785299568892853e-06 0.0000000000000000e+00  2.9045192541171691e-08 -9.3952618803968496e-06 0.0000000000000000e+00  1.3923007494733790e-06 -9.7097275874388941e-06 0.0000000000000000e+00  -8.6595315737806983e-08 -9.7302247275217258e-06 0.0000000000000000e+00  2.2401434113924231e-06 -1.0706505376099686e-05 0.0000000000000000e+00  -2.4653831194921868e-07 -9.6705397467362961e-06 0.0000000000000000e+00  6.4285993663722373e-06 -1.0583778266091802e-05 0.0000000000000000e+00  1.2009944345169971e-06 -1.0296843943551579e-05 0.0000000000000000e+00  -2.3263455726236469e-06 -1.2939255283433547e-05 0.0000000000000000e+00  5.0067202562687928e-06 -1.0368989239990440e-05 0.0000000000000000e+00  9.9921599881353270e-07 -1.3503951266156630e-05 0.0000000000000000e+00  4.8163285524662351e-06 -1.2670756670176996e-05 0.0000000000000000e+00  3.4644094324089803e-06 -1.3491007103957340e-05 0.0000000000000000e+00  6.4607595090234590e-06 -1.2829797479594992e-05 0.0000000000000000e+00  4.8385835715578986e-06 -1.2379500896257304e-05 0.0000000000000000e+00  9.2178734439135011e-06 -1.2064635129820293e-05 0.0000000000000000e+00  3.6539704352963701e-06 -1.3711995826460167e-05 0.0000000000000000e+00  7.1956780821756589e-06 -1.1674134837960239e-05 0.0000000000000000e+00  7.1730196167659734e-06 -1.2336101403580902e-05 0.0000000000000000e+00  1.0133029478819214e-05 -1.0947979801071081e-05 0.0000000000000000e+00  8.1005831749267846e-06 -1.1271724410436553e-05 0.0000000000000000e+00  1.0485623983650271e-05 -1.0466609010334421e-05 0.0000000000000000e+00  1.0818811528277587e-05 -1.0368719507727139e-05 0.0000000000000000e+00  1.1655516447120445e-05 -9.7633903020444863e-06 0.0000000000000000e+00  1.2035383455667496e-05 -9.2255479735708624e-06 0.0000000000000000e+00  1.3030122613800949e-05 -8.7560198998181034e-06 0.0000000000000000e+00  1.3923034111833447e-05 -8.0371548185054645e-06 0.0000000000000000e+00  1.4238241401337156e-05 -7.5321839347819190e-06 0.0000000000000000e+00  1.4960599523014047e-05 -6.9085926139749455e-06 0.0000000000000000e+00  1.5948978785381142e-05 -6.2970708899801543e-06 0.0000000000000000e+00  1.6482696065971320e-05 -5.5619712649903605e-06 0.0000000000000000e+00  1.6945062968962436e-05 -4.8892376086230171e-06 0.0000000000000000e+00  1.7499065725860548e-05 -4.0977600346040324e-06 0.0000000000000000e+00  1.7977293662795935e-05 -3.5079123652451862e-06 0.0000000000000000e+00  1.8658352471773749e-05 -2.9378517225766942e-06 0.0000000000000000e+00  1.8459592256466089e-05 -2.2367598474035020e-06 0.0000000000000000e+00  1.9825003813167021e-05 -1.8667449121625743e-06 0.0000000000000000e+00  2.1076324506361906e-05 -8.7563313586045001e-07 0.0000000000000000e+00  1.9086749991106803e-05 -6.9128100800252128e-07 0.0000000000000000e+00  2.0322600832464574e-05 1.7694338893770116e-07 0.0000000000000000e+00  2.0832286937957240e-05 5.9874467958138653e-07 0.0000000000000000e+00  2.0985542998959673e-05 9.8951492124290410e-07 0.0000000000000000e+00  2.1297052804647603e-05 1.5764820019453005e-06 0.0000000000000000e+00  2.1414340908244863e-05 1.9518413545934465e-06 0.0000000000000000e+00  2.1505990745514398e-05 2.4214299426288015e-06 0.0000000000000000e+00  2.1506214056746199e-05 2.7384622100113554e-06 0.0000000000000000e+00  2.1281043937123794e-05 3.0763476350977537e-06 0.0000000000000000e+00  2.1398899047596906e-05 3.1486957700105732e-06 0.0000000000000000e+00  2.1254227591355708e-05 3.4885871603479348e-06 0.0000000000000000e+00  2.1470320295517511e-05 3.5739354364929202e-06 0.0000000000000000e+00  2.1224172532673809e-05 3.9132239352104709e-06 0.0000000000000000e+00  2.1152808497683119e-05 4.0323173237395544e-06 0.0000000000000000e+00  2.1023173530770982e-05 4.2910744404339544e-06 0.0000000000000000e+00  2.0970012732537146e-05 4.5378229886679642e-06 0.0000000000000000e+00  2.0407835491027568e-05 4.7614398215519607e-06 0.0000000000000000e+00  2.0146713122603781e-05 4.8188318616898937e-06 0.0000000000000000e+00  1.9692612088657408e-05 4.9209639119503752e-06 0.0000000000000000e+00  1.9372050693754302e-05 4.7923954534325810e-06 0.0000000000000000e+00  1.9393931894715690e-05 4.7975008803556226e-06 0.0000000000000000e+00  1.9152451592555887e-05 4.8694903104666520e-06 0.0000000000000000e+00  1.8835225047795044e-05 4.9142193553132196e-06 0.0000000000000000e+00  1.8573921125072461e-05 5.0773386149344444e-06 0.0000000000000000e+00  1.8021203970184492e-05 5.0618840928478699e-06 0.0000000000000000e+00  1.7570002706828417e-05 5.0625332427405290e-06 0.0000000000000000e+00  1.7156245284635833e-05 4.9151148402682124e-06 0.0000000000000000e+00  1.6410692960014905e-05 4.8824022771349956e-06 0.0000000000000000e+00  1.6195930371798848e-05 4.8096777802724000e-06 0.0000000000000000e+00  1.5518990802486781e-05 4.8688523921104338e-06 0.0000000000000000e+00  1.5389531551181507e-05 5.0612315934887842e-06 0.0000000000000000e+00  1.5903489367902880e-05 5.2695560117029739e-06 0.0000000000000000e+00  1.4022936124743693e-05 6.4181195214308818e-06 0.0000000000000000e+00  1.3640720905844857e-05 5.5196068465225864e-06 0.0000000000000000e+00  1.3907921005019145e-05 5.0754018085260536e-06 0.0000000000000000e+00  1.2743414046790975e-05 4.9377544515524963e-06 0.0000000000000000e+00  1.2925485087007295e-05 4.6782757038754300e-06 0.0000000000000000e+00  1.2357244148118222e-05 4.6012616622877934e-06 0.0000000000000000e+00  1.1966018865979512e-05 4.5564295997511298e-06 0.0000000000000000e+00  1.1994148576043186e-05 4.3839634336109366e-06 0.0000000000000000e+00  1.1552866138059009e-05 4.2877000598079067e-06 0.0000000000000000e+00  1.0846157899178295e-05 4.2022250601057546e-06 0.0000000000000000e+00  1.0434521742766577e-05 4.1060605570311144e-06 0.0000000000000000e+00  9.9314229289088169e-06 3.9923525320449413e-06 0.0000000000000000e+00  9.7740704746805770e-06 3.9540712839436524e-06 0.0000000000000000e+00  9.3574917290661674e-06 3.9448504846377121e-06 0.0000000000000000e+00  8.8752950848432424e-06 3.9760959073826586e-06 0.0000000000000000e+00  8.2897090669405810e-06 3.7541670652407186e-06 0.0000000000000000e+00  7.8000591790350667e-06 3.4515470809113355e-06 0.0000000000000000e+00  7.4179114215447400e-06 3.3577594022349315e-06 0.0000000000000000e+00  7.3373009536244966e-06 3.3523199245146635e-06 0.0000000000000000e+00  7.0280677753836045e-06 3.3019238368047408e-06 0.0000000000000000e+00  6.7181814107428339e-06 3.2134335523976953e-06 0.0000000000000000e+