<?xml version="1.0"?>
<VTKFile type="UnstructuredGrid"  version="0.1"  >
<UnstructuredGrid>
<Piece  NumberOfPoints="1691" NumberOfCells="3204">
<Points>
<DataArray  type="Float64"  NumberOfComponents="3"  format="ascii">0 0 0  30 0 0  30 -10 0  0 -10 0  0.1391574078963744 0 0  0.2856388821882616 0 0  0.4398299073010886 0 0  0.6021362569539473 0 0  0.7729850389704483 0 0  0.9528258543586996 0 0  1.142131984380316 0 0  1.34140159760994 0 0  1.551159074717981 0 0  1.771956417032531 0 0  2.004374674080994 0 0  2.249025475789527 0 0  2.506552636773105 0 0  2.777633857742732 0 0  3.062982518028728 0 0  3.363349525995907 0 0  3.679525322337712 0 0  4.01234195575742 0 0  4.362675247811097 0 0  4.731447135329707 0 0  5.119628065610077 0 0  5.528239565804708 0 0  5.958356943167011 0 0  6.411112081475485 0 0  6.887696441559404 0 0  7.389364184530748 0 0  7.917435485335147 0 0  8.473300005202017 0 0  9.058420557070402 0 0  9.674336929103793 0 0  10.32266995225095 0 0  11.00512576896296 0 0  11.72350030646412 0 0  12.47968402994705 0 0  13.27566689579597 0 0  14.1135435963616 0 0  14.9955190732806 0 0  15.92391430904694 0 0  16.90117245730496 0 0  17.92986524844506 0 0  19.01269976086341 0 0  20.15252556282024 0 0  21.35234220269763 0 0  22.61530708683689 0 0  23.94474379751883 0 0  25.34415086349739 0 0  26.81721093579712 0 0  28.3678004819169 0 0  30 -1.111111111111111 0  30 -2.222222222222222 0  30 -3.333333333333333 0  30 -4.444444444444445 0  30 -5.555555555555555 0  30 -6.666666666666666 0  30 -7.777777777777777 0  30 -8.888888888888889 0  28.36780047917311 -10 0  26.8172109305839 -10 0  25.34415085606858 -10 0  23.94474378810899 -10 0  22.61530707566275 -10 0  21.3523421899591 -10 0  20.15252554870171 -10 0  19.01269974553473 -10 0  17.92986523206254 -10 0  16.90117244001232 -10 0  15.92391429097614 -10 0  14.99551905455266 -10 0  14.11354357708742 -10 0  13.27566687607703 -10 0  12.47968400987599 -10 0  11.72350028612546 -10 0  11.00512574843363 -10 0  10.32266993160086 -10 0  9.674336908396342 -10 0  9.058420536362949 -10 0  8.473299984546333 -10 0  7.917435464777824 -10 0  7.389364164113587 -10 0  6.887696420787165 -10 0  6.411112061446698 -10 0  5.95835692337857 -10 0  5.528239546282652 -10 0  5.119628046377237 -10 0  4.731447115907979 -10 0  4.362675229213632 -10 0  4.012341937260036 -10 0  3.679525304434552 -10 0  3.363349508456405 -10 0  3.062982500861274 -10 0  2.777633840953978 -10 0  2.506552620368097 -10 0  2.249025459771861 -10 0  2.004374658452946 -10 0  1.771956401795187 -10 0  1.551159059871345 -10 0  1.341401583153029 -10 0  1.142131970307521 -10 0  0.9528258406748833 -10 0  0.7729850256685147 -10 0  0.6021362439621285 -10 0  0.4398298947504031 -10 0  0.2856388700059078 -10 0  0.1391573960769001 -10 0  0 -9.855072463768115 0  0 -9.710144927536232 0  0 -9.565217391304348 0  0 -9.420289855072463 0  0 -9.27536231884058 0  0 -9.130434782608695 0  0 -8.985507246376812 0  0 -8.840579710144928 0  0 -8.695652173913043 0  0 -8.55072463768116 0  0 -8.405797101449275 0  0 -8.260869565217391 0  0 -8.115942028985508 0  0 -7.971014492753623 0  0 -7.826086956521739 0  0 -7.681159420289855 0  0 -7.536231884057971 0  0 -7.391304347826087 0  0 -7.246376811594203 0  0 -7.101449275362318 0  0 -6.956521739130435 0  0 -6.811594202898551 0  0 -6.666666666666667 0  0 -6.521739130434783 0  0 -6.376811594202898 0  0 -6.231884057971015 0  0 -6.086956521739131 0  0 -5.942028985507246 0  0 -5.797101449275362 0  0 -5.652173913043478 0  0 -5.507246376811594 0  0 -5.36231884057971 0  0 -5.217391304347826 0  0 -5.072463768115941 0  0 -4.927536231884058 0  0 -4.782608695652174 0  0 -4.637681159420289 0  0 -4.492753623188406 0  0 -4.347826086956522 0  0 -4.202898550724638 0  0 -4.057971014492754 0  0 -3.913043478260869 0  0 -3.768115942028985 0  0 -3.623188405797101 0  0 -3.478260869565217 0  0 -3.333333333333334 0  0 -3.188405797101449 0  0 -3.043478260869565 0  0 -2.898550724637681 0  0 -2.753623188405797 0  0 -2.608695652173912 0  0 -2.463768115942029 0  0 -2.318840579710145 0  0 -2.173913043478261 0  0 -2.028985507246377 0  0 -1.884057971014492 0  0 -1.739130434782609 0  0 -1.594202898550725 0  0 -1.44927536231884 0  0 -1.304347826086957 0  0 -1.159420289855072 0  0 -1.014492753623188 0  0 -0.8695652173913047 0  0 -0.72463768115942 0  0 -0.579710144927537 0  0 -0.4347826086956523 0  0 -0.2898550724637676 0  0 -0.1449275362318829 0  0.1309460514202492 -4.990980414828784 0  0.1171526873513358 -5.869565217391296 0  0.1344252986967795 -6.716855800502001 0  0.1221309018586645 -4.161899358592938 0  0.1166997684017801 -3.25954604704229 0  4.961569127360256 -0.3118894787216622 0  4.923897360678746 -9.687537149351071 0  0.1228405945134021 -2.536958536012416 0  0.1335945686177435 -7.466846676638523 0  3.206461751753455 -0.2806173508164562 0  3.213166004658842 -9.746377676274168 0  0.1155250883680452 -8.186784073011673 0  0.1359204609538445 -1.804202625344072 0  6.662432263484016 -9.600124945047963 0  6.631056521209421 -0.3942868763482545 0  2.126700074935258 -0.2065769621215452 0  2.120437876630353 -9.808537401472012 0  8.761385473272522 -9.4914222957189 0  8.786076048231736 -0.4923064159810888 0  0.1195911345135556 -8.749677128895598 0  0.1117474302775605 -1.230589418769438 0  11.3907841305612 -9.402816705944797 0  11.36435727088349 -0.618365439918426 0  1.211504568109637 -0.1471532661956818 0  1.239596144827807 -9.832618358594059 0  13.75158625181508 -9.315497816134139 0  13.7500399625954 -0.6902569910160397 0  0.131402377539402 -3.696772604078816 0  0.1204853385030979 -6.307560917781178 0  0.1346483804691658 -4.550944754283819 0  0.1255109280847009 -5.434782608695652 0  16.39894095075685 -9.180198571581517 0  16.44068234362399 -0.8166544577416346 0  0.1255109280847009 -0.7971014492753632 0  0.1162877148651766 -9.206770243020259 0  19.56645066956165 -9.043742294716539 0  29.11731382843969 -5.098539983867493 0  19.50527862123305 -0.9323941524176265 0  23.28904960561395 -8.8608997858633 0  0.6875606479622149 -0.1442604037134076 0  0.6875606348153145 -9.855739596611892 0  23.37074358394081 -1.15131614182933 0  10.00852704311311 -9.475417469395781 0  10.01049631493635 -0.5545437343697674 0  7.639131123468924 -9.543000896765111 0  7.693537846067955 -0.4574302764599576 0  5.733194300659633 -9.66079268774309 0  5.731454990332523 -0.3687808037058806 0  3.803630689980224 -9.686555789708486 0  3.834043646352164 -0.2754981925697493 0  2.618022704128803 -9.787800068206256 0  2.634320277618269 -0.2392104743186785 0  1.65952286941916 -9.813294854785646 0  1.665360553377539 -0.1820878093930922 0  0.1365068028365961 -1.543352471920677 0  0.1128108295274224 -8.471115901500411 0  0.1249192863256123 -0.5070564851587012 0  0.1172626025927563 -9.49200175151447 0  0.1255109280847009 -2.101449275362318 0  0.1255109280847009 -7.898550724637682 0  0.1247535864599936 -2.824177050114505 0  0.1155424837078822 -7.17494363557847 0  26.05192393553612 -8.777856070543081 0  26.00031291598836 -1.159065252957426 0  0.3627343947446455 -0.1301950113519217 0  0.3690141220077834 -9.868919517536135 0  28.90574865438674 -7.135369011630129 0  29.02069681040884 -2.861993939893059 0  0.1397555488250113 -0.2163338956475025 0  0.1255109280847009 -9.782608695652172 0  24.67098979274125 -8.799958058548517 0  23.93395881668722 -7.700959994796646 0  22.61396570077244 -7.764517377391733 0  23.2032949615693 -6.630776985250927 0  21.94857473380583 -6.690613342424633 0  24.50398505507967 -6.535933305198952 0  22.51489076809043 -5.580432145971667 0  21.29537841406989 -5.639199768252479 0  21.84985259542567 -4.547213342284197 0  20.65342988351128 -4.619546679988924 0  20.11277906893955 -5.663225279336593 0  19.49454290958806 -4.673886314669294 0  18.97860072994828 -5.624185949902217 0  18.40383886642446 -4.729683279047542 0  17.90575400337286 -5.630456854950327 0  17.35903168001753 -4.836859475002379 0  16.91444903556046 -5.680257663405808 0  16.36114434035519 -4.898890029095359 0  15.89440836794127 -5.835214594829282 0  15.41608945577568 -4.979845093198404 0  14.9809818125648 -5.732909169427192 0  14.51777858619734 -4.988431190461874 0  14.14039496103406 -5.776391085527889 0  13.67321261031888 -5.031745046943032 0  13.26988611760758 -5.891550007816156 0  12.85732927991246 -5.095735823822261 0  12.46423889659403 -5.760519953635332 0  12.07741841933393 -5.116608846746942 0  11.73131647445202 -5.75987862647932 0  11.35222911621012 -5.158061768105265 0  11.01225658271747 -5.784828178519854 0  10.65393216495117 -5.205808407572067 0  10.33042159780337 -5.788944717060055 0  9.98551374198097 -5.24118342090078 0  9.687616112021921 -5.812725728827915 0  9.357518717034999 -5.284717467130579 0  9.08157001076583 -5.820057568121996 0  8.766199932316585 -5.320212662582848 0  8.494748056481422 -5.830095453943056 0  8.194406727465122 -5.347802431655208 0  7.942610344706003 -5.833678024304247 0  7.660825631728443 -5.380025954369014 0  7.416702921751611 -5.83684433397813 0  7.147290851157173 -5.413787279190068 0  6.91632006965034 -5.851605397483334 0  6.658527053286988 -5.437627383845131 0  6.441897327469297 -5.862220684948111 0  6.194860224019926 -5.464520225953867 0  5.988748643021736 -5.866336295550595 0  5.755042825355586 -5.482399938780632 0  5.555770501455733 -5.867908174086599 0  5.334991086231989 -5.504761241472904 0  5.145076642106908 -5.873191062890511 0  4.935013388047023 -5.544035964184449 0  4.754345788811499 -5.880090917794126 0  4.554437025256316 -5.569020251233177 0  4.382470744799432 -5.88665007327689 0  4.192208958329529 -5.585677590398814 0  4.029485566904095 -5.896175760774888 0  4.354949258143058 -5.270074521138358 0  4.004482386201769 -5.289207815434526 0  4.158655721068861 -4.98145486433833 0  3.821444856080801 -5.001169872115685 0  3.97033944278737 -4.700814034221719 0  3.642688047138773 -4.720140385706738 0  3.788830742180677 -4.426816067812119 0  3.467446796449556 -4.450112744784491 0  3.325275354457695 -4.730293981808933 0  3.158439978631689 -4.466074367009679 0  3.294707394527546 -4
[...]
<PointData  Vectors="flow"> 
<DataArray  type="Float64"  Name="flow"  NumberOfComponents="3" format="ascii">-9.0952433347712619e-05 8.8288955570528013e-03 0.0000000000000000e+00  7.6858167748575245e-06 4.7432854535538280e-05 0.0000000000000000e+00  -6.2757670193925282e-07 -2.0983882951825980e-06 0.0000000000000000e+00  -7.1474860118949824e-07 -2.9447759068817611e-06 0.0000000000000000e+00  -1.7999714691854754e-05 8.4863246326214638e-03 0.0000000000000000e+00  5.9936379270187437e-06 7.7944436944448808e-03 0.0000000000000000e+00  2.3969230732273498e-05 6.7537306312814580e-03 0.0000000000000000e+00  3.2526776326812548e-05 5.5540833013771277e-03 0.0000000000000000e+00  2.3452502600487211e-05 4.5351531145493146e-03 0.0000000000000000e+00  -6.9041817462665096e-05 3.9934752050555600e-03 0.0000000000000000e+00  6.2753620174270442e-06 3.6129745275920869e-03 0.0000000000000000e+00  2.8247854813873652e-05 3.5886963786195296e-03 0.0000000000000000e+00  -2.5681823335055980e-05 3.6122592258476362e-03 0.0000000000000000e+00  2.1888879869259379e-05 3.4568269091941467e-03 0.0000000000000000e+00  -2.5014944763173769e-06 3.2565791986921460e-03 0.0000000000000000e+00  -8.3540716983495906e-06 3.0149844452258194e-03 0.0000000000000000e+00  2.2121279013050589e-05 2.6552927462072341e-03 0.0000000000000000e+00  3.2947352798982392e-05 2.3197073361370273e-03 0.0000000000000000e+00  -2.3650963206519768e-05 2.1083262074444741e-03 0.0000000000000000e+00  -4.9845236849256802e-06 1.8189921016344372e-03 0.0000000000000000e+00  6.2395292339840412e-06 1.5842801313909426e-03 0.0000000000000000e+00  -2.1107323725716796e-05 1.3812213661701621e-03 0.0000000000000000e+00  8.5301764873219301e-06 1.1945951330127786e-03 0.0000000000000000e+00  1.1992006323809116e-05 1.0257298092758642e-03 0.0000000000000000e+00  -5.2393813699383057e-06 8.8661362684376533e-04 0.0000000000000000e+00  2.2786523628099258e-06 7.8035960693104383e-04 0.0000000000000000e+00  2.1164328033712565e-06 6.7878274831646593e-04 0.0000000000000000e+00  6.8043035910053899e-07 5.7739301295071216e-04 0.0000000000000000e+00  1.2261454061946982e-05 4.8967371817694655e-04 0.0000000000000000e+00  -7.3789284047661683e-06 4.3543628701502810e-04 0.0000000000000000e+00  1.6134909513385834e-07 3.6777508440804108e-04 0.0000000000000000e+00  1.5186150110426476e-06 3.1287860855346114e-04 0.0000000000000000e+00  1.6145297375282285e-06 2.6664714688455840e-04 0.0000000000000000e+00  7.6093789001021239e-08 2.2894967150863287e-04 0.0000000000000000e+00  6.6935416429992586e-07 1.9544791394838842e-04 0.0000000000000000e+00  1.0899662518431218e-06 1.6544387209166059e-04 0.0000000000000000e+00  7.7785730645164421e-08 1.3779905970597549e-04 0.0000000000000000e+00  4.3098563371996206e-06 1.1547421679460486e-04 0.0000000000000000e+00  -3.3846597029604707e-06 1.0366889241383582e-04 0.0000000000000000e+00  4.7824578600841834e-07 8.9857650879414416e-05 0.0000000000000000e+00  1.5519900773766989e-07 8.0168956413109648e-05 0.0000000000000000e+00  8.1549999092926717e-07 7.1801706375712655e-05 0.0000000000000000e+00  1.1301771134349826e-06 6.5553209938819828e-05 0.0000000000000000e+00  1.8702063734673950e-07 6.0408896544357649e-05 0.0000000000000000e+00  -9.5243057129439865e-08 5.8283735225388055e-05 0.0000000000000000e+00  -2.0954560568883118e-06 5.4408777057036926e-05 0.0000000000000000e+00  1.4693736570588651e-07 4.6101686024740898e-05 0.0000000000000000e+00  1.0968832846102749e-06 4.9642627770996580e-05 0.0000000000000000e+00  -3.3195085538385207e-07 4.8154511357706220e-05 0.0000000000000000e+00  1.8669091186027512e-07 4.5203669151254901e-05 0.0000000000000000e+00  2.1124169449276776e-06 4.2796773880500482e-05 0.0000000000000000e+00  -5.7021118590598301e-06 4.4032666563208032e-05 0.0000000000000000e+00  2.9874518055548457e-06 1.0393811698058556e-05 0.0000000000000000e+00  2.3132795207304441e-06 -6.0680964720384785e-06 0.0000000000000000e+00  -1.1247648840434141e-06 6.1324103717045501e-07 0.0000000000000000e+00  9.2401962427399694e-07 -3.1984982924128135e-06 0.0000000000000000e+00  -6.8456554814011526e-08 -2.0024696343919976e-06 0.0000000000000000e+00  5.5055122485683118e-08 -2.6927765042102028e-06 0.0000000000000000e+00  4.7122948696201439e-07 -2.1195505268092704e-06 0.0000000000000000e+00  1.0039331098824520e-07 -3.7856518918971194e-06 0.0000000000000000e+00  2.9870199909792134e-07 -2.5030130009955794e-06 0.0000000000000000e+00  2.0629102601543966e-07 -2.6180393163857202e-06 0.0000000000000000e+00  3.4342606259489581e-07 -2.8004655478046175e-06 0.0000000000000000e+00  1.0628979575384651e-06 -3.1723543342495931e-06 0.0000000000000000e+00  2.4685523233209598e-06 -3.1504264980556392e-06 0.0000000000000000e+00  2.4741939153020168e-06 -3.1505475612400388e-06 0.0000000000000000e+00  3.3900091531606011e-06 -3.1107104765971798e-06 0.0000000000000000e+00  5.6509863999489523e-06 -2.8787314440940598e-06 0.0000000000000000e+00  6.9009554479410497e-06 -2.6327867747353878e-06 0.0000000000000000e+00  8.0961016403771367e-06 -2.2035719594147238e-06 0.0000000000000000e+00  9.7110052810083380e-06 -1.6625921288390327e-06 0.0000000000000000e+00  1.1106068767930984e-05 -1.0386073869549977e-06 0.0000000000000000e+00  1.2274587515801608e-05 -3.2850395062789307e-07 0.0000000000000000e+00  1.2839013502515721e-05 4.8792648526290448e-07 0.0000000000000000e+00  1.2608510417320077e-05 1.6584939180303475e-06 0.0000000000000000e+00  1.2612817573913020e-05 2.4767777470776738e-06 0.0000000000000000e+00  9.1705246367629562e-06 4.2184614687734664e-06 0.0000000000000000e+00  5.9887959907443601e-06 4.9311735613312886e-06 0.0000000000000000e+00  3.5669654288160546e-07 5.0515011988904181e-06 0.0000000000000000e+00  -5.0382670137887226e-06 5.6192819337386705e-06 0.0000000000000000e+00  -1.2194762129211559e-05 6.1720226362027482e-06 0.0000000000000000e+00  -2.0608451049728197e-05 6.5254588957561447e-06 0.0000000000000000e+00  -2.9477714546259187e-05 6.4921105246118048e-06 0.0000000000000000e+00  -3.8831906860508977e-05 5.7950180400682020e-06 0.0000000000000000e+00  -5.0153007904179155e-05 5.6331993905508495e-06 0.0000000000000000e+00  -5.9654307473034475e-05 5.2279278782821798e-06 0.0000000000000000e+00  -6.8647733094747825e-05 3.7781854692265709e-06 0.0000000000000000e+00  -7.5867038926719416e-05 2.7738820002538034e-06 0.0000000000000000e+00  -8.2077734747570478e-05 2.1562050797296813e-06 0.0000000000000000e+00  -8.7818137287443978e-05 1.3227181589264665e-06 0.0000000000000000e+00  -9.1702105126637630e-05 8.2253400722033569e-07 0.0000000000000000e+00  -9.4313412796518311e-05 2.4410213619629119e-07 0.0000000000000000e+00  -9.4863043070979905e-05 -6.9680310326270999e-07 0.0000000000000000e+00  -9.3945281196469548e-05 -8.6949514200978985e-07 0.0000000000000000e+00  -9.1117945306088061e-05 -1.3215028666107772e-06 0.0000000000000000e+00  -8.7743941727782171e-05 -1.8807040427614546e-06 0.0000000000000000e+00  -8.3207288082499457e-05 -2.0583747958936534e-06 0.0000000000000000e+00  -7.7526019871416676e-05 -2.1766126000508796e-06 0.0000000000000000e+00  -7.1137561613024213e-05 -2.5662318516276507e-06 0.0000000000000000e+00  -6.4583352740288450e-05 -2.7817437031115219e-06 0.0000000000000000e+00  -5.7434561992582814e-05 -2.6294438594350066e-06 0.0000000000000000e+00  -4.9787229050936593e-05 -2.8682794470524189e-06 0.0000000000000000e+00  -4.2505677878935006e-05 -2.9550041769311458e-06 0.0000000000000000e+00  -3.4802445783910067e-05 -2.9085102971007937e-06 0.0000000000000000e+00  -2.7989237718237546e-05 -2.8810199349782702e-06 0.0000000000000000e+00  -2.0500788602987369e-05 -2.3174297754690599e-06 0.0000000000000000e+00  -1.3108865812954642e-05 -2.2311602510999315e-06 0.0000000000000000e+00  -6.8753544451642372e-06 -2.1761454836998497e-06 0.0000000000000000e+00  -6.6687179935755739e-07 -1.2402634855432229e-05 0.0000000000000000e+00  -8.9659637404701340e-07 -2.3228683765184171e-05 0.0000000000000000e+00  -1.0046999129404774e-06 -3.1847173810054370e-05 0.0000000000000000e+00  -1.2185112219949963e-06 -3.6691546445110107e-05 0.0000000000000000e+00  -1.3796334645526163e-06 -3.8403100438392315e-05 0.0000000000000000e+00  -1.7803678440704570e-06 -3.7420906594577206e-05 0.0000000000000000e+00  -1.8514471194778531e-06 -3.4587907917985794e-05 0.0000000000000000e+00  -1.9445570088174871e-06 -2.9857201002478044e-05 0.0000000000000000e+00  -1.8630878475459907e-06 -2.5222654078603196e-05 0.0000000000000000e+00  -1.6499467097905308e-06 -1.9715901457099620e-05 0.0000000000000000e+00  -1.6461931282292743e-06 -1.4588738097436353e-05 0.0000000000000000e+00  -1.7570720330451040e-06 -9.2083409444941665e-06 0.0000000000000000e+00  -1.7237222582974991e-06 -3.5814526502427566e-06 0.0000000000000000e+00  -1.6908139510085714e-06 1.5361535448020073e-06 0.0000000000000000e+00  -1.7593743325652517e-06 6.9221858111528978e-06 0.0000000000000000e+00  -1.7152508682930912e-06 1.2500248383985321e-05 0.0000000000000000e+00  -1.8791808118362781e-06 1.7744607411071173e-05 0.0000000000000000e+00  -1.7865572197081880e-06 2.3727815214492399e-05 0.0000000000000000e+00  -1.8536317787855966e-06 2.9225264911453717e-05 0.0000000000000000e+00  -2.0202223805146395e-06 3.5715986835310523e-05 0.0000000000000000e+00  -2.3646324022317751e-06 4.2078224086599394e-05 0.0000000000000000e+00  -1.8848198257587083e-06 4.8532068216025746e-05 0.0000000000000000e+00  -2.8482708928635524e-06 5.6356668592117001e-05 0.0000000000000000e+00  -2.3160740527391146e-06 6.3273131858868214e-05 0.0000000000000000e+00  -2.5900403482443364e-06 7.1125191376733248e-05 0.0000000000000000e+00  -2.8432928757538001e-06 7.9919220175574013e-05 0.0000000000000000e+00  -3.0371580614368883e-06 8.9052470337100864e-05 0.0000000000000000e+00  -3.4396081921572272e-06 9.8737508495310935e-05 0.0000000000000000e+00  -3.6007783678422484e-06 1.1004360408341640e-04 0.0000000000000000e+00  -3.8769941888853366e-06 1.2095630908170700e-04 0.0000000000000000e+00  -4.3144289107460681e-06 1.3401303820826413e-04 0.0000000000000000e+00  -4.8034212490702452e-06 1.4932888842728956e-04 0.0000000000000000e+00  -6.9389149871457871e-06 1.6309718056276891e-04 0.0000000000000000e+00  -6.4806058511737303e-06 1.7897668794434826e-04 0.0000000000000000e+00  -7.2317617663661609e-06 2.0167365132561725e-04 0.0000000000000000e+00  -9.4683172656986826e-06 2.1999950959401474e-04 0.0000000000000000e+00  -8.5971609082951390e-06 2.4628904245136367e-04 0.0000000000000000e+00  -9.4623914774592381e-06 2.7273584996209384e-04 0.0000000000000000e+00  -9.1312250456951727e-06 3.0319939570343690e-04 0.0000000000000000e+00  -1.4247091563043066e-05 3.3822563664728859e-04 0.0000000000000000e+00  -1.3936861537958049e-05 3.7408206375681350e-04 0.0000000000000000e+00  -1.8833976132707559e-05 4.2912151951881954e-04 0.0000000000000000e+00  -2.1824217381324943e-05 4.7448238314426233e-04 0.0000000000000000e+00  -2.0476119859687739e-05 5.4589427480059396e-04 0.0000000000000000e+00  -2.3463430352242576e-05 6.1576921655898511e-04 0.0000000000000000e+00  -2.9911100226334894e-05 7.0368619729847424e-04 0.0000000000000000e+00  -3.8484258616337417e-05 8.1241029390105688e-04 0.0000000000000000e+00  -3.9768512440456967e-05 9.4854213858895056e-04 0.0000000000000000e+00  -4.9141072447915156e-05 1.0957249054159778e-03 0.0000000000000000e+00  -7.4330305573314863e-05 1.2944424191763022e-03 0.0000000000000000e+00  -1.0069378310625105e-04 1.5525313221885790e-03 0.0000000000000000e+00  -1.1701291374280409e-04 1.8848434776788114e-03 0.0000000000000000e+00  -1.4879679591877379e-04 2.2504918587338148e-03 0.0000000000000000e+00  -2.0260762801866663e-04 2.6625479050079322e-03 0.0000000000000000e+00  -2.3878313083262537e-04 2.9326156307581141e-03 0.0000000000000000e+00  -2.0948507009964235e-04 2.7590036702435095e-03 0.0000000000000000e+00  -1.1381179628825433e-04 1.7574092509424785e-03 0.0000000000000000e+00  1.6926597075912512e-05 -4.3610182032343238e-04 0.0000000000000000e+00  -2.0661464604839917e-04 -3.4205646915664912e-03 0.0000000000000000e+00  2.0658098516727653e-06 -7.1334424009876695e-03 0.0000000000000000e+00  1.2547736799416138e-05 -9.9526935300851948e-03 0.0000000000000000e+00  -5.3829438443354257e-05 -1.0988742174311426e-02 0.0000000000000000e+00  -2.5726578884550152e-05 -9.6096458186275772e-03 0.0000000000000000e+00  -2.0231063116986372e-05 -6.1927009544670659e-03 0.0000000000000000e+00  -2.5157906252764154e-05 -1.6633890810192427e-03 0.0000000000000000e+00  -1.1151274677482923e-06 2.5481355912751820e-03 0.0000000000000000e+00  5.7568568767758682e-05 5.8795210898387228e-03 0.0000000000000000e+00  -2.8411112889783519e-05 7.9570154494883697e-03 0.0000000000000000e+00  -1.5291685361448115e-05 1.9040422099224577e-04 0.0000000000000000e+00  -7.9329492923823401e-06 1.0393366771048121e-04 0.0000000000000000e+00  -6.3832512322878824e-06 5.2811010978273954e-05 0.0000000000000000e+00  -2.8267258038318383e-05 3.5058587246086093e-04 0.0000000000000000e+00  -7.5142861149793896e-05 7.5734002546171163e-04 0.0000000000000000e+00  9.5975933356823675e-05 7.9572334320014346e-04 0.0000000000000000e+00  -7.8264845146710152e-05 8.8121107369800678e-06 0.0000000000000000e+00  -2.2494880177799788e-04 1.6735068287536728e-03 0.0000000000000000e+00  -4.9407229669468698e-06 2.0327656951812727e-05 0.0000000000000000e+00  2.4451589213828165e-04 1.5901937636965860e-03 0.0000000000000000e+00  -9.3371594252304982e-05 -2.8659963691550104e-06 0.0000000000000000e+00  -3.7617166823035928e-06 -6.3933091181866391e-06 0.0000000000000000e+00  -1.1802570869452655e-03 2.1663093879380358e-03 0.0000000000000000e+00  -4.4149418650241461e-05 1.7127039054630007e-05 0.0000000000000000e+00  6.0272811068878449e-05 4.3074731774935064e-04 0.0000000000000000e+00  2.4418878564422302e-04 2.7553585946883453e-03 0.0000000000000000e+00  -7.9680207851519277e-05 -8.4309109471952657e-06 0.0000000000000000e+00  -9.3791500067242776e-06 1.6659173783509245e-05 0.0000000000000000e+00  3.4120377306739433e-05 2.0827572280311994e-04 0.0000000000000000e+00  -3.8319168727460606e-06 -2.7309171459727525e-05 0.0000000000000000e+00  -7.4578213076467476e-04 -8.5695182290743063e-03 0.0000000000000000e+00  9.5434426643347666e-06 6.9692169688207019e-06 0.0000000000000000e+00  1.7970888735555075e-05 9.8284585174209161e-05 0.0000000000000000e+00  4.6337194465164993e-05 3.4173853130902336e-03 0.0000000000000000e+00  -5.3337379579403311e-05 -1.1118888073025673e-05 0.0000000000000000e+00  1.1659824500872661e-05 3.7595726549230637e-07 0.0000000000000000e+00  9.7849110427449284e-06 5.7799730005020063e-05 0.0000000000000000e+00  -5.3685121992951607e-05 5.0423150190148690e-04 0.0000000000000000e+00  -6.4079883588100555e-06 7.5559398988452668e-05 0.0000000000000000e+00  -2.3032942850488380e-05 2.5760850787251595e-04 0.0000000000000000e+00  -1.0409401443209866e-05 1.3866806410472285e-04 0.0000000000000000e+00  8.3734651640492954e-06 -3.6256753160554138e-06 0.0000000000000000e+00  4.1271857882043049e-06 3.6832993879743976e-05 0.0000000000000000e+00  6.7205773881389450e-04 -7.9464626366072596e-03 0.0000000000000000e+00  -4.3637120585615199e-06 -3.8031029747724441e-05 0.0000000000000000e+00  4.5811074869884217e-06 -5.4002436701670457e-06 0.0000000000000000e+00  4.2789965019619301e-07 -2.7131726333419852e-06 0.0000000000000000e+00  2.0285813298440458e-06 2.6020212013382007e-05 0.0000000000000000e+00  1.9387199835418765e-06 -4.8696657926526759e-06 0.0000000000000000e+00  7.8704513562512007e-04 4.7436160346088002e-03 0.0000000000000000e+00  -3.1139006005030242e-05 -9.9096214485138236e-06 0.0000000000000000e+00  3.0233583170469595e-07 1.5880518970474217e-05 0.0000000000000000e+00  1.9646639537191399e-06 1.2047553408517668e-05 0.0000000000000000e+00  2.5611188668923708e-05 1.4011131459042617e-04 0.0000000000000000e+00  -2.5675771564914509e-05 1.7413485115019530e-05 0.0000000000000000e+00  4.9640587028960393e-05 2.8426048781680490e-04 0.0000000000000000e+00  -6.3788413550478482e-05 1.2312801368752549e-05 0.0000000000000000e+00  8.3199122603926930e-05 5.7518607374371317e-04 0.0000000000000000e+00  -9.1796550043139521e-05 1.8038983059947986e-06 0.0000000000000000e+00  1.5742601088442323e-04 1.2649892068375837e-03 0.0000000000000000e+00  -8.9062799577915849e-05 -6.1150268885427948e-06 0.0000000000000000e+00  2.6682410227813337e-04 2.2111302097570090e-03 0.0000000000000000e+00  -6.7506027902046898e-05 -1.0218852708374702e-05 0.0000000000000000e+00  8.4649441558787454e-05 3.1493729262018085e-03 0.0000000000000000e+00  -1.3330989006161142e-03 -1.5382342107572418e-03 0.0000000000000000e+00  -3.6263288525737297e-06 -1.7133984865108480e-05 0.0000000000000000e+00  1.0709266215849073e-03 5.1858049928718650e-04 0.0000000000000000e+00  -4.7937090788993665e-06 -3.4599744638882976e-05 0.0000000000000000e+00  -5.6609806994475074e-04 2.7445602443494053e-03 0.0000000000000000e+00  -4.3693685977288155e-06 4.4615585766523529e-06 0.0000000000000000e+00  -1.5087902753734163e-04 1.1840153658832656e-03 0.0000000000000000e+00  -4.5202250597201160e-06 3.2382571992669215e-05 0.0000000000000000e+00  6.5550432643201236e-07 -3.9259956931697604e-06 0.0000000000000000e+00  4.0400549746149171e-07 1.8925570040081306e-05 0.0000000000000000e+00  8.5169083824478153e-04 6.7753636003217614e-03 0.0000000000000000e+00  -1.6912963651278847e-05 -1.0758099474868156e-05 0.0000000000000000e+00  1.4853196971467806e-07 -2.0536068542615318e-06 0.0000000000000000e+00  3.6118726768585333e-07 -1.3400933963891001e-06 0.0000000000000000e+00  6.9717810036449765e-04 6.6914384602664526e-03 0.0000000000000000e+00  -5.4947936870023166e-06 -1.8588395149049812e-05 0.0000000000000000e+00  9.3683984987566276e-07 -4.5628895284948367e-06 0.0000000000000000e+00  1.5421108897097709e-06 -3.5567313179969999e-06 0.0000000000000000e+00  2.3976213985628674e-06 -3.5674697013237570e-06 0.0000000000000000e+00  1.8066028475937399e-06 -1.3869609099657137e-06 0.0000000000000000e+00  2.6572502184003268e-06 -1.2678476723877819e-06 0.0000000000000000e+00  1.5010788568297214e-06 -1.2054271342641749e-06 0.0000000000000000e+00  2.0415142957709602e-06 -3.5743365698068194e-06 0.0000000000000000e+00  2.7144350270578438e-06 -2.6228094117788312e-06 0.0000000000000000e+00  1.8307833489418535e-06 -4.7148017636074624e-07 0.0000000000000000e+00  2.8757431332357927e-06 -1.3070029179842023e-06 0.0000000000000000e+00  3.8304681988624109e-06 -1.8229987565358334e-06 0.0000000000000000e+00  3.9454066775720817e-06 -1.8891005660432851e-06 0.0000000000000000e+00  4.2833937236506709e-06 -1.3513497224855757e-06 0.0000000000000000e+00  3.8369707879613780e-06 -1.8451772871025158e-06 0.0000000000000000e+00  4.8247539187021461e-06 -6.2943335346556979e-07 0.0000000000000000e+00  4.9831369613312427e-06 -8.1432269734378912e-07 0.0000000000000000e+00  6.0581275658861638e-06 -1.7012661869761617e-07 0.0000000000000000e+00  6.6576775249923559e-06 -1.7546604672685631e-07 0.0000000000000000e+00  6.9206667788588042e-06 -2.2123681618854308e-07 0.0000000000000000e+00  7.2157987064817074e-06 -4.0278472296776115e-08 0.0000000000000000e+00  7.3448363168868448e-06 -1.5342047221329129e-07 0.0000000000000000e+00  7.5609470007190718e-06 2.0503199886445972e-07 0.0000000000000000e+00  7.4591749541944441e-06 -2.2678034761305371e-07 0.0000000000000000e+00  7.9548929391878556e-06 -2.0874453417376517e-07 0.0000000000000000e+00  7.1479079813792012e-06 -4.6906172910646449e-07 0.0000000000000000e+00  7.6432256957679960e-06 -1.2671180235496839e-06 0.0000000000000000e+00  6.5929528002840196e-06 -1.2873829927167814e-06 0.0000000000000000e+00  7.2748990544780812e-06 -2.8409237763417164e-06 0.0000000000000000e+00  5.8948981335919591e-06 -2.0284351427481966e-06 0.0000000000000000e+00  6.6888849054502262e-06 -4.4645217973677076e-06 0.0000000000000000e+00  4.5696624264771416e-06 -3.3732554785693442e-06 0.0000000000000000e+00  4.9040380471422156e-06 -6.1415833823732856e-06 0.0000000000000000e+00  1.7582048767378704e-06 -5.2038278643404330e-06 0.0000000000000000e+00  2.3633721626164504e-06 -8.7231279666036638e-06 0.0000000000000000e+00  -1.9056717661348346e-06 -7.5