<?xml version="1.0"?>
<VTKFile type="UnstructuredGrid"  version="0.1"  >
<UnstructuredGrid>
<Piece  NumberOfPoints="1691" NumberOfCells="3204">
<Points>
<DataArray  type="Float64"  NumberOfComponents="3"  format="ascii">0 0 0  30 0 0  30 -10 0  0 -10 0  0.1391574078963744 0 0  0.2856388821882616 0 0  0.4398299073010886 0 0  0.6021362569539473 0 0  0.7729850389704483 0 0  0.9528258543586996 0 0  1.142131984380316 0 0  1.34140159760994 0 0  1.551159074717981 0 0  1.771956417032531 0 0  2.004374674080994 0 0  2.249025475789527 0 0  2.506552636773105 0 0  2.777633857742732 0 0  3.062982518028728 0 0  3.363349525995907 0 0  3.679525322337712 0 0  4.01234195575742 0 0  4.362675247811097 0 0  4.731447135329707 0 0  5.119628065610077 0 0  5.528239565804708 0 0  5.958356943167011 0 0  6.411112081475485 0 0  6.887696441559404 0 0  7.389364184530748 0 0  7.917435485335147 0 0  8.473300005202017 0 0  9.058420557070402 0 0  9.674336929103793 0 0  10.32266995225095 0 0  11.00512576896296 0 0  11.72350030646412 0 0  12.47968402994705 0 0  13.27566689579597 0 0  14.1135435963616 0 0  14.9955190732806 0 0  15.92391430904694 0 0  16.90117245730496 0 0  17.92986524844506 0 0  19.01269976086341 0 0  20.15252556282024 0 0  21.35234220269763 0 0  22.61530708683689 0 0  23.94474379751883 0 0  25.34415086349739 0 0  26.81721093579712 0 0  28.3678004819169 0 0  30 -1.111111111111111 0  30 -2.222222222222222 0  30 -3.333333333333333 0  30 -4.444444444444445 0  30 -5.555555555555555 0  30 -6.666666666666666 0  30 -7.777777777777777 0  30 -8.888888888888889 0  28.36780047917311 -10 0  26.8172109305839 -10 0  25.34415085606858 -10 0  23.94474378810899 -10 0  22.61530707566275 -10 0  21.3523421899591 -10 0  20.15252554870171 -10 0  19.01269974553473 -10 0  17.92986523206254 -10 0  16.90117244001232 -10 0  15.92391429097614 -10 0  14.99551905455266 -10 0  14.11354357708742 -10 0  13.27566687607703 -10 0  12.47968400987599 -10 0  11.72350028612546 -10 0  11.00512574843363 -10 0  10.32266993160086 -10 0  9.674336908396342 -10 0  9.058420536362949 -10 0  8.473299984546333 -10 0  7.917435464777824 -10 0  7.389364164113587 -10 0  6.887696420787165 -10 0  6.411112061446698 -10 0  5.95835692337857 -10 0  5.528239546282652 -10 0  5.119628046377237 -10 0  4.731447115907979 -10 0  4.362675229213632 -10 0  4.012341937260036 -10 0  3.679525304434552 -10 0  3.363349508456405 -10 0  3.062982500861274 -10 0  2.777633840953978 -10 0  2.506552620368097 -10 0  2.249025459771861 -10 0  2.004374658452946 -10 0  1.771956401795187 -10 0  1.551159059871345 -10 0  1.341401583153029 -10 0  1.142131970307521 -10 0  0.9528258406748833 -10 0  0.7729850256685147 -10 0  0.6021362439621285 -10 0  0.4398298947504031 -10 0  0.2856388700059078 -10 0  0.1391573960769001 -10 0  0 -9.855072463768115 0  0 -9.710144927536232 0  0 -9.565217391304348 0  0 -9.420289855072463 0  0 -9.27536231884058 0  0 -9.130434782608695 0  0 -8.985507246376812 0  0 -8.840579710144928 0  0 -8.695652173913043 0  0 -8.55072463768116 0  0 -8.405797101449275 0  0 -8.260869565217391 0  0 -8.115942028985508 0  0 -7.971014492753623 0  0 -7.826086956521739 0  0 -7.681159420289855 0  0 -7.536231884057971 0  0 -7.391304347826087 0  0 -7.246376811594203 0  0 -7.101449275362318 0  0 -6.956521739130435 0  0 -6.811594202898551 0  0 -6.666666666666667 0  0 -6.521739130434783 0  0 -6.376811594202898 0  0 -6.231884057971015 0  0 -6.086956521739131 0  0 -5.942028985507246 0  0 -5.797101449275362 0  0 -5.652173913043478 0  0 -5.507246376811594 0  0 -5.36231884057971 0  0 -5.217391304347826 0  0 -5.072463768115941 0  0 -4.927536231884058 0  0 -4.782608695652174 0  0 -4.637681159420289 0  0 -4.492753623188406 0  0 -4.347826086956522 0  0 -4.202898550724638 0  0 -4.057971014492754 0  0 -3.913043478260869 0  0 -3.768115942028985 0  0 -3.623188405797101 0  0 -3.478260869565217 0  0 -3.333333333333334 0  0 -3.188405797101449 0  0 -3.043478260869565 0  0 -2.898550724637681 0  0 -2.753623188405797 0  0 -2.608695652173912 0  0 -2.463768115942029 0  0 -2.318840579710145 0  0 -2.173913043478261 0  0 -2.028985507246377 0  0 -1.884057971014492 0  0 -1.739130434782609 0  0 -1.594202898550725 0  0 -1.44927536231884 0  0 -1.304347826086957 0  0 -1.159420289855072 0  0 -1.014492753623188 0  0 -0.8695652173913047 0  0 -0.72463768115942 0  0 -0.579710144927537 0  0 -0.4347826086956523 0  0 -0.2898550724637676 0  0 -0.1449275362318829 0  0.1309460514202492 -4.990980414828784 0  0.1171526873513358 -5.869565217391296 0  0.1344252986967795 -6.716855800502001 0  0.1221309018586645 -4.161899358592938 0  0.1166997684017801 -3.25954604704229 0  4.961569127360256 -0.3118894787216622 0  4.923897360678746 -9.687537149351071 0  0.1228405945134021 -2.536958536012416 0  0.1335945686177435 -7.466846676638523 0  3.206461751753455 -0.2806173508164562 0  3.213166004658842 -9.746377676274168 0  0.1155250883680452 -8.186784073011673 0  0.1359204609538445 -1.804202625344072 0  6.662432263484016 -9.600124945047963 0  6.631056521209421 -0.3942868763482545 0  2.126700074935258 -0.2065769621215452 0  2.120437876630353 -9.808537401472012 0  8.761385473272522 -9.4914222957189 0  8.786076048231736 -0.4923064159810888 0  0.1195911345135556 -8.749677128895598 0  0.1117474302775605 -1.230589418769438 0  11.3907841305612 -9.402816705944797 0  11.36435727088349 -0.618365439918426 0  1.211504568109637 -0.1471532661956818 0  1.239596144827807 -9.832618358594059 0  13.75158625181508 -9.315497816134139 0  13.7500399625954 -0.6902569910160397 0  0.131402377539402 -3.696772604078816 0  0.1204853385030979 -6.307560917781178 0  0.1346483804691658 -4.550944754283819 0  0.1255109280847009 -5.434782608695652 0  16.39894095075685 -9.180198571581517 0  16.44068234362399 -0.8166544577416346 0  0.1255109280847009 -0.7971014492753632 0  0.1162877148651766 -9.206770243020259 0  19.56645066956165 -9.043742294716539 0  29.11731382843969 -5.098539983867493 0  19.50527862123305 -0.9323941524176265 0  23.28904960561395 -8.8608997858633 0  0.6875606479622149 -0.1442604037134076 0  0.6875606348153145 -9.855739596611892 0  23.37074358394081 -1.15131614182933 0  10.00852704311311 -9.475417469395781 0  10.01049631493635 -0.5545437343697674 0  7.639131123468924 -9.543000896765111 0  7.693537846067955 -0.4574302764599576 0  5.733194300659633 -9.66079268774309 0  5.731454990332523 -0.3687808037058806 0  3.803630689980224 -9.686555789708486 0  3.834043646352164 -0.2754981925697493 0  2.618022704128803 -9.787800068206256 0  2.634320277618269 -0.2392104743186785 0  1.65952286941916 -9.813294854785646 0  1.665360553377539 -0.1820878093930922 0  0.1365068028365961 -1.543352471920677 0  0.1128108295274224 -8.471115901500411 0  0.1249192863256123 -0.5070564851587012 0  0.1172626025927563 -9.49200175151447 0  0.1255109280847009 -2.101449275362318 0  0.1255109280847009 -7.898550724637682 0  0.1247535864599936 -2.824177050114505 0  0.1155424837078822 -7.17494363557847 0  26.05192393553612 -8.777856070543081 0  26.00031291598836 -1.159065252957426 0  0.3627343947446455 -0.1301950113519217 0  0.3690141220077834 -9.868919517536135 0  28.90574865438674 -7.135369011630129 0  29.02069681040884 -2.861993939893059 0  0.1397555488250113 -0.2163338956475025 0  0.1255109280847009 -9.782608695652172 0  24.67098979274125 -8.799958058548517 0  23.93395881668722 -7.700959994796646 0  22.61396570077244 -7.764517377391733 0  23.2032949615693 -6.630776985250927 0  21.94857473380583 -6.690613342424633 0  24.50398505507967 -6.535933305198952 0  22.51489076809043 -5.580432145971667 0  21.29537841406989 -5.639199768252479 0  21.84985259542567 -4.547213342284197 0  20.65342988351128 -4.619546679988924 0  20.11277906893955 -5.663225279336593 0  19.49454290958806 -4.673886314669294 0  18.97860072994828 -5.624185949902217 0  18.40383886642446 -4.729683279047542 0  17.90575400337286 -5.630456854950327 0  17.35903168001753 -4.836859475002379 0  16.91444903556046 -5.680257663405808 0  16.36114434035519 -4.898890029095359 0  15.89440836794127 -5.835214594829282 0  15.41608945577568 -4.979845093198404 0  14.9809818125648 -5.732909169427192 0  14.51777858619734 -4.988431190461874 0  14.14039496103406 -5.776391085527889 0  13.67321261031888 -5.031745046943032 0  13.26988611760758 -5.891550007816156 0  12.85732927991246 -5.095735823822261 0  12.46423889659403 -5.760519953635332 0  12.07741841933393 -5.116608846746942 0  11.73131647445202 -5.75987862647932 0  11.35222911621012 -5.158061768105265 0  11.01225658271747 -5.784828178519854 0  10.65393216495117 -5.205808407572067 0  10.33042159780337 -5.788944717060055 0  9.98551374198097 -5.24118342090078 0  9.687616112021921 -5.812725728827915 0  9.357518717034999 -5.284717467130579 0  9.08157001076583 -5.820057568121996 0  8.766199932316585 -5.320212662582848 0  8.494748056481422 -5.830095453943056 0  8.194406727465122 -5.347802431655208 0  7.942610344706003 -5.833678024304247 0  7.660825631728443 -5.380025954369014 0  7.416702921751611 -5.83684433397813 0  7.147290851157173 -5.413787279190068 0  6.91632006965034 -5.851605397483334 0  6.658527053286988 -5.437627383845131 0  6.441897327469297 -5.862220684948111 0  6.194860224019926 -5.464520225953867 0  5.988748643021736 -5.866336295550595 0  5.755042825355586 -5.482399938780632 0  5.555770501455733 -5.867908174086599 0  5.334991086231989 -5.504761241472904 0  5.145076642106908 -5.873191062890511 0  4.935013388047023 -5.544035964184449 0  4.754345788811499 -5.880090917794126 0  4.554437025256316 -5.569020251233177 0  4.382470744799432 -5.88665007327689 0  4.192208958329529 -5.585677590398814 0  4.029485566904095 -5.896175760774888 0  4.354949258143058 -5.270074521138358 0  4.004482386201769 -5.289207815434526 0  4.158655721068861 -4.98145486433833 0  3.821444856080801 -5.001169872115685 0  3.97033944278737 -4.700814034221719 0  3.642688047138773 -4.720140385706738 0  3.788830742180677 -4.426816067812119 0  3.467446796449556 -4.450112744784491 0  3.325275354457695 -4.730293981808933 0  3.158439978631689 -4.466074367009679 0  3.294707394527546 -4
[...]
<PointData  Vectors="flow"> 
<DataArray  type="Float64"  Name="flow"  NumberOfComponents="3" format="ascii">6.1325374883085509e-04 -3.4973531255326107e-03 0.0000000000000000e+00  1.8709631546177994e-05 7.1362224449720405e-05 0.0000000000000000e+00  -2.4410164020291765e-06 -2.5211216253958616e-06 0.0000000000000000e+00  1.2868231939671827e-06 -1.2028479324476085e-05 0.0000000000000000e+00  8.3619568366746788e-05 -2.5584580139371258e-03 0.0000000000000000e+00  -3.9868753832940942e-04 -2.0198553997350867e-03 0.0000000000000000e+00  8.0272648522938551e-05 -1.2406912843186181e-03 0.0000000000000000e+00  -4.8094976554833117e-05 -4.3672890055765796e-04 0.0000000000000000e+00  -2.2136454917773599e-04 1.5121098803927613e-03 0.0000000000000000e+00  2.2765633975362946e-04 3.5678046356206559e-03 0.0000000000000000e+00  -6.9325045623033066e-05 6.3064182346631130e-03 0.0000000000000000e+00  1.2842506515851456e-04 7.6204705353750306e-03 0.0000000000000000e+00  -9.0035116509750403e-05 7.9847070652928117e-03 0.0000000000000000e+00  9.3827753020625951e-05 7.5558362991809680e-03 0.0000000000000000e+00  1.7842026205442973e-05 6.9345548880132158e-03 0.0000000000000000e+00  -5.8289839829717553e-06 6.3647730911363647e-03 0.0000000000000000e+00  6.2726369590967757e-05 5.4886232604368689e-03 0.0000000000000000e+00  2.1468567352037589e-04 4.5294931181483590e-03 0.0000000000000000e+00  -1.3679588434019110e-04 4.1087394488622895e-03 0.0000000000000000e+00  2.7149280823525932e-06 3.6063732549038510e-03 0.0000000000000000e+00  1.4777942994907188e-05 3.1586295635780606e-03 0.0000000000000000e+00  -1.2002279761500272e-04 2.7808824680573582e-03 0.0000000000000000e+00  5.2939664711336642e-05 2.2393125692802404e-03 0.0000000000000000e+00  3.6138068886654212e-05 1.9954071778568523e-03 0.0000000000000000e+00  -3.7891319783344827e-06 1.7073951096230955e-03 0.0000000000000000e+00  2.7427693609267688e-05 1.4814425865570522e-03 0.0000000000000000e+00  3.5696829727639822e-06 1.2672695221698355e-03 0.0000000000000000e+00  -1.3673440922938811e-06 1.0622487199886507e-03 0.0000000000000000e+00  5.1832024037166437e-05 8.5591805065995410e-04 0.0000000000000000e+00  -2.7597710362124853e-05 7.5158770424307267e-04 0.0000000000000000e+00  2.4570930442250155e-06 6.5684827611723359e-04 0.0000000000000000e+00  6.5855333943769251e-06 5.5394572206886295e-04 0.0000000000000000e+00  6.9913630356390520e-06 4.5969793103853160e-04 0.0000000000000000e+00  1.5403073238604303e-06 3.8751251259600710e-04 0.0000000000000000e+00  3.6586242740532824e-06 3.2687999612636030e-04 0.0000000000000000e+00  2.7186585391393564e-06 2.7309420445646449e-04 0.0000000000000000e+00  -2.1046066799057573e-08 2.2294530574963882e-04 0.0000000000000000e+00  1.1449288597357566e-05 1.7695187416720982e-04 0.0000000000000000e+00  -7.9656999709823883e-06 1.5839978822211747e-04 0.0000000000000000e+00  9.9506614304251313e-07 1.4283380536754967e-04 0.0000000000000000e+00  3.2696756397913385e-07 1.2764148260846822e-04 0.0000000000000000e+00  3.4299343670924742e-06 1.1119524387271366e-04 0.0000000000000000e+00  2.6583215729759725e-06 9.8420893979817104e-05 0.0000000000000000e+00  6.5663782338962179e-07 8.8513110125441899e-05 0.0000000000000000e+00  6.5514745693787995e-07 8.4575517734008439e-05 0.0000000000000000e+00  -7.2035819236397086e-06 8.5717287402110309e-05 0.0000000000000000e+00  3.1468098878319850e-06 6.2301606920276526e-05 0.0000000000000000e+00  2.3554300442518408e-06 7.0439719028251213e-05 0.0000000000000000e+00  -8.2524821141851996e-07 6.7255061347910386e-05 0.0000000000000000e+00  -4.2185787074798017e-07 6.4727810378371550e-05 0.0000000000000000e+00  4.4741777883152612e-06 5.8200277121363622e-05 0.0000000000000000e+00  -1.3071355038551712e-05 6.4385786187720273e-05 0.0000000000000000e+00  2.3570293920653418e-06 -1.4228476031750141e-06 0.0000000000000000e+00  -6.9512445481896260e-06 1.1828105435207594e-06 0.0000000000000000e+00  7.0995922416108743e-07 -3.8717930936632236e-06 0.0000000000000000e+00  -6.3642835612397249e-07 -1.8876886201838430e-06 0.0000000000000000e+00  -2.4365362677084654e-06 -1.8467810090270314e-06 0.0000000000000000e+00  1.3486034323019010e-06 -3.3953778830108268e-06 0.0000000000000000e+00  -1.5561571404454349e-06 -1.1917579969354014e-06 0.0000000000000000e+00  -2.3304918941654857e-06 -4.4227074406318213e-06 0.0000000000000000e+00  -7.1207521788275838e-07 -6.4957824582668385e-06 0.0000000000000000e+00  2.8994311167113499e-07 -8.6660034555457298e-06 0.0000000000000000e+00  -8.5215741945348692e-07 -1.1390596505145618e-05 0.0000000000000000e+00  1.8026177760564243e-06 -1.1692062623254663e-05 0.0000000000000000e+00  2.4416561179614580e-06 -1.2231135151973973e-05 0.0000000000000000e+00  3.1450618133270661e-06 -1.2591915361655003e-05 0.0000000000000000e+00  3.4870584765105764e-06 -1.1814843846306296e-05 0.0000000000000000e+00  6.5453639533855940e-06 -1.1374340824145483e-05 0.0000000000000000e+00  7.4011442355126597e-06 -1.0635259107137431e-05 0.0000000000000000e+00  8.9421056883199140e-06 -8.9917251401832640e-06 0.0000000000000000e+00  1.0770492738178374e-05 -6.9531454985629288e-06 0.0000000000000000e+00  1.2594533428538842e-05 -4.1718055546263496e-06 0.0000000000000000e+00  1.3938301508796162e-05 -6.9181549863975370e-07 0.0000000000000000e+00  1.4951680645091612e-05 3.6045362844152256e-06 0.0000000000000000e+00  1.4848954320064434e-05 9.1514338740274964e-06 0.0000000000000000e+00  1.3679864167813648e-05 1.3394282019042087e-05 0.0000000000000000e+00  1.4397620270970191e-05 1.8759640274734847e-05 0.0000000000000000e+00  4.3515349938068149e-06 2.0953691076833330e-05 0.0000000000000000e+00  2.0674862912143371e-06 2.3934332385641449e-05 0.0000000000000000e+00  -3.6159566264019525e-06 2.6213133614734563e-05 0.0000000000000000e+00  -1.0694005302632763e-05 2.7355639748719720e-05 0.0000000000000000e+00  -2.0566002472739413e-05 3.0199255880607793e-05 0.0000000000000000e+00  -3.0363063557689579e-05 3.0159719868078383e-05 0.0000000000000000e+00  -3.9101890293842233e-05 2.9678207609763453e-05 0.0000000000000000e+00  -5.2571647135701134e-05 2.8313323512616081e-05 0.0000000000000000e+00  -6.6902585065170862e-05 2.6232169159768599e-05 0.0000000000000000e+00  -7.4021111167485104e-05 2.0738529845158393e-05 0.0000000000000000e+00  -8.0080137045194290e-05 1.6160215544885706e-05 0.0000000000000000e+00  -8.7579557152888735e-05 1.2336951351377403e-05 0.0000000000000000e+00  -9.3911855129455313e-05 9.4051361019919378e-06 0.0000000000000000e+00  -1.0012592716196829e-04 5.6606521355134667e-06 0.0000000000000000e+00  -1.0295648480078397e-04 1.9787277019878431e-06 0.0000000000000000e+00  -1.0269725366711643e-04 -4.4591051417455720e-07 0.0000000000000000e+00  -1.0199966855618162e-04 -3.4770871139829553e-06 0.0000000000000000e+00  -1.0042616204618359e-04 -6.0762293438283819e-06 0.0000000000000000e+00  -9.4670359537084715e-05 -8.2322988774979868e-06 0.0000000000000000e+00  -8.9985870342580165e-05 -9.4568141717797901e-06 0.0000000000000000e+00  -8.4743765317789026e-05 -1.0410076681827023e-05 0.0000000000000000e+00  -7.8150548176473698e-05 -1.1727698668450767e-05 0.0000000000000000e+00  -7.0382199718831294e-05 -1.2745913374747579e-05 0.0000000000000000e+00  -6.2328446663208594e-05 -1.2800129112742354e-05 0.0000000000000000e+00  -5.4191248881711433e-05 -1.3441667269785957e-05 0.0000000000000000e+00  -4.7570101462867026e-05 -1.3507294169759640e-05 0.0000000000000000e+00  -3.6850973767558986e-05 -1.3407257840456665e-05 0.0000000000000000e+00  -2.9197762907018743e-05 -1.2759690882377113e-05 0.0000000000000000e+00  -2.1920917008187483e-05 -1.1145429343774626e-05 0.0000000000000000e+00  -1.5382127965512447e-05 -1.0118801176264847e-05 0.0000000000000000e+00  -9.2190231569855346e-06 -9.5844907112232848e-06 0.0000000000000000e+00  6.1117601497710544e-07 -3.0610744586988969e-05 0.0000000000000000e+00  -6.1380780635557268e-07 -4.4734094503130631e-05 0.0000000000000000e+00  -1.1385774903338721e-06 -5.2314990446210542e-05 0.0000000000000000e+00  -1.8873131348447586e-06 -5.3242734462819904e-05 0.0000000000000000e+00  -1.9417226472076845e-06 -4.8882922079325102e-05 0.0000000000000000e+00  -1.9806746768656439e-06 -4.5159403075253492e-05 0.0000000000000000e+00  -1.6143344371472053e-06 -3.8561412131271139e-05 0.0000000000000000e+00  -2.0711690342438141e-06 -3.1721624036905399e-05 0.0000000000000000e+00  -1.4656708699272210e-06 -2.6182945271586684e-05 0.0000000000000000e+00  -1.4574046876996564e-06 -2.0952770236641834e-05 0.0000000000000000e+00  -1.6017397996962470e-06 -1.5246591532335887e-05 0.0000000000000000e+00  -1.7045948263231683e-06 -1.0053228449830171e-05 0.0000000000000000e+00  -1.7972936651620807e-06 -3.6335081243280472e-06 0.0000000000000000e+00  -1.5650549373033176e-06 2.2340191956617034e-06 0.0000000000000000e+00  -1.6904789245504204e-06 6.7572501791411465e-06 0.0000000000000000e+00  -1.6929883062794947e-06 1.2625933061964210e-05 0.0000000000000000e+00  -1.8344722372582088e-06 1.6870635944065223e-05 0.0000000000000000e+00  -2.0613246115628916e-06 2.3990459982378547e-05 0.0000000000000000e+00  -1.8820780423689988e-06 2.9290626348303866e-05 0.0000000000000000e+00  -2.1755356923745555e-06 3.5555671749323580e-05 0.0000000000000000e+00  -2.4721788969048755e-06 4.2608572382053182e-05 0.0000000000000000e+00  -1.7787962574208156e-06 5.0013389842935328e-05 0.0000000000000000e+00  -3.3597476629383254e-06 5.7458530289330674e-05 0.0000000000000000e+00  -1.9657480279436238e-06 6.3825215059646801e-05 0.0000000000000000e+00  -2.3784319596383032e-06 7.2801313340886966e-05 0.0000000000000000e+00  -3.0654639361942494e-06 8.0214933733864508e-05 0.0000000000000000e+00  -3.2171779034970405e-06 9.0236317402279205e-05 0.0000000000000000e+00  -3.5044979803435214e-06 9.8956676093819160e-05 0.0000000000000000e+00  -3.8785986826452025e-06 1.1087401672835097e-04 0.0000000000000000e+00  -3.8902347149458749e-06 1.2340141992350467e-04 0.0000000000000000e+00  -4.7314817568897385e-06 1.3543709286200834e-04 0.0000000000000000e+00  -6.7306156656193267e-06 1.5091394844382085e-04 0.0000000000000000e+00  -7.3342797889857966e-06 1.6244234818044102e-04 0.0000000000000000e+00  -5.6399401165893895e-06 1.8232139501695821e-04 0.0000000000000000e+00  -8.6222369528089482e-06 2.0607845146824674e-04 0.0000000000000000e+00  -8.2356462118824952e-06 2.2203874420479054e-04 0.0000000000000000e+00  -9.1435223440905143e-06 2.5001044334651830e-04 0.0000000000000000e+00  -1.0842251627134894e-05 2.7883907012136831e-04 0.0000000000000000e+00  -1.0421130060291544e-05 3.0618048001463598e-04 0.0000000000000000e+00  -1.4793191784926609e-05 3.3801555982986323e-04 0.0000000000000000e+00  -1.3708706371605988e-05 3.7886920308514602e-04 0.0000000000000000e+00  -2.2653463438416777e-05 4.3328982447825748e-04 0.0000000000000000e+00  -1.9201654710896152e-05 4.7721747158127240e-04 0.0000000000000000e+00  -2.1351277353549903e-05 5.5014773218112114e-04 0.0000000000000000e+00  -2.3059817180344037e-05 6.2025018285977629e-04 0.0000000000000000e+00  -2.9350453699776738e-05 7.1219654116303442e-04 0.0000000000000000e+00  -3.8390289844396534e-05 8.1037475828801202e-04 0.0000000000000000e+00  -4.1332591155401808e-05 9.4204149074962260e-04 0.0000000000000000e+00  -4.9901332884011516e-05 1.1082071479171060e-03 0.0000000000000000e+00  -7.8453515482446661e-05 1.3157316521652733e-03 0.0000000000000000e+00  -1.0596624587644829e-04 1.5546698809347456e-03 0.0000000000000000e+00  -1.2909049238769136e-04 1.8825032016273409e-03 0.0000000000000000e+00  -1.7352953108010113e-04 2.3147722654481163e-03 0.0000000000000000e+00  -2.5344211254693725e-04 2.9105339711011746e-03 0.0000000000000000e+00  -3.8804269390368533e-04 3.6784118417059375e-03 0.0000000000000000e+00  -3.3983336196722063e-04 4.8357061338818279e-03 0.0000000000000000e+00  -8.4232451463864765e-04 6.9752677174674269e-03 0.0000000000000000e+00  -1.7834772974874105e-03 1.0047880179744059e-02 0.0000000000000000e+00  -2.1607959256715447e-03 1.5581707685251644e-02 0.0000000000000000e+00  -5.9705162480844691e-03 1.9630513953011641e-02 0.0000000000000000e+00  -2.4464159834620210e-04 3.1791765219404558e-03 0.0000000000000000e+00  -7.7096707405104725e-03 -1.1053603177133572e-01 0.0000000000000000e+00  1.9507727273641931e-02 -1.2039184428433025e-01 0.0000000000000000e+00  2.2321597222192395e-02 4.4244389279860491e-02 0.0000000000000000e+00  -5.4729296564862738e-03 7.2206695554116601e-02 0.0000000000000000e+00  -2.9024712299635059e-03 1.5935755290677079e-02 0.0000000000000000e+00  -3.4976154005064114e-03 1.2562806111839729e-02 0.0000000000000000e+00  -4.1968018040469815e-04 2.7422614390305799e-03 0.0000000000000000e+00  -1.6060916873787324e-05 1.9528591167993381e-04 0.0000000000000000e+00  -8.1454544977348856e-06 1.0434313967056336e-04 0.0000000000000000e+00  -7.1156117949975553e-06 5.4509188689497908e-05 0.0000000000000000e+00  -2.9183106624607464e-05 3.5227623550330181e-04 0.0000000000000000e+00  -8.0141570501579155e-05 7.6041793060470126e-04 0.0000000000000000e+00  1.6292672531754114e-04 1.0210747215491248e-03 0.0000000000000000e+00  -8.1218555162362052e-05 1.9440669506851031e-05 0.0000000000000000e+00  -2.4174010923681144e-04 1.6656399600447917e-03 0.0000000000000000e+00  -4.8815210892701124e-06 1.9924811300049698e-05 0.0000000000000000e+00  4.5709013115667900e-04 2.1465729301129843e-03 0.0000000000000000e+00  -9.9099762314285394e-05 -4.8059209534273850e-06 0.0000000000000000e+00  -3.5859056513599061e-06 -6.8943482600427882e-06 0.0000000000000000e+00  -1.7392137887039323e-03 5.3077915412049342e-03 0.0000000000000000e+00  -4.3811550357593968e-05 3.3544953729812962e-05 0.0000000000000000e+00  1.0754310204087629e-04 5.1031140309024331e-04 0.0000000000000000e+00  6.1669468793169922e-04 4.5447659741674317e-03 0.0000000000000000e+00  -8.5788147408740907e-05 -1.9530340338044640e-05 0.0000000000000000e+00  -8.7561232045257328e-06 2.8169896483661127e-05 0.0000000000000000e+00  5.3308349514788299e-05 2.0384997483982597e-04 0.0000000000000000e+00  -3.6710613194771390e-06 -2.8412353399674394e-05 0.0000000000000000e+00  -1.4142132059449275e-02 1.2149719363460963e-02 0.0000000000000000e+00  1.0833413308807908e-05 1.1417985696193815e-05 0.0000000000000000e+00  2.5207980592414957e-05 8.3678249857873914e-05 0.0000000000000000e+00  -8.5290042784662583e-04 6.3482329538905148e-03 0.0000000000000000e+00  -5.7614432734226573e-05 -2.7159165977692963e-05 0.0000000000000000e+00  1.1195288884451312e-05 4.8186975966146834e-07 0.0000000000000000e+00  1.4040398723771457e-05 4.7907958830221825e-05 0.0000000000000000e+00  -5.5958666445406926e-05 5.0864120548388457e-04 0.0000000000000000e+00  -7.3125061317058353e-06 7.6399714879436692e-05 0.0000000000000000e+00  -2.3284576157858767e-05 2.6137427863524864e-04 0.0000000000000000e+00  -1.0520630687851281e-05 1.4034870596038994e-04 0.0000000000000000e+00  8.4250726402246034e-06 -4.8676488622499190e-06 0.0000000000000000e+00  5.0728147761572993e-06 2.7026820249592208e-05 0.0000000000000000e+00  5.1959005500262757e-02 -4.2910755873246519e-02 0.0000000000000000e+00  -4.5323902489886909e-06 -4.6591174913557029e-05 0.0000000000000000e+00  4.5440454595910933e-06 -5.8080373238144435e-06 0.0000000000000000e+00  -6.1980976036248441e-08 -9.7846052811501500e-07 0.0000000000000000e+00  2.4551547200191945e-06 1.5429286380490032e-05 0.0000000000000000e+00  2.0254695981497939e-06 -4.9631241826490007e-06 0.0000000000000000e+00  -9.8063854619665240e-04 4.0367772127444307e-03 0.0000000000000000e+00  -3.2688818438307777e-05 -2.6476360175831771e-05 0.0000000000000000e+00  1.0011137427357802e-06 7.5579546585032138e-06 0.0000000000000000e+00  6.0638001391648483e-07 2.2122085061036091e-05 0.0000000000000000e+00  3.9269209875665152e-05 1.2874619376770571e-04 0.0000000000000000e+00  -2.7553630770170547e-05 3.5020447105900189e-05 0.0000000000000000e+00  7.6176206390396442e-05 2.9145918423045824e-04 0.0000000000000000e+00  -6.8047307018428686e-05 2.7353204674064955e-05 0.0000000000000000e+00  1.3239914178018227e-04 6.2517062166348478e-04 0.0000000000000000e+00  -9.7840529844339341e-05 4.3790856509721189e-06 0.0000000000000000e+00  2.8731835418660605e-04 1.6995223777900865e-03 0.0000000000000000e+00  -9.6041530330869386e-05 -1.4046433923211482e-05 0.0000000000000000e+00  5.6717087934841741e-04 3.4184723957704963e-03 0.0000000000000000e+00  -7.3072140423591965e-05 -2.5054290608250996e-05 0.0000000000000000e+00  2.5866176712702877e-04 5.7870241999861214e-03 0.0000000000000000e+00  -4.4750512794602673e-03 1.0298308227421027e-02 0.0000000000000000e+00  -3.4936868520431253e-06 -1.8297489142214428e-05 0.0000000000000000e+00  -8.8503469711053578e-03 3.5233848904595494e-02 0.0000000000000000e+00  -5.5420615617808581e-06 -5.3411911102289141e-05 0.0000000000000000e+00  -6.4527639835672810e-04 3.1379906558648345e-03 0.0000000000000000e+00  -4.5079353345819812e-06 4.7564284508625832e-06 0.0000000000000000e+00  -1.6036982056306991e-04 1.2003649032959849e-03 0.0000000000000000e+00  -5.0072020525577885e-06 3.2375164886670562e-05 0.0000000000000000e+00  1.3602157689986903e-06 -3.4919001115068239e-06 0.0000000000000000e+00  1.7494832764595931e-06 1.1778618487194287e-05 0.0000000000000000e+00  -1.1777920924561046e-03 4.8685037406088474e-03 0.0000000000000000e+00  -1.9034709674445245e-05 -2.6782389136157981e-05 0.0000000000000000e+00  2.4435333276949333e-07 -2.1005889280944356e-06 0.0000000000000000e+00  -9.8260369617869937e-07 4.9970301048716889e-06 0.0000000000000000e+00  -1.7090309519524271e-03 1.1236043488852512e-02 0.0000000000000000e+00  -6.0397390363066400e-06 -4.0577023633737804e-05 0.0000000000000000e+00  8.1407518776660871e-07 -5.0301195459515022e-06 0.0000000000000000e+00  1.3115959271635710e-06 -1.7808624978158145e-06 0.0000000000000000e+00  2.6952274211377588e-06 -1.4780116524814993e-06 0.0000000000000000e+00  1.7633905232466680e-06 -4.1015963071237220e-06 0.0000000000000000e+00  2.9515343893659341e-06 -3.2365722384902287e-06 0.0000000000000000e+00  1.7348162528584973e-06 -3.5949745159448414e-06 0.0000000000000000e+00  1.7077645242358712e-06 -8.8375024978743514e-07 0.0000000000000000e+00  2.9835530305003112e-06 -6.1538475267806430e-07 0.0000000000000000e+00  1.9357623219150130e-06 -4.3605965883304463e-06 0.0000000000000000e+00  3.6701684187081158e-06 -2.0807898916759712e-06 0.0000000000000000e+00  3.7319313426609074e-06 -1.9617850447945605e-06 0.0000000000000000e+00  4.3872949605615556e-06 1.1671360469844624e-08 0.0000000000000000e+00  4.4922106691526603e-06 -2.6418183263452875e-06 0.0000000000000000e+00  4.2844219876213252e-06 2.5973099628199661e-07 0.0000000000000000e+00  3.8549445307462467e-06 -1.6118580617030744e-06 0.0000000000000000e+00  4.9503764348863284e-06 -4.4602369904014252e-07 0.0000000000000000e+00  6.6676538579251255e-06 -5.0323257251017048e-07 0.0000000000000000e+00  7.0462128122239334e-06 -6.3698645085723988e-07 0.0000000000000000e+00  6.9853460733180960e-06 -3.0462220807993487e-07 0.0000000000000000e+00  7.3411821787728088e-06 -5.9773877325459391e-07 0.0000000000000000e+00  6.7947642741920261e-06 -8.2428512992624031e-07 0.0000000000000000e+00  7.6427772614393190e-06 -1.1374934059118011e-06 0.0000000000000000e+00  8.7749835603498571e-06 -5.7763064522611553e-07 0.0000000000000000e+00  7.9965370219489733e-06 -6.6716847051631478e-07 0.0000000000000000e+00  6.8525873998121699e-06 -5.7555784772295821e-07 0.0000000000000000e+00  7.3033616374480430e-06 -2.4916904766412331e-06 0.0000000000000000e+00  6.0739831833672679e-06 -7.4794398565933803e-07 0.0000000000000000e+00  7.6926411966386313e-06 -5.2847109641752824e-06 0.0000000000000000e+00  6.5153261032137899e-06 -2.3651688158925464e-06 0.0000000000000000e+00  6.2342702642883896e-06 -4.8988133138260586e-06 0.0000000000000000e+00  4.7571864249132970e-06 -3.3488372654736867e-06 0.0000000000000000e+00  5.9403918626089017e-06 -6.8443886687665928e-06 0.0000000000000000e+00  1.7514945359422531e-06 -5.8457564557743195e-06 0.0000000000000000e+00  7.2149257321508258e-07 -9.1257820203138142e-06 0.0000000000000000e+00  -2.1121296815729501