<?xml version="1.0"?>
<VTKFile type="UnstructuredGrid"  version="0.1"  >
<UnstructuredGrid>
<Piece  NumberOfPoints="18082" NumberOfCells="35500">
<Points>
<DataArray  type="Float64"  NumberOfComponents="3"  format="ascii">0 0 0  30 0 0  30 -10 0  0 -10 0  0.02360821169319077 0 0  0.04721642338638154 0 0  0.07206717063563725 0 0  0.09691791788489297 0 0  0.1230766011355843 0 0  0.1492352843862757 0 0  0.1767707375239038 0 0  0.204306190661532 0 0  0.2332908770901271 0 0  0.2622755635187223 0 0  0.2927857633803451 0 0  0.323295963241968 0 0  0.3554119623832387 0 0  0.3875279615245094 0 0  0.4213342730081758 0 0  0.4551405844918422 0 0  0.4907261762804851 0 0  0.526311768069128 0 0  0.5637702848355051 0 0  0.6012288016018821 0 0  0.6406588220121138 0 0  0.6800888424223455 0 0  0.721594129780935 0 0  0.7630994171395246 0 0  0.8067891887833475 0 0  0.8504789604271704 0 0  0.8964681941825949 0 0  0.9424574279380195 0 0  0.9908671465681095 0 0  1.039276865198199 0 0  1.090234462786975 0 0  1.141192060375751 0 0  1.194831641933244 0 0  1.248471223490737 0 0  1.304933942963653 0 0  1.361396662436569 0 0  1.420831104471586 0 0  1.480265546506604 0 0  1.542828113436244 0 0  1.605390680365884 0 0  1.671246013469327 0 0  1.73710134657277 0 0  1.806422752814762 0 0  1.875744159056755 0 0  1.948714057431306 0 0  2.021683955805857 0 0  2.098494373901932 0 0  2.175304791998006 0 0  2.256157866653476 0 0  2.337010941308945 0 0  2.422119443935387 0 0  2.50722794656183 0 0  2.596815840700639 0 0  2.686403734839449 0 0  2.780706776094687 0 0  2.875009817349925 0 0  2.974276175689285 0 0  3.073542534028646 0 0  3.178033441002704 0 0  3.282524347976761 0 0  3.392514777963501 0 0  3.502505207950242 0 0  3.618284608533553 0 0  3.734064009116865 0 0  3.855937062816526 0 0  3.977810116516187 0 0  4.106097541496641 0 0  4.234384966477093 0 0  4.369424362562147 0 0  4.5044637586472 0 0  4.646610489729194 0 0  4.788757220811188 0 0  4.938385356669961 0 0  5.088013492528733 0 0  5.24551679218304 0 0  5.403020091837347 0 0  5.568813038399614 0 0  5.73460598496188 0 0  5.909124878408681 0 0  6.083643771855482 0 0  6.267347873338513 0 0  6.451051974821543 0 0  6.644424714363561 0 0  6.83779745390558 0 0  7.041347702348167 0 0  7.244897950790754 0 0  7.459161368238869 0 0  7.673424785686984 0 0  7.898965226038037 0 0  8.124505666389089 0 0  8.361916654054033 0 0  8.599327641718979 0 0  8.849233942517035 0 0  9.099140243315093 0 0  9.362199507946787 0 0  9.625258772578484 0 0  9.902163261537794 0 0  10.1790677504971 0 0  10.47054616023911 0 0  10.76202456998112 0 0  11.06884394887334 0 0  11.37566332776555 0 0  11.69863109504192 0 0  12.02159886231829 0 0  12.3615649378891 0 0  12.7015310134599 0 0  13.05939003847426 0 0  13.41724906348862 0 0  13.79394276982091 0 0  14.1706364761532 0 0  14.5671561683298 0 0  14.96367586050641 0 0  15.38106501332897 0 0  15.79845416615153 0 0  16.23781117165827 0 0  16.677168177165 0 0  17.13964923659526 0 0  17.60213029602552 0 0  18.0889524622663 0 0  18.57577462850707 0 0  19.08821901304263 0 0  19.60066339757818 0 0  20.14007853843172 0 0  20.67949367928525 0 0  21.24729908993883 0 0  21.8151045005924 0 0  22.41279440541421 0 0  23.01048431023601 0 0  23.63963157605829 0 0  24.26877884188056 0 0  24.93103912515648 0 0  25.59329940843241 0 0  26.29041549584691 0 0  26.98753158326142 0 0  27.72133799026916 0 0  28.45514439727691 0 0  29.22757219863846 0 0  30 -0.3571428571428571 0  30 -0.7142857142857142 0  30 -1.071428571428571 0  30 -1.428571428571428 0  30 -1.785714285714286 0  30 -2.142857142857143 0  30 -2.5 0  30 -2.857142857142857 0  30 -3.214285714285714 0  30 -3.571428571428571 0  30 -3.928571428571428 0  30 -4.285714285714286 0  30 -4.642857142857142 0  30 -5 0  30 -5.357142857142857 0  30 -5.714285714285714 0  30 -6.071428571428571 0  30 -6.428571428571428 0  30 -6.785714285714285 0  30 -7.142857142857142 0  30 -7.5 0  30 -7.857142857142857 0  30 -8.214285714285714 0  30 -8.571428571428571 0  30 -8.928571428571427 0  30 -9.285714285714285 0  30 -9.642857142857142 0  29.22757220128658 -10 0  28.45514440257316 -10 0  27.72133799277628 -10 0  26.98753158297939 -10 0  26.29041549304805 -10 0  25.5932994031167 -10 0  24.93103911757599 -10 0  24.26877883203527 -10 0  23.63963156418132 -10 0  23.01048429632737 -10 0  22.41279438968936 -10 0  21.81510448305136 -10 0  21.24729907078059 -10 0  20.67949365850982 -10 0  20.14007851622273 -10 0  19.60066337393564 -10 0  19.08821898813588 -10 0  18.57577460233611 -10 0  18.08895243498708 -10 0  17.60213026763805 -10 0  17.13964920724307 -10 0  16.6771681468481 -10 0  16.2378111405086 -10 0  15.79845413416909 -10 0  15.38106498063496 -10 0  14.96367582710082 -10 0  14.56715613432376 -10 0  14.17063644154669 -10 0  13.79394273471576 -10 0  13.41724902788484 -10 0  13.05939000246495 -10 0  12.70153097704506 -10 0  12.36156490115379 -10 0  12.02159882526251 -10 0  11.69863105774323 -10 0  11.37566329022395 -10 0  11.06884391115945 -10 0  10.76202453209494 -10 0  10.47054612224479 -10 0  10.17906771239465 -10 0  9.902163223385379 -10 0  9.625258734376107 -10 0  9.362199469747061 -10 0  9.099140205118012 -10 0  8.849233904370102 -10 0  8.599327603622193 -10 0  8.361916616050124 -10 0  8.124505628478055 -10 0  7.898965188258209 -10 0  7.673424748038361 -10 0  7.459161330755727 -10 0  7.244897913473093 -10 0  7.041347665226496 -10 0  6.837797416979896 -10 0  6.644424677660922 -10 0  6.451051938341948 -10 0  6.26734783710581 -10 0  6.083643735869675 -10 0  5.90912484269068 -10 0  5.734605949511682 -10 0  5.568813003235423 -10 0  5.403020056959164 -10 0  5.24551675760658 -10 0  5.088013458254 -10 0  4.938385322710374 -10 0  4.788757187166745 -10 0  4.646610456411224 -10 0  4.504463725655707 -10 0  4.369424329906533 -10 0  4.234384934157362 -10 0  4.106097509520442 -10 0  3.977810084883522 -10 0  3.85593703153344 -10 0  3.734063978183357 -10 0  3.618284577954206 -10 0  3.502505177725055 -10 0  3.392514748095728 -10 0  3.282524318466404 -10 0  3.1780334118518 -10 0  3.073542505237196 -10 0  2.97427614725823 -10 0  2.875009789279265 -10 0  2.780706748384375 -10 0  2.686403707489482 -10 0  2.596815813710069 -10 0  2.507227919930656 -10 0  2.422119417661861 -10 0  2.337010915393062 -10 0  2.256157841092762 -10 0  2.175304766792465 -10 0  2.098494349048437 -10 0  2.021683931304413 -10 0  1.948714033278215 -10 0  1.875744135252013 -10 0  1.806422729354161 -10 0  1.737101323456312 -10 0  1.671245990692352 -10 0  1.605390657928396 -10 0  1.542828091333185 -10 0  1.480265524737977 -10 0  1.420831083031992 -10 0  1.36139664132601 -10 0  1.304933922176438 -10 0  1.248471203026863 -10 0  1.194831621786765 -10 0  1.14119204054667 -10 0  1.09023444350921 -10 0  1.039276846471754 -10 0  0.9908671279064798 -10 0  0.942457409341209 -10 0  0.8964681758842019 -10 0  0.8504789424271948 -10 0  0.8067891710751951 -10 0  0.7630993997231954 -10 0  0.7215941126497469 -10 0  0.6800888255762949 -10 0  0.6406588054444597 -10 0  0.6012287853126246 -10 0  0.5637702688178621 -10 0  0.5263117523230996 -10 0  0.4907261607992695 -10 0  0.4551405692754429 -10 0  0.4213342580497894 -10 0  0.3875279468241395 -10 0  0.3554119479341011 -10 0  0.3232959490440663 -10 0  0.2927857494269297 -10 0  0.2622755498097931 -10 0  0.2332908636189828 -10 0  0.2043061774281725 -10 0  0.1767707245216883 -10 0  0.1492352716152006 -10 0  0.1230765885890825 -10 0  0.09691790556296098 -10 0  0.0720671585317838 -10 0  0.04721641150060663 -10 0  0.02360820575030331 -10 0  0 -9.972067039106145 0  0 -9.94413407821229 0  0 -9.916201117318435 0  0 -9.888268156424582 0  0 -9.860335195530727 0  0 -9.832402234636872 0  0 -9.804469273743017 0  0 -9.776536312849162 0  0 -9.748603351955307 0  0 -9.720670391061452 0  0 -9.692737430167599 0  0 -9.664804469273744 0  0 -9.636871508379889 0  0 -9.608938547486034 0  0 -9.581005586592179 0  0 -9.553072625698324 0  0 -9.525139664804469 0  0 -9.497206703910614 0  0 -9.46927374301676 0  0 -9.441340782122905 0  0 -9.41340782122905 0  0 -9.385474860335195 0  0 -9.35754189944134 0  0 -9.329608938547485 0  0 -9.30167597765363 0  0 -9.273743016759777 0  0 -9.245810055865922 0  0 -9.217877094972067 0  0 -9.189944134078212 0  0 -9.162011173184357 0  0 -9.134078212290502 0  0 -9.106145251396647 0  0 -9.078212290502794 0  0 -9.050279329608939 0  0 -9.022346368715084 0  0 -8.994413407821229 0  0 -8.966480446927374 0  0 -8.938547486033519 0  0 -8.910614525139664 0  0 -8.882681564245811 0  0 -8.854748603351956 0  0 -8.826815642458101 0  0 -8.798882681564246 0  0 -8.770949720670391 0  0 -8.743016759776536 0  0 -8.715083798882681 0  0 -8.687150837988828 0  0 -8.659217877094973 0  0 -8.631284916201118 0  0 -8.603351955307263 0  0 -8.575418994413408 0  0 -8.547486033519553 0  0 -8.519553072625698 0  0 -8.491620111731844 0  0 -8.463687150837989 0  0 -8.435754189944134 0  0 -8.407821229050279 0  0 -8.379888268156424 0  0 -8.351955307262569 0  0 -8.324022346368714 0  0 -8.296089385474861 0  0 -8.268156424581006 0  0 -8.240223463687151 0  0 -8.212290502793296 0  0 -8.184357541899441 0  0 -8.156424581005586 0  0 -8.128491620111731 0  0 -8.100558659217878 0  0 -8.072625698324023 0  0 -8.044692737430168 0  0 -8.016759776536313 0  0 -7.988826815642458 0  0 -7.960893854748603 0  0 -7.932960893854748 0  0 -7.905027932960894 0  0 -7.877094972067039 0  0 -7.849162011173184 0  0 -7.82122905027933 0  0 -7.793296089385475 0  0 -7.76536312849162 0  0 -7.737430167597765 0  0 -7.709497206703911 0  0 -7.681564245810056 0  0 -7.653631284916202 0  0 -7.625698324022347 0  0 -7.597765363128492 0  0 -7.569832402234637 0  0 -7.541899441340782 0  0 -7.513966480446927 0  0 -7.486033519553073 0  0 -7.458100558659218 0  0 -7.430167597765363 0  0 -7.402234636871508 0  0 -7.374301675977653 0  0 -7.346368715083798 0  0 -7.318435754189944 0  0 -7.290502793296089 0  0 -7.262569832402235 0  0 -7.23463687150838 0  0 -7.206703910614525 0  0 -7.17877094972067 0  0 -7.150837988826815 0  0 -7.12290502793296 0  0 -7.094972067039106 0  0 -7.067039106145251 
[...]
<PointData  Vectors="flow"> 
<DataArray  type="Float64"  Name="flow"  NumberOfComponents="3" format="ascii">4.4200216106265814e-05 -1.6291378251067233e-03 0.0000000000000000e+00  -1.4291395150636301e-06 2.6959674277651008e-05 0.0000000000000000e+00  -3.7656699330711075e-08 -9.1541090426935310e-07 0.0000000000000000e+00  2.0228376222789966e-07 -5.8629656001122638e-07 0.0000000000000000e+00  -7.9683089981515277e-06 -1.6280730007687606e-03 0.0000000000000000e+00  -6.1601129099696247e-06 -1.6069756137754737e-03 0.0000000000000000e+00  6.3246430712047105e-06 -1.6266848136218257e-03 0.0000000000000000e+00  -2.0706679843000151e-05 -1.6273330971695533e-03 0.0000000000000000e+00  9.9431768354667743e-06 -1.6438348103745353e-03 0.0000000000000000e+00  -3.6646250659997117e-06 -1.6866758366327211e-03 0.0000000000000000e+00  -4.9422976657012130e-07 -1.7323791278522930e-03 0.0000000000000000e+00  7.3381637716072712e-06 -1.8090748322445659e-03 0.0000000000000000e+00  -5.7302868633387745e-06 -1.9021983001069336e-03 0.0000000000000000e+00  1.6735472981848482e-05 -2.0211456895743961e-03 0.0000000000000000e+00  -3.2392924351910998e-06 -2.1384383914478610e-03 0.0000000000000000e+00  1.4738996455964078e-06 -2.2197155316281384e-03 0.0000000000000000e+00  1.6457645853936621e-05 -2.3119526811820920e-03 0.0000000000000000e+00  -6.5703517288963134e-05 -2.2450364587363655e-03 0.0000000000000000e+00  2.7039807590753243e-05 -2.1693029068298097e-03 0.0000000000000000e+00  -4.2476848319770527e-05 -2.0273476328454788e-03 0.0000000000000000e+00  1.5465119654498341e-05 -1.7929419379624162e-03 0.0000000000000000e+00  -3.8245923612614318e-05 -1.4626203018758806e-03 0.0000000000000000e+00  1.3865017184377072e-05 -1.0923840541521726e-03 0.0000000000000000e+00  -2.4687489034422975e-05 -6.4427159840085911e-04 0.0000000000000000e+00  1.6734022974973093e-05 -1.4606116251788761e-04 0.0000000000000000e+00  -4.3175243560954749e-05 4.2943838983605832e-04 0.0000000000000000e+00  -1.8612954844838587e-05 1.0309616412608196e-03 0.0000000000000000e+00  5.6402623135511865e-05 1.4864868984003356e-03 0.0000000000000000e+00  6.9818092154661357e-06 1.9598715876690364e-03 0.0000000000000000e+00  -1.4295952058032340e-05 2.4964140653234361e-03 0.0000000000000000e+00  -2.9436822114226532e-06 2.9018533180155846e-03 0.0000000000000000e+00  8.5047106225979551e-06 3.2894400846261045e-03 0.0000000000000000e+00  -7.8293947463804611e-06 3.5676025670332927e-03 0.0000000000000000e+00  -7.7960456123351619e-06 3.8191961145656200e-03 0.0000000000000000e+00  5.1056100652021870e-06 4.0164877568304932e-03 0.0000000000000000e+00  -2.4853033058182222e-06 4.1308452472966347e-03 0.0000000000000000e+00  -2.9222824547580005e-06 4.2151790955823800e-03 0.0000000000000000e+00  1.4259524028911190e-05 4.2281352332006498e-03 0.0000000000000000e+00  -4.2679638634856984e-06 4.2040143066118677e-03 0.0000000000000000e+00  6.9484563971015759e-06 4.1506165891784215e-03 0.0000000000000000e+00  -4.9394645621674320e-06 4.0852583006353929e-03 0.0000000000000000e+00  1.3713232759677594e-05 3.9788899394660104e-03 0.0000000000000000e+00  -1.5572142828931946e-05 3.8882303371103686e-03 0.0000000000000000e+00  4.2355461066943336e-05 3.7279137871131874e-03 0.0000000000000000e+00  -1.4333934966299289e-07 3.5658393927872310e-03 0.0000000000000000e+00  -1.7213353470271478e-05 3.4610004141547171e-03 0.0000000000000000e+00  3.5225083341814070e-06 3.3292929438361657e-03 0.0000000000000000e+00  -1.1679845440715556e-06 3.1871158502942039e-03 0.0000000000000000e+00  -5.5569347719621723e-08 3.0534702273561803e-03 0.0000000000000000e+00  2.4518373331915825e-06 2.9154211466828799e-03 0.0000000000000000e+00  7.5541713253672634e-07 2.7767717974065335e-03 0.0000000000000000e+00  -2.7001746080936982e-06 2.6501742201399600e-03 0.0000000000000000e+00  -5.6403741653042140e-06 2.5340347263991627e-03 0.0000000000000000e+00  1.9628955369651858e-05 2.3858503730279220e-03 0.0000000000000000e+00  -6.4255290303215771e-06 2.2586123465820483e-03 0.0000000000000000e+00  9.8465586426199938e-06 2.1394404973536199e-03 0.0000000000000000e+00  -2.2696358738954678e-06 2.0264255030105482e-03 0.0000000000000000e+00  3.6943463785826450e-06 1.9203992902698207e-03 0.0000000000000000e+00  -6.7519156969198776e-06 1.8283339745769633e-03 0.0000000000000000e+00  1.8734606011744889e-05 1.7171760102688627e-03 0.0000000000000000e+00  -3.8134452182690982e-06 1.6152778252471129e-03 0.0000000000000000e+00  5.1417767432049782e-06 1.5269772077172864e-03 0.0000000000000000e+00  -1.3804186077602987e-06 1.4478191497642526e-03 0.0000000000000000e+00  1.6433538525000591e-06 1.3722004271236436e-03 0.0000000000000000e+00  -2.5449312319636371e-06 1.2984930041544018e-03 0.0000000000000000e+00  7.6467374846776179e-06 1.2192768767584508e-03 0.0000000000000000e+00  -9.1182010618611891e-06 1.1676426804610603e-03 0.0000000000000000e+00  2.9520145661011998e-05 1.0742139593380514e-03 0.0000000000000000e+00  -2.7142634308805231e-06 9.9744921196068259e-04 0.0000000000000000e+00  -6.2160679311471376e-06 9.5737077582946245e-04 0.0000000000000000e+00  4.8690105641530604e-07 9.0645056330328200e-04 0.0000000000000000e+00  3.5450087788044905e-06 8.5403157554810049e-04 0.0000000000000000e+00  -6.5182122535796477e-07 8.0466372628132648e-04 0.0000000000000000e+00  -4.2502022991963131e-07 7.6293041179297156e-04 0.0000000000000000e+00  -7.7273325066825772e-08 7.2230791303596459e-04 0.0000000000000000e+00  5.0215562106847678e-07 6.8214364961361850e-04 0.0000000000000000e+00  -3.0421960686279232e-07 6.4557371781034641e-04 0.0000000000000000e+00  9.2524889636480954e-07 6.0906155929170132e-04 0.0000000000000000e+00  -4.8599630243348162e-07 5.7540020879582807e-04 0.0000000000000000e+00  1.4899013883873811e-06 5.4175444648620345e-04 0.0000000000000000e+00  -3.0097339944548076e-06 5.1505785640408184e-04 0.0000000000000000e+00  1.1206607443743254e-05 4.7470338213971975e-04 0.0000000000000000e+00  -1.6319299119944986e-06 4.3846495130823673e-04 0.0000000000000000e+00  3.1730375466912985e-07 4.1768327868596565e-04 0.0000000000000000e+00  4.2925972268585234e-07 3.9090350874334298e-04 0.0000000000000000e+00  -2.2703989908228534e-06 3.7039919923028113e-04 0.0000000000000000e+00  1.2343342372366799e-07 3.5172260320379757e-04 0.0000000000000000e+00  1.3324914441679656e-06 3.2875163580823013e-04 0.0000000000000000e+00  -1.2530165900953174e-06 3.1010061290104155e-04 0.0000000000000000e+00  4.0818040920961980e-06 2.8665444362198893e-04 0.0000000000000000e+00  -2.3077629114687679e-06 2.7010941295593099e-04 0.0000000000000000e+00  7.2732111336889797e-06 2.4664692489907941e-04 0.0000000000000000e+00  -8.0253459153685261e-07 2.2615285238384422e-04 0.0000000000000000e+00  -1.1247753433859339e-06 2.1472599541332319e-04 0.0000000000000000e+00  2.2643493905905254e-06 1.9831344180051025e-04 0.0000000000000000e+00  -9.2772021566320692e-06 1.9196986921697396e-04 0.0000000000000000e+00  -2.3400502234618036e-07 1.9675939881331355e-04 0.0000000000000000e+00  7.3151162857132917e-06 1.6520800087114660e-04 0.0000000000000000e+00  -7.7338931999447987e-07 1.5076643063883184e-04 0.0000000000000000e+00  -8.1552187043357318e-07 1.4344595993429622e-04 0.0000000000000000e+00  -3.0638733690239894e-07 1.3411753743785055e-04 0.0000000000000000e+00  1.8151669388061349e-06 1.2289381878699884e-04 0.0000000000000000e+00  -7.3179165538013360e-07 1.1380134514927491e-04 0.0000000000000000e+00  2.1517252227506689e-06 1.0395689919634597e-04 0.0000000000000000e+00  -5.2523880068856759e-07 9.5360331645157661e-05 0.0000000000000000e+00  8.8293479804412329e-07 8.8409164336988475e-05 0.0000000000000000e+00  -1.8100177503581300e-07 8.1684457851162690e-05 0.0000000000000000e+00  4.3195292847334454e-07 7.5947674960847125e-05 0.0000000000000000e+00  -2.4096391058800329e-07 7.0615368808693655e-05 0.0000000000000000e+00  9.8098396684766957e-07 6.5128241995217882e-05 0.0000000000000000e+00  -6.6585057203165426e-07 6.0904973266734185e-05 0.0000000000000000e+00  2.8168059243134036e-06 5.4721711311864499e-05 0.0000000000000000e+00  -1.6082222428694761e-07 4.9265274011057391e-05 0.0000000000000000e+00  -1.2890026393416683e-06 4.8145744305754780e-05 0.0000000000000000e+00  3.0217448482666866e-07 4.6573063664871649e-05 0.0000000000000000e+00  -4.2440721701336628e-07 4.4433520678435060e-05 0.0000000000000000e+00  1.5181373832233562e-07 4.2776327705874256e-05 0.0000000000000000e+00  -4.7517946559972989e-07 4.1263086141711007e-05 0.0000000000000000e+00  5.8600562130071585e-09 4.0500217965114729e-05 0.0000000000000000e+00  5.7588321533581845e-07 3.8282089562310276e-05 0.0000000000000000e+00  -2.7380439577052055e-07 3.6914285206514173e-05 0.0000000000000000e+00  1.1908142285923520e-06 3.4887766044190172e-05 0.0000000000000000e+00  6.7080476134874362e-08 3.2709477680178901e-05 0.0000000000000000e+00  -1.7070462338327511e-06 3.3644920280008047e-05 0.0000000000000000e+00  -3.6729665125047478e-07 3.6542597860107568e-05 0.0000000000000000e+00  1.0564872549097033e-06 2.9642543191539967e-05 0.0000000000000000e+00  1.4428553653807705e-07 3.0829669644517150e-05 0.0000000000000000e+00  -1.2157212035501261e-07 3.0174045692284035e-05 0.0000000000000000e+00  4.5809623022415304e-08 3.0634070993074848e-05 0.0000000000000000e+00  -4.5229173647576843e-07 2.9774249473346728e-05 0.0000000000000000e+00  -5.1579945195435183e-07 3.1623458779095184e-05 0.0000000000000000e+00  1.3942447219210484e-06 2.4808974903510490e-05 0.0000000000000000e+00  1.3166297333308299e-07 2.5437100475468573e-05 0.0000000000000000e+00  -4.5352949227528922e-07 2.5666280871172807e-05 0.0000000000000000e+00  1.4365025493667586e-07 2.5919334106951490e-05 0.0000000000000000e+00  -1.4183547194058569e-07 2.5643544318029321e-05 0.0000000000000000e+00  -2.6352904335940100e-08 2.5670422447134345e-05 0.0000000000000000e+00  4.6066666137563181e-07 2.5141618089006177e-05 0.0000000000000000e+00  -1.2395911318256561e-07 2.4096793762112684e-05 0.0000000000000000e+00  -1.2127694737285029e-06 2.5641928762015311e-05 0.0000000000000000e+00  4.8740279886782641e-07 2.7016430117952024e-05 0.0000000000000000e+00  2.1212061614797475e-06 9.5960382302522829e-06 0.0000000000000000e+00  -9.8949097033294088e-08 2.3063345722782117e-06 0.0000000000000000e+00  5.5543528663737408e-07 -1.3286686736122547e-06 0.0000000000000000e+00  -8.6113153201104624e-08 -3.1847127029209282e-07 0.0000000000000000e+00  -5.6131822836428729e-08 -3.2112163219405678e-07 0.0000000000000000e+00  3.0267878342297248e-08 -5.1076671723346273e-07 0.0000000000000000e+00  2.3005019004577099e-09 -5.0237837814506357e-07 0.0000000000000000e+00  1.1503312826368322e-08 -4.5765000227095809e-07 0.0000000000000000e+00  1.4412301183663330e-08 -4.2958080131595203e-07 0.0000000000000000e+00  2.5035890556711390e-08 -4.7735854625541215e-07 0.0000000000000000e+00  2.0413486261106081e-11 -5.4111857313826048e-07 0.0000000000000000e+00  -2.2908078387045208e-08 -4.9236444920808226e-07 0.0000000000000000e+00  -3.2892218165149611e-08 -5.4407703140823072e-07 0.0000000000000000e+00  -2.2619442095492408e-08 -5.4827986691868243e-07 0.0000000000000000e+00  5.2587800778527614e-09 -5.0228106437861003e-07 0.0000000000000000e+00  1.7558669467063105e-08 -6.0865822084417776e-07 0.0000000000000000e+00  3.5023856268588076e-08 -6.6536602985254134e-07 0.0000000000000000e+00  1.8084003752253202e-08 -6.1319935649252330e-07 0.0000000000000000e+00  1.1773346138103941e-08 -5.7504116283879685e-07 0.0000000000000000e+00  1.5915109415492023e-08 -6.1818757825171448e-07 0.0000000000000000e+00  4.2215908090872300e-09 -8.4874135897649634e-07 0.0000000000000000e+00  -3.7798621623771442e-08 -7.8347644964745632e-07 0.0000000000000000e+00  -5.8821738431180856e-08 -7.0680427828714714e-07 0.0000000000000000e+00  -4.7001478932398058e-08 -6.4253844780547879e-07 0.0000000000000000e+00  -1.2028399751210395e-07 -3.0706190749196074e-07 0.0000000000000000e+00  -1.5724329438573601e-07 -7.0534835091910338e-07 0.0000000000000000e+00  -4.7133620449992163e-07 -1.2721812953676065e-06 0.0000000000000000e+00  -3.8656134381488401e-08 -8.1068465023227881e-07 0.0000000000000000e+00  -2.2384170977944295e-07 -1.0473839232118098e-06 0.0000000000000000e+00  2.3066662416047341e-07 -1.1138379176807924e-06 0.0000000000000000e+00  1.1441758942622154e-07 -1.2567350676890795e-06 0.0000000000000000e+00  3.8160731550820282e-08 -1.2088966485519856e-06 0.0000000000000000e+00  1.8137997819949841e-07 -1.2852947572578198e-06 0.0000000000000000e+00  1.7639251677167571e-07 -1.3285789002178319e-06 0.0000000000000000e+00  1.6395969716239359e-07 -1.4233350701192831e-06 0.0000000000000000e+00  3.7499847298041642e-07 -1.5037272860795245e-06 0.0000000000000000e+00  3.5331278348302341e-07 -1.6028972741970893e-06 0.0000000000000000e+00  3.9952137475301057e-07 -1.6248621883995079e-06 0.0000000000000000e+00  8.9729904134948281e-07 -1.4927674382098867e-06 0.0000000000000000e+00  7.9406962585463844e-07 -1.4401054183043950e-06 0.0000000000000000e+00  9.3812741782604633e-07 -1.3713449516143888e-06 0.0000000000000000e+00  9.9445988108403564e-07 -1.3877922796251052e-06 0.0000000000000000e+00  1.2010149212327689e-06 -1.3750715636466752e-06 0.0000000000000000e+00  1.3144956764739980e-06 -1.3651072465180937e-06 0.0000000000000000e+00  1.4963836105240500e-06 -1.3025413045133684e-06 0.0000000000000000e+00  1.6143765883205500e-06 -1.2129641994372305e-06 0.0000000000000000e+00  2.0114872034952364e-06 -1.0742733140929178e-06 0.0000000000000000e+00  2.1156313666987181e-06 -9.8852656103382609e-07 0.0000000000000000e+00  2.3237356373087150e-06 -9.0258828199439529e-07 0.0000000000000000e+00  2.3246637685461014e-06 -8.2210671380986867e-07 0.0000000000000000e+00  2.5372893208229116e-06 -7.9765553526363949e-07 0.0000000000000000e+00  2.9076070383706932e-06 -6.8297258600836936e-07 0.0000000000000000e+00  3.0526678835972837e-06 -4.5850973140677410e-07 0.0000000000000000e+00  3.0990592953665810e-06 -2.9977902366653071e-07 0.0000000000000000e+00  3.3324232349389748e-06 -8.9937090091262667e-08 0.0000000000000000e+00  3.4183696897538007e-06 8.1281279883543209e-08 0.0000000000000000e+00  3.4561755426220246e-06 3.0971264271807762e-07 0.0000000000000000e+00  3.4526116469317878e-06 4.3981442657978614e-07 0.0000000000000000e+00  3.4841798865796184e-06 6.4774750255287715e-07 0.0000000000000000e+00  3.4469172691125688e-06 8.4242481457178121e-07 0.0000000000000000e+00  3.3736626996313926e-06 1.0791098770893759e-06 0.0000000000000000e+00  3.2672218460213241e-06 1.3169705602330124e-06 0.0000000000000000e+00  3.0711257838164349e-06 1.5918899628085073e-06 0.0000000000000000e+00  2.8867919194653570e-06 1.8634743177115195e-06 0.0000000000000000e+00  2.5972442294023632e-06 2.2170128992484703e-06 0.0000000000000000e+00  2.1066866552811515e-06 2.4934142072283873e-06 0.0000000000000000e+00  1.3586842238690139e-06 2.5463359060955912e-06 0.0000000000000000e+00  8.4625157908365907e-07 2.5008043914261662e-06 0.0000000000000000e+00  4.1720799661509410e-07 2.5388736099278012e-06 0.0000000000000000e+00  -1.6034712470414053e-07 2.6173543739817875e-06 0.0000000000000000e+00  -8.7877137622551859e-07 2.6663354935836384e-06 0.0000000000000000e+00  -1.5733399057239015e-06 2.7309663632152491e-06 0.0000000000000000e+00  -2.3906910507206897e-06 2.8183771836298748e-06 0.0000000000000000e+00  -3.2067271923031219e-06 2.9139758987570840e-06 0.0000000000000000e+00  -4.0822973847794021e-06 3.1012058405248153e-06 0.0000000000000000e+00  -4.7829024986498673e-06 3.2224075365918093e-06 0.0000000000000000e+00  -5.9275610270346716e-06 3.5688238162170281e-06 0.0000000000000000e+00  -7.3411229810891580e-06 3.7736373041132690e-06 0.0000000000000000e+00  -8.4632080722302712e-06 3.4917123665503568e-06 0.0000000000000000e+00  -9.1872454626328707e-06 3.0686652866593364e-06 0.0000000000000000e+00  -1.0437013958863486e-05 3.2852382435683699e-06 0.0000000000000000e+00  -1.1806991330101334e-05 3.4180188079421271e-06 0.0000000000000000e+00  -1.3009359549979213e-05 3.0316757375105606e-06 0.0000000000000000e+00  -1.4223913225765317e-05 2.6314721527215669e-06 0.0000000000000000e+00  -1.5102655357378263e-05 2.5153289651497345e-06 0.0000000000000000e+00  -1.6016866710595536e-05 2.4249512402550499e-06 0.0000000000000000e+00  -1.6977941905364265e-05 2.2632948035126179e-06 0.0000000000000000e+00  -1.7959671781060676e-05 2.1424356857182680e-06 0.0000000000000000e+00  -1.8915352895842961e-05 1.9676949731970712e-06 0.0000000000000000e+00  -1.9859411718603025e-05 1.8451416669243053e-06 0.0000000000000000e+00  -2.0716721106788268e-05 1.6531639241034182e-06 0.0000000000000000e+00  -2.1530697556332343e-05 1.5154290882511268e-06 0.0000000000000000e+00  -2.2297983009525918e-05 1.3126246364243827e-06 0.0000000000000000e+00  -2.3027160896714278e-05 1.1735362224205774e-06 0.0000000000000000e+00  -2.3700077717767304e-05 1.0143104413510124e-06 0.0000000000000000e+00  -2.4310239214118213e-05 8.9974873485775745e-07 0.0000000000000000e+00  -2.4818556093382028e-05 7.2558296477725164e-07 0.0000000000000000e+00  -2.5280490312831902e-05 6.1468746205494190e-07 0.0000000000000000e+00  -2.5674633408358440e-05 4.4960179448381807e-07 0.0000000000000000e+00  -2.5986644813624951e-05 3.4221189720373746e-07 0.0000000000000000e+00  -2.6231852929177224e-05 1.9950676561008351e-07 0.0000000000000000e+00  -2.6390635708300687e-05 9.0093801019916516e-08 0.0000000000000000e+00  -2.6544141672119723e-05 -2.8671542850990513e-08 0.0000000000000000e+00  -2.6629211579257260e-05 -1.3293000502054127e-07 0.0000000000000000e+00  -2.6622270471086527e-05 -2.5300086102213228e-07 0.0000000000000000e+00  -2.6623193883497638e-05 -3.8093495181543308e-07 0.0000000000000000e+00  -2.6547414914968308e-05 -4.5434348154906990e-07 0.0000000000000000e+00  -2.6196336026096709e-05 -2.3250388479884467e-07 0.0000000000000000e+00  -2.6154687355880954e-05 -4.2709433574692577e-07 0.0000000000000000e+00  -2.5982721361539265e-05 -5.6100694049776006e-07 0.0000000000000000e+00  -2.5733050717557482e-05 -5.8074743997365604e-07 0.0000000000000000e+00  -2.5329096437620341e-05 -4.7018485076972103e-07 0.0000000000000000e+00  -2.4948171459396312e-05 -7.0428179274351800e-07 0.0000000000000000e+00  -2.4710655356197813e-05 -9.0418678123628373e-07 0.0000000000000000e+00  -2.4314582056278407e-05 -9.1064749875650243e-07 0.0000000000000000e+00  -2.3764803902061644e-05 -8.8748031212279418e-07 0.0000000000000000e+00  -2.3336014978356976e-05 -8.7490287734367741e-07 0.0000000000000000e+00  -2.2738594205033808e-05 -7.7224062383489504e-07 0.0000000000000000e+00  -2.2352238666674320e-05 -8.7429932192969988e-07 0.0000000000000000e+00  -2.1867825874172560e-05 -9.3369661977397781e-07 0.0000000000000000e+00  -2.1354835933728406e-05 -9.4366274216362698e-07 0.0000000000000000e+00  -2.0781211635082604e-05 -9.4937940262389768e-07 0.0000000000000000e+00  -2.0248636042728943e-05 -1.0017774583724985e-06 0.0000000000000000e+00  -1.9704807398799392e-05 -1.0356861498293801e-06 0.0000000000000000e+00  -1.9095781264027101e-05 -1.1039319838730295e-06 0.0000000000000000e+00  -1.8569657585538245e-05 -1.1511019594194999e-06 0.0000000000000000e+00  -1.7844349518988730e-05 -1.2535860232189620e-06 0.0000000000000000e+00  -1.7239238820656368e-05 -1.3823125070117162e-06 0.0000000000000000e+00  -1.6812445545987041e-05 -1.2136517334304516e-06 0.0000000000000000e+00  -1.5857381005341501e-05 -9.3437454850707786e-07 0.0000000000000000e+00  -1.5618844142252398e-05 -9.4374296405882078e-07 0.0000000000000000e+00  -1.4915689546771279e-05 -6.2555117013564004e-07 0.0000000000000000e+00  -1.4285887410111821e-05 -9.1110594474940310e-07 0.0000000000000000e+00  -1.3882442314576877e-05 -1.0755139449527389e-06 0.0000000000000000e+00  -1.3314446224954766e-05 -9.9378253117584422e-07 0.0000000000000000e+00  -1.2612146818614248e-05 -9.1327666816587390e-07 0.0000000000000000e+00  -1.2116245074148814e-05 -9.2299268992353182e-07 0.0000000000000000e+00  -1.1507639554203335e-05 -8.9639428681531329e-07 0.0000000000000000e+00  -1.1011615264754685e-05 -8.8549360413391953e-07 0.0000000000000000e+00  -1.042391002578073