<?xml version="1.0"?>
<VTKFile type="UnstructuredGrid"  version="0.1"  >
<UnstructuredGrid>
<Piece  NumberOfPoints="18082" NumberOfCells="35500">
<Points>
<DataArray  type="Float64"  NumberOfComponents="3"  format="ascii">0 0 0  30 0 0  30 -10 0  0 -10 0  0.02360821169319077 0 0  0.04721642338638154 0 0  0.07206717063563725 0 0  0.09691791788489297 0 0  0.1230766011355843 0 0  0.1492352843862757 0 0  0.1767707375239038 0 0  0.204306190661532 0 0  0.2332908770901271 0 0  0.2622755635187223 0 0  0.2927857633803451 0 0  0.323295963241968 0 0  0.3554119623832387 0 0  0.3875279615245094 0 0  0.4213342730081758 0 0  0.4551405844918422 0 0  0.4907261762804851 0 0  0.526311768069128 0 0  0.5637702848355051 0 0  0.6012288016018821 0 0  0.6406588220121138 0 0  0.6800888424223455 0 0  0.721594129780935 0 0  0.7630994171395246 0 0  0.8067891887833475 0 0  0.8504789604271704 0 0  0.8964681941825949 0 0  0.9424574279380195 0 0  0.9908671465681095 0 0  1.039276865198199 0 0  1.090234462786975 0 0  1.141192060375751 0 0  1.194831641933244 0 0  1.248471223490737 0 0  1.304933942963653 0 0  1.361396662436569 0 0  1.420831104471586 0 0  1.480265546506604 0 0  1.542828113436244 0 0  1.605390680365884 0 0  1.671246013469327 0 0  1.73710134657277 0 0  1.806422752814762 0 0  1.875744159056755 0 0  1.948714057431306 0 0  2.021683955805857 0 0  2.098494373901932 0 0  2.175304791998006 0 0  2.256157866653476 0 0  2.337010941308945 0 0  2.422119443935387 0 0  2.50722794656183 0 0  2.596815840700639 0 0  2.686403734839449 0 0  2.780706776094687 0 0  2.875009817349925 0 0  2.974276175689285 0 0  3.073542534028646 0 0  3.178033441002704 0 0  3.282524347976761 0 0  3.392514777963501 0 0  3.502505207950242 0 0  3.618284608533553 0 0  3.734064009116865 0 0  3.855937062816526 0 0  3.977810116516187 0 0  4.106097541496641 0 0  4.234384966477093 0 0  4.369424362562147 0 0  4.5044637586472 0 0  4.646610489729194 0 0  4.788757220811188 0 0  4.938385356669961 0 0  5.088013492528733 0 0  5.24551679218304 0 0  5.403020091837347 0 0  5.568813038399614 0 0  5.73460598496188 0 0  5.909124878408681 0 0  6.083643771855482 0 0  6.267347873338513 0 0  6.451051974821543 0 0  6.644424714363561 0 0  6.83779745390558 0 0  7.041347702348167 0 0  7.244897950790754 0 0  7.459161368238869 0 0  7.673424785686984 0 0  7.898965226038037 0 0  8.124505666389089 0 0  8.361916654054033 0 0  8.599327641718979 0 0  8.849233942517035 0 0  9.099140243315093 0 0  9.362199507946787 0 0  9.625258772578484 0 0  9.902163261537794 0 0  10.1790677504971 0 0  10.47054616023911 0 0  10.76202456998112 0 0  11.06884394887334 0 0  11.37566332776555 0 0  11.69863109504192 0 0  12.02159886231829 0 0  12.3615649378891 0 0  12.7015310134599 0 0  13.05939003847426 0 0  13.41724906348862 0 0  13.79394276982091 0 0  14.1706364761532 0 0  14.5671561683298 0 0  14.96367586050641 0 0  15.38106501332897 0 0  15.79845416615153 0 0  16.23781117165827 0 0  16.677168177165 0 0  17.13964923659526 0 0  17.60213029602552 0 0  18.0889524622663 0 0  18.57577462850707 0 0  19.08821901304263 0 0  19.60066339757818 0 0  20.14007853843172 0 0  20.67949367928525 0 0  21.24729908993883 0 0  21.8151045005924 0 0  22.41279440541421 0 0  23.01048431023601 0 0  23.63963157605829 0 0  24.26877884188056 0 0  24.93103912515648 0 0  25.59329940843241 0 0  26.29041549584691 0 0  26.98753158326142 0 0  27.72133799026916 0 0  28.45514439727691 0 0  29.22757219863846 0 0  30 -0.3571428571428571 0  30 -0.7142857142857142 0  30 -1.071428571428571 0  30 -1.428571428571428 0  30 -1.785714285714286 0  30 -2.142857142857143 0  30 -2.5 0  30 -2.857142857142857 0  30 -3.214285714285714 0  30 -3.571428571428571 0  30 -3.928571428571428 0  30 -4.285714285714286 0  30 -4.642857142857142 0  30 -5 0  30 -5.357142857142857 0  30 -5.714285714285714 0  30 -6.071428571428571 0  30 -6.428571428571428 0  30 -6.785714285714285 0  30 -7.142857142857142 0  30 -7.5 0  30 -7.857142857142857 0  30 -8.214285714285714 0  30 -8.571428571428571 0  30 -8.928571428571427 0  30 -9.285714285714285 0  30 -9.642857142857142 0  29.22757220128658 -10 0  28.45514440257316 -10 0  27.72133799277628 -10 0  26.98753158297939 -10 0  26.29041549304805 -10 0  25.5932994031167 -10 0  24.93103911757599 -10 0  24.26877883203527 -10 0  23.63963156418132 -10 0  23.01048429632737 -10 0  22.41279438968936 -10 0  21.81510448305136 -10 0  21.24729907078059 -10 0  20.67949365850982 -10 0  20.14007851622273 -10 0  19.60066337393564 -10 0  19.08821898813588 -10 0  18.57577460233611 -10 0  18.08895243498708 -10 0  17.60213026763805 -10 0  17.13964920724307 -10 0  16.6771681468481 -10 0  16.2378111405086 -10 0  15.79845413416909 -10 0  15.38106498063496 -10 0  14.96367582710082 -10 0  14.56715613432376 -10 0  14.17063644154669 -10 0  13.79394273471576 -10 0  13.41724902788484 -10 0  13.05939000246495 -10 0  12.70153097704506 -10 0  12.36156490115379 -10 0  12.02159882526251 -10 0  11.69863105774323 -10 0  11.37566329022395 -10 0  11.06884391115945 -10 0  10.76202453209494 -10 0  10.47054612224479 -10 0  10.17906771239465 -10 0  9.902163223385379 -10 0  9.625258734376107 -10 0  9.362199469747061 -10 0  9.099140205118012 -10 0  8.849233904370102 -10 0  8.599327603622193 -10 0  8.361916616050124 -10 0  8.124505628478055 -10 0  7.898965188258209 -10 0  7.673424748038361 -10 0  7.459161330755727 -10 0  7.244897913473093 -10 0  7.041347665226496 -10 0  6.837797416979896 -10 0  6.644424677660922 -10 0  6.451051938341948 -10 0  6.26734783710581 -10 0  6.083643735869675 -10 0  5.90912484269068 -10 0  5.734605949511682 -10 0  5.568813003235423 -10 0  5.403020056959164 -10 0  5.24551675760658 -10 0  5.088013458254 -10 0  4.938385322710374 -10 0  4.788757187166745 -10 0  4.646610456411224 -10 0  4.504463725655707 -10 0  4.369424329906533 -10 0  4.234384934157362 -10 0  4.106097509520442 -10 0  3.977810084883522 -10 0  3.85593703153344 -10 0  3.734063978183357 -10 0  3.618284577954206 -10 0  3.502505177725055 -10 0  3.392514748095728 -10 0  3.282524318466404 -10 0  3.1780334118518 -10 0  3.073542505237196 -10 0  2.97427614725823 -10 0  2.875009789279265 -10 0  2.780706748384375 -10 0  2.686403707489482 -10 0  2.596815813710069 -10 0  2.507227919930656 -10 0  2.422119417661861 -10 0  2.337010915393062 -10 0  2.256157841092762 -10 0  2.175304766792465 -10 0  2.098494349048437 -10 0  2.021683931304413 -10 0  1.948714033278215 -10 0  1.875744135252013 -10 0  1.806422729354161 -10 0  1.737101323456312 -10 0  1.671245990692352 -10 0  1.605390657928396 -10 0  1.542828091333185 -10 0  1.480265524737977 -10 0  1.420831083031992 -10 0  1.36139664132601 -10 0  1.304933922176438 -10 0  1.248471203026863 -10 0  1.194831621786765 -10 0  1.14119204054667 -10 0  1.09023444350921 -10 0  1.039276846471754 -10 0  0.9908671279064798 -10 0  0.942457409341209 -10 0  0.8964681758842019 -10 0  0.8504789424271948 -10 0  0.8067891710751951 -10 0  0.7630993997231954 -10 0  0.7215941126497469 -10 0  0.6800888255762949 -10 0  0.6406588054444597 -10 0  0.6012287853126246 -10 0  0.5637702688178621 -10 0  0.5263117523230996 -10 0  0.4907261607992695 -10 0  0.4551405692754429 -10 0  0.4213342580497894 -10 0  0.3875279468241395 -10 0  0.3554119479341011 -10 0  0.3232959490440663 -10 0  0.2927857494269297 -10 0  0.2622755498097931 -10 0  0.2332908636189828 -10 0  0.2043061774281725 -10 0  0.1767707245216883 -10 0  0.1492352716152006 -10 0  0.1230765885890825 -10 0  0.09691790556296098 -10 0  0.0720671585317838 -10 0  0.04721641150060663 -10 0  0.02360820575030331 -10 0  0 -9.972067039106145 0  0 -9.94413407821229 0  0 -9.916201117318435 0  0 -9.888268156424582 0  0 -9.860335195530727 0  0 -9.832402234636872 0  0 -9.804469273743017 0  0 -9.776536312849162 0  0 -9.748603351955307 0  0 -9.720670391061452 0  0 -9.692737430167599 0  0 -9.664804469273744 0  0 -9.636871508379889 0  0 -9.608938547486034 0  0 -9.581005586592179 0  0 -9.553072625698324 0  0 -9.525139664804469 0  0 -9.497206703910614 0  0 -9.46927374301676 0  0 -9.441340782122905 0  0 -9.41340782122905 0  0 -9.385474860335195 0  0 -9.35754189944134 0  0 -9.329608938547485 0  0 -9.30167597765363 0  0 -9.273743016759777 0  0 -9.245810055865922 0  0 -9.217877094972067 0  0 -9.189944134078212 0  0 -9.162011173184357 0  0 -9.134078212290502 0  0 -9.106145251396647 0  0 -9.078212290502794 0  0 -9.050279329608939 0  0 -9.022346368715084 0  0 -8.994413407821229 0  0 -8.966480446927374 0  0 -8.938547486033519 0  0 -8.910614525139664 0  0 -8.882681564245811 0  0 -8.854748603351956 0  0 -8.826815642458101 0  0 -8.798882681564246 0  0 -8.770949720670391 0  0 -8.743016759776536 0  0 -8.715083798882681 0  0 -8.687150837988828 0  0 -8.659217877094973 0  0 -8.631284916201118 0  0 -8.603351955307263 0  0 -8.575418994413408 0  0 -8.547486033519553 0  0 -8.519553072625698 0  0 -8.491620111731844 0  0 -8.463687150837989 0  0 -8.435754189944134 0  0 -8.407821229050279 0  0 -8.379888268156424 0  0 -8.351955307262569 0  0 -8.324022346368714 0  0 -8.296089385474861 0  0 -8.268156424581006 0  0 -8.240223463687151 0  0 -8.212290502793296 0  0 -8.184357541899441 0  0 -8.156424581005586 0  0 -8.128491620111731 0  0 -8.100558659217878 0  0 -8.072625698324023 0  0 -8.044692737430168 0  0 -8.016759776536313 0  0 -7.988826815642458 0  0 -7.960893854748603 0  0 -7.932960893854748 0  0 -7.905027932960894 0  0 -7.877094972067039 0  0 -7.849162011173184 0  0 -7.82122905027933 0  0 -7.793296089385475 0  0 -7.76536312849162 0  0 -7.737430167597765 0  0 -7.709497206703911 0  0 -7.681564245810056 0  0 -7.653631284916202 0  0 -7.625698324022347 0  0 -7.597765363128492 0  0 -7.569832402234637 0  0 -7.541899441340782 0  0 -7.513966480446927 0  0 -7.486033519553073 0  0 -7.458100558659218 0  0 -7.430167597765363 0  0 -7.402234636871508 0  0 -7.374301675977653 0  0 -7.346368715083798 0  0 -7.318435754189944 0  0 -7.290502793296089 0  0 -7.262569832402235 0  0 -7.23463687150838 0  0 -7.206703910614525 0  0 -7.17877094972067 0  0 -7.150837988826815 0  0 -7.12290502793296 0  0 -7.094972067039106 0  0 -7.067039106145251 
[...]
<PointData  Vectors="flow"> 
<DataArray  type="Float64"  Name="flow"  NumberOfComponents="3" format="ascii">3.1523776321158879e-03 -6.7084927914976382e-03 0.0000000000000000e+00  -5.1178352656777336e-07 9.0176616136948911e-06 0.0000000000000000e+00  3.3865203840887711e-08 -5.3459794065331077e-07 0.0000000000000000e+00  1.3901714111308185e-07 -3.7655133969071943e-07 0.0000000000000000e+00  -6.4569135409885559e-04 -4.2867863627481535e-03 0.0000000000000000e+00  -3.1516056051860683e-04 -6.2637264409409234e-05 0.0000000000000000e+00  2.0458114537210599e-04 9.6197520243311986e-04 0.0000000000000000e+00  -8.5551508230456534e-04 2.5714058515879956e-03 0.0000000000000000e+00  3.1537255483908875e-04 3.2058767970927437e-03 0.0000000000000000e+00  -7.0416782998364576e-05 3.2611008520462116e-03 0.0000000000000000e+00  -3.0427895714009259e-05 4.9198633791710982e-03 0.0000000000000000e+00  1.2117551871975831e-05 7.4823703260391448e-03 0.0000000000000000e+00  -2.7287881817152313e-05 1.0658729923683255e-02 0.0000000000000000e+00  -4.7731182733383046e-05 1.3859565331647417e-02 0.0000000000000000e+00  9.2766002839534030e-06 1.6731084882657166e-02 0.0000000000000000e+00  1.7194968352031645e-06 1.8750756693259894e-02 0.0000000000000000e+00  -3.8370916071172458e-05 2.0157281091087630e-02 0.0000000000000000e+00  1.8796678524016672e-04 2.0531499137457273e-02 0.0000000000000000e+00  -7.6528611234624313e-05 2.0426940423976851e-02 0.0000000000000000e+00  1.2911423334547965e-04 1.9886895125236399e-02 0.0000000000000000e+00  -4.0982860097077824e-05 1.8971531659919039e-02 0.0000000000000000e+00  1.1413550943085197e-04 1.7795935418085811e-02 0.0000000000000000e+00  -4.0645561358653410e-05 1.6630927839339914e-02 0.0000000000000000e+00  7.4021091254918188e-05 1.5392893840540699e-02 0.0000000000000000e+00  -5.4792094120899361e-05 1.4180741111321086e-02 0.0000000000000000e+00  1.3956285362533633e-04 1.2921047912892785e-02 0.0000000000000000e+00  4.8036360283539878e-05 1.1635360441813044e-02 0.0000000000000000e+00  -2.1320208471359688e-04 1.0855429703201967e-02 0.0000000000000000e+00  -1.3170161645995923e-05 1.0199304976258903e-02 0.0000000000000000e+00  1.4133956891724798e-04 9.0476852204121223e-03 0.0000000000000000e+00  -6.5563168692001769e-05 8.3603203851634455e-03 0.0000000000000000e+00  1.4277801509064212e-04 7.5027331215424195e-03 0.0000000000000000e+00  3.4047620661972988e-06 6.8136558034895250e-03 0.0000000000000000e+00  -5.6098081847843164e-05 6.3476398841419927e-03 0.0000000000000000e+00  1.0083997386087781e-05 5.8172060267568017e-03 0.0000000000000000e+00  -9.5386015874368576e-06 5.3531787815260905e-03 0.0000000000000000e+00  -1.2953876273387272e-05 4.9600308797431584e-03 0.0000000000000000e+00  4.6837965208930751e-05 4.5185444157867629e-03 0.0000000000000000e+00  -1.0765159949384193e-05 4.1451672173281294e-03 0.0000000000000000e+00  1.2252669291235769e-05 3.8149109831259508e-03 0.0000000000000000e+00  -7.5592311325799078e-06 3.5421783092623423e-03 0.0000000000000000e+00  2.2929375306826307e-05 3.2495959778328738e-03 0.0000000000000000e+00  -2.2474754416099414e-05 3.0262454768023635e-03 0.0000000000000000e+00  6.8117667723830829e-05 2.7368007826874662e-03 0.0000000000000000e+00  -2.0759216889002861e-06 2.4855633233843155e-03 0.0000000000000000e+00  -2.6649781300951275e-05 2.3485704866582362e-03 0.0000000000000000e+00  4.7385335248422994e-06 2.1940725705205098e-03 0.0000000000000000e+00  -1.3326824432715070e-06 2.0353155378652677e-03 0.0000000000000000e+00  -3.3681115814449664e-08 1.8980880793020654e-03 0.0000000000000000e+00  2.7590096373758919e-06 1.7649814771818393e-03 0.0000000000000000e+00  7.9451933818487281e-07 1.6394462134644927e-03 0.0000000000000000e+00  -3.9865712264145876e-06 1.5338460180527962e-03 0.0000000000000000e+00  -4.7300510780161635e-06 1.4433663156795068e-03 0.0000000000000000e+00  2.0890303082612181e-05 1.3236203159933734e-03 0.0000000000000000e+00  -6.2310399101624536e-06 1.2255447550939250e-03 0.0000000000000000e+00  1.0175952344685981e-05 1.1409738161329978e-03 0.0000000000000000e+00  -2.0784277472570777e-06 1.0620204536347171e-03 0.0000000000000000e+00  2.8578240144224726e-06 9.9293537781094238e-04 0.0000000000000000e+00  -4.8234696663084305e-06 9.3446037732341591e-04 0.0000000000000000e+00  1.7117900288252784e-05 8.6104256733335305e-04 0.0000000000000000e+00  -3.7771611122323500e-06 7.9690615121157950e-04 0.0000000000000000e+00  4.8906311289756071e-06 7.4522620080309126e-04 0.0000000000000000e+00  -7.7378303466454741e-07 6.9847609487518720e-04 0.0000000000000000e+00  9.1429555524122900e-07 6.5662677163331172e-04 0.0000000000000000e+00  -1.7583858331013099e-06 6.1724499136301032e-04 0.0000000000000000e+00  6.1639000032722445e-06 5.7236892858218518e-04 0.0000000000000000e+00  -5.9360590068715710e-06 5.4497572147837786e-04 0.0000000000000000e+00  2.3301540909685145e-05 4.8776716487596814e-04 0.0000000000000000e+00  -2.0858577453632477e-06 4.4256073711630933e-04 0.0000000000000000e+00  -5.7215399322218733e-06 4.2732854451935608e-04 0.0000000000000000e+00  5.4430253085964886e-07 4.0447490572035390e-04 0.0000000000000000e+00  2.6336959424428460e-06 3.7869037998005029e-04 0.0000000000000000e+00  -3.3785249531883630e-07 3.5405376856804043e-04 0.0000000000000000e+00  -3.9053725391336451e-07 3.3463815297219394e-04 0.0000000000000000e+00  3.9025025925142215e-08 3.1586689091466982e-04 0.0000000000000000e+00  3.7843971143870748e-07 2.9670908786601707e-04 0.0000000000000000e+00  -1.0957371309015411e-07 2.7981047456024176e-04 0.0000000000000000e+00  6.3787253454626570e-07 2.6259320848988864e-04 0.0000000000000000e+00  -1.6945338275509232e-07 2.4706857350639849e-04 0.0000000000000000e+00  7.7046624332846987e-07 2.3158025200405383e-04 0.0000000000000000e+00  -1.4963607690480163e-06 2.1942410874396323e-04 0.0000000000000000e+00  7.5707704310392452e-06 1.9833458652896929e-04 0.0000000000000000e+00  -8.9948657980631803e-07 1.7977487750487552e-04 0.0000000000000000e+00  -1.1162452922503607e-07 1.7193051197039605e-04 0.0000000000000000e+00  2.6236992336040561e-07 1.6033825728719645e-04 0.0000000000000000e+00  -1.5273969783510325e-06 1.5220866083330109e-04 0.0000000000000000e+00  1.3299520025144977e-07 1.4490436777993694e-04 0.0000000000000000e+00  8.7682696249419543e-07 1.3434606722514876e-04 0.0000000000000000e+00  -6.3664118191895680e-07 1.2640284317342300e-04 0.0000000000000000e+00  2.5959149839341552e-06 1.1533327922879540e-04 0.0000000000000000e+00  -1.0447064321882454e-06 1.0745441473295012e-04 0.0000000000000000e+00  4.3717956437979141e-06 9.5991965109218884e-05 0.0000000000000000e+00  -4.0443751320466457e-07 8.6414167918161976e-05 0.0000000000000000e+00  -7.0967428811263597e-07 8.2591167884188575e-05 0.0000000000000000e+00  1.1058934609991214e-06 7.5868188921813644e-05 0.0000000000000000e+00  -5.9720040390051886e-06 7.4854937619529501e-05 0.0000000000000000e+00  -6.0763234348777146e-08 8.1340974677153132e-05 0.0000000000000000e+00  4.9424302862851920e-06 6.4298320869761262e-05 0.0000000000000000e+00  -3.1517755561912509e-07 5.6591767454166787e-05 0.0000000000000000e+00  -6.8373711850893401e-07 5.4131819529420564e-05 0.0000000000000000e+00  -8.6769191315086667e-08 5.0649316027579210e-05 0.0000000000000000e+00  1.0336572440060045e-06 4.5813661796154183e-05 0.0000000000000000e+00  -2.9565639763820946e-07 4.1939977560772795e-05 0.0000000000000000e+00  1.1382646108406168e-06 3.7869568221552662e-05 0.0000000000000000e+00  -1.5471718287243776e-07 3.4174359972124810e-05 0.0000000000000000e+00  4.1061151452008218e-07 3.1429092348348078e-05 0.0000000000000000e+00  -1.3584649713309422e-08 2.8743923264543244e-05 0.0000000000000000e+00  1.6545592554041784e-07 2.6570712439150380e-05 0.0000000000000000e+00  -4.7762453604099190e-08 2.4576107469643197e-05 0.0000000000000000e+00  4.3502123208896626e-07 2.2455482215990799e-05 0.0000000000000000e+00  -1.8608271967923924e-07 2.0766040300134168e-05 0.0000000000000000e+00  1.3021799559467000e-06 1.8222924153089445e-05 0.0000000000000000e+00  -1.1991635213337745e-08 1.5951343007660585e-05 0.0000000000000000e+00  -6.3498060690692401e-07 1.5734193187894486e-05 0.0000000000000000e+00  1.0934566176070914e-07 1.5496967827152275e-05 0.0000000000000000e+00  -1.8519694887634456e-07 1.4885420958434305e-05 0.0000000000000000e+00  4.8483827514787675e-08 1.4436842214898827e-05 0.0000000000000000e+00  -2.4601602149689530e-07 1.4063874197546374e-05 0.0000000000000000e+00  3.0584432497555388e-08 1.3935639341374064e-05 0.0000000000000000e+00  2.5519309005076791e-07 1.3071738734804247e-05 0.0000000000000000e+00  -7.1942460217968746e-08 1.2501906321172347e-05 0.0000000000000000e+00  5.6112145458803792e-07 1.1605036865194784e-05 0.0000000000000000e+00  1.3757274256131922e-08 1.0743596615831863e-05 0.0000000000000000e+00  -8.4296574875337097e-07 1.1387616701157161e-05 0.0000000000000000e+00  -2.3383919997943813e-07 1.3008936415660313e-05 0.0000000000000000e+00  5.0992318469016225e-07 9.3944104911733286e-06 0.0000000000000000e+00  8.2853088599525906e-08 1.0335701587425576e-05 0.0000000000000000e+00  -3.7296706954389528e-08 1.0045037722732688e-05 0.0000000000000000e+00  -1.7987137079003297e-08 1.0298468369678847e-05 0.0000000000000000e+00  -2.4402789187113894e-07 1.0095533059987821e-05 0.0000000000000000e+00  -2.2116080482614038e-07 1.0895578701753681e-05 0.0000000000000000e+00  5.2207320166162297e-07 7.4925944599558796e-06 0.0000000000000000e+00  1.4487296197022991e-07 8.0752914550658632e-06 0.0000000000000000e+00  -2.2853741935279810e-07 8.1067924732556135e-06 0.0000000000000000e+00  6.4798860422576669e-08 8.2840511014007198e-06 0.0000000000000000e+00  -6.0659094749522036e-08 8.2127653533741238e-06 0.0000000000000000e+00  -2.9044153281326907e-08 8.2675908346629302e-06 0.0000000000000000e+00  2.7150022965113715e-07 7.9480093637460956e-06 0.0000000000000000e+00  -2.1373008742608298e-07 7.6722148094913043e-06 0.0000000000000000e+00  -4.0218215098135160e-07 8.2613962406520241e-06 0.0000000000000000e+00  1.7276012204481012e-07 9.2487291073243068e-06 0.0000000000000000e+00  1.5588169453188075e-06 9.9106315307455159e-07 0.0000000000000000e+00  -7.1728511444148553e-07 -1.3565144172375309e-07 0.0000000000000000e+00  1.3208247322400903e-07 3.3494774122245057e-07 0.0000000000000000e+00  1.0634679910055025e-07 -4.6588779406681495e-07 0.0000000000000000e+00  -5.7017176692959463e-09 2.5080556477700035e-08 0.0000000000000000e+00  4.1657724300500002e-09 -9.6340315344344548e-08 0.0000000000000000e+00  1.7249621745329341e-08 -1.5491081149481116e-07 0.0000000000000000e+00  -1.3371819062827452e-09 -9.7905543100483413e-08 0.0000000000000000e+00  5.9334237810997696e-09 -9.1786791099634192e-08 0.0000000000000000e+00  1.9010279886889814e-08 -1.0306229590496690e-07 0.0000000000000000e+00  3.1094307825383251e-10 -1.4125509285913566e-07 0.0000000000000000e+00  -2.5175193175961550e-08 -9.7541769612619593e-08 0.0000000000000000e+00  -3.6229191231777541e-08 -1.3174048413827715e-07 0.0000000000000000e+00  -3.0986726655544080e-08 -1.3921301090204152e-07 0.0000000000000000e+00  -2.4268113765013595e-09 -9.8121081883760427e-08 0.0000000000000000e+00  1.6592510962582589e-08 -1.4921898199913891e-07 0.0000000000000000e+00  3.2340899421344545e-08 -1.7169594530618874e-07 0.0000000000000000e+00  2.2958935839316712e-08 -1.3788526286731559e-07 0.0000000000000000e+00  2.3204033115993173e-08 -1.2544185829484079e-07 0.0000000000000000e+00  1.8223491129884917e-08 -1.2389844771163224e-07 0.0000000000000000e+00  -4.4206136260682227e-09 -2.3299596798123528e-07 0.0000000000000000e+00  -5.7591957231784074e-08 -1.6598798068517599e-07 0.0000000000000000e+00  -6.5324882184713990e-08 -1.4788448767109038e-07 0.0000000000000000e+00  -4.7484870965586196e-08 -1.9658934389731016e-07 0.0000000000000000e+00  -6.9834661001576703e-08 5.7014297913829498e-08 0.0000000000000000e+00  -1.3931948854678256e-07 -9.5840483149456232e-08 0.0000000000000000e+00  -2.8528415968487322e-07 -5.3050253826383778e-07 0.0000000000000000e+00  -9.6335238855413408e-10 -3.8617260681309260e-07 0.0000000000000000e+00  -1.4712254570913101e-07 -5.3168338689213619e-07 0.0000000000000000e+00  1.0940818565598241e-07 -5.2778831422147372e-07 0.0000000000000000e+00  -1.5121199308896740e-08 -7.0682262264502825e-07 0.0000000000000000e+00  1.4325213653237527e-08 -6.3616840633005539e-07 0.0000000000000000e+00  3.1939272359596012e-08 -7.1875066001286713e-07 0.0000000000000000e+00  3.7254624644922797e-08 -7.2704271604042977e-07 0.0000000000000000e+00  2.3845451544767301e-09 -7.8509348851774455e-07 0.0000000000000000e+00  9.7240183149805471e-08 -8.1342197163910901e-07 0.0000000000000000e+00  6.4812563527003428e-08 -8.4881554156402386e-07 0.0000000000000000e+00  5.3052464291883854e-08 -8.4078899776294191e-07 0.0000000000000000e+00  3.3110769686727784e-07 -7.6746261138775322e-07 0.0000000000000000e+00  1.4049474181542231e-07 -8.0696802926943200e-07 0.0000000000000000e+00  2.5493839169422610e-07 -7.8147723354158032e-07 0.0000000000000000e+00  2.0681563099762908e-07 -8.4235281260091091e-07 0.0000000000000000e+00  3.1434553643801356e-07 -8.5063629734207565e-07 0.0000000000000000e+00  2.9941124693962050e-07 -8.6085467198586873e-07 0.0000000000000000e+00  4.0890755964772388e-07 -8.3698430041732774e-07 0.0000000000000000e+00  3.6661571126836189e-07 -7.9161071926134841e-07 0.0000000000000000e+00  5.7833370897561511e-07 -7.0192418265449670e-07 0.0000000000000000e+00  4.9649191859476339e-07 -6.6743297348944404e-07 0.0000000000000000e+00  6.2826070014474643e-07 -5.9999199030891782e-07 0.0000000000000000e+00  5.5891596629903043e-07 -5.5224536278559775e-07 0.0000000000000000e+00  5.9662597462316163e-07 -5.4522022890812402e-07 0.0000000000000000e+00  8.0713144901387611e-07 -4.6671277082622947e-07 0.0000000000000000e+00  8.3600928626059491e-07 -3.0689630763017046e-07 0.0000000000000000e+00  7.6350769532728097e-07 -2.4670639913953029e-07 0.0000000000000000e+00  9.1594041324482836e-07 -8.9078732362474548e-08 0.0000000000000000e+00  9.2785851543473427e-07 -2.4623211944654431e-09 0.0000000000000000e+00  9.3043714412695211e-07 1.7264463494987274e-07 0.0000000000000000e+00  9.2054010790959218e-07 2.3055297203527494e-07 0.0000000000000000e+00  9.6873531998373733e-07 3.8365194994687489e-07 0.0000000000000000e+00  9.5876873743061294e-07 5.0559755989522945e-07 0.0000000000000000e+00  9.5195864338522355e-07 6.6556392490044190e-07 0.0000000000000000e+00  9.5697149137954840e-07 8.2279720863597565e-07 0.0000000000000000e+00  9.1440885154943280e-07 1.0051616022892740e-06 0.0000000000000000e+00  8.6817457025548650e-07 1.1908381459272977e-06 0.0000000000000000e+00  8.5907072316764122e-07 1.4248187774493979e-06 0.0000000000000000e+00  7.8018091096351348e-07 1.5597910207642928e-06 0.0000000000000000e+00  3.2357726312887698e-07 1.6380938801921226e-06 0.0000000000000000e+00  3.7142310995048058e-07 1.6304065812210423e-06 0.0000000000000000e+00  2.3229659501127842e-07 1.6568566623395815e-06 0.0000000000000000e+00  1.7665672947700193e-07 1.7445247106327364e-06 0.0000000000000000e+00  -1.1235272414257247e-07 1.8071171071049285e-06 0.0000000000000000e+00  -1.7131762825504866e-07 1.8756175785891795e-06 0.0000000000000000e+00  -4.4071162953638617e-07 1.9464715921154631e-06 0.0000000000000000e+00  -5.9945872527046961e-07 2.0253433423928600e-06 0.0000000000000000e+00  -8.3357319658111904e-07 2.1589445987905672e-06 0.0000000000000000e+00  -9.0686290269593101e-07 2.2703369939919966e-06 0.0000000000000000e+00  -1.1199214538726405e-06 2.5167707788244869e-06 0.0000000000000000e+00  -1.7359632668969557e-06 2.5611977357082539e-06 0.0000000000000000e+00  -2.3057092003650743e-06 2.4185100637031140e-06 0.0000000000000000e+00  -1.9657819110193213e-06 2.2637878262424800e-06 0.0000000000000000e+00  -2.3415700775578897e-06 2.3061143986165669e-06 0.0000000000000000e+00  -2.8915133778802166e-06 2.3303866129081408e-06 0.0000000000000000e+00  -3.4285808491489685e-06 2.1226028081574980e-06 0.0000000000000000e+00  -3.5203463593837128e-06 1.9514331010038351e-06 0.0000000000000000e+00  -3.7734019058203609e-06 1.7996881762065543e-06 0.0000000000000000e+00  -3.9453290122325689e-06 1.7622682405528510e-06 0.0000000000000000e+00  -4.2622611300422645e-06 1.6510554559586592e-06 0.0000000000000000e+00  -4.4732313598114929e-06 1.5860299051578392e-06 0.0000000000000000e+00  -4.7967203927940481e-06 1.4503618077257164e-06 0.0000000000000000e+00  -5.0235016572494688e-06 1.3772918935618349e-06 0.0000000000000000e+00  -5.3031348381621209e-06 1.2211272362410268e-06 0.0000000000000000e+00  -5.4550714426505900e-06 1.1405404850119046e-06 0.0000000000000000e+00  -5.7218595142800389e-06 9.7234942129645604e-07 0.0000000000000000e+00  -5.8804466034711818e-06 8.9217711616239295e-07 0.0000000000000000e+00  -6.1167849573178000e-06 7.6148575491591994e-07 0.0000000000000000e+00  -6.2724193364693953e-06 6.8763108702241715e-07 0.0000000000000000e+00  -6.4327681285294651e-06 5.5349751399786024e-07 0.0000000000000000e+00  -6.5490360257611582e-06 4.8454747617938658e-07 0.0000000000000000e+00  -6.6916850640569416e-06 3.4934775220604779e-07 0.0000000000000000e+00  -6.7649023315203428e-06 2.8888301297077588e-07 0.0000000000000000e+00  -6.8518219440963095e-06 1.6974290873714593e-07 0.0000000000000000e+00  -6.8671186317257618e-06 1.0287089602972844e-07 0.0000000000000000e+00  -6.9449071147566287e-06 1.1833953638002688e-08 0.0000000000000000e+00  -6.9807037761526346e-06 -6.1684081860245577e-08 0.0000000000000000e+00  -6.9742070558419092e-06 -1.5380620133477366e-07 0.0000000000000000e+00  -7.0657470303382216e-06 -2.2785924344624336e-07 0.0000000000000000e+00  -6.9766437939035667e-06 -3.1685829915073689e-07 0.0000000000000000e+00  -6.7714775914373909e-06 -1.5416983404534407e-07 0.0000000000000000e+00  -6.9038807829359393e-06 -2.8092697954077968e-07 0.0000000000000000e+00  -6.9031069399142517e-06 -3.5351467027217709e-07 0.0000000000000000e+00  -6.8282611746658063e-06 -3.8743332271285970e-07 0.0000000000000000e+00  -6.6535166856186468e-06 -3.3829261563544391e-07 0.0000000000000000e+00  -6.5916569173336152e-06 -4.6426339951657003e-07 0.0000000000000000e+00  -6.6048021957402351e-06 -5.9724087205323264e-07 0.0000000000000000e+00  -6.4932441240805261e-06 -6.2743283171922690e-07 0.0000000000000000e+00  -6.3183033326953962e-06 -5.9898127442161239e-07 0.0000000000000000e+00  -6.1318604192118059e-06 -6.0962692393859043e-07 0.0000000000000000e+00  -5.9554710218616695e-06 -5.4569963997850822e-07 0.0000000000000000e+00  -5.9420347783733414e-06 -6.0006068663744575e-07 0.0000000000000000e+00  -5.8411487850348657e-06 -6.3607288140012928e-07 0.0000000000000000e+00  -5.6927302223470111e-06 -6.4985045321983201e-07 0.0000000000000000e+00  -5.5407416709467744e-06 -6.5550738703377641e-07 0.0000000000000000e+00  -5.4154029259704569e-06 -6.8794318538370472e-07 0.0000000000000000e+00  -5.2843407854020090e-06 -7.1582315184928913e-07 0.0000000000000000e+00  -5.1285530621265303e-06 -7.5602167806250925e-07 0.0000000000000000e+00  -4.9814682625766074e-06 -7.9974206055655003e-07 0.0000000000000000e+00  -4.7578370363500606e-06 -8.5651071864265067e-07 0.0000000000000000e+00  -4.6184084873043200e-06 -9.1950943498887790e-07 0.0000000000000000e+00  -4.4210787537906572e-06 -8.3659518060738493e-07 0.0000000000000000e+00  -4.1136018435456865e-06 -6.4512109964840696e-07 0.0000000000000000e+00  -4.1615989398535701e-06 -6.4062094493916431e-07 0.0000000000000000e+00  -3.9611350962139185e-06 -4.5134997072053808e-07 0.0000000000000000e+00  -3.8201573280971298e-06 -6.1550980656741718e-07 0.0000000000000000e+00  -3.7506608392122871e-06 -7.0633707792887671e-07 0.0000000000000000e+00  -3.5955559419663639e-06 -6.6947400351611934e-07 0.0000000000000000e+00  -3.3708453202363705e-06 -6.2334798007946187e-07 0.0000000000000000e+00  -3.2268352661629636e-06 -6.2142765579170035e-07 0.0000000000000000e+00  -3.0546548343907736e-06 -6.0576210094776871e-07 0.0000000000000000e+00  -2.9228492724312641e-06 -5.9706214946271768e-07 0.0000000000000000e+00  -2.7609918515634104e-06 -5.90265460158