<?xml version="1.0"?>
<VTKFile type="UnstructuredGrid"  version="0.1"  >
<UnstructuredGrid>
<Piece  NumberOfPoints="13179" NumberOfCells="25814">
<Points>
<DataArray  type="Float64"  NumberOfComponents="3"  format="ascii">0 0 0  30 0 0  30 -10 0  0 -10 0  0.02360821169319077 0 0  0.04721642338638154 0 0  0.07206717063563725 0 0  0.09691791788489297 0 0  0.1230766011355843 0 0  0.1492352843862757 0 0  0.1767707375239038 0 0  0.204306190661532 0 0  0.2332908770901271 0 0  0.2622755635187223 0 0  0.2927857633803451 0 0  0.323295963241968 0 0  0.3554119623832387 0 0  0.3875279615245094 0 0  0.4213342730081758 0 0  0.4551405844918422 0 0  0.4907261762804851 0 0  0.526311768069128 0 0  0.5637702848355051 0 0  0.6012288016018821 0 0  0.6406588220121138 0 0  0.6800888424223455 0 0  0.721594129780935 0 0  0.7630994171395246 0 0  0.8067891887833475 0 0  0.8504789604271704 0 0  0.8964681941825949 0 0  0.9424574279380195 0 0  0.9908671465681095 0 0  1.039276865198199 0 0  1.090234462786975 0 0  1.141192060375751 0 0  1.194831641933244 0 0  1.248471223490737 0 0  1.304933942963653 0 0  1.361396662436569 0 0  1.420831104471586 0 0  1.480265546506604 0 0  1.542828113436244 0 0  1.605390680365884 0 0  1.671246013469327 0 0  1.73710134657277 0 0  1.806422752814762 0 0  1.875744159056755 0 0  1.948714057431306 0 0  2.021683955805857 0 0  2.098494373901932 0 0  2.175304791998006 0 0  2.256157866653476 0 0  2.337010941308945 0 0  2.422119443935387 0 0  2.50722794656183 0 0  2.596815840700639 0 0  2.686403734839449 0 0  2.780706776094687 0 0  2.875009817349925 0 0  2.974276175689285 0 0  3.073542534028646 0 0  3.178033441002704 0 0  3.282524347976761 0 0  3.392514777963501 0 0  3.502505207950242 0 0  3.618284608533553 0 0  3.734064009116865 0 0  3.855937062816526 0 0  3.977810116516187 0 0  4.106097541496641 0 0  4.234384966477093 0 0  4.369424362562147 0 0  4.5044637586472 0 0  4.646610489729194 0 0  4.788757220811188 0 0  4.938385356669961 0 0  5.088013492528733 0 0  5.24551679218304 0 0  5.403020091837347 0 0  5.568813038399614 0 0  5.73460598496188 0 0  5.909124878408681 0 0  6.083643771855482 0 0  6.267347873338513 0 0  6.451051974821543 0 0  6.644424714363561 0 0  6.83779745390558 0 0  7.041347702348167 0 0  7.244897950790754 0 0  7.459161368238869 0 0  7.673424785686984 0 0  7.898965226038037 0 0  8.124505666389089 0 0  8.361916654054033 0 0  8.599327641718979 0 0  8.849233942517035 0 0  9.099140243315093 0 0  9.362199507946787 0 0  9.625258772578484 0 0  9.902163261537794 0 0  10.1790677504971 0 0  10.47054616023911 0 0  10.76202456998112 0 0  11.06884394887334 0 0  11.37566332776555 0 0  11.69863109504192 0 0  12.02159886231829 0 0  12.3615649378891 0 0  12.7015310134599 0 0  13.05939003847426 0 0  13.41724906348862 0 0  13.79394276982091 0 0  14.1706364761532 0 0  14.5671561683298 0 0  14.96367586050641 0 0  15.38106501332897 0 0  15.79845416615153 0 0  16.23781117165827 0 0  16.677168177165 0 0  17.13964923659526 0 0  17.60213029602552 0 0  18.0889524622663 0 0  18.57577462850707 0 0  19.08821901304263 0 0  19.60066339757818 0 0  20.14007853843172 0 0  20.67949367928525 0 0  21.24729908993883 0 0  21.8151045005924 0 0  22.41279440541421 0 0  23.01048431023601 0 0  23.63963157605829 0 0  24.26877884188056 0 0  24.93103912515648 0 0  25.59329940843241 0 0  26.29041549584691 0 0  26.98753158326142 0 0  27.72133799026916 0 0  28.45514439727691 0 0  29.22757219863846 0 0  30 -0.3571428571428571 0  30 -0.7142857142857142 0  30 -1.071428571428571 0  30 -1.428571428571428 0  30 -1.785714285714286 0  30 -2.142857142857143 0  30 -2.5 0  30 -2.857142857142857 0  30 -3.214285714285714 0  30 -3.571428571428571 0  30 -3.928571428571428 0  30 -4.285714285714286 0  30 -4.642857142857142 0  30 -5 0  30 -5.357142857142857 0  30 -5.714285714285714 0  30 -6.071428571428571 0  30 -6.428571428571428 0  30 -6.785714285714285 0  30 -7.142857142857142 0  30 -7.5 0  30 -7.857142857142857 0  30 -8.214285714285714 0  30 -8.571428571428571 0  30 -8.928571428571427 0  30 -9.285714285714285 0  30 -9.642857142857142 0  29.22757220128658 -10 0  28.45514440257316 -10 0  27.72133799277628 -10 0  26.98753158297939 -10 0  26.29041549304805 -10 0  25.5932994031167 -10 0  24.93103911757599 -10 0  24.26877883203527 -10 0  23.63963156418132 -10 0  23.01048429632737 -10 0  22.41279438968936 -10 0  21.81510448305136 -10 0  21.24729907078059 -10 0  20.67949365850982 -10 0  20.14007851622273 -10 0  19.60066337393564 -10 0  19.08821898813588 -10 0  18.57577460233611 -10 0  18.08895243498708 -10 0  17.60213026763805 -10 0  17.13964920724307 -10 0  16.6771681468481 -10 0  16.2378111405086 -10 0  15.79845413416909 -10 0  15.38106498063496 -10 0  14.96367582710082 -10 0  14.56715613432376 -10 0  14.17063644154669 -10 0  13.79394273471576 -10 0  13.41724902788484 -10 0  13.05939000246495 -10 0  12.70153097704506 -10 0  12.36156490115379 -10 0  12.02159882526251 -10 0  11.69863105774323 -10 0  11.37566329022395 -10 0  11.06884391115945 -10 0  10.76202453209494 -10 0  10.47054612224479 -10 0  10.17906771239465 -10 0  9.902163223385379 -10 0  9.625258734376107 -10 0  9.362199469747061 -10 0  9.099140205118012 -10 0  8.849233904370102 -10 0  8.599327603622193 -10 0  8.361916616050124 -10 0  8.124505628478055 -10 0  7.898965188258209 -10 0  7.673424748038361 -10 0  7.459161330755727 -10 0  7.244897913473093 -10 0  7.041347665226496 -10 0  6.837797416979896 -10 0  6.644424677660922 -10 0  6.451051938341948 -10 0  6.26734783710581 -10 0  6.083643735869675 -10 0  5.90912484269068 -10 0  5.734605949511682 -10 0  5.568813003235423 -10 0  5.403020056959164 -10 0  5.24551675760658 -10 0  5.088013458254 -10 0  4.938385322710374 -10 0  4.788757187166745 -10 0  4.646610456411224 -10 0  4.504463725655707 -10 0  4.369424329906533 -10 0  4.234384934157362 -10 0  4.106097509520442 -10 0  3.977810084883522 -10 0  3.85593703153344 -10 0  3.734063978183357 -10 0  3.618284577954206 -10 0  3.502505177725055 -10 0  3.392514748095728 -10 0  3.282524318466404 -10 0  3.1780334118518 -10 0  3.073542505237196 -10 0  2.97427614725823 -10 0  2.875009789279265 -10 0  2.780706748384375 -10 0  2.686403707489482 -10 0  2.596815813710069 -10 0  2.507227919930656 -10 0  2.422119417661861 -10 0  2.337010915393062 -10 0  2.256157841092762 -10 0  2.175304766792465 -10 0  2.098494349048437 -10 0  2.021683931304413 -10 0  1.948714033278215 -10 0  1.875744135252013 -10 0  1.806422729354161 -10 0  1.737101323456312 -10 0  1.671245990692352 -10 0  1.605390657928396 -10 0  1.542828091333185 -10 0  1.480265524737977 -10 0  1.420831083031992 -10 0  1.36139664132601 -10 0  1.304933922176438 -10 0  1.248471203026863 -10 0  1.194831621786765 -10 0  1.14119204054667 -10 0  1.09023444350921 -10 0  1.039276846471754 -10 0  0.9908671279064798 -10 0  0.942457409341209 -10 0  0.8964681758842019 -10 0  0.8504789424271948 -10 0  0.8067891710751951 -10 0  0.7630993997231954 -10 0  0.7215941126497469 -10 0  0.6800888255762949 -10 0  0.6406588054444597 -10 0  0.6012287853126246 -10 0  0.5637702688178621 -10 0  0.5263117523230996 -10 0  0.4907261607992695 -10 0  0.4551405692754429 -10 0  0.4213342580497894 -10 0  0.3875279468241395 -10 0  0.3554119479341011 -10 0  0.3232959490440663 -10 0  0.2927857494269297 -10 0  0.2622755498097931 -10 0  0.2332908636189828 -10 0  0.2043061774281725 -10 0  0.1767707245216883 -10 0  0.1492352716152006 -10 0  0.1230765885890825 -10 0  0.09691790556296098 -10 0  0.0720671585317838 -10 0  0.04721641150060663 -10 0  0.02360820575030331 -10 0  0 -9.957983193277311 0  0 -9.915966386554622 0  0 -9.873949579831933 0  0 -9.831932773109244 0  0 -9.789915966386555 0  0 -9.747899159663866 0  0 -9.705882352941176 0  0 -9.663865546218487 0  0 -9.621848739495798 0  0 -9.579831932773109 0  0 -9.53781512605042 0  0 -9.495798319327731 0  0 -9.453781512605042 0  0 -9.411764705882353 0  0 -9.369747899159664 0  0 -9.327731092436975 0  0 -9.285714285714286 0  0 -9.243697478991596 0  0 -9.201680672268907 0  0 -9.159663865546218 0  0 -9.117647058823529 0  0 -9.07563025210084 0  0 -9.033613445378151 0  0 -8.991596638655462 0  0 -8.949579831932773 0  0 -8.907563025210084 0  0 -8.865546218487395 0  0 -8.823529411764707 0  0 -8.781512605042018 0  0 -8.739495798319329 0  0 -8.69747899159664 0  0 -8.655462184873949 0  0 -8.61344537815126 0  0 -8.571428571428571 0  0 -8.529411764705882 0  0 -8.487394957983193 0  0 -8.445378151260504 0  0 -8.403361344537815 0  0 -8.361344537815127 0  0 -8.319327731092438 0  0 -8.277310924369749 0  0 -8.235294117647058 0  0 -8.193277310924369 0  0 -8.15126050420168 0  0 -8.109243697478991 0  0 -8.067226890756302 0  0 -8.025210084033613 0  0 -7.983193277310924 0  0 -7.941176470588236 0  0 -7.899159663865547 0  0 -7.857142857142857 0  0 -7.815126050420168 0  0 -7.773109243697479 0  0 -7.73109243697479 0  0 -7.689075630252101 0  0 -7.647058823529411 0  0 -7.605042016806722 0  0 -7.563025210084033 0  0 -7.521008403361344 0  0 -7.478991596638656 0  0 -7.436974789915967 0  0 -7.394957983193278 0  0 -7.352941176470589 0  0 -7.3109243697479 0  0 -7.26890756302521 0  0 -7.226890756302521 0  0 -7.184873949579832 0  0 -7.142857142857143 0  0 -7.100840336134453 0  0 -7.058823529411764 0  0 -7.016806722689076 0  0 -6.974789915966387 0  0 -6.932773109243698 0  0 -6.890756302521009 0  0 -6.84873949579832 0  0 -6.806722689075631 0  0 -6.764705882352941 0  0 -6.722689075630252 0  0 -6.680672268907563 0  0 -6.638655462184874 0  0 -6.596638655462185 0  0 -6.554621848739496 0  0 -6.512605042016807 0  0 -6.470588235294118 0  0 -6.428571428571429 0  0 -6.38655462184874 0  0 -6.344537815126051 0  0 -6.302521008403362 0  0 -6.260504201680672 0  0 -6.218487394957983 0  0 -6.176470588235294 0  0 -6.134453781512605 0  0 -6.092436974789917 0  0 -6.050420168067227 0  0 -6.008403361344538 0  0 -5.966386554621849 0  0 -5.92436974789916 0  0 -5.882352941176471 0  0 -5.840336134453782 0  0 -5.798319327731092 0  0 -5.756302521008403 0  0 -5.714285714285714 0  0 -5.672268907563025 0  0 -5.630252100840336 0  0 -5.588235294117647 0 
[...]
<PointData  Vectors="flow"> 
<DataArray  type="Float64"  Name="flow"  NumberOfComponents="3" format="ascii">8.0926147961055277e-05 2.9181036094237184e-04 0.0000000000000000e+00  1.2858854717330015e-06 2.9954739354961245e-05 0.0000000000000000e+00  -3.6045838615841640e-07 -6.5524110185312047e-07 0.0000000000000000e+00  1.1359547089973829e-07 -3.8458659139690010e-07 0.0000000000000000e+00  1.5530714151322136e-05 5.8184173446340702e-04 0.0000000000000000e+00  -8.6706868720891456e-06 4.3565295715763784e-04 0.0000000000000000e+00  1.9742905804111901e-05 2.6817528295884044e-04 0.0000000000000000e+00  -7.7486810845378752e-05 2.5842853358821045e-04 0.0000000000000000e+00  6.8842181178205538e-05 1.4320069392770228e-04 0.0000000000000000e+00  9.2318529277460383e-06 -8.2471359128109456e-05 0.0000000000000000e+00  6.1996711513007502e-06 -1.2990868481918782e-04 0.0000000000000000e+00  -1.0288579895270994e-04 -3.5989674368794370e-04 0.0000000000000000e+00  1.3686822893075367e-04 -5.2033814925169300e-04 0.0000000000000000e+00  -2.4627642738454911e-04 -6.8601218934296747e-04 0.0000000000000000e+00  2.0045124714788921e-04 -8.5783079127724085e-04 0.0000000000000000e+00  -8.3053824671303487e-05 -7.0924585363286183e-04 0.0000000000000000e+00  -3.2263647190468757e-05 -4.3735837464238314e-04 0.0000000000000000e+00  9.5917751941187945e-06 3.1717207079654444e-05 0.0000000000000000e+00  -1.1248537450991566e-04 8.3264903324776238e-04 0.0000000000000000e+00  7.7618600442679533e-05 1.4529572792440209e-03 0.0000000000000000e+00  7.0879441080074141e-05 2.2388047255908301e-03 0.0000000000000000e+00  8.9640713994696826e-09 3.1583003217222835e-03 0.0000000000000000e+00  -2.9120255573963054e-05 4.0395592670197803e-03 0.0000000000000000e+00  -5.2503753626557474e-07 4.7060349323922602e-03 0.0000000000000000e+00  2.3578106275008298e-05 5.4272831311436964e-03 0.0000000000000000e+00  -5.4268493171463050e-06 6.0229334779017523e-03 0.0000000000000000e+00  -2.4396357939500034e-06 6.4055961942175599e-03 0.0000000000000000e+00  1.4823606069895007e-05 6.7433221832242868e-03 0.0000000000000000e+00  5.1995644735338142e-05 6.9113023108976221e-03 0.0000000000000000e+00  -4.0781326100284987e-05 6.9738929862725729e-03 0.0000000000000000e+00  2.4978570582008250e-05 6.9083952913098290e-03 0.0000000000000000e+00  -1.1271121813806283e-05 6.8159846580788932e-03 0.0000000000000000e+00  2.3448592530819491e-05 6.6499168480741557e-03 0.0000000000000000e+00  3.0671852129591858e-06 6.4433569773492240e-03 0.0000000000000000e+00  4.3509091469324224e-06 6.2283037851713517e-03 0.0000000000000000e+00  4.2857660493427219e-06 5.9594296153019288e-03 0.0000000000000000e+00  -5.7187178309791206e-06 5.6751976784473876e-03 0.0000000000000000e+00  1.4428352052031396e-06 5.3982112844583770e-03 0.0000000000000000e+00  1.1762246674281795e-05 5.0976806859975819e-03 0.0000000000000000e+00  2.5767931648532476e-05 4.8434794549327810e-03 0.0000000000000000e+00  -6.4197417263401412e-05 4.5746524600071064e-03 0.0000000000000000e+00  3.4878466785528301e-05 4.2669526308842355e-03 0.0000000000000000e+00  -1.0433327044457003e-05 4.0354070057642740e-03 0.0000000000000000e+00  5.1258094851090709e-05 3.6934339156038448e-03 0.0000000000000000e+00  -6.1998743788054854e-05 3.5756411322788008e-03 0.0000000000000000e+00  5.4811761091019986e-06 3.3835842326571074e-03 0.0000000000000000e+00  7.7096553986445220e-06 3.1373458063722165e-03 0.0000000000000000e+00  -7.0948224891687010e-07 2.9482830660890872e-03 0.0000000000000000e+00  3.6711884960984577e-06 2.7808912585506888e-03 0.0000000000000000e+00  4.2972771718619803e-06 2.5961456446501733e-03 0.0000000000000000e+00  2.8458132837972705e-05 2.4086758161740601e-03 0.0000000000000000e+00  -2.1508087228067371e-05 2.2980225377755097e-03 0.0000000000000000e+00  1.9307057494367426e-07 2.1392923785366492e-03 0.0000000000000000e+00  -4.6069544041229881e-07 2.0136239002703344e-03 0.0000000000000000e+00  9.9230665806003975e-06 1.8588720007205715e-03 0.0000000000000000e+00  6.3638944068506316e-06 1.7410759075413174e-03 0.0000000000000000e+00  -5.5881336236900655e-06 1.6536325306187071e-03 0.0000000000000000e+00  -6.0071861262707944e-06 1.5598363815689171e-03 0.0000000000000000e+00  5.1960423981216193e-06 1.4790187476013184e-03 0.0000000000000000e+00  4.0076653578071406e-07 1.3755219465563032e-03 0.0000000000000000e+00  8.3137825564786648e-06 1.2657487220810225e-03 0.0000000000000000e+00  1.7540169769649184e-06 1.1871812730805469e-03 0.0000000000000000e+00  -3.5311276750827891e-06 1.1383929593543245e-03 0.0000000000000000e+00  5.5009528930284337e-06 1.0607391330918043e-03 0.0000000000000000e+00  -4.0228551666098276e-06 9.9400525623625775e-04 0.0000000000000000e+00  5.8389836857034553e-06 9.4001315142637704e-04 0.0000000000000000e+00  1.5234964913863652e-06 8.7420092489913850e-04 0.0000000000000000e+00  1.1482840513645909e-06 8.2119077449573227e-04 0.0000000000000000e+00  6.0930630779267150e-06 7.6737634304575842e-04 0.0000000000000000e+00  -3.4537553113671351e-06 7.1833772287724005e-04 0.0000000000000000e+00  4.7004413975926538e-06 6.6480519034354938e-04 0.0000000000000000e+00  2.7261384467533519e-06 6.1605660230103112e-04 0.0000000000000000e+00  -3.0877259063261994e-06 5.9029054910825175e-04 0.0000000000000000e+00  5.7871924982909587e-07 5.6260099077370810e-04 0.0000000000000000e+00  8.2129880811512299e-07 5.2458006023237841e-04 0.0000000000000000e+00  4.2567294204587293e-07 4.9289039705204549e-04 0.0000000000000000e+00  2.0122104639587375e-06 4.6152707196014589e-04 0.0000000000000000e+00  3.5422446021829244e-07 4.3288754538950213e-04 0.0000000000000000e+00  1.8546611461136541e-06 4.0451580028552647e-04 0.0000000000000000e+00  -4.4909143232978938e-07 3.7831491603703874e-04 0.0000000000000000e+00  -2.1925572318296848e-07 3.5459763068499957e-04 0.0000000000000000e+00  4.5742246780878730e-06 3.3810492241542571e-04 0.0000000000000000e+00  -1.4778560695198559e-05 3.2091777204551974e-04 0.0000000000000000e+00  1.0615939655874709e-05 2.9247870557427082e-04 0.0000000000000000e+00  -5.5153618400129554e-07 2.7641212075316877e-04 0.0000000000000000e+00  1.0283918240592048e-06 2.5772509055501378e-04 0.0000000000000000e+00  -5.6031010011134869e-07 2.3754695309853699e-04 0.0000000000000000e+00  4.4458644128656738e-06 2.2106072600584651e-04 0.0000000000000000e+00  -4.8084228808417843e-06 2.1318415895799181e-04 0.0000000000000000e+00  -7.9782225511970953e-07 2.0180732416995715e-04 0.0000000000000000e+00  2.5884020751758916e-06 1.8789213464956978e-04 0.0000000000000000e+00  9.0477188685709483e-07 1.7530243036374286e-04 0.0000000000000000e+00  7.2320715326634265e-07 1.6284014545117233e-04 0.0000000000000000e+00  3.6553454946438116e-07 1.5050725103669691e-04 0.0000000000000000e+00  5.8706217123505445e-07 1.4072706244932926e-04 0.0000000000000000e+00  -8.3576291376840952e-08 1.3245409319016536e-04 0.0000000000000000e+00  -5.4616151518197307e-07 1.2311883970135730e-04 0.0000000000000000e+00  3.9582740004018193e-06 1.1243047112656169e-04 0.0000000000000000e+00  -3.5009470512185395e-06 1.0756252047474086e-04 0.0000000000000000e+00  1.6213100023413924e-07 1.0217994319392826e-04 0.0000000000000000e+00  1.9186538114736208e-06 9.3082384898242470e-05 0.0000000000000000e+00  -5.5348884435937062e-07 8.8343266502964043e-05 0.0000000000000000e+00  3.7878304241543623e-07 8.3918288208638167e-05 0.0000000000000000e+00  -6.2223359010732959e-07 7.8891369526940867e-05 0.0000000000000000e+00  1.9599277948128237e-07 7.6334378675219672e-05 0.0000000000000000e+00  -2.0851411928862896e-06 7.1534250012465940e-05 0.0000000000000000e+00  2.9598798042692829e-07 5.9931871958028099e-05 0.0000000000000000e+00  3.9051963948062836e-06 6.1481288143121522e-05 0.0000000000000000e+00  -4.4338221342538192e-06 5.9550226799714064e-05 0.0000000000000000e+00  4.8904978573939340e-06 5.4981061414014601e-05 0.0000000000000000e+00  -3.6636670614606068e-06 5.2946848746991259e-05 0.0000000000000000e+00  -1.3770819153115431e-07 4.5948316144943294e-05 0.0000000000000000e+00  2.9360709347129074e-06 4.9320301372317972e-05 0.0000000000000000e+00  -9.5974716796137837e-07 4.8059927120914215e-05 0.0000000000000000e+00  2.5974744962033717e-07 4.5189180836126920e-05 0.0000000000000000e+00  2.9135140269525643e-06 3.9769989891572823e-05 0.0000000000000000e+00  -1.7468933857062546e-06 3.8739578788800785e-05 0.0000000000000000e+00  -4.6385233014827068e-07 3.9708716111246351e-05 0.0000000000000000e+00  5.3979075884082285e-08 3.9945060363268066e-05 0.0000000000000000e+00  -1.7400368342681621e-07 3.8085000725815023e-05 0.0000000000000000e+00  2.4118578857250227e-06 3.4388293201372818e-05 0.0000000000000000e+00  -1.3666018990413307e-06 3.4009412354718343e-05 0.0000000000000000e+00  -2.5620848180139112e-08 3.4486702872482522e-05 0.0000000000000000e+00  1.4972136157777780e-07 3.4466974198675423e-05 0.0000000000000000e+00  1.6535885655404163e-07 3.3828330851244474e-05 0.0000000000000000e+00  6.9303223778483574e-08 3.3046913426977680e-05 0.0000000000000000e+00  3.7146172341295304e-07 3.1864093593214862e-05 0.0000000000000000e+00  3.4531112745187754e-07 3.0724212191484943e-05 0.0000000000000000e+00  4.7392239931376338e-08 3.0284214000435580e-05 0.0000000000000000e+00  -3.3564960286972682e-07 3.0179083001465835e-05 0.0000000000000000e+00  2.3536308316120509e-07 2.9727392983704496e-05 0.0000000000000000e+00  1.0480509047933895e-07 2.8808522646832327e-05 0.0000000000000000e+00  6.8310437535516087e-07 2.7711921749476428e-05 0.0000000000000000e+00  -3.4004858512473299e-07 2.7530471988330478e-05 0.0000000000000000e+00  -3.2010726081732923e-07 2.6950018494174607e-05 0.0000000000000000e+00  1.7182977058426298e-06 2.3494011965902674e-05 0.0000000000000000e+00  3.5312548652995889e-07 2.1700880952550274e-05 0.0000000000000000e+00  -1.4028101983852705e-06 2.2385289011341314e-05 0.0000000000000000e+00  1.8915516633238359e-07 2.4315215813433049e-05 0.0000000000000000e+00  3.7994241955709213e-07 2.3331594111876937e-05 0.0000000000000000e+00  -2.0973903963304203e-06 2.3315736707833582e-05 0.0000000000000000e+00  5.6141123258663350e-06 1.2453358707237603e-05 0.0000000000000000e+00  3.7557784699335623e-06 -6.8649204462404430e-06 0.0000000000000000e+00  -7.8921741273945866e-07 1.7922848512249228e-06 0.0000000000000000e+00  2.2168305147429200e-08 -8.5872729053392259e-07 0.0000000000000000e+00  -7.5353991354279532e-08 -3.3611798170861781e-07 0.0000000000000000e+00  -7.3810324688280002e-08 -5.0658816607541293e-07 0.0000000000000000e+00  5.2114218282160938e-08 -3.7472046974097322e-07 0.0000000000000000e+00  -2.3051037778702860e-08 -4.2350454090857265e-07 0.0000000000000000e+00  4.9792771867990208e-08 -4.8262917094722994e-07 0.0000000000000000e+00  5.2185950975043560e-08 -3.4762795073739139e-07 0.0000000000000000e+00  2.1061790508600486e-08 -4.8381592213800907e-07 0.0000000000000000e+00  1.3569998432899052e-08 -4.2157182009816082e-07 0.0000000000000000e+00  1.6202928871006937e-08 -5.5783171458890340e-07 0.0000000000000000e+00  5.4794631343667184e-09 -4.6350688239242609e-07 0.0000000000000000e+00  2.4359645760653467e-08 -6.1366757153892126e-07 0.0000000000000000e+00  6.8891430539962946e-09 -5.3525255807480989e-07 0.0000000000000000e+00  2.2748130027974419e-08 -4.4930485917165899e-07 0.0000000000000000e+00  5.9887792032529096e-08 -5.2407249077845911e-07 0.0000000000000000e+00  8.0467762845526972e-09 -6.6705887678927985e-07 0.0000000000000000e+00  -5.2263224063219497e-08 -4.6860908816536501e-07 0.0000000000000000e+00  -1.0171537358230079e-07 -6.0599387465519884e-07 0.0000000000000000e+00  4.3160747304292795e-08 -6.6256846171792211e-07 0.0000000000000000e+00  -4.3483007842395626e-08 -4.9144304976759191e-07 0.0000000000000000e+00  -4.2520546491803325e-08 -6.6462232300862898e-07 0.0000000000000000e+00  4.1300977428198458e-08 -3.8949612520405443e-07 0.0000000000000000e+00  -1.5666546545307414e-07 -6.5021596554667510e-07 0.0000000000000000e+00  -4.6615401435272075e-07 -7.4828916400111774e-07 0.0000000000000000e+00  -2.2462391639549112e-07 -1.3946110754414189e-06 0.0000000000000000e+00  -1.0726565320534853e-07 -1.6703699987787385e-06 0.0000000000000000e+00  2.3681110922043250e-07 -1.7745991251997645e-06 0.0000000000000000e+00  -1.4207046561419735e-07 -1.6399917652473849e-06 0.0000000000000000e+00  1.4699887037489925e-07 -1.4960883333086163e-06 0.0000000000000000e+00  2.6603285695924665e-07 -1.4250654377455612e-06 0.0000000000000000e+00  1.0623282499405152e-07 -1.5310223529345363e-06 0.0000000000000000e+00  1.9994432834393739e-07 -1.4399278860418840e-06 0.0000000000000000e+00  2.3091869151069434e-07 -1.3771236959333625e-06 0.0000000000000000e+00  1.7935258252299324e-07 -1.4198847022032946e-06 0.0000000000000000e+00  2.2722733010555596e-07 -1.4896520509691158e-06 0.0000000000000000e+00  3.5687861907928358e-07 -1.5816804651908653e-06 0.0000000000000000e+00  4.1474737367847866e-07 -1.6377240781872903e-06 0.0000000000000000e+00  5.2464336967458160e-07 -1.6845194787414129e-06 0.0000000000000000e+00  5.8668208033808540e-07 -1.7471046864375921e-06 0.0000000000000000e+00  5.9220691702758142e-07 -1.7153037525790251e-06 0.0000000000000000e+00  8.5594547234687325e-07 -1.7168362124186745e-06 0.0000000000000000e+00  9.4992687558513785e-07 -1.6942947951803749e-06 0.0000000000000000e+00  1.0794994168627873e-06 -1.6771085865552812e-06 0.0000000000000000e+00  1.1732528414528420e-06 -1.7043723298377199e-06 0.0000000000000000e+00  1.3701396381365553e-06 -1.6611936391538976e-06 0.0000000000000000e+00  1.4613013608477073e-06 -1.6492490489962855e-06 0.0000000000000000e+00  1.5992456077154178e-06 -1.6142524850335953e-06 0.0000000000000000e+00  1.7939437818212154e-06 -1.5214989173993969e-06 0.0000000000000000e+00  2.0715542974491434e-06 -1.4433495842098392e-06 0.0000000000000000e+00  2.0913626738360270e-06 -1.3446716000146591e-06 0.0000000000000000e+00  2.3568112020016524e-06 -1.2724252840975542e-06 0.0000000000000000e+00  2.4384353449597194e-06 -1.0684935513728529e-06 0.0000000000000000e+00  2.9862125922388733e-06 -8.8712997439132185e-07 0.0000000000000000e+00  2.6662449019684404e-06 -5.3199026071866519e-07 0.0000000000000000e+00  2.4688881260749782e-06 -6.6646600583173895e-07 0.0000000000000000e+00  3.0775575936108588e-06 -4.8862794515771088e-07 0.0000000000000000e+00  2.9441921636051883e-06 -4.7176471396423449e-07 0.0000000000000000e+00  3.1282254622231117e-06 -2.9234690642286123e-07 0.0000000000000000e+00  3.2281339977317387e-06 -1.3041423591399903e-07 0.0000000000000000e+00  3.1890215193723617e-06 5.6269837901213361e-08 0.0000000000000000e+00  3.0585329889051710e-06 2.1822787926342222e-07 0.0000000000000000e+00  3.0900763199632379e-06 4.5347087418995031e-07 0.0000000000000000e+00  3.0680096441927808e-06 4.8970620455107974e-07 0.0000000000000000e+00  2.9997954153214702e-06 6.7098165327816748e-07 0.0000000000000000e+00  2.7748040023710741e-06 8.6915763128164948e-07 0.0000000000000000e+00  2.5250758720314629e-06 9.6408694189377749e-07 0.0000000000000000e+00  2.4251472888087071e-06 1.1860854059807888e-06 0.0000000000000000e+00  2.0787022968203272e-06 1.3077295091888019e-06 0.0000000000000000e+00  1.7641234946886205e-06 1.4158819605140544e-06 0.0000000000000000e+00  1.4899344667117840e-06 1.5296643242383330e-06 0.0000000000000000e+00  1.0884206748902770e-06 1.6407673079244841e-06 0.0000000000000000e+00  5.9740282468667094e-07 1.7274297784228685e-06 0.0000000000000000e+00  1.5610736222093528e-07 1.8019489723575367e-06 0.0000000000000000e+00  -3.0868338408204470e-07 1.8798554719005963e-06 0.0000000000000000e+00  -8.0552768465763744e-07 1.9549058928271648e-06 0.0000000000000000e+00  -1.3815393036107090e-06 1.9936560569691636e-06 0.0000000000000000e+00  -1.9260004980937422e-06 1.9908092474400428e-06 0.0000000000000000e+00  -2.4783550358063397e-06 1.9823329641680206e-06 0.0000000000000000e+00  -3.0504900913918341e-06 1.9608216198013420e-06 0.0000000000000000e+00  -3.6463560478057302e-06 1.9418983301482829e-06 0.0000000000000000e+00  -4.2232835061711243e-06 1.9396595111095650e-06 0.0000000000000000e+00  -4.8020891810499332e-06 1.9080641412155413e-06 0.0000000000000000e+00  -5.5458794008396565e-06 1.9103993302294950e-06 0.0000000000000000e+00  -6.1272697621645836e-06 1.8124375408303348e-06 0.0000000000000000e+00  -6.5683788221391693e-06 1.7264732675920309e-06 0.0000000000000000e+00  -7.1129167890227775e-06 1.6121039475571738e-06 0.0000000000000000e+00  -7.6471058446547502e-06 1.5438137463640152e-06 0.0000000000000000e+00  -8.2255948351141196e-06 1.4768738945259318e-06 0.0000000000000000e+00  -8.6942559247230321e-06 1.4017575230567167e-06 0.0000000000000000e+00  -9.1555346060963977e-06 1.3136994766740231e-06 0.0000000000000000e+00  -9.6108379898595352e-06 1.2319303475887280e-06 0.0000000000000000e+00  -1.0069934377436639e-05 1.1180034847939467e-06 0.0000000000000000e+00  -1.0414880404431515e-05 9.7328631223571780e-07 0.0000000000000000e+00  -1.0778686805165471e-05 8.6152546679313876e-07 0.0000000000000000e+00  -1.1074812902313052e-05 7.6704235359657878e-07 0.0000000000000000e+00  -1.1348367821669724e-05 6.8611152237478652e-07 0.0000000000000000e+00  -1.1548632279522805e-05 6.1302289431349339e-07 0.0000000000000000e+00  -1.1751703647959355e-05 5.2767307402137116e-07 0.0000000000000000e+00  -1.1932933036804780e-05 4.6567313381364142e-07 0.0000000000000000e+00  -1.2118684471913903e-05 4.0355871888967502e-07 0.0000000000000000e+00  -1.2240677658008817e-05 3.3955029921811079e-07 0.0000000000000000e+00  -1.2341608866816909e-05 2.7899762586806854e-07 0.0000000000000000e+00  -1.2383683628287542e-05 2.1933985340781262e-07 0.0000000000000000e+00  -1.2395067922684323e-05 1.6323401174583504e-07 0.0000000000000000e+00  -1.2388382552470932e-05 1.2454720301809366e-07 0.0000000000000000e+00  -1.2345241467454196e-05 7.7679606516515693e-08 0.0000000000000000e+00  -1.2296863436715005e-05 3.4373527416411381e-08 0.0000000000000000e+00  -1.2222342091533433e-05 -1.5310100304200330e-08 0.0000000000000000e+00  -1.2110811977587039e-05 -5.2683020775392114e-08 0.0000000000000000e+00  -1.1991745771441798e-05 -9.0006535359909792e-08 0.0000000000000000e+00  -1.1841637983037538e-05 -1.2187111562799344e-07 0.0000000000000000e+00  -1.1662759633301172e-05 -1.5050030071515006e-07 0.0000000000000000e+00  -1.1498938646657231e-05 -1.8277918777125353e-07 0.0000000000000000e+00  -1.1271308941001537e-05 -2.1093910520273481e-07 0.0000000000000000e+00  -1.1061430918057044e-05 -2.6857993178796881e-07 0.0000000000000000e+00  -1.0921921956241459e-05 -3.2672110468805554e-07 0.0000000000000000e+00  -1.0639745631993006e-05 -4.4278081336578931e-07 0.0000000000000000e+00  -1.0378893824546036e-05 -3.7001562665120538e-07 0.0000000000000000e+00  -1.0152746177086791e-05 -3.6086264772480444e-07 0.0000000000000000e+00  -9.8580271535353333e-06 -3.7171041063578006e-07 0.0000000000000000e+00  -9.6417030303731355e-06 -3.7008706098442410e-07 0.0000000000000000e+00  -9.3493332957634839e-06 -3.8367360106939045e-07 0.0000000000000000e+00  -9.0843209138981111e-06 -3.9535111101506693e-07 0.0000000000000000e+00  -8.8320995179462971e-06 -3.8831883924782903e-07 0.0000000000000000e+00  -8.5457387616118996e-06 -3.9120448380520632e-07 0.0000000000000000e+00  -8.2551831113191421e-06 -3.9445499088351491e-07 0.0000000000000000e+00  -7.9874244818766030e-06 -3.9394810727399988e-07 0.0000000000000000e+00  -7.6916618132505895e-06 -3.8735029657026393e-07 0.0000000000000000e+00  -7.4265137329690347e-06 -3.9312336211113076e-07 0.0000000000000000e+00  -7.1265058762806102e-06 -4.0439302025412686e-07 0.0000000000000000e+00  -6.8466615674121349e-06 -4.2002587783908011e-07 0.0000000000000000e+00  -6.5751344784801236e-06 -3.9887170352467704e-07 0.0000000000000000e+00  -6.2870910626000156e-06 -3.6654448050077313e-07 0.0000000000000000e+00  -6.0031408854704389e-06 -3.6033954240424710e-07 0.0000000000000000e+00  -5.7545356732334447e-06 -3.7023551224374361e-07 0.0000000000000000e+00  -5.4802170533975240e-06 -3.7081828452510813e-07 0.0000000000000000e+00  -5.2162977075353712e-06 -3.6315121005847673e-07 0.0000000000000