<?xml version="1.0"?>
<VTKFile type="UnstructuredGrid"  version="0.1"  >
<UnstructuredGrid>
<Piece  NumberOfPoints="13179" NumberOfCells="25814">
<Points>
<DataArray  type="Float64"  NumberOfComponents="3"  format="ascii">0 0 0  30 0 0  30 -10 0  0 -10 0  0.02360821169319077 0 0  0.04721642338638154 0 0  0.07206717063563725 0 0  0.09691791788489297 0 0  0.1230766011355843 0 0  0.1492352843862757 0 0  0.1767707375239038 0 0  0.204306190661532 0 0  0.2332908770901271 0 0  0.2622755635187223 0 0  0.2927857633803451 0 0  0.323295963241968 0 0  0.3554119623832387 0 0  0.3875279615245094 0 0  0.4213342730081758 0 0  0.4551405844918422 0 0  0.4907261762804851 0 0  0.526311768069128 0 0  0.5637702848355051 0 0  0.6012288016018821 0 0  0.6406588220121138 0 0  0.6800888424223455 0 0  0.721594129780935 0 0  0.7630994171395246 0 0  0.8067891887833475 0 0  0.8504789604271704 0 0  0.8964681941825949 0 0  0.9424574279380195 0 0  0.9908671465681095 0 0  1.039276865198199 0 0  1.090234462786975 0 0  1.141192060375751 0 0  1.194831641933244 0 0  1.248471223490737 0 0  1.304933942963653 0 0  1.361396662436569 0 0  1.420831104471586 0 0  1.480265546506604 0 0  1.542828113436244 0 0  1.605390680365884 0 0  1.671246013469327 0 0  1.73710134657277 0 0  1.806422752814762 0 0  1.875744159056755 0 0  1.948714057431306 0 0  2.021683955805857 0 0  2.098494373901932 0 0  2.175304791998006 0 0  2.256157866653476 0 0  2.337010941308945 0 0  2.422119443935387 0 0  2.50722794656183 0 0  2.596815840700639 0 0  2.686403734839449 0 0  2.780706776094687 0 0  2.875009817349925 0 0  2.974276175689285 0 0  3.073542534028646 0 0  3.178033441002704 0 0  3.282524347976761 0 0  3.392514777963501 0 0  3.502505207950242 0 0  3.618284608533553 0 0  3.734064009116865 0 0  3.855937062816526 0 0  3.977810116516187 0 0  4.106097541496641 0 0  4.234384966477093 0 0  4.369424362562147 0 0  4.5044637586472 0 0  4.646610489729194 0 0  4.788757220811188 0 0  4.938385356669961 0 0  5.088013492528733 0 0  5.24551679218304 0 0  5.403020091837347 0 0  5.568813038399614 0 0  5.73460598496188 0 0  5.909124878408681 0 0  6.083643771855482 0 0  6.267347873338513 0 0  6.451051974821543 0 0  6.644424714363561 0 0  6.83779745390558 0 0  7.041347702348167 0 0  7.244897950790754 0 0  7.459161368238869 0 0  7.673424785686984 0 0  7.898965226038037 0 0  8.124505666389089 0 0  8.361916654054033 0 0  8.599327641718979 0 0  8.849233942517035 0 0  9.099140243315093 0 0  9.362199507946787 0 0  9.625258772578484 0 0  9.902163261537794 0 0  10.1790677504971 0 0  10.47054616023911 0 0  10.76202456998112 0 0  11.06884394887334 0 0  11.37566332776555 0 0  11.69863109504192 0 0  12.02159886231829 0 0  12.3615649378891 0 0  12.7015310134599 0 0  13.05939003847426 0 0  13.41724906348862 0 0  13.79394276982091 0 0  14.1706364761532 0 0  14.5671561683298 0 0  14.96367586050641 0 0  15.38106501332897 0 0  15.79845416615153 0 0  16.23781117165827 0 0  16.677168177165 0 0  17.13964923659526 0 0  17.60213029602552 0 0  18.0889524622663 0 0  18.57577462850707 0 0  19.08821901304263 0 0  19.60066339757818 0 0  20.14007853843172 0 0  20.67949367928525 0 0  21.24729908993883 0 0  21.8151045005924 0 0  22.41279440541421 0 0  23.01048431023601 0 0  23.63963157605829 0 0  24.26877884188056 0 0  24.93103912515648 0 0  25.59329940843241 0 0  26.29041549584691 0 0  26.98753158326142 0 0  27.72133799026916 0 0  28.45514439727691 0 0  29.22757219863846 0 0  30 -0.3571428571428571 0  30 -0.7142857142857142 0  30 -1.071428571428571 0  30 -1.428571428571428 0  30 -1.785714285714286 0  30 -2.142857142857143 0  30 -2.5 0  30 -2.857142857142857 0  30 -3.214285714285714 0  30 -3.571428571428571 0  30 -3.928571428571428 0  30 -4.285714285714286 0  30 -4.642857142857142 0  30 -5 0  30 -5.357142857142857 0  30 -5.714285714285714 0  30 -6.071428571428571 0  30 -6.428571428571428 0  30 -6.785714285714285 0  30 -7.142857142857142 0  30 -7.5 0  30 -7.857142857142857 0  30 -8.214285714285714 0  30 -8.571428571428571 0  30 -8.928571428571427 0  30 -9.285714285714285 0  30 -9.642857142857142 0  29.22757220128658 -10 0  28.45514440257316 -10 0  27.72133799277628 -10 0  26.98753158297939 -10 0  26.29041549304805 -10 0  25.5932994031167 -10 0  24.93103911757599 -10 0  24.26877883203527 -10 0  23.63963156418132 -10 0  23.01048429632737 -10 0  22.41279438968936 -10 0  21.81510448305136 -10 0  21.24729907078059 -10 0  20.67949365850982 -10 0  20.14007851622273 -10 0  19.60066337393564 -10 0  19.08821898813588 -10 0  18.57577460233611 -10 0  18.08895243498708 -10 0  17.60213026763805 -10 0  17.13964920724307 -10 0  16.6771681468481 -10 0  16.2378111405086 -10 0  15.79845413416909 -10 0  15.38106498063496 -10 0  14.96367582710082 -10 0  14.56715613432376 -10 0  14.17063644154669 -10 0  13.79394273471576 -10 0  13.41724902788484 -10 0  13.05939000246495 -10 0  12.70153097704506 -10 0  12.36156490115379 -10 0  12.02159882526251 -10 0  11.69863105774323 -10 0  11.37566329022395 -10 0  11.06884391115945 -10 0  10.76202453209494 -10 0  10.47054612224479 -10 0  10.17906771239465 -10 0  9.902163223385379 -10 0  9.625258734376107 -10 0  9.362199469747061 -10 0  9.099140205118012 -10 0  8.849233904370102 -10 0  8.599327603622193 -10 0  8.361916616050124 -10 0  8.124505628478055 -10 0  7.898965188258209 -10 0  7.673424748038361 -10 0  7.459161330755727 -10 0  7.244897913473093 -10 0  7.041347665226496 -10 0  6.837797416979896 -10 0  6.644424677660922 -10 0  6.451051938341948 -10 0  6.26734783710581 -10 0  6.083643735869675 -10 0  5.90912484269068 -10 0  5.734605949511682 -10 0  5.568813003235423 -10 0  5.403020056959164 -10 0  5.24551675760658 -10 0  5.088013458254 -10 0  4.938385322710374 -10 0  4.788757187166745 -10 0  4.646610456411224 -10 0  4.504463725655707 -10 0  4.369424329906533 -10 0  4.234384934157362 -10 0  4.106097509520442 -10 0  3.977810084883522 -10 0  3.85593703153344 -10 0  3.734063978183357 -10 0  3.618284577954206 -10 0  3.502505177725055 -10 0  3.392514748095728 -10 0  3.282524318466404 -10 0  3.1780334118518 -10 0  3.073542505237196 -10 0  2.97427614725823 -10 0  2.875009789279265 -10 0  2.780706748384375 -10 0  2.686403707489482 -10 0  2.596815813710069 -10 0  2.507227919930656 -10 0  2.422119417661861 -10 0  2.337010915393062 -10 0  2.256157841092762 -10 0  2.175304766792465 -10 0  2.098494349048437 -10 0  2.021683931304413 -10 0  1.948714033278215 -10 0  1.875744135252013 -10 0  1.806422729354161 -10 0  1.737101323456312 -10 0  1.671245990692352 -10 0  1.605390657928396 -10 0  1.542828091333185 -10 0  1.480265524737977 -10 0  1.420831083031992 -10 0  1.36139664132601 -10 0  1.304933922176438 -10 0  1.248471203026863 -10 0  1.194831621786765 -10 0  1.14119204054667 -10 0  1.09023444350921 -10 0  1.039276846471754 -10 0  0.9908671279064798 -10 0  0.942457409341209 -10 0  0.8964681758842019 -10 0  0.8504789424271948 -10 0  0.8067891710751951 -10 0  0.7630993997231954 -10 0  0.7215941126497469 -10 0  0.6800888255762949 -10 0  0.6406588054444597 -10 0  0.6012287853126246 -10 0  0.5637702688178621 -10 0  0.5263117523230996 -10 0  0.4907261607992695 -10 0  0.4551405692754429 -10 0  0.4213342580497894 -10 0  0.3875279468241395 -10 0  0.3554119479341011 -10 0  0.3232959490440663 -10 0  0.2927857494269297 -10 0  0.2622755498097931 -10 0  0.2332908636189828 -10 0  0.2043061774281725 -10 0  0.1767707245216883 -10 0  0.1492352716152006 -10 0  0.1230765885890825 -10 0  0.09691790556296098 -10 0  0.0720671585317838 -10 0  0.04721641150060663 -10 0  0.02360820575030331 -10 0  0 -9.957983193277311 0  0 -9.915966386554622 0  0 -9.873949579831933 0  0 -9.831932773109244 0  0 -9.789915966386555 0  0 -9.747899159663866 0  0 -9.705882352941176 0  0 -9.663865546218487 0  0 -9.621848739495798 0  0 -9.579831932773109 0  0 -9.53781512605042 0  0 -9.495798319327731 0  0 -9.453781512605042 0  0 -9.411764705882353 0  0 -9.369747899159664 0  0 -9.327731092436975 0  0 -9.285714285714286 0  0 -9.243697478991596 0  0 -9.201680672268907 0  0 -9.159663865546218 0  0 -9.117647058823529 0  0 -9.07563025210084 0  0 -9.033613445378151 0  0 -8.991596638655462 0  0 -8.949579831932773 0  0 -8.907563025210084 0  0 -8.865546218487395 0  0 -8.823529411764707 0  0 -8.781512605042018 0  0 -8.739495798319329 0  0 -8.69747899159664 0  0 -8.655462184873949 0  0 -8.61344537815126 0  0 -8.571428571428571 0  0 -8.529411764705882 0  0 -8.487394957983193 0  0 -8.445378151260504 0  0 -8.403361344537815 0  0 -8.361344537815127 0  0 -8.319327731092438 0  0 -8.277310924369749 0  0 -8.235294117647058 0  0 -8.193277310924369 0  0 -8.15126050420168 0  0 -8.109243697478991 0  0 -8.067226890756302 0  0 -8.025210084033613 0  0 -7.983193277310924 0  0 -7.941176470588236 0  0 -7.899159663865547 0  0 -7.857142857142857 0  0 -7.815126050420168 0  0 -7.773109243697479 0  0 -7.73109243697479 0  0 -7.689075630252101 0  0 -7.647058823529411 0  0 -7.605042016806722 0  0 -7.563025210084033 0  0 -7.521008403361344 0  0 -7.478991596638656 0  0 -7.436974789915967 0  0 -7.394957983193278 0  0 -7.352941176470589 0  0 -7.3109243697479 0  0 -7.26890756302521 0  0 -7.226890756302521 0  0 -7.184873949579832 0  0 -7.142857142857143 0  0 -7.100840336134453 0  0 -7.058823529411764 0  0 -7.016806722689076 0  0 -6.974789915966387 0  0 -6.932773109243698 0  0 -6.890756302521009 0  0 -6.84873949579832 0  0 -6.806722689075631 0  0 -6.764705882352941 0  0 -6.722689075630252 0  0 -6.680672268907563 0  0 -6.638655462184874 0  0 -6.596638655462185 0  0 -6.554621848739496 0  0 -6.512605042016807 0  0 -6.470588235294118 0  0 -6.428571428571429 0  0 -6.38655462184874 0  0 -6.344537815126051 0  0 -6.302521008403362 0  0 -6.260504201680672 0  0 -6.218487394957983 0  0 -6.176470588235294 0  0 -6.134453781512605 0  0 -6.092436974789917 0  0 -6.050420168067227 0  0 -6.008403361344538 0  0 -5.966386554621849 0  0 -5.92436974789916 0  0 -5.882352941176471 0  0 -5.840336134453782 0  0 -5.798319327731092 0  0 -5.756302521008403 0  0 -5.714285714285714 0  0 -5.672268907563025 0  0 -5.630252100840336 0  0 -5.588235294117647 0 
[...]
<PointData  Vectors="flow"> 
<DataArray  type="Float64"  Name="flow"  NumberOfComponents="3" format="ascii">-9.3978470632568867e-03 1.7249099930892470e-01 0.0000000000000000e+00  1.3874504034901498e-05 2.4018274991367250e-04 0.0000000000000000e+00  -5.7556495992012817e-06 -4.8648004885459971e-06 0.0000000000000000e+00  -4.0626981647330187e-06 9.7633729402847463e-06 0.0000000000000000e+00  -2.4098708913298768e-04 1.6880065016035384e-01 0.0000000000000000e+00  2.5088720502617541e-03 1.6555855749948406e-01 0.0000000000000000e+00  -1.1571563545285332e-03 1.5378344455373608e-01 0.0000000000000000e+00  1.3587515602177019e-03 1.3969347735590087e-01 0.0000000000000000e+00  -8.0393860978964339e-04 1.2765029297369779e-01 0.0000000000000000e+00  -3.2377998936258508e-04 1.1642023250731143e-01 0.0000000000000000e+00  1.0497720574919861e-04 1.0385463674896557e-01 0.0000000000000000e+00  5.7097228371422908e-04 9.1590804371862594e-02 0.0000000000000000e+00  -1.1518214627845647e-03 8.4098109609068869e-02 0.0000000000000000e+00  5.3885729745524469e-04 7.4076322516616916e-02 0.0000000000000000e+00  -9.4036439359447067e-04 6.9158299203007936e-02 0.0000000000000000e+00  5.7719808983912573e-04 6.0038158452256657e-02 0.0000000000000000e+00  -1.9800453893902939e-04 5.3869297639757882e-02 0.0000000000000000e+00  5.6944795018682057e-06 4.8634928388935419e-02 0.0000000000000000e+00  5.5031327298709807e-04 4.2560521338650369e-02 0.0000000000000000e+00  -4.4995626571436203e-04 3.8747597354148275e-02 0.0000000000000000e+00  -4.3025874674618267e-04 3.4483162155981600e-02 0.0000000000000000e+00  1.1599004104798854e-04 3.0341918178760287e-02 0.0000000000000000e+00  3.4439643009883623e-04 2.6655935244175664e-02 0.0000000000000000e+00  -2.1631697411764314e-04 2.4124486567600478e-02 0.0000000000000000e+00  -1.1198568362340919e-04 2.1282997840738824e-02 0.0000000000000000e+00  2.5931718519124901e-04 1.8854709692670717e-02 0.0000000000000000e+00  -3.6012514406442948e-04 1.7074811225460625e-02 0.0000000000000000e+00  3.2052847801756699e-05 1.5015436371786723e-02 0.0000000000000000e+00  1.7313596140485754e-04 1.3210949075020007e-02 0.0000000000000000e+00  -1.1410767805510951e-04 1.2029056058791936e-02 0.0000000000000000e+00  4.2426481094156778e-05 1.0517190293211687e-02 0.0000000000000000e+00  -1.6549652816371663e-05 9.4424097316163722e-03 0.0000000000000000e+00  5.9838398135746605e-05 8.4138019923174993e-03 0.0000000000000000e+00  -9.5303310750502352e-06 7.5089828126500922e-03 0.0000000000000000e+00  2.9850732717821764e-05 6.7418866410819305e-03 0.0000000000000000e+00  -9.0330452306792803e-06 5.9885198706909649e-03 0.0000000000000000e+00  -4.1112791534634803e-06 5.3371506084580632e-03 0.0000000000000000e+00  3.2000888455244372e-06 4.7599114169271511e-03 0.0000000000000000e+00  4.2136362187997571e-06 4.2041834534790054e-03 0.0000000000000000e+00  4.3639015099659302e-05 3.7290335287443713e-03 0.0000000000000000e+00  -9.0266749223606000e-05 3.3300935601693550e-03 0.0000000000000000e+00  3.9327905730822514e-05 2.8743061035986211e-03 0.0000000000000000e+00  -1.5016314002481716e-05 2.5659178125860562e-03 0.0000000000000000e+00  3.0089052919859774e-05 2.1667641154137158e-03 0.0000000000000000e+00  -3.0689620406536953e-05 1.9541411023864912e-03 0.0000000000000000e+00  -1.2332664571418766e-06 1.7032762000933688e-03 0.0000000000000000e+00  1.7472262771497312e-06 1.4502509235591618e-03 0.0000000000000000e+00  -5.7291078260140863e-07 1.2390831003947476e-03 0.0000000000000000e+00  6.1129457312360439e-06 1.0423893843496941e-03 0.0000000000000000e+00  -4.1809696383631099e-06 8.6216444907299733e-04 0.0000000000000000e+00  -2.7497054397746519e-06 6.9007296135807986e-04 0.0000000000000000e+00  4.7865368806074444e-06 5.6312657249454694e-04 0.0000000000000000e+00  -1.6989717956542612e-06 4.2231112121963923e-04 0.0000000000000000e+00  4.1596369747734244e-07 2.9889204759168210e-04 0.0000000000000000e+00  -4.5388918957362188e-06 1.9639851968740910e-04 0.0000000000000000e+00  -2.6344912732475686e-06 9.5368624169504357e-05 0.0000000000000000e+00  3.5727907483113403e-06 4.8229723115372580e-06 0.0000000000000000e+00  2.1864473767859795e-06 -8.4482889581039442e-05 0.0000000000000000e+00  -5.8012818440123752e-07 -1.7603311264440016e-04 0.0000000000000000e+00  -1.9173597898910780e-06 -2.3486621408058624e-04 0.0000000000000000e+00  -7.0898639333660538e-06 -2.6587449828905502e-04 0.0000000000000000e+00  -2.5895889474783411e-06 -3.1046940376313372e-04 0.0000000000000000e+00  7.1678257395915971e-06 -3.8399517660158002e-04 0.0000000000000000e+00  -5.9235487351825665e-06 -4.2055286064299766e-04 0.0000000000000000e+00  3.4110203915850706e-06 -4.5208234312313052e-04 0.0000000000000000e+00  -6.3856255450153568e-06 -4.9750114723509436e-04 0.0000000000000000e+00  -1.8095722522641397e-06 -5.1118254580247852e-04 0.0000000000000000e+00  -3.1913536715900387e-06 -5.2972110528387887e-04 0.0000000000000000e+00  -9.6129141544576089e-06 -5.4248178111655960e-04 0.0000000000000000e+00  6.0723223120530369e-06 -5.4673670506470175e-04 0.0000000000000000e+00  -8.1685051048145015e-06 -5.3610873972612767e-04 0.0000000000000000e+00  -5.9704887464656550e-06 -5.2400170020852860e-04 0.0000000000000000e+00  5.4429489201768558e-06 -5.5002273244321833e-04 0.0000000000000000e+00  -7.8982167343921187e-09 -5.7137781534328765e-04 0.0000000000000000e+00  -2.6917327185201950e-06 -5.6194914294894148e-04 0.0000000000000000e+00  -7.5796416936626417e-07 -5.5783809449680823e-04 0.0000000000000000e+00  -6.1020511938323182e-06 -5.4509898238225447e-04 0.0000000000000000e+00  -1.2173813904462706e-06 -5.2995292594652484e-04 0.0000000000000000e+00  -4.7147889558551179e-06 -5.1362576331857347e-04 0.0000000000000000e+00  1.0172494284438185e-06 -4.9591308985367079e-04 0.0000000000000000e+00  1.5987570646592688e-06 -4.8041450350894452e-04 0.0000000000000000e+00  -1.4654008728981211e-05 -4.7258971172633248e-04 0.0000000000000000e+00  4.6473450563236942e-05 -4.6198191007543009e-04 0.0000000000000000e+00  -3.9759151866734307e-05 -4.2862109559881832e-04 0.0000000000000000e+00  8.2794853307820626e-07 -3.9431330994944581e-04 0.0000000000000000e+00  -1.2053731302287449e-06 -3.6640736035534508e-04 0.0000000000000000e+00  2.5320472879263658e-06 -3.3139478537432405e-04 0.0000000000000000e+00  -1.4323422505973948e-05 -2.9599039725813810e-04 0.0000000000000000e+00  1.4490328976184746e-05 -2.8488741057072076e-04 0.0000000000000000e+00  1.6958105412892145e-06 -2.6891430723882220e-04 0.0000000000000000e+00  -6.4630943107057681e-06 -2.3491957692526737e-04 0.0000000000000000e+00  -4.1309577028427919e-06 -1.9925426396384747e-04 0.0000000000000000e+00  -6.3301561397981516e-08 -1.6392802237887307e-04 0.0000000000000000e+00  -3.9229261498826905e-07 -1.3133558727391320e-04 0.0000000000000000e+00  -1.8622546790831274e-06 -1.0021842921319803e-04 0.0000000000000000e+00  4.3286455560824534e-07 -6.9104441154504685e-05 0.0000000000000000e+00  7.1581745456527124e-07 -3.9084865189283756e-05 0.0000000000000000e+00  -2.9159099825497891e-06 -6.0110485219350234e-06 0.0000000000000000e+00  1.1983190841244556e-06 2.0682651021071205e-05 0.0000000000000000e+00  -1.2087581770117350e-06 5.0037040312875761e-05 0.0000000000000000e+00  3.5017272117860212e-06 7.4758794103010038e-05 0.0000000000000000e+00  -1.7510649946953015e-06 1.0069403727253084e-04 0.0000000000000000e+00  1.0462583132877290e-06 1.2854647051770005e-04 0.0000000000000000e+00  -1.6639500294448200e-06 1.5103965483135340e-04 0.0000000000000000e+00  1.7028706767795170e-06 1.7922338316012329e-04 0.0000000000000000e+00  -9.2760445909105392e-06 2.0103378611154078e-04 0.0000000000000000e+00  -4.8082988108581866e-06 1.9209784683037946e-04 0.0000000000000000e+00  2.2650824763969694e-05 2.3897881711199009e-04 0.0000000000000000e+00  -2.9873010998368622e-05 2.5770077768678766e-04 0.0000000000000000e+00  3.6665701889153178e-05 2.5961934233715775e-04 0.0000000000000000e+00  -2.7213267857785453e-05 2.6765311140857520e-04 0.0000000000000000e+00  -5.6297787656409852e-06 2.4893821247477338e-04 0.0000000000000000e+00  2.7991558585153789e-05 3.1191013390323620e-04 0.0000000000000000e+00  -8.9290271808388941e-06 3.1440703287083171e-04 0.0000000000000000e+00  7.4423627318868790e-07 3.1468654539869490e-04 0.0000000000000000e+00  2.7286829664591297e-05 2.7969977366109635e-04 0.0000000000000000e+00  -1.5305893623658168e-05 2.7944806990509610e-04 0.0000000000000000e+00  -5.2940914862124542e-06 3.0677444884813591e-04 0.0000000000000000e+00  1.1701015762597109e-06 3.2154417730066097e-04 0.0000000000000000e+00  -3.4795429276615114e-06 3.1609851429003992e-04 0.0000000000000000e+00  2.5930661389169947e-05 2.8031952298999133e-04 0.0000000000000000e+00  -1.3180541990302030e-05 2.7653252251049371e-04 0.0000000000000000e+00  -6.5110109050621477e-07 2.8972936276466847e-04 0.0000000000000000e+00  2.5634341695858411e-06 2.9094075132054105e-04 0.0000000000000000e+00  1.5212861916709921e-06 2.8527673062615376e-04 0.0000000000000000e+00  1.0290902288036392e-06 2.7858185488586270e-04 0.0000000000000000e+00  3.0043043693865920e-06 2.6755671755976460e-04 0.0000000000000000e+00  4.3969174980400146e-06 2.5380249013731346e-04 0.0000000000000000e+00  8.4061226219522474e-07 2.4532086112347243e-04 0.0000000000000000e+00  -3.8842240965955219e-06 2.4449249173101459e-04 0.0000000000000000e+00  2.1894006351088937e-06 2.4109190827535068e-04 0.0000000000000000e+00  1.0402444315416330e-06 2.3022819415372892e-04 0.0000000000000000e+00  7.1757149514619772e-06 2.1533240301855455e-04 0.0000000000000000e+00  -2.5323466566309694e-06 2.0903677353519934e-04 0.0000000000000000e+00  -4.5188657528313640e-06 2.0688795891566717e-04 0.0000000000000000e+00  1.5181244295921206e-05 1.7643943513413326e-04 0.0000000000000000e+00  3.1404049701600580e-06 1.5668509683905606e-04 0.0000000000000000e+00  -1.0557673105769329e-05 1.6172152821368433e-04 0.0000000000000000e+00  1.6696253442347923e-06 1.7642784592291082e-04 0.0000000000000000e+00  1.2346103728256938e-06 1.7024679270099172e-04 0.0000000000000000e+00  -1.8554996651706238e-05 1.6956732580168673e-04 0.0000000000000000e+00  6.4363251174022655e-05 5.3260284671799800e-05 0.0000000000000000e+00  5.5335504822666218e-05 -8.0047100332167448e-05 0.0000000000000000e+00  -2.2231289654957498e-05 5.2422320790301509e-05 0.0000000000000000e+00  9.8688799081030153e-06 -2.6324049116876054e-05 0.0000000000000000e+00  -3.7633834899994743e-06 5.0125048376234530e-06 0.0000000000000000e+00  -3.0798637008839589e-07 -5.2730577983268039e-06 0.0000000000000000e+00  1.0064496766537292e-06 -1.8642518597481055e-06 0.0000000000000000e+00  -5.7861879589211908e-07 -2.3054522315559338e-06 0.0000000000000000e+00  7.3391024931888174e-07 -3.6310053257018513e-06 0.0000000000000000e+00  9.2798487931461741e-07 -1.2289374359829711e-06 0.0000000000000000e+00  3.6549522524760327e-07 -3.6479110434453032e-06 0.0000000000000000e+00  2.0233656759324140e-07 -1.8315905104292548e-06 0.0000000000000000e+00  2.2804614297829692e-07 -4.1981128401676664e-06 0.0000000000000000e+00  -9.0485272909490404e-08 -1.9745564776920624e-06 0.0000000000000000e+00  3.5459728819628228e-07 -4.2877287752364564e-06 0.0000000000000000e+00  -2.9324634070324826e-08 -2.9200996948460679e-06 0.0000000000000000e+00  4.3195691322127003e-07 -2.5387563048946316e-06 0.0000000000000000e+00  1.0469349158358132e-06 -2.8232823358601549e-06 0.0000000000000000e+00  -1.1843689763996631e-07 -4.1384645238959334e-06 0.0000000000000000e+00  -1.2144671675827057e-06 -1.7514513968640375e-06 0.0000000000000000e+00  -1.9237900363055574e-06 -3.4569613701984382e-06 0.0000000000000000e+00  1.1801260397744516e-06 -3.7641470322934902e-06 0.0000000000000000e+00  -8.7433743039266200e-07 -2.0579003645855135e-06 0.0000000000000000e+00  2.0575463863539008e-07 -3.1566049018666785e-06 0.0000000000000000e+00  -3.1530505772514723e-07 -2.8573105342482103e-06 0.0000000000000000e+00  -1.4319336873353305e-06 -1.7011697498093262e-06 0.0000000000000000e+00  -7.2402710578625856e-06 -3.1684773584843191e-06 0.0000000000000000e+00  -1.6942378478955743e-06 -1.3858097396368868e-05 0.0000000000000000e+00  -1.6677522811861314e-06 -1.5590286759485615e-05 0.0000000000000000e+00  2.6307120798889703e-06 -1.7679188427657213e-05 0.0000000000000000e+00  -2.1954493624443508e-06 -1.4488041532622614e-05 0.0000000000000000e+00  4.0312756351234740e-07 -1.2495756640761803e-05 0.0000000000000000e+00  1.9968798284686447e-06 -1.2579429153888112e-05 0.0000000000000000e+00  -1.1302668597202268e-06 -1.5049259925423939e-05 0.0000000000000000e+00  6.7279808045534380e-07 -1.3062105714353761e-05 0.0000000000000000e+00  -1.9120503846807708e-07 -1.2874826524020999e-05 0.0000000000000000e+00  -8.4448593176521213e-07 -1.3245445497084595e-05 0.0000000000000000e+00  -1.1585736036903531e-06 -1.3923421623316176e-05 0.0000000000000000e+00  -7.8796547756355001e-07 -1.5166965412372898e-05 0.0000000000000000e+00  -9.7206586430832743e-07 -1.6225940225473285e-05 0.0000000000000000e+00  -8.1190177396771226e-07 -1.7358055488922080e-05 0.0000000000000000e+00  -8.2421005585634907e-07 -1.9406695567362897e-05 0.0000000000000000e+00  -1.5681735499580734e-06 -1.9933596044835908e-05 0.0000000000000000e+00  -3.8518662872931328e-07 -2.1183096910865194e-05 0.0000000000000000e+00  -5.2704350480786704e-07 -2.1898888160462540e-05 0.0000000000000000e+00  -3.0287349301686948e-07 -2.2563604852698859e-05 0.0000000000000000e+00  -6.6927964972755140e-07 -2.4481045747403354e-05 0.0000000000000000e+00  7.6053682744754631e-07 -2.5539954649127979e-05 0.0000000000000000e+00  -8.2955833081758116e-08 -2.8001696022313039e-05 0.0000000000000000e+00  1.0803353763564741e-06 -3.0619328942476637e-05 0.0000000000000000e+00  8.1055852467260379e-07 -3.0666391374199434e-05 0.0000000000000000e+00  5.0870074425079456e-06 -3.1836568737074036e-05 0.0000000000000000e+00  9.7554399669897789e-07 -3.2549939077261383e-05 0.0000000000000000e+00  7.6778715764478763e-06 -3.5617320751075624e-05 0.0000000000000000e+00  2.4179939092566402e-06 -3.2640084137494138e-05 0.0000000000000000e+00  2.3367533293982425e-05 -3.3693535120915425e-05 0.0000000000000000e+00  7.1379245136937015e-06 -2.9694033741308640e-05 0.0000000000000000e+00  -4.7945373474083890e-06 -4.0058913465035541e-05 0.0000000000000000e+00  1.8712752480833252e-05 -3.4628017887917426e-05 0.0000000000000000e+00  8.3628468939413098e-06 -4.4122620773277355e-05 0.0000000000000000e+00  1.9775861920383820e-05 -4.2519562723757915e-05 0.0000000000000000e+00  1.7782427059633855e-05 -4.4813282963704178e-05 0.0000000000000000e+00  2.7131910584555632e-05 -4.2030241574619977e-05 0.0000000000000000e+00  2.4965245931760883e-05 -4.0458201647570323e-05 0.0000000000000000e+00  3.6692807728463725e-05 -3.8335561824003774e-05 0.0000000000000000e+00  2.2843459386701525e-05 -4.1995618136035318e-05 0.0000000000000000e+00  3.2010301526286253e-05 -3.8408013969398489e-05 0.0000000000000000e+00  3.4545294140145477e-05 -4.0615992365774499e-05 0.0000000000000000e+00  4.4842685911210732e-05 -3.6738760877220550e-05 0.0000000000000000e+00  3.9682720562376270e-05 -3.7502221164191366e-05 0.0000000000000000e+00  4.7790568892801209e-05 -3.4992519399101080e-05 0.0000000000000000e+00  5.0623023797899557e-05 -3.4512284726724021e-05 0.0000000000000000e+00  5.4165506897545660e-05 -3.2612880175789843e-05 0.0000000000000000e+00  5.6434876922450781e-05 -3.0820063980165831e-05 0.0000000000000000e+00  6.0858027332992355e-05 -2.9186194647541169e-05 0.0000000000000000e+00  6.4830502409846461e-05 -2.6958841550961151e-05 0.0000000000000000e+00  6.6958826844304306e-05 -2.5337751258416023e-05 0.0000000000000000e+00  7.0290745349507164e-05 -2.3344426435851232e-05 0.0000000000000000e+00  7.4540622937446338e-05 -2.1336459348343641e-05 0.0000000000000000e+00  7.7288496179188132e-05 -1.8998159098017106e-05 0.0000000000000000e+00  7.9685683273150428e-05 -1.6756110349219291e-05 0.0000000000000000e+00  8.2273096482898578e-05 -1.4202645690520305e-05 0.0000000000000000e+00  8.4716967924129444e-05 -1.2268286019863061e-05 0.0000000000000000e+00  8.7554482382381905e-05 -1.0434780523107130e-05 0.0000000000000000e+00  8.8033649895550247e-05 -8.1890826048676049e-06 0.0000000000000000e+00  9.3224152101008438e-05 -6.8519524693724599e-06 0.0000000000000000e+00  9.7565610145047000e-05 -3.8490201245309716e-06 0.0000000000000000e+00  9.2236746471801949e-05 -3.0086917346388991e-06 0.0000000000000000e+00  9.5918080590811367e-05 -4.3318897178625961e-07 0.0000000000000000e+00  9.8316040306494591e-05 1.1567210292619170e-06 0.0000000000000000e+00  9.9374556422239706e-05 2.4343476584143558e-06 0.0000000000000000e+00  1.0096335854745868e-04 4.3244869027818402e-06 0.0000000000000000e+00  1.0146893056435058e-04 5.5924330300383678e-06 0.0000000000000000e+00  1.0201923430817668e-04 7.0827812552984720e-06 0.0000000000000000e+00  1.0202678060312103e-04 8.3104803022266764e-06 0.0000000000000000e+00  1.0147716203128119e-04 9.3387355816101283e-06 0.0000000000000000e+00  1.0164905669494224e-04 9.7679096030987728e-06 0.0000000000000000e+00  1.0146910422427164e-04 1.0779271313173101e-05 0.0000000000000000e+00  1.0179419664007026e-04 1.1240491990058105e-05 0.0000000000000000e+00  1.0116693074997655e-04 1.2319360004072497e-05 0.0000000000000000e+00  1.0068807870258668e-04 1.2750211119846682e-05 0.0000000000000000e+00  1.0011640946872217e-04 1.3626139667023850e-05 0.0000000000000000e+00  9.9422139673958337e-05 1.4511569502551468e-05 0.0000000000000000e+00  9.7545026953488543e-05 1.5210135219971012e-05 0.0000000000000000e+00  9.6037353348749717e-05 1.5507816504481451e-05 0.0000000000000000e+00  9.4283247207330620e-05 1.5897548716164449e-05 0.0000000000000000e+00  9.2844265031941727e-05 1.5524813950055803e-05 0.0000000000000000e+00  9.2362621305350139e-05 1.5592210479880394e-05 0.0000000000000000e+00  9.1383123247612381e-05 1.5777440339378382e-05 0.0000000000000000e+00  8.9700060577388224e-05 1.6001065118427270e-05 0.0000000000000000e+00  8.8440136310648411e-05 1.6575710950798290e-05 0.0000000000000000e+00  8.6109689928787087e-05 1.6546521333454756e-05 0.0000000000000000e+00  8.4012853582697005e-05 1.6581246574726240e-05 0.0000000000000000e+00  8.1993377283046234e-05 1.6100308965014744e-05 0.0000000000000000e+00  7.8914851302619364e-05 1.5994809743829371e-05 0.0000000000000000e+00  7.7532597937681101e-05 1.5804788501331973e-05 0.0000000000000000e+00  7.4817718273540714e-05 1.5828537386719696e-05 0.0000000000000000e+00  7.3285346289078617e-05 1.6652068618132792e-05 0.0000000000000000e+00  7.4659178771441597e-05 1.7420018507057360e-05 0.0000000000000000e+00  6.8091421556621949e-05 2.1823670674903049e-05 0.0000000000000000e+00  6.6250322386190549e-05 1.8282056851411903e-05 0.0000000000000000e+00  6.6093421644754802e-05 1.6630646739929262e-05 0.0000000000000000e+00  6.2273994565979044e-05 1.6238994433246855e-05 0.0000000000000000e+00  6.1913297153937024e-05 1.5479242556814547e-05 0.0000000000000000e+00  5.9442041040657558e-05 1.5216670038247362e-05 0.0000000000000000e+00  5.7697447657550304e-05 1.5160476578148897e-05 0.0000000000000000e+00  5.6871211874365076e-05 1.4551093597478038e-05 0.0000000000000000e+00  5.4851141735459029e-05 1.4229529683002262e-05 0.0000000000000000e+00  5.2002156654479436e-05 1.3994977551087971e-05 0.0000000000000000e+00  5.0130210080781814e-05 1.3674758880815721e-05 0.0000000000000000e+00  4.7797273659522536e-05 1.3316672246142436e-05 0.0000000000000000e+00  4.6673119169096004e-05 1.3197102722554235e-05 0.0000000000000000e+00  4.4471742174975490e-05 1.3208330676259396e-05 0.0000000000000000e+00  4.2394754963249381e-05 1.3372090425187678e-05 0.0000000000000000e+00  4.0138708435452799e-05 1.2604919996180242e-05 0.0000000000000000e+00  3.7929290381896590e-05 1.1537523493151968e-05 0.0000000000000000e+00  3.6013798741314547e-05 1.1266372412962249e-05 0.0000000000000000e+00  3.5187667860178612e-05 1.1305490550831754e-05 0.0000000000000000e+00  3.3560113759715458e-05 1.1136728456987241e-05 0.0000000000000000e+00  3.2046936295865930e-05 1.0835393536334851e-05 0.000000000