<?xml version="1.0"?>
<VTKFile type="UnstructuredGrid"  version="0.1"  >
<UnstructuredGrid>
<Piece  NumberOfPoints="18082" NumberOfCells="35500">
<Points>
<DataArray  type="Float64"  NumberOfComponents="3"  format="ascii">0 0 0  30 0 0  30 -10 0  0 -10 0  0.02360821169319077 0 0  0.04721642338638154 0 0  0.07206717063563725 0 0  0.09691791788489297 0 0  0.1230766011355843 0 0  0.1492352843862757 0 0  0.1767707375239038 0 0  0.204306190661532 0 0  0.2332908770901271 0 0  0.2622755635187223 0 0  0.2927857633803451 0 0  0.323295963241968 0 0  0.3554119623832387 0 0  0.3875279615245094 0 0  0.4213342730081758 0 0  0.4551405844918422 0 0  0.4907261762804851 0 0  0.526311768069128 0 0  0.5637702848355051 0 0  0.6012288016018821 0 0  0.6406588220121138 0 0  0.6800888424223455 0 0  0.721594129780935 0 0  0.7630994171395246 0 0  0.8067891887833475 0 0  0.8504789604271704 0 0  0.8964681941825949 0 0  0.9424574279380195 0 0  0.9908671465681095 0 0  1.039276865198199 0 0  1.090234462786975 0 0  1.141192060375751 0 0  1.194831641933244 0 0  1.248471223490737 0 0  1.304933942963653 0 0  1.361396662436569 0 0  1.420831104471586 0 0  1.480265546506604 0 0  1.542828113436244 0 0  1.605390680365884 0 0  1.671246013469327 0 0  1.73710134657277 0 0  1.806422752814762 0 0  1.875744159056755 0 0  1.948714057431306 0 0  2.021683955805857 0 0  2.098494373901932 0 0  2.175304791998006 0 0  2.256157866653476 0 0  2.337010941308945 0 0  2.422119443935387 0 0  2.50722794656183 0 0  2.596815840700639 0 0  2.686403734839449 0 0  2.780706776094687 0 0  2.875009817349925 0 0  2.974276175689285 0 0  3.073542534028646 0 0  3.178033441002704 0 0  3.282524347976761 0 0  3.392514777963501 0 0  3.502505207950242 0 0  3.618284608533553 0 0  3.734064009116865 0 0  3.855937062816526 0 0  3.977810116516187 0 0  4.106097541496641 0 0  4.234384966477093 0 0  4.369424362562147 0 0  4.5044637586472 0 0  4.646610489729194 0 0  4.788757220811188 0 0  4.938385356669961 0 0  5.088013492528733 0 0  5.24551679218304 0 0  5.403020091837347 0 0  5.568813038399614 0 0  5.73460598496188 0 0  5.909124878408681 0 0  6.083643771855482 0 0  6.267347873338513 0 0  6.451051974821543 0 0  6.644424714363561 0 0  6.83779745390558 0 0  7.041347702348167 0 0  7.244897950790754 0 0  7.459161368238869 0 0  7.673424785686984 0 0  7.898965226038037 0 0  8.124505666389089 0 0  8.361916654054033 0 0  8.599327641718979 0 0  8.849233942517035 0 0  9.099140243315093 0 0  9.362199507946787 0 0  9.625258772578484 0 0  9.902163261537794 0 0  10.1790677504971 0 0  10.47054616023911 0 0  10.76202456998112 0 0  11.06884394887334 0 0  11.37566332776555 0 0  11.69863109504192 0 0  12.02159886231829 0 0  12.3615649378891 0 0  12.7015310134599 0 0  13.05939003847426 0 0  13.41724906348862 0 0  13.79394276982091 0 0  14.1706364761532 0 0  14.5671561683298 0 0  14.96367586050641 0 0  15.38106501332897 0 0  15.79845416615153 0 0  16.23781117165827 0 0  16.677168177165 0 0  17.13964923659526 0 0  17.60213029602552 0 0  18.0889524622663 0 0  18.57577462850707 0 0  19.08821901304263 0 0  19.60066339757818 0 0  20.14007853843172 0 0  20.67949367928525 0 0  21.24729908993883 0 0  21.8151045005924 0 0  22.41279440541421 0 0  23.01048431023601 0 0  23.63963157605829 0 0  24.26877884188056 0 0  24.93103912515648 0 0  25.59329940843241 0 0  26.29041549584691 0 0  26.98753158326142 0 0  27.72133799026916 0 0  28.45514439727691 0 0  29.22757219863846 0 0  30 -0.3571428571428571 0  30 -0.7142857142857142 0  30 -1.071428571428571 0  30 -1.428571428571428 0  30 -1.785714285714286 0  30 -2.142857142857143 0  30 -2.5 0  30 -2.857142857142857 0  30 -3.214285714285714 0  30 -3.571428571428571 0  30 -3.928571428571428 0  30 -4.285714285714286 0  30 -4.642857142857142 0  30 -5 0  30 -5.357142857142857 0  30 -5.714285714285714 0  30 -6.071428571428571 0  30 -6.428571428571428 0  30 -6.785714285714285 0  30 -7.142857142857142 0  30 -7.5 0  30 -7.857142857142857 0  30 -8.214285714285714 0  30 -8.571428571428571 0  30 -8.928571428571427 0  30 -9.285714285714285 0  30 -9.642857142857142 0  29.22757220128658 -10 0  28.45514440257316 -10 0  27.72133799277628 -10 0  26.98753158297939 -10 0  26.29041549304805 -10 0  25.5932994031167 -10 0  24.93103911757599 -10 0  24.26877883203527 -10 0  23.63963156418132 -10 0  23.01048429632737 -10 0  22.41279438968936 -10 0  21.81510448305136 -10 0  21.24729907078059 -10 0  20.67949365850982 -10 0  20.14007851622273 -10 0  19.60066337393564 -10 0  19.08821898813588 -10 0  18.57577460233611 -10 0  18.08895243498708 -10 0  17.60213026763805 -10 0  17.13964920724307 -10 0  16.6771681468481 -10 0  16.2378111405086 -10 0  15.79845413416909 -10 0  15.38106498063496 -10 0  14.96367582710082 -10 0  14.56715613432376 -10 0  14.17063644154669 -10 0  13.79394273471576 -10 0  13.41724902788484 -10 0  13.05939000246495 -10 0  12.70153097704506 -10 0  12.36156490115379 -10 0  12.02159882526251 -10 0  11.69863105774323 -10 0  11.37566329022395 -10 0  11.06884391115945 -10 0  10.76202453209494 -10 0  10.47054612224479 -10 0  10.17906771239465 -10 0  9.902163223385379 -10 0  9.625258734376107 -10 0  9.362199469747061 -10 0  9.099140205118012 -10 0  8.849233904370102 -10 0  8.599327603622193 -10 0  8.361916616050124 -10 0  8.124505628478055 -10 0  7.898965188258209 -10 0  7.673424748038361 -10 0  7.459161330755727 -10 0  7.244897913473093 -10 0  7.041347665226496 -10 0  6.837797416979896 -10 0  6.644424677660922 -10 0  6.451051938341948 -10 0  6.26734783710581 -10 0  6.083643735869675 -10 0  5.90912484269068 -10 0  5.734605949511682 -10 0  5.568813003235423 -10 0  5.403020056959164 -10 0  5.24551675760658 -10 0  5.088013458254 -10 0  4.938385322710374 -10 0  4.788757187166745 -10 0  4.646610456411224 -10 0  4.504463725655707 -10 0  4.369424329906533 -10 0  4.234384934157362 -10 0  4.106097509520442 -10 0  3.977810084883522 -10 0  3.85593703153344 -10 0  3.734063978183357 -10 0  3.618284577954206 -10 0  3.502505177725055 -10 0  3.392514748095728 -10 0  3.282524318466404 -10 0  3.1780334118518 -10 0  3.073542505237196 -10 0  2.97427614725823 -10 0  2.875009789279265 -10 0  2.780706748384375 -10 0  2.686403707489482 -10 0  2.596815813710069 -10 0  2.507227919930656 -10 0  2.422119417661861 -10 0  2.337010915393062 -10 0  2.256157841092762 -10 0  2.175304766792465 -10 0  2.098494349048437 -10 0  2.021683931304413 -10 0  1.948714033278215 -10 0  1.875744135252013 -10 0  1.806422729354161 -10 0  1.737101323456312 -10 0  1.671245990692352 -10 0  1.605390657928396 -10 0  1.542828091333185 -10 0  1.480265524737977 -10 0  1.420831083031992 -10 0  1.36139664132601 -10 0  1.304933922176438 -10 0  1.248471203026863 -10 0  1.194831621786765 -10 0  1.14119204054667 -10 0  1.09023444350921 -10 0  1.039276846471754 -10 0  0.9908671279064798 -10 0  0.942457409341209 -10 0  0.8964681758842019 -10 0  0.8504789424271948 -10 0  0.8067891710751951 -10 0  0.7630993997231954 -10 0  0.7215941126497469 -10 0  0.6800888255762949 -10 0  0.6406588054444597 -10 0  0.6012287853126246 -10 0  0.5637702688178621 -10 0  0.5263117523230996 -10 0  0.4907261607992695 -10 0  0.4551405692754429 -10 0  0.4213342580497894 -10 0  0.3875279468241395 -10 0  0.3554119479341011 -10 0  0.3232959490440663 -10 0  0.2927857494269297 -10 0  0.2622755498097931 -10 0  0.2332908636189828 -10 0  0.2043061774281725 -10 0  0.1767707245216883 -10 0  0.1492352716152006 -10 0  0.1230765885890825 -10 0  0.09691790556296098 -10 0  0.0720671585317838 -10 0  0.04721641150060663 -10 0  0.02360820575030331 -10 0  0 -9.972067039106145 0  0 -9.94413407821229 0  0 -9.916201117318435 0  0 -9.888268156424582 0  0 -9.860335195530727 0  0 -9.832402234636872 0  0 -9.804469273743017 0  0 -9.776536312849162 0  0 -9.748603351955307 0  0 -9.720670391061452 0  0 -9.692737430167599 0  0 -9.664804469273744 0  0 -9.636871508379889 0  0 -9.608938547486034 0  0 -9.581005586592179 0  0 -9.553072625698324 0  0 -9.525139664804469 0  0 -9.497206703910614 0  0 -9.46927374301676 0  0 -9.441340782122905 0  0 -9.41340782122905 0  0 -9.385474860335195 0  0 -9.35754189944134 0  0 -9.329608938547485 0  0 -9.30167597765363 0  0 -9.273743016759777 0  0 -9.245810055865922 0  0 -9.217877094972067 0  0 -9.189944134078212 0  0 -9.162011173184357 0  0 -9.134078212290502 0  0 -9.106145251396647 0  0 -9.078212290502794 0  0 -9.050279329608939 0  0 -9.022346368715084 0  0 -8.994413407821229 0  0 -8.966480446927374 0  0 -8.938547486033519 0  0 -8.910614525139664 0  0 -8.882681564245811 0  0 -8.854748603351956 0  0 -8.826815642458101 0  0 -8.798882681564246 0  0 -8.770949720670391 0  0 -8.743016759776536 0  0 -8.715083798882681 0  0 -8.687150837988828 0  0 -8.659217877094973 0  0 -8.631284916201118 0  0 -8.603351955307263 0  0 -8.575418994413408 0  0 -8.547486033519553 0  0 -8.519553072625698 0  0 -8.491620111731844 0  0 -8.463687150837989 0  0 -8.435754189944134 0  0 -8.407821229050279 0  0 -8.379888268156424 0  0 -8.351955307262569 0  0 -8.324022346368714 0  0 -8.296089385474861 0  0 -8.268156424581006 0  0 -8.240223463687151 0  0 -8.212290502793296 0  0 -8.184357541899441 0  0 -8.156424581005586 0  0 -8.128491620111731 0  0 -8.100558659217878 0  0 -8.072625698324023 0  0 -8.044692737430168 0  0 -8.016759776536313 0  0 -7.988826815642458 0  0 -7.960893854748603 0  0 -7.932960893854748 0  0 -7.905027932960894 0  0 -7.877094972067039 0  0 -7.849162011173184 0  0 -7.82122905027933 0  0 -7.793296089385475 0  0 -7.76536312849162 0  0 -7.737430167597765 0  0 -7.709497206703911 0  0 -7.681564245810056 0  0 -7.653631284916202 0  0 -7.625698324022347 0  0 -7.597765363128492 0  0 -7.569832402234637 0  0 -7.541899441340782 0  0 -7.513966480446927 0  0 -7.486033519553073 0  0 -7.458100558659218 0  0 -7.430167597765363 0  0 -7.402234636871508 0  0 -7.374301675977653 0  0 -7.346368715083798 0  0 -7.318435754189944 0  0 -7.290502793296089 0  0 -7.262569832402235 0  0 -7.23463687150838 0  0 -7.206703910614525 0  0 -7.17877094972067 0  0 -7.150837988826815 0  0 -7.12290502793296 0  0 -7.094972067039106 0  0 -7.067039106145251 
[...]
<PointData  Vectors="flow"> 
<DataArray  type="Float64"  Name="flow"  NumberOfComponents="3" format="ascii">3.0742708821587557e-05 -1.3430664137245015e-03 0.0000000000000000e+00  -1.6108575940553629e-06 3.1597635820827536e-05 0.0000000000000000e+00  -4.3628954562292808e-08 -9.8763959699393147e-07 0.0000000000000000e+00  2.0440779966553541e-07 -6.2095997504263237e-07 0.0000000000000000e+00  -5.6595373633552497e-06 -1.3475778800597221e-03 0.0000000000000000e+00  -3.7711950517992950e-06 -1.3335773748209964e-03 0.0000000000000000e+00  2.9701013011846364e-06 -1.3423027801774913e-03 0.0000000000000000e+00  -1.0621691535262262e-05 -1.3416142549487588e-03 0.0000000000000000e+00  4.9129182657242916e-06 -1.3490674695008475e-03 0.0000000000000000e+00  -1.7403106480501970e-06 -1.3704389576816411e-03 0.0000000000000000e+00  -3.6759569613228673e-07 -1.3939000531338335e-03 0.0000000000000000e+00  3.5851706013310247e-06 -1.4343037162235315e-03 0.0000000000000000e+00  -3.0945871208569600e-06 -1.4865383562817178e-03 0.0000000000000000e+00  8.6138952563968446e-06 -1.5584990253000445e-03 0.0000000000000000e+00  -1.7608439321276344e-06 -1.6398002190698151e-03 0.0000000000000000e+00  5.4613923780143884e-07 -1.7138783527792499e-03 0.0000000000000000e+00  9.4415738274376013e-06 -1.8116958682380167e-03 0.0000000000000000e+00  -4.0455638216219326e-05 -1.8370293405568984e-03 0.0000000000000000e+00  1.7945837993469475e-05 -1.8734646079430828e-03 0.0000000000000000e+00  -2.8851427973496389e-05 -1.8890655953712420e-03 0.0000000000000000e+00  1.1423521406167852e-05 -1.8572132285059892e-03 0.0000000000000000e+00  -3.0632291359557683e-05 -1.7715125640293521e-03 0.0000000000000000e+00  1.2689643103772379e-05 -1.6607774207757023e-03 0.0000000000000000e+00  -1.9052901312054579e-05 -1.4994505375255751e-03 0.0000000000000000e+00  1.5270746770173569e-05 -1.2857289360234110e-03 0.0000000000000000e+00  -4.0165826101232260e-05 -9.9065506081393267e-04 0.0000000000000000e+00  -1.6714807149070610e-05 -6.2008699552151445e-04 0.0000000000000000e+00  6.4911034288598723e-05 -3.5175012162883424e-04 0.0000000000000000e+00  5.3806612618076993e-06 -6.2358549932452415e-05 0.0000000000000000e+00  -3.5712077072761401e-05 4.1385651021493773e-04 0.0000000000000000e+00  1.2051860748783154e-05 7.7222529762376523e-04 0.0000000000000000e+00  -2.3307083721894359e-05 1.1919471878838750e-03 0.0000000000000000e+00  -6.5794032231671471e-06 1.5409129508991348e-03 0.0000000000000000e+00  4.1216325425877360e-06 1.8527798708274765e-03 0.0000000000000000e+00  1.8733200127859238e-06 2.1657274935496739e-03 0.0000000000000000e+00  -2.2410157677434238e-07 2.4132277934238860e-03 0.0000000000000000e+00  9.2500500306632901e-07 2.6330920485184896e-03 0.0000000000000000e+00  1.2688753456322867e-06 2.8133967679522609e-03 0.0000000000000000e+00  -1.9337174386319562e-06 2.9448909832141871e-03 0.0000000000000000e+00  4.8273258327088489e-06 3.0386489786792337e-03 0.0000000000000000e+00  -2.9849838141299287e-06 3.1031478849954199e-03 0.0000000000000000e+00  7.0150229866998007e-06 3.1341117667401824e-03 0.0000000000000000e+00  -8.7474112168394269e-06 3.1542832813515435e-03 0.0000000000000000e+00  2.4593884512639821e-05 3.1215577933246109e-03 0.0000000000000000e+00  -3.6345959609243794e-07 3.0660698307851007e-03 0.0000000000000000e+00  -1.1075562307108858e-05 3.0345269176309717e-03 0.0000000000000000e+00  2.6935970187967199e-06 2.9773195300074463e-03 0.0000000000000000e+00  -7.7636250745561959e-07 2.9019702126668340e-03 0.0000000000000000e+00  -1.2978710851714294e-09 2.8256126121729203e-03 0.0000000000000000e+00  1.8476759740178773e-06 2.7391983580925682e-03 0.0000000000000000e+00  6.0769044906366882e-07 2.6460339662257191e-03 0.0000000000000000e+00  -1.9625224626292966e-06 2.5564924264991165e-03 0.0000000000000000e+00  -4.7245496984909216e-06 2.4713510080451775e-03 0.0000000000000000e+00  1.6229475457398492e-05 2.3556864564607473e-03 0.0000000000000000e+00  -5.5074749959166009e-06 2.2536259630721849e-03 0.0000000000000000e+00  8.4757842597338075e-06 2.1549209560402446e-03 0.0000000000000000e+00  -2.0078677252275067e-06 2.0589389162315131e-03 0.0000000000000000e+00  3.3917815955780412e-06 1.9666249013435408e-03 0.0000000000000000e+00  -6.2825327659153654e-06 1.8853896687752289e-03 0.0000000000000000e+00  1.6954507753272828e-05 1.7848036456942324e-03 0.0000000000000000e+00  -3.4000002872653427e-06 1.6907276245782708e-03 0.0000000000000000e+00  4.7140505624185718e-06 1.6077617353934153e-03 0.0000000000000000e+00  -1.3512254748312825e-06 1.5326855951469113e-03 0.0000000000000000e+00  1.6218903436681871e-06 1.4597208188282184e-03 0.0000000000000000e+00  -2.4662766927286331e-06 1.3876046539447629e-03 0.0000000000000000e+00  7.3406833357024377e-06 1.3095804655382922e-03 0.0000000000000000e+00  -9.0178571858394551e-06 1.2583508111236616e-03 0.0000000000000000e+00  2.8550846489954530e-05 1.1655954016741178e-03 0.0000000000000000e+00  -2.5796476854086742e-06 1.0885671411035079e-03 0.0000000000000000e+00  -5.8949107578873983e-06 1.0464913836213919e-03 0.0000000000000000e+00  4.4020446580961800e-07 9.9338223842274174e-04 0.0000000000000000e+00  3.5143763793560437e-06 9.3882282574636285e-04 0.0000000000000000e+00  -6.7104959024814340e-07 8.8725657641522469e-04 0.0000000000000000e+00  -4.1094150137234599e-07 8.4315875076122250e-04 0.0000000000000000e+00  -9.3927642968171514e-08 8.0003514096874118e-04 0.0000000000000000e+00  4.9476091896778386e-07 7.5736816188124942e-04 0.0000000000000000e+00  -3.2096195883561160e-07 7.1822383881903792e-04 0.0000000000000000e+00  9.3238464115891232e-07 6.7908015547498194e-04 0.0000000000000000e+00  -5.2298224838721009e-07 6.4277444581990403e-04 0.0000000000000000e+00  1.5739710430114006e-06 6.0637331068451642e-04 0.0000000000000000e+00  -3.1947767711973354e-06 5.7733909647139994e-04 0.0000000000000000e+00  1.1465059277354861e-05 5.3416959673183119e-04 0.0000000000000000e+00  -1.6688245767559509e-06 4.9520783722270924e-04 0.0000000000000000e+00  4.0890566092175264e-07 4.7186858486610001e-04 0.0000000000000000e+00  4.3982931949792885e-07 4.4233705176503763e-04 0.0000000000000000e+00  -2.3383828818315072e-06 4.1948512467251866e-04 0.0000000000000000e+00  1.1048848307906597e-07 3.9856793243485232e-04 0.0000000000000000e+00  1.3768509149659904e-06 3.7329443062079383e-04 0.0000000000000000e+00  -1.3327695122205296e-06 3.5250330072217670e-04 0.0000000000000000e+00  4.2393313138719109e-06 3.2671512956538245e-04 0.0000000000000000e+00  -2.4929666126393465e-06 3.0843848947269753e-04 0.0000000000000000e+00  7.6275158497763205e-06 2.8269533285933018e-04 0.0000000000000000e+00  -8.2816309327867884e-07 2.6007122621093519e-04 0.0000000000000000e+00  -1.1875612963138518e-06 2.4690687798113926e-04 0.0000000000000000e+00  2.4519128727796391e-06 2.2850433760359152e-04 0.0000000000000000e+00  -9.7006351181949155e-06 2.2083224510175783e-04 0.0000000000000000e+00  -2.8112506543140195e-07 2.2458866055474381e-04 0.0000000000000000e+00  7.5810301535442631e-06 1.9052508784768473e-04 0.0000000000000000e+00  -8.1905242355889046e-07 1.7469816647902632e-04 0.0000000000000000e+00  -8.1089800939269455e-07 1.6609771697096210e-04 0.0000000000000000e+00  -3.5944113216212430e-07 1.5540367876606023e-04 0.0000000000000000e+00  1.9393236381458017e-06 1.4277904945317820e-04 0.0000000000000000e+00  -8.0402637280433444e-07 1.3248235245278165e-04 0.0000000000000000e+00  2.3176625379410407e-06 1.2132691853671694e-04 0.0000000000000000e+00  -5.9785901052612064e-07 1.1162186948480145e-04 0.0000000000000000e+00  9.6804490804998463e-07 1.0364488507537376e-04 0.0000000000000000e+00  -2.1768841102187748e-07 9.5951560199402074e-05 0.0000000000000000e+00  4.8569880642751582e-07 8.9331902259968130e-05 0.0000000000000000e+00  -2.8511501852728916e-07 8.3170607000956597e-05 0.0000000000000000e+00  1.0919818073796760e-06 7.6843699454300261e-05 0.0000000000000000e+00  -7.7724749320920048e-07 7.1978000540898524e-05 0.0000000000000000e+00  3.1104301710204641e-06 6.4913231397137854e-05 0.0000000000000000e+00  -1.9158119949286773e-07 5.8680714664305789e-05 0.0000000000000000e+00  -1.4139751564399942e-06 5.7242301891450930e-05 0.0000000000000000e+00  3.4589130191540422e-07 5.5253595020050654e-05 0.0000000000000000e+00  -4.7170977021634560e-07 5.2669683992778744e-05 0.0000000000000000e+00  1.7570903046556912e-07 5.0636411325451992e-05 0.0000000000000000e+00  -5.1627300646862739e-07 4.8773060698701059e-05 0.0000000000000000e+00  -4.1650586586413483e-09 4.7774774163892023e-05 0.0000000000000000e+00  6.3916110800777408e-07 4.5189945038503233e-05 0.0000000000000000e+00  -3.2262370594263042e-07 4.3588292706604529e-05 0.0000000000000000e+00  1.3070629204784994e-06 4.1257016246269244e-05 0.0000000000000000e+00  7.7407694053490504e-08 3.8736268333617746e-05 0.0000000000000000e+00  -1.8471347479112683e-06 3.9628525681353977e-05 0.0000000000000000e+00  -3.9621206567110627e-07 4.2711404060129666e-05 0.0000000000000000e+00  1.1782303998841030e-06 3.5213657408506000e-05 0.0000000000000000e+00  1.6460105514469366e-07 3.6280179430169255e-05 0.0000000000000000e+00  -1.5099565963489968e-07 3.5510575804573161e-05 0.0000000000000000e+00  6.0293657563981255e-08 3.5991869352307795e-05 0.0000000000000000e+00  -4.7589346395085846e-07 3.4938014462136671e-05 0.0000000000000000e+00  -5.8187088407015618e-07 3.7016912102230244e-05 0.0000000000000000e+00  1.5859990591412595e-06 2.9627433548883012e-05 0.0000000000000000e+00  1.2710609651133471e-07 3.0140914043081532e-05 0.0000000000000000e+00  -5.0002007184369018e-07 3.0382133740501802e-05 0.0000000000000000e+00  1.6051517747319412e-07 3.0643391428669050e-05 0.0000000000000000e+00  -1.5452990386307876e-07 3.0303034735011374e-05 0.0000000000000000e+00  -2.7043757498679549e-08 3.0306685794940561e-05 0.0000000000000000e+00  4.8368488786465393e-07 2.9736799311873052e-05 0.0000000000000000e+00  -7.5592140785364473e-08 2.8498401623991396e-05 0.0000000000000000e+00  -1.3909136518917647e-06 3.0233022183121534e-05 0.0000000000000000e+00  5.5174982774542294e-07 3.1593347532824879e-05 0.0000000000000000e+00  2.0896203556433208e-06 1.2681358596999181e-05 0.0000000000000000e+00  1.3922484102960773e-07 3.8083262388903368e-06 0.0000000000000000e+00  6.8695772351226795e-07 -1.5246503245682075e-06 0.0000000000000000e+00  -7.4139304760139865e-08 -5.7434505534670669e-07 0.0000000000000000e+00  -7.0496967165592690e-08 -3.8084700017338007e-07 0.0000000000000000e+00  2.6431465533689384e-08 -6.0988804762309123e-07 0.0000000000000000e+00  4.5267424792950212e-09 -6.3570834931417163e-07 0.0000000000000000e+00  1.3218687657194656e-08 -5.7762420328347366e-07 0.0000000000000000e+00  1.6829142524462419e-08 -5.5167379706601423e-07 0.0000000000000000e+00  2.6439392405603575e-08 -6.0717140287437592e-07 0.0000000000000000e+00  4.8453671243285646e-10 -6.7520220398882516e-07 0.0000000000000000e+00  -2.1219238399979327e-08 -6.2975381951715170e-07 0.0000000000000000e+00  -3.0896292175191693e-08 -6.8321568138795083e-07 0.0000000000000000e+00  -1.9689076608145969e-08 -6.8934867619507601e-07 0.0000000000000000e+00  8.0643429263102715e-09 -6.4970998529101512e-07 0.0000000000000000e+00  1.8796242521971831e-08 -7.6636890973072078e-07 0.0000000000000000e+00  3.5787248764876668e-08 -8.3072944363846084e-07 0.0000000000000000e+00  1.8015003775633543e-08 -7.7858704632962781e-07 0.0000000000000000e+00  1.1167905025411411e-08 -7.4016917002867492e-07 0.0000000000000000e+00  1.6520488191965299e-08 -7.9515867993053775e-07 0.0000000000000000e+00  5.5532750980331020e-09 -1.0452270737906462e-06 0.0000000000000000e+00  -3.5134291271198018e-08 -9.8995323059931669e-07 0.0000000000000000e+00  -5.5627427558068550e-08 -8.9604987839141230e-07 0.0000000000000000e+00  -4.4096203108788665e-08 -8.0535202218468164e-07 0.0000000000000000e+00  -1.2309150826100853e-07 -4.9451531101190510e-07 0.0000000000000000e+00  -1.5417981765303402e-07 -9.0233780029700758e-07 0.0000000000000000e+00  -4.8916726195329211e-07 -1.4419310277507627e-06 0.0000000000000000e+00  -4.8502418597901500e-08 -8.9474777564835816e-07 0.0000000000000000e+00  -2.2156580256578925e-07 -1.1428055332041182e-06 0.0000000000000000e+00  2.5525280305830706e-07 -1.2212152763152828e-06 0.0000000000000000e+00  1.5551465516496495e-07 -1.3526431826318236e-06 0.0000000000000000e+00  6.7115973480467103e-08 -1.3083449310483347e-06 0.0000000000000000e+00  2.2652756562727241e-07 -1.3843854207155053e-06 0.0000000000000000e+00  2.3325690702825611e-07 -1.4310308434171490e-06 0.0000000000000000e+00  2.3783177786836046e-07 -1.5319916175023914e-06 0.0000000000000000e+00  4.6796754824538478e-07 -1.6197234846761932e-06 0.0000000000000000e+00  4.6686817439101999e-07 -1.7265113776155810e-06 0.0000000000000000e+00  5.3710458310096878e-07 -1.7523467073846144e-06 0.0000000000000000e+00  1.0626949970279446e-06 -1.6081940503346586e-06 0.0000000000000000e+00  1.0162051957649917e-06 -1.5335339513294158e-06 0.0000000000000000e+00  1.1673103710564718e-06 -1.4608625659872134e-06 0.0000000000000000e+00  1.2567033091920995e-06 -1.4669157953122311e-06 0.0000000000000000e+00  1.4957281261083502e-06 -1.4460455662273868e-06 0.0000000000000000e+00  1.6464502542061816e-06 -1.4306811669248518e-06 0.0000000000000000e+00  1.8525671937036542e-06 -1.3589024730148514e-06 0.0000000000000000e+00  2.0252944109374450e-06 -1.2622844509086668e-06 0.0000000000000000e+00  2.4644585592769569e-06 -1.1166623385122817e-06 0.0000000000000000e+00  2.6289065958680023e-06 -1.0204893581658488e-06 0.0000000000000000e+00  2.8582024948174685e-06 -9.3166380935602491e-07 0.0000000000000000e+00  2.8934437335637883e-06 -8.4311740954722423e-07 0.0000000000000000e+00  3.1508450709585162e-06 -8.1032064539271743e-07 0.0000000000000000e+00  3.5423066717586181e-06 -6.9097317775933913e-07 0.0000000000000000e+00  3.7221292772054569e-06 -4.5829130970288937e-07 0.0000000000000000e+00  3.8152876472278454e-06 -2.8070705013976755e-07 0.0000000000000000e+00  4.0546362998471945e-06 -6.8805706020224758e-08 0.0000000000000000e+00  4.1494882048470031e-06 1.1320821558134017e-07 0.0000000000000000e+00  4.1923304422115733e-06 3.4439261959944813e-07 0.0000000000000000e+00  4.1842242761931414e-06 4.8819122370618118e-07 0.0000000000000000e+00  4.1973968548815034e-06 7.0087224620793160e-07 0.0000000000000000e+00  4.1382759493177209e-06 9.0494318730726615e-07 0.0000000000000000e+00  4.0288163123528114e-06 1.1504591986491320e-06 0.0000000000000000e+00  3.8741604877318666e-06 1.3963673020749021e-06 0.0000000000000000e+00  3.6201485143375146e-06 1.6794747206478582e-06 0.0000000000000000e+00  3.3685317377686073e-06 1.9548110494983239e-06 0.0000000000000000e+00  2.9671785848585759e-06 2.3205769306405570e-06 0.0000000000000000e+00  2.3511575815680925e-06 2.6164743161694064e-06 0.0000000000000000e+00  1.5269928187947718e-06 2.6517123793211674e-06 0.0000000000000000e+00  8.3578229034435302e-07 2.5979883765052091e-06 0.0000000000000000e+00  2.8233351814963829e-07 2.6389655146056672e-06 0.0000000000000000e+00  -4.6745804535192089e-07 2.7168321746794348e-06 0.0000000000000000e+00  -1.3297377211303911e-06 2.7620569662604653e-06 0.0000000000000000e+00  -2.2253848632492697e-06 2.8237706906040194e-06 0.0000000000000000e+00  -3.2233497434744552e-06 2.9116143013517854e-06 0.0000000000000000e+00  -4.2469740211537058e-06 3.0055589350962999e-06 0.0000000000000000e+00  -5.3402235304496556e-06 3.1950700243123508e-06 0.0000000000000000e+00  -6.2605443804442638e-06 3.3085652383395733e-06 0.0000000000000000e+00  -7.6715985268933880e-06 3.6639735650767032e-06 0.0000000000000000e+00  -9.3056766884502927e-06 3.8963294212448308e-06 0.0000000000000000e+00  -1.0612024930447402e-05 3.5871843798295615e-06 0.0000000000000000e+00  -1.1670020029773721e-05 3.1147295318630377e-06 0.0000000000000000e+00  -1.3189680253466460e-05 3.3647622614622832e-06 0.0000000000000000e+00  -1.4786205134791285e-05 3.5218302296430367e-06 0.0000000000000000e+00  -1.6171821047081778e-05 3.1056169269474980e-06 0.0000000000000000e+00  -1.7687991853659929e-05 2.6747056495338011e-06 0.0000000000000000e+00  -1.8785978790361529e-05 2.5703041437502045e-06 0.0000000000000000e+00  -1.9936918003262559e-05 2.4785816932799264e-06 0.0000000000000000e+00  -2.1099101535294291e-05 2.3105012746493036e-06 0.0000000000000000e+00  -2.2299117801283198e-05 2.1859810140592680e-06 0.0000000000000000e+00  -2.3439593498771152e-05 2.0049887353540659e-06 0.0000000000000000e+00  -2.4585255042918807e-05 1.8790152805014669e-06 0.0000000000000000e+00  -2.5612500622343464e-05 1.6810911284269466e-06 0.0000000000000000e+00  -2.6610896364862405e-05 1.5399954019472094e-06 0.0000000000000000e+00  -2.7523672947420401e-05 1.3308726825795590e-06 0.0000000000000000e+00  -2.8407743351108079e-05 1.1881103691621707e-06 0.0000000000000000e+00  -2.9201718408096965e-05 1.0219936431334571e-06 0.0000000000000000e+00  -2.9933594968797838e-05 9.0790421690213992e-07 0.0000000000000000e+00  -3.0536273460073854e-05 7.2416871577876506e-07 0.0000000000000000e+00  -3.1089422286613717e-05 6.1356376508762651e-07 0.0000000000000000e+00  -3.1551729467827888e-05 4.4228531149653088e-07 0.0000000000000000e+00  -3.1925079358338020e-05 3.3246134093612328e-07 0.0000000000000000e+00  -3.2212656779430621e-05 1.8571513547489591e-07 0.0000000000000000e+00  -3.2404380180935734e-05 7.2975314541317082e-08 0.0000000000000000e+00  -3.2571524352867804e-05 -5.1409071699442618e-08 0.0000000000000000e+00  -3.2665434024290994e-05 -1.5503979414626738e-07 0.0000000000000000e+00  -3.2642259180890546e-05 -2.8556817811014043e-07 0.0000000000000000e+00  -3.2623108446032437e-05 -4.1201913245746204e-07 0.0000000000000000e+00  -3.2525145811311617e-05 -4.8758848974417695e-07 0.0000000000000000e+00  -3.2136232188864136e-05 -2.5797996154517629e-07 0.0000000000000000e+00  -3.2038098801651601e-05 -4.7034243593625914e-07 0.0000000000000000e+00  -3.1800597768117863e-05 -6.0225154590225857e-07 0.0000000000000000e+00  -3.1487148209026728e-05 -6.2191333821373746e-07 0.0000000000000000e+00  -3.1009506139477092e-05 -4.9735208591981503e-07 0.0000000000000000e+00  -3.0539682608875417e-05 -7.5097556874924890e-07 0.0000000000000000e+00  -3.0213407562557478e-05 -9.5674167034785404e-07 0.0000000000000000e+00  -2.9720420126643439e-05 -9.6554389829798292e-07 0.0000000000000000e+00  -2.9066015078145146e-05 -9.3597340485939317e-07 0.0000000000000000e+00  -2.8547213387721860e-05 -9.2803741293013495e-07 0.0000000000000000e+00  -2.7828841611454351e-05 -8.1644699023963824e-07 0.0000000000000000e+00  -2.7328145522613785e-05 -9.2944587335071167e-07 0.0000000000000000e+00  -2.6719838500643328e-05 -9.9179717912675404e-07 0.0000000000000000e+00  -2.6088968994025235e-05 -1.0045049315453370e-06 0.0000000000000000e+00  -2.5386505097510116e-05 -1.0096911786963312e-06 0.0000000000000000e+00  -2.4728508992022075e-05 -1.0655331949596421e-06 0.0000000000000000e+00  -2.4055712375066515e-05 -1.1011077132996824e-06 0.0000000000000000e+00  -2.3314245010692521e-05 -1.1726366118024383e-06 0.0000000000000000e+00  -2.2668207825214503e-05 -1.2177643813671906e-06 0.0000000000000000e+00  -2.1796664875458535e-05 -1.3305107122132008e-06 0.0000000000000000e+00  -2.1068255659143658e-05 -1.4585223979491878e-06 0.0000000000000000e+00  -2.0523737918568020e-05 -1.2831482154892093e-06 0.0000000000000000e+00  -1.9422318537746810e-05 -9.8845308975067948e-07 0.0000000000000000e+00  -1.9065995797971904e-05 -1.0034861270396403e-06 0.0000000000000000e+00  -1.8223177253950895e-05 -6.6340859363779369e-07 0.0000000000000000e+00  -1.7461747465276117e-05 -9.6910741190010724e-07 0.0000000000000000e+00  -1.6934445917155794e-05 -1.1439607116604744e-06 0.0000000000000000e+00  -1.6241380569780241e-05 -1.0628192513082834e-06 0.0000000000000000e+00  -1.5404347440537302e-05 -9.7326956455459417e-07 0.0000000000000000e+00  -1.4792880255068469e-05 -9.8999777965403388e-07 0.0000000000000000e+00  -1.4060004139981761e-05 -9.6049346705309972e-07 0.0000000000000000e+00  -1.3444987729868572e-05 -9.5225376922392278e-07 0.0000000000000000e+00  -1.2737090838578