<?xml version="1.0"?>
<VTKFile type="UnstructuredGrid"  version="0.1"  >
<UnstructuredGrid>
<Piece  NumberOfPoints="1691" NumberOfCells="3204">
<Points>
<DataArray  type="Float64"  NumberOfComponents="3"  format="ascii">0 0 0  30 0 0  30 -10 0  0 -10 0  0.1391574078963744 0 0  0.2856388821882616 0 0  0.4398299073010886 0 0  0.6021362569539473 0 0  0.7729850389704483 0 0  0.9528258543586996 0 0  1.142131984380316 0 0  1.34140159760994 0 0  1.551159074717981 0 0  1.771956417032531 0 0  2.004374674080994 0 0  2.249025475789527 0 0  2.506552636773105 0 0  2.777633857742732 0 0  3.062982518028728 0 0  3.363349525995907 0 0  3.679525322337712 0 0  4.01234195575742 0 0  4.362675247811097 0 0  4.731447135329707 0 0  5.119628065610077 0 0  5.528239565804708 0 0  5.958356943167011 0 0  6.411112081475485 0 0  6.887696441559404 0 0  7.389364184530748 0 0  7.917435485335147 0 0  8.473300005202017 0 0  9.058420557070402 0 0  9.674336929103793 0 0  10.32266995225095 0 0  11.00512576896296 0 0  11.72350030646412 0 0  12.47968402994705 0 0  13.27566689579597 0 0  14.1135435963616 0 0  14.9955190732806 0 0  15.92391430904694 0 0  16.90117245730496 0 0  17.92986524844506 0 0  19.01269976086341 0 0  20.15252556282024 0 0  21.35234220269763 0 0  22.61530708683689 0 0  23.94474379751883 0 0  25.34415086349739 0 0  26.81721093579712 0 0  28.3678004819169 0 0  30 -1.111111111111111 0  30 -2.222222222222222 0  30 -3.333333333333333 0  30 -4.444444444444445 0  30 -5.555555555555555 0  30 -6.666666666666666 0  30 -7.777777777777777 0  30 -8.888888888888889 0  28.36780047917311 -10 0  26.8172109305839 -10 0  25.34415085606858 -10 0  23.94474378810899 -10 0  22.61530707566275 -10 0  21.3523421899591 -10 0  20.15252554870171 -10 0  19.01269974553473 -10 0  17.92986523206254 -10 0  16.90117244001232 -10 0  15.92391429097614 -10 0  14.99551905455266 -10 0  14.11354357708742 -10 0  13.27566687607703 -10 0  12.47968400987599 -10 0  11.72350028612546 -10 0  11.00512574843363 -10 0  10.32266993160086 -10 0  9.674336908396342 -10 0  9.058420536362949 -10 0  8.473299984546333 -10 0  7.917435464777824 -10 0  7.389364164113587 -10 0  6.887696420787165 -10 0  6.411112061446698 -10 0  5.95835692337857 -10 0  5.528239546282652 -10 0  5.119628046377237 -10 0  4.731447115907979 -10 0  4.362675229213632 -10 0  4.012341937260036 -10 0  3.679525304434552 -10 0  3.363349508456405 -10 0  3.062982500861274 -10 0  2.777633840953978 -10 0  2.506552620368097 -10 0  2.249025459771861 -10 0  2.004374658452946 -10 0  1.771956401795187 -10 0  1.551159059871345 -10 0  1.341401583153029 -10 0  1.142131970307521 -10 0  0.9528258406748833 -10 0  0.7729850256685147 -10 0  0.6021362439621285 -10 0  0.4398298947504031 -10 0  0.2856388700059078 -10 0  0.1391573960769001 -10 0  0 -9.855072463768115 0  0 -9.710144927536232 0  0 -9.565217391304348 0  0 -9.420289855072463 0  0 -9.27536231884058 0  0 -9.130434782608695 0  0 -8.985507246376812 0  0 -8.840579710144928 0  0 -8.695652173913043 0  0 -8.55072463768116 0  0 -8.405797101449275 0  0 -8.260869565217391 0  0 -8.115942028985508 0  0 -7.971014492753623 0  0 -7.826086956521739 0  0 -7.681159420289855 0  0 -7.536231884057971 0  0 -7.391304347826087 0  0 -7.246376811594203 0  0 -7.101449275362318 0  0 -6.956521739130435 0  0 -6.811594202898551 0  0 -6.666666666666667 0  0 -6.521739130434783 0  0 -6.376811594202898 0  0 -6.231884057971015 0  0 -6.086956521739131 0  0 -5.942028985507246 0  0 -5.797101449275362 0  0 -5.652173913043478 0  0 -5.507246376811594 0  0 -5.36231884057971 0  0 -5.217391304347826 0  0 -5.072463768115941 0  0 -4.927536231884058 0  0 -4.782608695652174 0  0 -4.637681159420289 0  0 -4.492753623188406 0  0 -4.347826086956522 0  0 -4.202898550724638 0  0 -4.057971014492754 0  0 -3.913043478260869 0  0 -3.768115942028985 0  0 -3.623188405797101 0  0 -3.478260869565217 0  0 -3.333333333333334 0  0 -3.188405797101449 0  0 -3.043478260869565 0  0 -2.898550724637681 0  0 -2.753623188405797 0  0 -2.608695652173912 0  0 -2.463768115942029 0  0 -2.318840579710145 0  0 -2.173913043478261 0  0 -2.028985507246377 0  0 -1.884057971014492 0  0 -1.739130434782609 0  0 -1.594202898550725 0  0 -1.44927536231884 0  0 -1.304347826086957 0  0 -1.159420289855072 0  0 -1.014492753623188 0  0 -0.8695652173913047 0  0 -0.72463768115942 0  0 -0.579710144927537 0  0 -0.4347826086956523 0  0 -0.2898550724637676 0  0 -0.1449275362318829 0  0.1309460514202492 -4.990980414828784 0  0.1171526873513358 -5.869565217391296 0  0.1344252986967795 -6.716855800502001 0  0.1221309018586645 -4.161899358592938 0  0.1166997684017801 -3.25954604704229 0  4.961569127360256 -0.3118894787216622 0  4.923897360678746 -9.687537149351071 0  0.1228405945134021 -2.536958536012416 0  0.1335945686177435 -7.466846676638523 0  3.206461751753455 -0.2806173508164562 0  3.213166004658842 -9.746377676274168 0  0.1155250883680452 -8.186784073011673 0  0.1359204609538445 -1.804202625344072 0  6.662432263484016 -9.600124945047963 0  6.631056521209421 -0.3942868763482545 0  2.126700074935258 -0.2065769621215452 0  2.120437876630353 -9.808537401472012 0  8.761385473272522 -9.4914222957189 0  8.786076048231736 -0.4923064159810888 0  0.1195911345135556 -8.749677128895598 0  0.1117474302775605 -1.230589418769438 0  11.3907841305612 -9.402816705944797 0  11.36435727088349 -0.618365439918426 0  1.211504568109637 -0.1471532661956818 0  1.239596144827807 -9.832618358594059 0  13.75158625181508 -9.315497816134139 0  13.7500399625954 -0.6902569910160397 0  0.131402377539402 -3.696772604078816 0  0.1204853385030979 -6.307560917781178 0  0.1346483804691658 -4.550944754283819 0  0.1255109280847009 -5.434782608695652 0  16.39894095075685 -9.180198571581517 0  16.44068234362399 -0.8166544577416346 0  0.1255109280847009 -0.7971014492753632 0  0.1162877148651766 -9.206770243020259 0  19.56645066956165 -9.043742294716539 0  29.11731382843969 -5.098539983867493 0  19.50527862123305 -0.9323941524176265 0  23.28904960561395 -8.8608997858633 0  0.6875606479622149 -0.1442604037134076 0  0.6875606348153145 -9.855739596611892 0  23.37074358394081 -1.15131614182933 0  10.00852704311311 -9.475417469395781 0  10.01049631493635 -0.5545437343697674 0  7.639131123468924 -9.543000896765111 0  7.693537846067955 -0.4574302764599576 0  5.733194300659633 -9.66079268774309 0  5.731454990332523 -0.3687808037058806 0  3.803630689980224 -9.686555789708486 0  3.834043646352164 -0.2754981925697493 0  2.618022704128803 -9.787800068206256 0  2.634320277618269 -0.2392104743186785 0  1.65952286941916 -9.813294854785646 0  1.665360553377539 -0.1820878093930922 0  0.1365068028365961 -1.543352471920677 0  0.1128108295274224 -8.471115901500411 0  0.1249192863256123 -0.5070564851587012 0  0.1172626025927563 -9.49200175151447 0  0.1255109280847009 -2.101449275362318 0  0.1255109280847009 -7.898550724637682 0  0.1247535864599936 -2.824177050114505 0  0.1155424837078822 -7.17494363557847 0  26.05192393553612 -8.777856070543081 0  26.00031291598836 -1.159065252957426 0  0.3627343947446455 -0.1301950113519217 0  0.3690141220077834 -9.868919517536135 0  28.90574865438674 -7.135369011630129 0  29.02069681040884 -2.861993939893059 0  0.1397555488250113 -0.2163338956475025 0  0.1255109280847009 -9.782608695652172 0  24.67098979274125 -8.799958058548517 0  23.93395881668722 -7.700959994796646 0  22.61396570077244 -7.764517377391733 0  23.2032949615693 -6.630776985250927 0  21.94857473380583 -6.690613342424633 0  24.50398505507967 -6.535933305198952 0  22.51489076809043 -5.580432145971667 0  21.29537841406989 -5.639199768252479 0  21.84985259542567 -4.547213342284197 0  20.65342988351128 -4.619546679988924 0  20.11277906893955 -5.663225279336593 0  19.49454290958806 -4.673886314669294 0  18.97860072994828 -5.624185949902217 0  18.40383886642446 -4.729683279047542 0  17.90575400337286 -5.630456854950327 0  17.35903168001753 -4.836859475002379 0  16.91444903556046 -5.680257663405808 0  16.36114434035519 -4.898890029095359 0  15.89440836794127 -5.835214594829282 0  15.41608945577568 -4.979845093198404 0  14.9809818125648 -5.732909169427192 0  14.51777858619734 -4.988431190461874 0  14.14039496103406 -5.776391085527889 0  13.67321261031888 -5.031745046943032 0  13.26988611760758 -5.891550007816156 0  12.85732927991246 -5.095735823822261 0  12.46423889659403 -5.760519953635332 0  12.07741841933393 -5.116608846746942 0  11.73131647445202 -5.75987862647932 0  11.35222911621012 -5.158061768105265 0  11.01225658271747 -5.784828178519854 0  10.65393216495117 -5.205808407572067 0  10.33042159780337 -5.788944717060055 0  9.98551374198097 -5.24118342090078 0  9.687616112021921 -5.812725728827915 0  9.357518717034999 -5.284717467130579 0  9.08157001076583 -5.820057568121996 0  8.766199932316585 -5.320212662582848 0  8.494748056481422 -5.830095453943056 0  8.194406727465122 -5.347802431655208 0  7.942610344706003 -5.833678024304247 0  7.660825631728443 -5.380025954369014 0  7.416702921751611 -5.83684433397813 0  7.147290851157173 -5.413787279190068 0  6.91632006965034 -5.851605397483334 0  6.658527053286988 -5.437627383845131 0  6.441897327469297 -5.862220684948111 0  6.194860224019926 -5.464520225953867 0  5.988748643021736 -5.866336295550595 0  5.755042825355586 -5.482399938780632 0  5.555770501455733 -5.867908174086599 0  5.334991086231989 -5.504761241472904 0  5.145076642106908 -5.873191062890511 0  4.935013388047023 -5.544035964184449 0  4.754345788811499 -5.880090917794126 0  4.554437025256316 -5.569020251233177 0  4.382470744799432 -5.88665007327689 0  4.192208958329529 -5.585677590398814 0  4.029485566904095 -5.896175760774888 0  4.354949258143058 -5.270074521138358 0  4.004482386201769 -5.289207815434526 0  4.158655721068861 -4.98145486433833 0  3.821444856080801 -5.001169872115685 0  3.97033944278737 -4.700814034221719 0  3.642688047138773 -4.720140385706738 0  3.788830742180677 -4.426816067812119 0  3.467446796449556 -4.450112744784491 0  3.325275354457695 -4.730293981808933 0  3.158439978631689 -4.466074367009679 0  3.294707394527546 -4
[...]
<PointData  Vectors="flow"> 
<DataArray  type="Float64"  Name="flow"  NumberOfComponents="3" format="ascii">-9.4072888518549768e-05 7.5921751583519926e-03 0.0000000000000000e+00  6.5897888314070195e-06 4.4509932107817977e-05 0.0000000000000000e+00  -5.2039008180807096e-07 -1.9684721486113876e-06 0.0000000000000000e+00  -8.0970669592505854e-07 -2.5308984849628166e-06 0.0000000000000000e+00  -1.2621947774536352e-05 7.3232574316828549e-03 0.0000000000000000e+00  1.0732748381384527e-05 6.8026234453300713e-03 0.0000000000000000e+00  1.4166688215627788e-05 5.9914360071899927e-03 0.0000000000000000e+00  3.0002381060931556e-05 5.0224714322910230e-03 0.0000000000000000e+00  2.0449570782567163e-05 4.1546524178715204e-03 0.0000000000000000e+00  -5.8284691877354745e-05 3.6525843143615363e-03 0.0000000000000000e+00  3.2019025837881133e-06 3.2446768678317845e-03 0.0000000000000000e+00  2.6103116152109084e-05 3.1695293575690520e-03 0.0000000000000000e+00  -2.2372155225495816e-05 3.1715555319117234e-03 0.0000000000000000e+00  1.6596119419596968e-05 3.0483509132350904e-03 0.0000000000000000e+00  -2.7307053650990455e-06 2.8989933058089761e-03 0.0000000000000000e+00  -7.2734996233872092e-06 2.7071747681965768e-03 0.0000000000000000e+00  1.8625646711844560e-05 2.4045332211318315e-03 0.0000000000000000e+00  2.6355619310542134e-05 2.1146456907489520e-03 0.0000000000000000e+00  -1.8813766176550577e-05 1.9254352941511302e-03 0.0000000000000000e+00  -4.4744313314482347e-06 1.6646623722530529e-03 0.0000000000000000e+00  5.3651549161649286e-06 1.4518270411245900e-03 0.0000000000000000e+00  -1.8053180937886999e-05 1.2695162192314703e-03 0.0000000000000000e+00  8.1229011655997498e-06 1.0995922378389436e-03 0.0000000000000000e+00  1.0040115267432003e-05 9.4336797127927421e-04 0.0000000000000000e+00  -4.8037089339080358e-06 8.1694980993013769e-04 0.0000000000000000e+00  1.7230859860038267e-06 7.1915845968986247e-04 0.0000000000000000e+00  1.7582557218289490e-06 6.2588254645276056e-04 0.0000000000000000e+00  7.0633524923400596e-07 5.3326046977423592e-04 0.0000000000000000e+00  9.8577320861578025e-06 4.5371394691255928e-04 0.0000000000000000e+00  -5.8901890437802716e-06 4.0351467345489683e-04 0.0000000000000000e+00  -1.9330937540908768e-08 3.4046896649056311e-04 0.0000000000000000e+00  1.2383096622472192e-06 2.9015385201639838e-04 0.0000000000000000e+00  1.3152521926758702e-06 2.4777058688673075e-04 0.0000000000000000e+00  6.5452155363569215e-08 2.1288031963176692e-04 0.0000000000000000e+00  5.1063449528244866e-07 1.8190827397915958e-04 0.0000000000000000e+00  9.3100872606152769e-07 1.5428437823571063e-04 0.0000000000000000e+00  1.0095123967337839e-07 1.2882196745089345e-04 0.0000000000000000e+00  3.6411694164671298e-06 1.0849165519565800e-04 0.0000000000000000e+00  -2.8832213121789861e-06 9.7379907322873034e-05 0.0000000000000000e+00  3.9055430500596709e-07 8.4163243220106680e-05 0.0000000000000000e+00  1.5467903573901015e-07 7.5041567829359015e-05 0.0000000000000000e+00  6.3237056359643361e-07 6.7293399294467602e-05 0.0000000000000000e+00  9.8702433621199965e-07 6.1571738207819916e-05 0.0000000000000000e+00  1.3118335797340054e-07 5.6868279015444211e-05 0.0000000000000000e+00  -9.9520264662127003e-08 5.4839180353680938e-05 0.0000000000000000e+00  -1.7516771767600997e-06 5.0940645741859151e-05 0.0000000000000000e+00  -2.0711600494639404e-08 4.3849778992532121e-05 0.0000000000000000e+00  1.0023762605820889e-06 4.6849444391074827e-05 0.0000000000000000e+00  -2.9341070406843379e-07 4.5429806039272852e-05 0.0000000000000000e+00  2.0704468536334530e-07 4.2678538110586804e-05 0.0000000000000000e+00  1.8772559343861865e-06 4.0719882885487579e-05 0.0000000000000000e+00  -4.9452260794007380e-06 4.1547113574425161e-05 0.0000000000000000e+00  2.6797749066281334e-06 1.1654049642855248e-05 0.0000000000000000e+00  2.2732940890877585e-06 -6.1446075727343712e-06 0.0000000000000000e+00  -8.2846338756789054e-07 3.0876688176921560e-07 0.0000000000000000e+00  6.4791363767872146e-07 -2.8298310252112494e-06 0.0000000000000000e+00  7.9155760137635363e-08 -2.2752647120430351e-06 0.0000000000000000e+00  3.3753240115911815e-08 -2.4657609011233955e-06 0.0000000000000000e+00  3.9221317015853990e-07 -2.2818148099122640e-06 0.0000000000000000e+00  6.1806271088945892e-08 -3.6254765884898040e-06 0.0000000000000000e+00  2.9487113787920521e-07 -2.1883462116914198e-06 0.0000000000000000e+00  2.1850167177365555e-07 -2.2252856454355681e-06 0.0000000000000000e+00  3.7460934918780823e-07 -2.3595419226426128e-06 0.0000000000000000e+00  1.0833373480827522e-06 -2.6797639860699054e-06 0.0000000000000000e+00  2.3777754095595999e-06 -2.6893222140301503e-06 0.0000000000000000e+00  2.4900079879230175e-06 -2.7016230876308368e-06 0.0000000000000000e+00  3.3936339174002702e-06 -2.7290165120537144e-06 0.0000000000000000e+00  5.5560003676835615e-06 -2.5677754352894800e-06 0.0000000000000000e+00  6.8335169056929209e-06 -2.3545374308900666e-06 0.0000000000000000e+00  8.0394993997542472e-06 -1.9225747705547284e-06 0.0000000000000000e+00  9.5949601316582165e-06 -1.4027219395391879e-06 0.0000000000000000e+00  1.0968217517059503e-05 -8.7503180984137113e-07 0.0000000000000000e+00  1.2085082804174872e-05 -2.7773114035683681e-07 0.0000000000000000e+00  1.2632684215936796e-05 4.2690426871980501e-07 0.0000000000000000e+00  1.2427813501402616e-05 1.4636701991222019e-06 0.0000000000000000e+00  1.2205933718491227e-05 2.1648138889063625e-06 0.0000000000000000e+00  8.8188570777434252e-06 3.6279149845057784e-06 0.0000000000000000e+00  5.7846172043379431e-06 4.2265514975977546e-06 0.0000000000000000e+00  2.4128294937652298e-07 4.3290880938498515e-06 0.0000000000000000e+00  -5.3024365315667996e-06 4.8125096182134540e-06 0.0000000000000000e+00  -1.2380418038100891e-05 5.2679192851445059e-06 0.0000000000000000e+00  -2.0597212646172283e-05 5.5593057460070216e-06 0.0000000000000000e+00  -2.9474743519730856e-05 5.5150140736734516e-06 0.0000000000000000e+00  -3.8792843334048534e-05 4.8955914704179870e-06 0.0000000000000000e+00  -4.9671891592385241e-05 4.7991229905225059e-06 0.0000000000000000e+00  -5.8957959168402667e-05 4.4696669994287028e-06 0.0000000000000000e+00  -6.7845799956140187e-05 3.2083864329333922e-06 0.0000000000000000e+00  -7.5104346253240860e-05 2.3362024714601015e-06 0.0000000000000000e+00  -8.1231510052651409e-05 1.8155708081972691e-06 0.0000000000000000e+00  -8.6739632552655042e-05 1.0869414540810782e-06 0.0000000000000000e+00  -9.0457095756548163e-05 6.6815297713703607e-07 0.0000000000000000e+00  -9.2939536727981869e-05 1.6318881569124870e-07 0.0000000000000000e+00  -9.3451342654482218e-05 -6.2390177439160382e-07 0.0000000000000000e+00  -9.2523087804988237e-05 -7.5538107309695007e-07 0.0000000000000000e+00  -8.9742195221058404e-05 -1.1391244934086403e-06 0.0000000000000000e+00  -8.6377898112004352e-05 -1.6217935708126176e-06 0.0000000000000000e+00  -8.1887989388434079e-05 -1.7659380611697719e-06 0.0000000000000000e+00  -7.6295861913663082e-05 -1.8579117732855525e-06 0.0000000000000000e+00  -6.9994805942582102e-05 -2.1962756653527047e-06 0.0000000000000000e+00  -6.3506670535456124e-05 -2.3819828831502108e-06 0.0000000000000000e+00  -5.6464131264883647e-05 -2.2361065816599599e-06 0.0000000000000000e+00  -4.8966414444291892e-05 -2.4518857331080136e-06 0.0000000000000000e+00  -4.1778593569504345e-05 -2.5369709945161489e-06 0.0000000000000000e+00  -3.4222131626957149e-05 -2.4835735868764588e-06 0.0000000000000000e+00  -2.7459449819064300e-05 -2.4603392217076518e-06 0.0000000000000000e+00  -2.0114040483333802e-05 -1.9649513326871156e-06 0.0000000000000000e+00  -1.2876822030908829e-05 -1.9061648296163601e-06 0.0000000000000000e+00  -6.6955908203768747e-06 -1.8540634272109215e-06 0.0000000000000000e+00  -7.3593850272577015e-07 -1.0983223062078494e-05 0.0000000000000000e+00  -9.1834558446329466e-07 -2.0681364092830416e-05 0.0000000000000000e+00  -1.0005783255181449e-06 -2.8738214598459959e-05 0.0000000000000000e+00  -1.1816716219336123e-06 -3.3616030878287101e-05 0.0000000000000000e+00  -1.3180231972965707e-06 -3.5761331312247817e-05 0.0000000000000000e+00  -1.7107994122600429e-06 -3.5383578753320838e-05 0.0000000000000000e+00  -1.8072877997385659e-06 -3.3184763998312300e-05 0.0000000000000000e+00  -1.8959408514796565e-06 -2.8957531828909773e-05 0.0000000000000000e+00  -1.8281783685460694e-06 -2.4658406352929173e-05 0.0000000000000000e+00  -1.6315963952033137e-06 -1.9376572060665882e-05 0.0000000000000000e+00  -1.6331653178224359e-06 -1.4380035170338934e-05 0.0000000000000000e+00  -1.7475114729521668e-06 -9.0856094231030990e-06 0.0000000000000000e+00  -1.7161397472152896e-06 -3.5116791169388507e-06 0.0000000000000000e+00  -1.6840707204356633e-06 1.5782113052309664e-06 0.0000000000000000e+00  -1.7531249128027185e-06 6.9482371406992345e-06 0.0000000000000000e+00  -1.7090203775787060e-06 1.2523167619227411e-05 0.0000000000000000e+00  -1.8714528646293395e-06 1.7762425401253672e-05 0.0000000000000000e+00  -1.7786958260420134e-06 2.3734860541762079e-05 0.0000000000000000e+00  -1.8433285398177483e-06 2.9207960776603353e-05 0.0000000000000000e+00  -2.0080912468510988e-06 3.5659975923518958e-05 0.0000000000000000e+00  -2.3494319580479158e-06 4.1984308194097463e-05 0.0000000000000000e+00  -1.8702568345990018e-06 4.8407171295915907e-05 0.0000000000000000e+00  -2.8310845559960454e-06 5.6199410682155636e-05 0.0000000000000000e+00  -2.2989815635429024e-06 6.3099472096462712e-05 0.0000000000000000e+00  -2.5710392154469120e-06 7.0936346610504444e-05 0.0000000000000000e+00  -2.8231081173759084e-06 7.9704437598408404e-05 0.0000000000000000e+00  -3.0176840583760584e-06 8.8812495760181675e-05 0.0000000000000000e+00  -3.4194495590698583e-06 9.8467368019981911e-05 0.0000000000000000e+00  -3.5819237385317951e-06 1.0974545974877673e-04 0.0000000000000000e+00  -3.8587136431023788e-06 1.2064135739778560e-04 0.0000000000000000e+00  -4.2955693736896387e-06 1.3367395182085611e-04 0.0000000000000000e+00  -4.7860330800110023e-06 1.4895011181907385e-04 0.0000000000000000e+00  -6.9062010213946151e-06 1.6266621846368706e-04 0.0000000000000000e+00  -6.4465806857930477e-06 1.7848090103967222e-04 0.0000000000000000e+00  -7.1984986023475626e-06 2.0107568049119385e-04 0.0000000000000000e+00  -9.4203531191539731e-06 2.1933615124805297e-04 0.0000000000000000e+00  -8.5536964374892797e-06 2.4556899010272701e-04 0.0000000000000000e+00  -9.4193002827395399e-06 2.7200872134008452e-04 0.0000000000000000e+00  -9.0952277380442026e-06 3.0246515364222012e-04 0.0000000000000000e+00  -1.4191556730863681e-05 3.3748096921036287e-04 0.0000000000000000e+00  -1.3863260640927473e-05 3.7332584737826606e-04 0.0000000000000000e+00  -1.8753458449421981e-05 4.2827106132145798e-04 0.0000000000000000e+00  -2.1735726534220831e-05 4.7359228987108341e-04 0.0000000000000000e+00  -2.0402821225703189e-05 5.4491987583040954e-04 0.0000000000000000e+00  -2.3392207919138892e-05 6.1478451552521871e-04 0.0000000000000000e+00  -2.9852094642432134e-05 7.0268228930690302e-04 0.0000000000000000e+00  -3.8445103390437693e-05 8.1137511265134087e-04 0.0000000000000000e+00  -3.9762251692364585e-05 9.4753034039864810e-04 0.0000000000000000e+00  -4.9214666324118630e-05 1.0948157969835229e-03 0.0000000000000000e+00  -7.4065261604485026e-05 1.2927687093637924e-03 0.0000000000000000e+00  -9.9186884853476442e-05 1.5434300951445204e-03 0.0000000000000000e+00  -1.1252864584496485e-04 1.8457755663935239e-03 0.0000000000000000e+00  -1.3561872505282204e-04 2.1347409581739790e-03 0.0000000000000000e+00  -1.7699572028726418e-04 2.3790756919055646e-03 0.0000000000000000e+00  -1.9186454644131123e-04 2.3966670539429234e-03 0.0000000000000000e+00  -1.6752661767519496e-04 1.9413942303494714e-03 0.0000000000000000e+00  -6.1101332100549531e-05 7.8124660385616156e-04 0.0000000000000000e+00  3.3252059473172256e-05 -1.1990301210008159e-03 0.0000000000000000e+00  -1.6602653558076826e-04 -3.5898466375426570e-03 0.0000000000000000e+00  -1.1282244304124639e-05 -6.3005950665720742e-03 0.0000000000000000e+00  -1.7027623951137354e-05 -8.1897774624301849e-03 0.0000000000000000e+00  -6.5491913591058152e-05 -8.7716387596315972e-03 0.0000000000000000e+00  -4.7982553809477480e-05 -7.6890841325578203e-03 0.0000000000000000e+00  -5.2509600978970705e-05 -5.1663381539303081e-03 0.0000000000000000e+00  -5.6879146729006829e-05 -1.7362727329179243e-03 0.0000000000000000e+00  -5.2637304701656380e-05 1.6660594093626040e-03 0.0000000000000000e+00  2.3456063856650697e-06 4.6583193188456237e-03 0.0000000000000000e+00  -7.1113860454285278e-05 6.7148385767784018e-03 0.0000000000000000e+00  -1.5214420689222438e-05 1.8986063578056630e-04 0.0000000000000000e+00  -7.8819817995554849e-06 1.0364851023202733e-04 0.0000000000000000e+00  -6.3336875926601393e-06 5.2671653446212495e-05 0.0000000000000000e+00  -2.8092632930274165e-05 3.4984089893568324e-04 0.0000000000000000e+00  -7.4983715756255328e-05 7.5628507526333331e-04 0.0000000000000000e+00  8.9080575049919379e-05 7.4811049433276533e-04 0.0000000000000000e+00  -7.7561331008521779e-05 7.8542273514616159e-06 0.0000000000000000e+00  -2.2504078747743100e-04 1.6547571109599198e-03 0.0000000000000000e+00  -4.9152209068820309e-06 2.0343729891847474e-05 0.0000000000000000e+00  2.2062911032623078e-04 1.4837895792751848e-03 0.0000000000000000e+00  -9.2100938770747745e-05 -2.6002266018453939e-06 0.0000000000000000e+00  -3.7505024009534776e-06 -6.2997751769854821e-06 0.0000000000000000e+00  -1.0059836671608255e-03 1.3001021850087429e-03 0.0000000000000000e+00  -4.3962061243187805e-05 1.5320308433811839e-05 0.0000000000000000e+00  5.5945334627369495e-05 4.0887970514726221e-04 0.0000000000000000e+00  1.9552070146934455e-04 2.4946926148499953e-03 0.0000000000000000e+00  -7.8487859303180650e-05 -7.5104487298311699e-06 0.0000000000000000e+00  -9.5415833207369423e-06 1.5167884797232572e-05 0.0000000000000000e+00  3.1981766243657999e-05 2.0097202223077945e-04 0.0000000000000000e+00  -3.8345653592406496e-06 -2.6630825759081475e-05 0.0000000000000000e+00  -5.6341301583407734e-04 -7.2754688044145664e-03 0.0000000000000000e+00  9.3718724882174640e-06 6.3827146822926715e-06 0.0000000000000000e+00  1.6994245723422048e-05 9.6515826455159008e-05 0.0000000000000000e+00  8.2717042700717204e-05 3.0580505940690206e-03 0.0000000000000000e+00  -5.2474171033308467e-05 -9.8566592732671110e-06 0.0000000000000000e+00  1.1540707532371983e-05 3.4658073231947333e-07 0.0000000000000000e+00  9.2511948814138323e-06 5.7154218027353016e-05 0.0000000000000000e+00  -5.3428780872226876e-05 5.0329893100555694e-04 0.0000000000000000e+00  -6.3546909847977304e-06 7.5356535367427122e-05 0.0000000000000000e+00  -2.2894704151341105e-05 2.5689691175714049e-04 0.0000000000000000e+00  -1.0356358573917412e-05 1.3832105671502401e-04 0.0000000000000000e+00  8.3073334366611200e-06 -3.3947600830349255e-06 0.0000000000000000e+00  3.9780424408952068e-06 3.6926413417758189e-05 0.0000000000000000e+00  4.0089791807371112e-04 -6.4560255497611270e-03 0.0000000000000000e+00  -4.3487357545859175e-06 -3.5697656508449655e-05 0.0000000000000000e+00  4.5373128131602514e-06 -5.0841997971933619e-06 0.0000000000000000e+00  3.9794099446719043e-07 -2.8505187764412076e-06 0.0000000000000000e+00  1.9769225342298173e-06 2.6447513626372715e-05 0.0000000000000000e+00  1.9109062969763818e-06 -4.7015166774162159e-06 0.0000000000000000e+00  6.6469792116704229e-04 4.2648663721876019e-03 0.0000000000000000e+00  -3.0615305048751271e-05 -8.7735436719325575e-06 0.0000000000000000e+00  2.6510942081745655e-07 1.6561574540396290e-05 0.0000000000000000e+00  1.9281794962703350e-06 1.0886072077272342e-05 0.0000000000000000e+00  2.3848753382756109e-05 1.3666489495042059e-04 0.0000000000000000e+00  -2.5563335270870036e-05 1.5648425702565816e-05 0.0000000000000000e+00  4.6357852113531330e-05 2.7341983498126637e-04 0.0000000000000000e+00  -6.3116859211338576e-05 1.1020727021700278e-05 0.0000000000000000e+00  7.7568387095068158e-05 5.4709233414648598e-04 0.0000000000000000e+00  -9.0659342097655109e-05 1.5401171789929250e-06 0.0000000000000000e+00  1.4354085377757492e-04 1.1815239185435111e-03 0.0000000000000000e+00  -8.7738174252658817e-05 -5.4630327126644865e-06 0.0000000000000000e+00  2.3318945213309119e-04 2.0333234422596396e-03 0.0000000000000000e+00  -6.6431991981299039e-05 -9.0687329107753386e-06 0.0000000000000000e+00  6.4289226646249668e-05 2.7960325073880660e-03 0.0000000000000000e+00  -1.0444584593405650e-03 -2.0924509295863199e-03 0.0000000000000000e+00  -3.6221393730000385e-06 -1.6872305175542260e-05 0.0000000000000000e+00  7.3795587426762573e-04 1.4594665325988123e-05 0.0000000000000000e+00  -4.7360781031271008e-06 -3.1456237608320184e-05 0.0000000000000000e+00  -5.3250278626756540e-04 2.3645513161173809e-03 0.0000000000000000e+00  -4.3523783326316331e-06 4.4938343852950349e-06 0.0000000000000000e+00  -1.5127851677244948e-04 1.1829393460212609e-03 0.0000000000000000e+00  -4.4952004214789822e-06 3.2348304495479452e-05 0.0000000000000000e+00  6.2295479814989502e-07 -3.8540174800069649e-06 0.0000000000000000e+00  2.9424074085632390e-07 1.9220940976788441e-05 0.0000000000000000e+00  6.7208461736003775e-04 5.8787206459070835e-03 0.0000000000000000e+00  -1.6617697205161863e-05 -9.5067326089603385e-06 0.0000000000000000e+00  1.6293922195483741e-07 -2.0633872331528714e-06 0.0000000000000000e+00  5.0578031036457604e-07 -2.1884855587870162e-06 0.0000000000000000e+00  5.2853782526205361e-04 5.5124921512349802e-03 0.0000000000000000e+00  -5.3794248965908785e-06 -1.6481509283989638e-05 0.0000000000000000e+00  9.5979987015618807e-07 -4.4121373944586408e-06 0.0000000000000000e+00  1.5556399777992468e-06 -3.5717236619550150e-06 0.0000000000000000e+00  2.3466663785451281e-06 -3.6262710460196208e-06 0.0000000000000000e+00  1.8565307061197206e-06 -1.4561665409002348e-06 0.0000000000000000e+00  2.6352534233017357e-06 -1.3487516284331777e-06 0.0000000000000000e+00  1.4853764883939826e-06 -1.3290474710228289e-06 0.0000000000000000e+00  2.0224821825634879e-06 -3.4435275801357441e-06 0.0000000000000000e+00  2.6536520066602443e-06 -2.6112102080328059e-06 0.0000000000000000e+00  1.9296387320493558e-06 -2.0380828825526456e-07 0.0000000000000000e+00  2.9292696500885783e-06 -1.0386179668795603e-06 0.0000000000000000e+00  3.7565259880766516e-06 -1.9759794009670957e-06 0.0000000000000000e+00  3.8822380060764632e-06 -1.5726849118064450e-06 0.0000000000000000e+00  4.2621797680912703e-06 -1.5615841910325900e-06 0.0000000000000000e+00  3.8311137072458550e-06 -1.6397522382687029e-06 0.0000000000000000e+00  4.8140036537564974e-06 -7.4977281751484269e-07 0.0000000000000000e+00  4.9597099637772450e-06 -9.2090303617825739e-07 0.0000000000000000e+00  6.0364040308709641e-06 -2.1309627851242915e-07 0.0000000000000000e+00  6.5172853648207352e-06 -3.5716040942942935e-07 0.0000000000000000e+00  6.9274198703883132e-06 -1.8221999576910217e-07 0.0000000000000000e+00  7.1317466152618078e-06 -1.2988490062587101e-07 0.0000000000000000e+00  7.3467220831342201e-06 -1.4611842630156523e-08 0.0000000000000000e+00  7.5049572169027202e-06 1.5916058819080525e-07 0.0000000000000000e+00  7.4057425035002464e-06 -1.0255570331635884e-07 0.0000000000000000e+00  7.9444905848986940e-06 -2.2215715227168933e-07 0.0000000000000000e+00  7.1268277888490249e-06 -3.8860448195731100e-07 0.0000000000000000e+00  7.6681230829526063e-06 -1.1713270393862087e-06 0.0000000000000000e+00  6.6181457494421775e-06 -1.2622161304159072e-06 0.0000000000000000e+00  7.3189378088353840e-06 -2.6208827323620983e-06 0.0000000000000000e+00  5.8721110801287359e-06 -2.0570641889905177e-06 0.0000000000000000e+00  6.6471148443607356e-06 -4.2914213430829433e-06 0.0000000000000000e+00  4.4949133582434977e-06 -3.3744429288271828e-06 0.0000000000000000e+00  4.8936089412092097e-06 -6.0658410568372314e-06 0.0000000000000000e+00  1.7696529370104717e-06 -5.2035128816961254e-06 0.0000000000000000e+00  2.4393460466797804e-06 -8.6924227326723729e-06 0.0000000000000000e+00  -1.7870530001970857e-06 -