<?xml version="1.0"?>
<VTKFile type="UnstructuredGrid"  version="0.1"  >
<UnstructuredGrid>
<Piece  NumberOfPoints="1691" NumberOfCells="3204">
<Points>
<DataArray  type="Float64"  NumberOfComponents="3"  format="ascii">0 0 0  30 0 0  30 -10 0  0 -10 0  0.1391574078963744 0 0  0.2856388821882616 0 0  0.4398299073010886 0 0  0.6021362569539473 0 0  0.7729850389704483 0 0  0.9528258543586996 0 0  1.142131984380316 0 0  1.34140159760994 0 0  1.551159074717981 0 0  1.771956417032531 0 0  2.004374674080994 0 0  2.249025475789527 0 0  2.506552636773105 0 0  2.777633857742732 0 0  3.062982518028728 0 0  3.363349525995907 0 0  3.679525322337712 0 0  4.01234195575742 0 0  4.362675247811097 0 0  4.731447135329707 0 0  5.119628065610077 0 0  5.528239565804708 0 0  5.958356943167011 0 0  6.411112081475485 0 0  6.887696441559404 0 0  7.389364184530748 0 0  7.917435485335147 0 0  8.473300005202017 0 0  9.058420557070402 0 0  9.674336929103793 0 0  10.32266995225095 0 0  11.00512576896296 0 0  11.72350030646412 0 0  12.47968402994705 0 0  13.27566689579597 0 0  14.1135435963616 0 0  14.9955190732806 0 0  15.92391430904694 0 0  16.90117245730496 0 0  17.92986524844506 0 0  19.01269976086341 0 0  20.15252556282024 0 0  21.35234220269763 0 0  22.61530708683689 0 0  23.94474379751883 0 0  25.34415086349739 0 0  26.81721093579712 0 0  28.3678004819169 0 0  30 -1.111111111111111 0  30 -2.222222222222222 0  30 -3.333333333333333 0  30 -4.444444444444445 0  30 -5.555555555555555 0  30 -6.666666666666666 0  30 -7.777777777777777 0  30 -8.888888888888889 0  28.36780047917311 -10 0  26.8172109305839 -10 0  25.34415085606858 -10 0  23.94474378810899 -10 0  22.61530707566275 -10 0  21.3523421899591 -10 0  20.15252554870171 -10 0  19.01269974553473 -10 0  17.92986523206254 -10 0  16.90117244001232 -10 0  15.92391429097614 -10 0  14.99551905455266 -10 0  14.11354357708742 -10 0  13.27566687607703 -10 0  12.47968400987599 -10 0  11.72350028612546 -10 0  11.00512574843363 -10 0  10.32266993160086 -10 0  9.674336908396342 -10 0  9.058420536362949 -10 0  8.473299984546333 -10 0  7.917435464777824 -10 0  7.389364164113587 -10 0  6.887696420787165 -10 0  6.411112061446698 -10 0  5.95835692337857 -10 0  5.528239546282652 -10 0  5.119628046377237 -10 0  4.731447115907979 -10 0  4.362675229213632 -10 0  4.012341937260036 -10 0  3.679525304434552 -10 0  3.363349508456405 -10 0  3.062982500861274 -10 0  2.777633840953978 -10 0  2.506552620368097 -10 0  2.249025459771861 -10 0  2.004374658452946 -10 0  1.771956401795187 -10 0  1.551159059871345 -10 0  1.341401583153029 -10 0  1.142131970307521 -10 0  0.9528258406748833 -10 0  0.7729850256685147 -10 0  0.6021362439621285 -10 0  0.4398298947504031 -10 0  0.2856388700059078 -10 0  0.1391573960769001 -10 0  0 -9.855072463768115 0  0 -9.710144927536232 0  0 -9.565217391304348 0  0 -9.420289855072463 0  0 -9.27536231884058 0  0 -9.130434782608695 0  0 -8.985507246376812 0  0 -8.840579710144928 0  0 -8.695652173913043 0  0 -8.55072463768116 0  0 -8.405797101449275 0  0 -8.260869565217391 0  0 -8.115942028985508 0  0 -7.971014492753623 0  0 -7.826086956521739 0  0 -7.681159420289855 0  0 -7.536231884057971 0  0 -7.391304347826087 0  0 -7.246376811594203 0  0 -7.101449275362318 0  0 -6.956521739130435 0  0 -6.811594202898551 0  0 -6.666666666666667 0  0 -6.521739130434783 0  0 -6.376811594202898 0  0 -6.231884057971015 0  0 -6.086956521739131 0  0 -5.942028985507246 0  0 -5.797101449275362 0  0 -5.652173913043478 0  0 -5.507246376811594 0  0 -5.36231884057971 0  0 -5.217391304347826 0  0 -5.072463768115941 0  0 -4.927536231884058 0  0 -4.782608695652174 0  0 -4.637681159420289 0  0 -4.492753623188406 0  0 -4.347826086956522 0  0 -4.202898550724638 0  0 -4.057971014492754 0  0 -3.913043478260869 0  0 -3.768115942028985 0  0 -3.623188405797101 0  0 -3.478260869565217 0  0 -3.333333333333334 0  0 -3.188405797101449 0  0 -3.043478260869565 0  0 -2.898550724637681 0  0 -2.753623188405797 0  0 -2.608695652173912 0  0 -2.463768115942029 0  0 -2.318840579710145 0  0 -2.173913043478261 0  0 -2.028985507246377 0  0 -1.884057971014492 0  0 -1.739130434782609 0  0 -1.594202898550725 0  0 -1.44927536231884 0  0 -1.304347826086957 0  0 -1.159420289855072 0  0 -1.014492753623188 0  0 -0.8695652173913047 0  0 -0.72463768115942 0  0 -0.579710144927537 0  0 -0.4347826086956523 0  0 -0.2898550724637676 0  0 -0.1449275362318829 0  0.1309460514202492 -4.990980414828784 0  0.1171526873513358 -5.869565217391296 0  0.1344252986967795 -6.716855800502001 0  0.1221309018586645 -4.161899358592938 0  0.1166997684017801 -3.25954604704229 0  4.961569127360256 -0.3118894787216622 0  4.923897360678746 -9.687537149351071 0  0.1228405945134021 -2.536958536012416 0  0.1335945686177435 -7.466846676638523 0  3.206461751753455 -0.2806173508164562 0  3.213166004658842 -9.746377676274168 0  0.1155250883680452 -8.186784073011673 0  0.1359204609538445 -1.804202625344072 0  6.662432263484016 -9.600124945047963 0  6.631056521209421 -0.3942868763482545 0  2.126700074935258 -0.2065769621215452 0  2.120437876630353 -9.808537401472012 0  8.761385473272522 -9.4914222957189 0  8.786076048231736 -0.4923064159810888 0  0.1195911345135556 -8.749677128895598 0  0.1117474302775605 -1.230589418769438 0  11.3907841305612 -9.402816705944797 0  11.36435727088349 -0.618365439918426 0  1.211504568109637 -0.1471532661956818 0  1.239596144827807 -9.832618358594059 0  13.75158625181508 -9.315497816134139 0  13.7500399625954 -0.6902569910160397 0  0.131402377539402 -3.696772604078816 0  0.1204853385030979 -6.307560917781178 0  0.1346483804691658 -4.550944754283819 0  0.1255109280847009 -5.434782608695652 0  16.39894095075685 -9.180198571581517 0  16.44068234362399 -0.8166544577416346 0  0.1255109280847009 -0.7971014492753632 0  0.1162877148651766 -9.206770243020259 0  19.56645066956165 -9.043742294716539 0  29.11731382843969 -5.098539983867493 0  19.50527862123305 -0.9323941524176265 0  23.28904960561395 -8.8608997858633 0  0.6875606479622149 -0.1442604037134076 0  0.6875606348153145 -9.855739596611892 0  23.37074358394081 -1.15131614182933 0  10.00852704311311 -9.475417469395781 0  10.01049631493635 -0.5545437343697674 0  7.639131123468924 -9.543000896765111 0  7.693537846067955 -0.4574302764599576 0  5.733194300659633 -9.66079268774309 0  5.731454990332523 -0.3687808037058806 0  3.803630689980224 -9.686555789708486 0  3.834043646352164 -0.2754981925697493 0  2.618022704128803 -9.787800068206256 0  2.634320277618269 -0.2392104743186785 0  1.65952286941916 -9.813294854785646 0  1.665360553377539 -0.1820878093930922 0  0.1365068028365961 -1.543352471920677 0  0.1128108295274224 -8.471115901500411 0  0.1249192863256123 -0.5070564851587012 0  0.1172626025927563 -9.49200175151447 0  0.1255109280847009 -2.101449275362318 0  0.1255109280847009 -7.898550724637682 0  0.1247535864599936 -2.824177050114505 0  0.1155424837078822 -7.17494363557847 0  26.05192393553612 -8.777856070543081 0  26.00031291598836 -1.159065252957426 0  0.3627343947446455 -0.1301950113519217 0  0.3690141220077834 -9.868919517536135 0  28.90574865438674 -7.135369011630129 0  29.02069681040884 -2.861993939893059 0  0.1397555488250113 -0.2163338956475025 0  0.1255109280847009 -9.782608695652172 0  24.67098979274125 -8.799958058548517 0  23.93395881668722 -7.700959994796646 0  22.61396570077244 -7.764517377391733 0  23.2032949615693 -6.630776985250927 0  21.94857473380583 -6.690613342424633 0  24.50398505507967 -6.535933305198952 0  22.51489076809043 -5.580432145971667 0  21.29537841406989 -5.639199768252479 0  21.84985259542567 -4.547213342284197 0  20.65342988351128 -4.619546679988924 0  20.11277906893955 -5.663225279336593 0  19.49454290958806 -4.673886314669294 0  18.97860072994828 -5.624185949902217 0  18.40383886642446 -4.729683279047542 0  17.90575400337286 -5.630456854950327 0  17.35903168001753 -4.836859475002379 0  16.91444903556046 -5.680257663405808 0  16.36114434035519 -4.898890029095359 0  15.89440836794127 -5.835214594829282 0  15.41608945577568 -4.979845093198404 0  14.9809818125648 -5.732909169427192 0  14.51777858619734 -4.988431190461874 0  14.14039496103406 -5.776391085527889 0  13.67321261031888 -5.031745046943032 0  13.26988611760758 -5.891550007816156 0  12.85732927991246 -5.095735823822261 0  12.46423889659403 -5.760519953635332 0  12.07741841933393 -5.116608846746942 0  11.73131647445202 -5.75987862647932 0  11.35222911621012 -5.158061768105265 0  11.01225658271747 -5.784828178519854 0  10.65393216495117 -5.205808407572067 0  10.33042159780337 -5.788944717060055 0  9.98551374198097 -5.24118342090078 0  9.687616112021921 -5.812725728827915 0  9.357518717034999 -5.284717467130579 0  9.08157001076583 -5.820057568121996 0  8.766199932316585 -5.320212662582848 0  8.494748056481422 -5.830095453943056 0  8.194406727465122 -5.347802431655208 0  7.942610344706003 -5.833678024304247 0  7.660825631728443 -5.380025954369014 0  7.416702921751611 -5.83684433397813 0  7.147290851157173 -5.413787279190068 0  6.91632006965034 -5.851605397483334 0  6.658527053286988 -5.437627383845131 0  6.441897327469297 -5.862220684948111 0  6.194860224019926 -5.464520225953867 0  5.988748643021736 -5.866336295550595 0  5.755042825355586 -5.482399938780632 0  5.555770501455733 -5.867908174086599 0  5.334991086231989 -5.504761241472904 0  5.145076642106908 -5.873191062890511 0  4.935013388047023 -5.544035964184449 0  4.754345788811499 -5.880090917794126 0  4.554437025256316 -5.569020251233177 0  4.382470744799432 -5.88665007327689 0  4.192208958329529 -5.585677590398814 0  4.029485566904095 -5.896175760774888 0  4.354949258143058 -5.270074521138358 0  4.004482386201769 -5.289207815434526 0  4.158655721068861 -4.98145486433833 0  3.821444856080801 -5.001169872115685 0  3.97033944278737 -4.700814034221719 0  3.642688047138773 -4.720140385706738 0  3.788830742180677 -4.426816067812119 0  3.467446796449556 -4.450112744784491 0  3.325275354457695 -4.730293981808933 0  3.158439978631689 -4.466074367009679 0  3.294707394527546 -4
[...]
<PointData  Vectors="flow"> 
<DataArray  type="Float64"  Name="flow"  NumberOfComponents="3" format="ascii">-1.3639639001020094e-05 9.8702277528968912e-03 0.0000000000000000e+00  9.8007275557650522e-06 5.2597164982300104e-05 0.0000000000000000e+00  -8.8550740837287260e-07 -2.2113379773996169e-06 0.0000000000000000e+00  -5.2074383878119629e-07 -3.7627491024583999e-06 0.0000000000000000e+00  -2.7871530032479486e-05 9.4652460691235490e-03 0.0000000000000000e+00  -1.7666120947098196e-05 8.5709955102451149e-03 0.0000000000000000e+00  4.8756539768542070e-05 7.3025446970212916e-03 0.0000000000000000e+00  2.5716501934225638e-05 5.9229893831235130e-03 0.0000000000000000e+00  2.4538010036513532e-05 4.8888691662835248e-03 0.0000000000000000e+00  -8.0255335141785590e-05 4.4493168516828701e-03 0.0000000000000000e+00  1.4724084460337195e-05 4.2789007007248327e-03 0.0000000000000000e+00  3.4142698768017915e-05 4.3916075581149289e-03 0.0000000000000000e+00  -3.1178964487963208e-05 4.4524551979796354e-03 0.0000000000000000e+00  3.3469792042188015e-05 4.2190754440587725e-03 0.0000000000000000e+00  -2.1318574201676812e-06 3.9152712788617554e-03 0.0000000000000000e+00  -1.0891711483188826e-05 3.5848171306157150e-03 0.0000000000000000e+00  2.9319819444210138e-05 3.1227175899349951e-03 0.0000000000000000e+00  4.8472545239358633e-05 2.7012670357890269e-03 0.0000000000000000e+00  -3.4762093974170768e-05 2.4507835615382298e-03 0.0000000000000000e+00  -5.6706397473573859e-06 2.1106225721670910e-03 0.0000000000000000e+00  7.9625581020520295e-06 1.8357922331078838e-03 0.0000000000000000e+00  -2.8016801852275636e-05 1.5931888957568495e-03 0.0000000000000000e+00  9.7105203518687732e-06 1.3728635855003374e-03 0.0000000000000000e+00  1.5902503599921341e-05 1.1816973970258651e-03 0.0000000000000000e+00  -5.8618766100605334e-06 1.0184737899267061e-03 0.0000000000000000e+00  3.7193459827302710e-06 8.9597830751890560e-04 0.0000000000000000e+00  2.8070292605701229e-06 7.7850114543086539e-04 0.0000000000000000e+00  5.2546140551393063e-07 6.6037595714656875e-04 0.0000000000000000e+00  1.7510391689648940e-05 5.5619122143723773e-04 0.0000000000000000e+00  -1.0589279833218602e-05 4.9431784067901954e-04 0.0000000000000000e+00  5.9921163242145783e-07 4.1882297367671685e-04 0.0000000000000000e+00  2.1055802344859359e-06 3.5524150726044118e-04 0.0000000000000000e+00  2.2798835912417299e-06 3.0158371108131218e-04 0.0000000000000000e+00  9.2202092250906535e-08 2.5865752012857235e-04 0.0000000000000000e+00  1.0639178649815842e-06 2.2045621528592183e-04 0.0000000000000000e+00  1.3758581203391284e-06 1.8596571599680892e-04 0.0000000000000000e+00  3.9409589759621567e-08 1.5420458039974079e-04 0.0000000000000000e+00  5.6195363704750963e-06 1.2794982162969866e-04 0.0000000000000000e+00  -4.3765463592935881e-06 1.1495834421979567e-04 0.0000000000000000e+00  6.8199020377113279e-07 1.0023983127413118e-04 0.0000000000000000e+00  1.2234457440701298e-07 8.9502669558418595e-05 0.0000000000000000e+00  1.2248375074686878e-06 7.9968907568966530e-05 0.0000000000000000e+00  1.4006663820387664e-06 7.2653272138391937e-05 0.0000000000000000e+00  2.8996820467785944e-07 6.6679406081200001e-05 0.0000000000000000e+00  -4.7436289399802878e-08 6.4320658014603411e-05 0.0000000000000000e+00  -2.8370998281324659e-06 6.0720792797111808e-05 0.0000000000000000e+00  5.4058518611288472e-07 4.9969882212444667e-05 0.0000000000000000e+00  1.2830359573340812e-06 5.4513838250283874e-05 0.0000000000000000e+00  -4.0952721687285824e-07 5.2861639862156459e-05 0.0000000000000000e+00  1.2351586548152512e-07 4.9649553341126824e-05 0.0000000000000000e+00  2.5609023839902490e-06 4.6367620155073702e-05 0.0000000000000000e+00  -7.1485067641651653e-06 4.8437461880719331e-05 0.0000000000000000e+00  3.4678818574057542e-06 7.9479047565512749e-06 0.0000000000000000e+00  1.9965401091642346e-06 -5.3312024871784894e-06 0.0000000000000000e+00  -1.5763647163022793e-06 6.6525993838682666e-07 0.0000000000000000e+00  1.3713774170813999e-06 -3.6144269045349719e-06 0.0000000000000000e+00  -4.5264107707704421e-07 -1.5619712120169898e-06 0.0000000000000000e+00  6.2313764904367683e-08 -3.0881830535812164e-06 0.0000000000000000e+00  5.7609123082033450e-07 -1.8297323794672870e-06 0.0000000000000000e+00  1.6945498527086219e-07 -4.0307426839441624e-06 0.0000000000000000e+00  2.5757839976642963e-07 -3.1463491890771112e-06 0.0000000000000000e+00  1.4139547694319293e-07 -3.6283397157248478e-06 0.0000000000000000e+00  2.7275256988915034e-07 -3.9935113161530791e-06 0.0000000000000000e+00  1.0599700282687654e-06 -4.4361394112829858e-06 0.0000000000000000e+00  2.6343440372023946e-06 -4.3330598167830498e-06 0.0000000000000000e+00  2.4951553146103230e-06 -4.2529216279629072e-06 0.0000000000000000e+00  3.4270790945439395e-06 -3.9313377977831478e-06 0.0000000000000000e+00  5.8116239455591573e-06 -3.5264478428669852e-06 0.0000000000000000e+00  7.0070442464305839e-06 -3.2793323759552400e-06 0.0000000000000000e+00  8.1729207208532348e-06 -2.8838510584782350e-06 0.0000000000000000e+00  9.9277260001008674e-06 -2.2422186975362750e-06 0.0000000000000000e+00  1.1356577042645398e-05 -1.3841509296801380e-06 0.0000000000000000e+00  1.2591602796961122e-05 -4.1355886778258832e-07 0.0000000000000000e+00  1.3216040027731562e-05 6.4997484223198065e-07 0.0000000000000000e+00  1.2870468149351325e-05 2.1199695304102408e-06 0.0000000000000000e+00  1.3296536267687169e-05 3.1843947483769360e-06 0.0000000000000000e+00  9.8404898933621918e-06 5.5100167197388058e-06 0.0000000000000000e+00  6.2585077095385006e-06 6.4576551026122812e-06 0.0000000000000000e+00  4.6162755774592645e-07 6.6035489839604844e-06 0.0000000000000000e+00  -4.5615652217362652e-06 7.3442086405462650e-06 0.0000000000000000e+00  -1.1851138782460866e-05 8.0857068505217820e-06 0.0000000000000000e+00  -2.0686861780718907e-05 8.5870295585855962e-06 0.0000000000000000e+00  -2.9495532392990108e-05 8.5836898849125186e-06 0.0000000000000000e+00  -3.8841340788311419e-05 7.6977481726033262e-06 0.0000000000000000e+00  -5.1006501527918980e-05 7.3605242226273694e-06 0.0000000000000000e+00  -6.0893067402143824e-05 6.7683783650486041e-06 0.0000000000000000e+00  -6.9959641052876349e-05 4.9416735758055275e-06 0.0000000000000000e+00  -7.7019862440962778e-05 3.6814568634266951e-06 0.0000000000000000e+00  -8.3369722444160329e-05 2.8666132084698698e-06 0.0000000000000000e+00  -8.9541625154935769e-05 1.8263678686283704e-06 0.0000000000000000e+00  -9.3718539196228966e-05 1.1553607697654189e-06 0.0000000000000000e+00  -9.6516614202998935e-05 4.2431905165161840e-07 0.0000000000000000e+00  -9.7094281317172291e-05 -8.3269533886484935e-07 0.0000000000000000e+00  -9.6184420534487698e-05 -1.0986201303746292e-06 0.0000000000000000e+00  -9.3285141436821780e-05 -1.6901875346032361e-06 0.0000000000000000e+00  -8.9890191511362888e-05 -2.3955206150337586e-06 0.0000000000000000e+00  -8.5269925376596734e-05 -2.6420731148378521e-06 0.0000000000000000e+00  -7.9449277940237697e-05 -2.8180586816854691e-06 0.0000000000000000e+00  -7.2932538130928421e-05 -3.3095827298489641e-06 0.0000000000000000e+00  -6.6285784183550770e-05 -3.5861655770555590e-06 0.0000000000000000e+00  -5.8963424709185820e-05 -3.4253296658367944e-06 0.0000000000000000e+00  -5.1062171239231982e-05 -3.7068364299638245e-06 0.0000000000000000e+00  -4.3636290275144586e-05 -3.7960805347458695e-06 0.0000000000000000e+00  -3.5688365319426214e-05 -3.7620520480687550e-06 0.0000000000000000e+00  -2.8817491794546752e-05 -3.7220289595538543e-06 0.0000000000000000e+00  -2.1113076586253506e-05 -3.0272196110768243e-06 0.0000000000000000e+00  -1.3484666073645893e-05 -2.8834922413258105e-06 0.0000000000000000e+00  -7.1946058218916499e-06 -2.8158491649150656e-06 0.0000000000000000e+00  -5.3578466032740604e-07 -1.5121036674486244e-05 0.0000000000000000e+00  -8.6826569458744051e-07 -2.7931910806939239e-05 0.0000000000000000e+00  -1.0365002550626801e-06 -3.7277922211963745e-05 0.0000000000000000e+00  -1.3108314238332180e-06 -4.1688417300324834e-05 0.0000000000000000e+00  -1.5017007099247947e-06 -4.2346840217189678e-05 0.0000000000000000e+00  -1.8958337931827198e-06 -4.0208836124638430e-05 0.0000000000000000e+00  -1.9159220949161691e-06 -3.6338106129177430e-05 0.0000000000000000e+00  -2.0080124814397562e-06 -3.0906681505609492e-05 0.0000000000000000e+00  -1.9021186280310052e-06 -2.5865424773335799e-05 0.0000000000000000e+00  -1.6686397519757297e-06 -2.0112816240940045e-05 0.0000000000000000e+00  -1.6604336684332768e-06 -1.4846152058342458e-05 0.0000000000000000e+00  -1.7691800847048620e-06 -9.3607531806517938e-06 0.0000000000000000e+00  -1.7339237404394199e-06 -3.6545218039731510e-06 0.0000000000000000e+00  -1.6995593249336593e-06 1.5080967721169411e-06 0.0000000000000000e+00  -1.7668340487314104e-06 6.9089202646023597e-06 0.0000000000000000e+00  -1.7226463662997784e-06 1.2474768107737394e-05 0.0000000000000000e+00  -1.8892638522773489e-06 1.7708957759267027e-05 0.0000000000000000e+00  -1.7983585200604086e-06 2.3705263188573465e-05 0.0000000000000000e+00  -1.8697267108827116e-06 2.9247870164935878e-05 0.0000000000000000e+00  -2.0403414317475869e-06 3.5815971077076235e-05 0.0000000000000000e+00  -2.3905008030652553e-06 4.2258067118499277e-05 0.0000000000000000e+00  -1.9104713850370014e-06 4.8772403291167348e-05 0.0000000000000000e+00  -2.8796383197533072e-06 5.6643996259526061e-05 0.0000000000000000e+00  -2.3475785719995527e-06 6.3567785927023138e-05 0.0000000000000000e+00  -2.6276040642119166e-06 7.1426475257497653e-05 0.0000000000000000e+00  -2.8860894496578129e-06 8.0245196977978621e-05 0.0000000000000000e+00  -3.0772062169952646e-06 8.9420962215078307e-05 0.0000000000000000e+00  -3.4784228153223467e-06 9.9161428460956786e-05 0.0000000000000000e+00  -3.6351061632164717e-06 1.1052593258163479e-04 0.0000000000000000e+00  -3.9053289954275712e-06 1.2146800786862349e-04 0.0000000000000000e+00  -4.3422165721969310e-06 1.3454055164255601e-04 0.0000000000000000e+00  -4.8325018716029964e-06 1.4989867258870354e-04 0.0000000000000000e+00  -6.9905109276215585e-06 1.6374231313715250e-04 0.0000000000000000e+00  -6.5354217595586614e-06 1.7976116285641348e-04 0.0000000000000000e+00  -7.2934409042629407e-06 2.0266352880634938e-04 0.0000000000000000e+00  -9.5457590900155572e-06 2.2111764958964358e-04 0.0000000000000000e+00  -8.6716890714805838e-06 2.4751651028850848e-04 0.0000000000000000e+00  -9.5381201651820219e-06 2.7396050933060933e-04 0.0000000000000000e+00  -9.1924121338895948e-06 3.0438506958866199e-04 0.0000000000000000e+00  -1.4343244894420956e-05 3.3938656429859798e-04 0.0000000000000000e+00  -1.4071182707364804e-05 3.7527391468056959e-04 0.0000000000000000e+00  -1.8998968109463590e-05 4.3051316411222667e-04 0.0000000000000000e+00  -2.1988189982536820e-05 4.7598092231697825e-04 0.0000000000000000e+00  -2.0623158351858240e-05 5.4757272902112891e-04 0.0000000000000000e+00  -2.3600861460514100e-05 6.1739503973628573e-04 0.0000000000000000e+00  -3.0046074499166381e-05 7.0524197385220494e-04 0.0000000000000000e+00  -3.8624766919930849e-05 8.1395217185468852e-04 0.0000000000000000e+00  -3.9914636628700872e-05 9.5026304016730559e-04 0.0000000000000000e+00  -4.9179746271702208e-05 1.0975863384654646e-03 0.0000000000000000e+00  -7.4174178774250163e-05 1.2957638339657406e-03 0.0000000000000000e+00  -1.0052539434035156e-04 1.5528247488229684e-03 0.0000000000000000e+00  -1.1797850711239335e-04 1.8919334793077727e-03 0.0000000000000000e+00  -1.5933685349477496e-04 2.3019158553472252e-03 0.0000000000000000e+00  -2.3146501747487277e-04 2.8928148679885192e-03 0.0000000000000000e+00  -3.1970283918295516e-04 3.5744095143279355e-03 0.0000000000000000e+00  -2.9267033593867345e-04 4.0956281040048720e-03 0.0000000000000000e+00  -2.7004984840489632e-04 3.8725470747685924e-03 0.0000000000000000e+00  -9.8308673786578934e-05 1.7889827222184347e-03 0.0000000000000000e+00  -3.1446443375389194e-04 -2.1463275011003652e-03 0.0000000000000000e+00  1.2580005491091617e-05 -8.2723459875545507e-03 0.0000000000000000e+00  1.0215269182711859e-04 -1.3817740249290058e-02 0.0000000000000000e+00  -4.2390879364759115e-06 -1.6385227178727594e-02 0.0000000000000000e+00  5.2273886986413306e-05 -1.4202969922006340e-02 0.0000000000000000e+00  9.2143546287326968e-05 -8.0839795169026334e-03 0.0000000000000000e+00  7.6124663807630071e-05 -4.7199780309665042e-04 0.0000000000000000e+00  1.7048689179815596e-04 5.4835263936473958e-03 0.0000000000000000e+00  2.2504222488528770e-04 8.6281457546534129e-03 0.0000000000000000e+00  1.4375090953103114e-04 9.5986891661779348e-03 0.0000000000000000e+00  -1.5417590399112186e-05 1.9128852590876000e-04 0.0000000000000000e+00  -8.0262165331084338e-06 1.0439239730386979e-04 0.0000000000000000e+00  -6.4774333549984601e-06 5.3068622850985090e-05 0.0000000000000000e+00  -2.8572800572972044e-05 3.5174268158875413e-04 0.0000000000000000e+00  -7.5564948694460904e-05 7.5890574514485320e-04 0.0000000000000000e+00  1.0810050955255072e-04 8.7638513754361650e-04 0.0000000000000000e+00  -7.9294688371209552e-05 1.0621325226067614e-05 0.0000000000000000e+00  -2.2358839062281867e-04 1.6752668834744944e-03 0.0000000000000000e+00  -4.9779336658612426e-06 2.0291128011849231e-05 0.0000000000000000e+00  2.8739664984225605e-04 1.7698215496907972e-03 0.0000000000000000e+00  -9.5318770914094806e-05 -3.3585768685266477e-06 0.0000000000000000e+00  -3.7752816727569469e-06 -6.5036102867433130e-06 0.0000000000000000e+00  -1.4728638739985528e-03 3.7824367141322938e-03 0.0000000000000000e+00  -4.4386824251216229e-05 2.0510239563168258e-05 0.0000000000000000e+00  6.8355968782095647e-05 4.6616423716205928e-04 0.0000000000000000e+00  3.3445681848485575e-04 3.2075913713225405e-03 0.0000000000000000e+00  -8.1514270161956316e-05 -1.0184506372054403e-05 0.0000000000000000e+00  -9.0716863704140807e-06 1.9357221587227226e-05 0.0000000000000000e+00  3.7891607358927712e-05 2.1854030545744615e-04 0.0000000000000000e+00  -3.8228951672058707e-06 -2.8081729644936014e-05 0.0000000000000000e+00  -1.2837077525739227e-03 -1.1023674034447270e-02 0.0000000000000000e+00  9.8000899690861576e-06 8.0530356135497838e-06 0.0000000000000000e+00  1.9683327607544552e-05 9.9837953932141679e-05 0.0000000000000000e+00  -6.2752247280985847e-05 4.0503396815982275e-03 0.0000000000000000e+00  -5.4676689361084075e-05 -1.3547774580786129e-05 0.0000000000000000e+00  1.1839744402166686e-05 4.3943880690940467e-07 0.0000000000000000e+00  1.0726352284710349e-05 5.8066158423107141e-05 0.0000000000000000e+00  -5.4195260168147705e-05 5.0582093789435997e-04 0.0000000000000000e+00  -6.5242158030269339e-06 7.5873521376647297e-05 0.0000000000000000e+00  -2.3267314345681073e-05 2.5881252029255408e-04 0.0000000000000000e+00  -1.0488834590462422e-05 1.3920089909973222e-04 0.0000000000000000e+00  8.4689319245196832e-06 -4.0279955822552056e-06 0.0000000000000000e+00  4.3639500935848315e-06 3.6039145028403490e-05 0.0000000000000000e+00  1.5084335285890185e-03 -1.1256384759773877e-02 0.0000000000000000e+00  -4.3817281742064099e-06 -4.1356834135317569e-05 0.0000000000000000e+00  4.6277936522248714e-06 -5.9029122905827783e-06 0.0000000000000000e+00  4.3431785970600948e-07 -2.2949198708084262e-06 0.0000000000000000e+00  2.1205452796996580e-06 2.4754239274817489e-05 0.0000000000000000e+00  1.9710439042810742e-06 -5.0663823982213799e-06 0.0000000000000000e+00  8.2631142967297909e-04 5.2448562898191825e-03 0.0000000000000000e+00  -3.1935896996107245e-05 -1.2103934226354628e-05 0.0000000000000000e+00  4.0353247857235382e-07 1.4381334967811647e-05 0.0000000000000000e+00  1.9437612452733209e-06 1.4253028777085850e-05 0.0000000000000000e+00  2.8750566746660952e-05 1.4411081306110865e-04 0.0000000000000000e+00  -2.5951682017752193e-05 2.0763727825048898e-05 0.0000000000000000e+00  5.5423340809822388e-05 2.9995510773942770e-04 0.0000000000000000e+00  -6.4887050987267648e-05 1.4736996961267621e-05 0.0000000000000000e+00  9.3020208305395069e-05 6.1819370607989221e-04 0.0000000000000000e+00  -9.3564973398393411e-05 2.3072710948962518e-06 0.0000000000000000e+00  1.8284079141588159e-04 1.4081769579521010e-03 0.0000000000000000e+00  -9.1119828418261066e-05 -7.3434474779064117e-06 0.0000000000000000e+00  3.2590040735999248e-04 2.5209859740783118e-03 0.0000000000000000e+00  -6.9181030879250614e-05 -1.2422870553070433e-05 0.0000000000000000e+00  1.3465136709388796e-04 3.7855366776224988e-03 0.0000000000000000e+00  -2.0156554958808410e-03 3.6735019720784013e-04 0.0000000000000000e+00  -3.6303469957391621e-06 -1.7450231437958124e-05 0.0000000000000000e+00  1.9143461447868313e-03 2.6773006819067078e-03 0.0000000000000000e+00  -4.8832031498859799e-06 -3.9900038778758586e-05 0.0000000000000000e+00  -5.9062902367502858e-04 3.1136106886176219e-03 0.0000000000000000e+00  -4.3928485527798256e-06 4.4446046761099552e-06 0.0000000000000000e+00  -1.5097489602648007e-04 1.1859385555362185e-03 0.0000000000000000e+00  -4.5575181790544430e-06 3.2439018058586567e-05 0.0000000000000000e+00  7.4126138244384377e-07 -3.9428722651544984e-06 0.0000000000000000e+00  6.4840086252226470e-07 1.8047603470563179e-05 0.0000000000000000e+00  1.0141731837566741e-03 7.7602661496355037e-03 0.0000000000000000e+00  -1.7384229702450008e-05 -1.3174146645571516e-05 0.0000000000000000e+00  1.4079255094179176e-07 -2.0049881078196480e-06 0.0000000000000000e+00  2.1229016928327189e-08 2.9895525659995526e-07 0.0000000000000000e+00  9.3843095913670482e-04 8.8211163012125501e-03 0.0000000000000000e+00  -5.6959755449560558e-06 -2.2567573103897644e-05 0.0000000000000000e+00  8.8841948425628580e-07 -4.7430898561826932e-06 0.0000000000000000e+00  1.5130738728789356e-06 -3.4122726208140962e-06 0.0000000000000000e+00  2.5134014731094088e-06 -3.3583616003491528e-06 0.0000000000000000e+00  1.7073669064596236e-06 -1.5008937052333028e-06 0.0000000000000000e+00  2.6910419765539388e-06 -1.3106090729627483e-06 0.0000000000000000e+00  1.5359218011070338e-06 -1.2487205761355512e-06 0.0000000000000000e+00  2.0486832603052616e-06 -3.5286386314331346e-06 0.0000000000000000e+00  2.8413271718354042e-06 -2.4657814478666954e-06 0.0000000000000000e+00  1.6950882097385778e-06 -1.1225143993889434e-06 0.0000000000000000e+00  2.8122137731120178e-06 -1.7494346420535096e-06 0.0000000000000000e+00  3.9388628541644419e-06 -1.4957963069183176e-06 0.0000000000000000e+00  4.0882103248138935e-06 -2.2409673097792560e-06 0.0000000000000000e+00  4.2743053793365931e-06 -1.0239351461816531e-06 0.0000000000000000e+00  3.9390671119724751e-06 -1.9366282373153343e-06 0.0000000000000000e+00  4.7959252133925862e-06 -5.6750898759468972e-07 0.0000000000000000e+00  5.0269302469108754e-06 -5.0092441358588568e-07 0.0000000000000000e+00  6.0661412327430511e-06 -2.0428207174456951e-07 0.0000000000000000e+00  6.8972322259236218e-06 1.5197506051326180e-07 0.0000000000000000e+00  6.9021328904936593e-06 -3.2357934222507639e-07 0.0000000000000000e+00  7.3062737458063523e-06 1.6006194327753629e-08 0.0000000000000000e+00  7.3296887970038610e-06 -4.2130891758106385e-07 0.0000000000000000e+00  7.6275178204093550e-06 3.9561881902887642e-08 0.0000000000000000e+00  7.5931903354059733e-06 -3.5960636214402860e-07 0.0000000000000000e+00  7.9368570809831269e-06 -3.8092148273024360e-07 0.0000000000000000e+00  7.1992552162868596e-06 -5.2979598023402654e-07 0.0000000000000000e+00  7.5989397267432389e-06 -1.5064579209538425e-06 0.0000000000000000e+00  6.5439436943680490e-06 -1.2896515513109990e-06 0.0000000000000000e+00  7.2157472412657777e-06 -3.2007195728123355e-06 0.0000000000000000e+00  5.9483531508651630e-06 -1.9972552143813036e-06 0.0000000000000000e+00  6.7671245636500997e-06 -4.6798124490619293e-06 0.0000000000000000e+00  4.6985867135389177e-06 -3.4116673043900297e-06 0.0000000000000000e+00  4.9392959806988696e-06 -6.2012255883131761e-06 0.0000000000000000e+00  1.7404751097803654e-06 -5.2595395578132165e-06 0.0000000000000000e+00  2.2013714044265516e-06 -8.7478244781503767e-06 0.0000000000000000e+00  -2.0907955279513302e-06 -7.48366360