<?xml version="1.0"?>
<VTKFile type="UnstructuredGrid"  version="0.1"  >
<UnstructuredGrid>
<Piece  NumberOfPoints="18082" NumberOfCells="35500">
<Points>
<DataArray  type="Float64"  NumberOfComponents="3"  format="ascii">0 0 0  30 0 0  30 -10 0  0 -10 0  0.02360821169319077 0 0  0.04721642338638154 0 0  0.07206717063563725 0 0  0.09691791788489297 0 0  0.1230766011355843 0 0  0.1492352843862757 0 0  0.1767707375239038 0 0  0.204306190661532 0 0  0.2332908770901271 0 0  0.2622755635187223 0 0  0.2927857633803451 0 0  0.323295963241968 0 0  0.3554119623832387 0 0  0.3875279615245094 0 0  0.4213342730081758 0 0  0.4551405844918422 0 0  0.4907261762804851 0 0  0.526311768069128 0 0  0.5637702848355051 0 0  0.6012288016018821 0 0  0.6406588220121138 0 0  0.6800888424223455 0 0  0.721594129780935 0 0  0.7630994171395246 0 0  0.8067891887833475 0 0  0.8504789604271704 0 0  0.8964681941825949 0 0  0.9424574279380195 0 0  0.9908671465681095 0 0  1.039276865198199 0 0  1.090234462786975 0 0  1.141192060375751 0 0  1.194831641933244 0 0  1.248471223490737 0 0  1.304933942963653 0 0  1.361396662436569 0 0  1.420831104471586 0 0  1.480265546506604 0 0  1.542828113436244 0 0  1.605390680365884 0 0  1.671246013469327 0 0  1.73710134657277 0 0  1.806422752814762 0 0  1.875744159056755 0 0  1.948714057431306 0 0  2.021683955805857 0 0  2.098494373901932 0 0  2.175304791998006 0 0  2.256157866653476 0 0  2.337010941308945 0 0  2.422119443935387 0 0  2.50722794656183 0 0  2.596815840700639 0 0  2.686403734839449 0 0  2.780706776094687 0 0  2.875009817349925 0 0  2.974276175689285 0 0  3.073542534028646 0 0  3.178033441002704 0 0  3.282524347976761 0 0  3.392514777963501 0 0  3.502505207950242 0 0  3.618284608533553 0 0  3.734064009116865 0 0  3.855937062816526 0 0  3.977810116516187 0 0  4.106097541496641 0 0  4.234384966477093 0 0  4.369424362562147 0 0  4.5044637586472 0 0  4.646610489729194 0 0  4.788757220811188 0 0  4.938385356669961 0 0  5.088013492528733 0 0  5.24551679218304 0 0  5.403020091837347 0 0  5.568813038399614 0 0  5.73460598496188 0 0  5.909124878408681 0 0  6.083643771855482 0 0  6.267347873338513 0 0  6.451051974821543 0 0  6.644424714363561 0 0  6.83779745390558 0 0  7.041347702348167 0 0  7.244897950790754 0 0  7.459161368238869 0 0  7.673424785686984 0 0  7.898965226038037 0 0  8.124505666389089 0 0  8.361916654054033 0 0  8.599327641718979 0 0  8.849233942517035 0 0  9.099140243315093 0 0  9.362199507946787 0 0  9.625258772578484 0 0  9.902163261537794 0 0  10.1790677504971 0 0  10.47054616023911 0 0  10.76202456998112 0 0  11.06884394887334 0 0  11.37566332776555 0 0  11.69863109504192 0 0  12.02159886231829 0 0  12.3615649378891 0 0  12.7015310134599 0 0  13.05939003847426 0 0  13.41724906348862 0 0  13.79394276982091 0 0  14.1706364761532 0 0  14.5671561683298 0 0  14.96367586050641 0 0  15.38106501332897 0 0  15.79845416615153 0 0  16.23781117165827 0 0  16.677168177165 0 0  17.13964923659526 0 0  17.60213029602552 0 0  18.0889524622663 0 0  18.57577462850707 0 0  19.08821901304263 0 0  19.60066339757818 0 0  20.14007853843172 0 0  20.67949367928525 0 0  21.24729908993883 0 0  21.8151045005924 0 0  22.41279440541421 0 0  23.01048431023601 0 0  23.63963157605829 0 0  24.26877884188056 0 0  24.93103912515648 0 0  25.59329940843241 0 0  26.29041549584691 0 0  26.98753158326142 0 0  27.72133799026916 0 0  28.45514439727691 0 0  29.22757219863846 0 0  30 -0.3571428571428571 0  30 -0.7142857142857142 0  30 -1.071428571428571 0  30 -1.428571428571428 0  30 -1.785714285714286 0  30 -2.142857142857143 0  30 -2.5 0  30 -2.857142857142857 0  30 -3.214285714285714 0  30 -3.571428571428571 0  30 -3.928571428571428 0  30 -4.285714285714286 0  30 -4.642857142857142 0  30 -5 0  30 -5.357142857142857 0  30 -5.714285714285714 0  30 -6.071428571428571 0  30 -6.428571428571428 0  30 -6.785714285714285 0  30 -7.142857142857142 0  30 -7.5 0  30 -7.857142857142857 0  30 -8.214285714285714 0  30 -8.571428571428571 0  30 -8.928571428571427 0  30 -9.285714285714285 0  30 -9.642857142857142 0  29.22757220128658 -10 0  28.45514440257316 -10 0  27.72133799277628 -10 0  26.98753158297939 -10 0  26.29041549304805 -10 0  25.5932994031167 -10 0  24.93103911757599 -10 0  24.26877883203527 -10 0  23.63963156418132 -10 0  23.01048429632737 -10 0  22.41279438968936 -10 0  21.81510448305136 -10 0  21.24729907078059 -10 0  20.67949365850982 -10 0  20.14007851622273 -10 0  19.60066337393564 -10 0  19.08821898813588 -10 0  18.57577460233611 -10 0  18.08895243498708 -10 0  17.60213026763805 -10 0  17.13964920724307 -10 0  16.6771681468481 -10 0  16.2378111405086 -10 0  15.79845413416909 -10 0  15.38106498063496 -10 0  14.96367582710082 -10 0  14.56715613432376 -10 0  14.17063644154669 -10 0  13.79394273471576 -10 0  13.41724902788484 -10 0  13.05939000246495 -10 0  12.70153097704506 -10 0  12.36156490115379 -10 0  12.02159882526251 -10 0  11.69863105774323 -10 0  11.37566329022395 -10 0  11.06884391115945 -10 0  10.76202453209494 -10 0  10.47054612224479 -10 0  10.17906771239465 -10 0  9.902163223385379 -10 0  9.625258734376107 -10 0  9.362199469747061 -10 0  9.099140205118012 -10 0  8.849233904370102 -10 0  8.599327603622193 -10 0  8.361916616050124 -10 0  8.124505628478055 -10 0  7.898965188258209 -10 0  7.673424748038361 -10 0  7.459161330755727 -10 0  7.244897913473093 -10 0  7.041347665226496 -10 0  6.837797416979896 -10 0  6.644424677660922 -10 0  6.451051938341948 -10 0  6.26734783710581 -10 0  6.083643735869675 -10 0  5.90912484269068 -10 0  5.734605949511682 -10 0  5.568813003235423 -10 0  5.403020056959164 -10 0  5.24551675760658 -10 0  5.088013458254 -10 0  4.938385322710374 -10 0  4.788757187166745 -10 0  4.646610456411224 -10 0  4.504463725655707 -10 0  4.369424329906533 -10 0  4.234384934157362 -10 0  4.106097509520442 -10 0  3.977810084883522 -10 0  3.85593703153344 -10 0  3.734063978183357 -10 0  3.618284577954206 -10 0  3.502505177725055 -10 0  3.392514748095728 -10 0  3.282524318466404 -10 0  3.1780334118518 -10 0  3.073542505237196 -10 0  2.97427614725823 -10 0  2.875009789279265 -10 0  2.780706748384375 -10 0  2.686403707489482 -10 0  2.596815813710069 -10 0  2.507227919930656 -10 0  2.422119417661861 -10 0  2.337010915393062 -10 0  2.256157841092762 -10 0  2.175304766792465 -10 0  2.098494349048437 -10 0  2.021683931304413 -10 0  1.948714033278215 -10 0  1.875744135252013 -10 0  1.806422729354161 -10 0  1.737101323456312 -10 0  1.671245990692352 -10 0  1.605390657928396 -10 0  1.542828091333185 -10 0  1.480265524737977 -10 0  1.420831083031992 -10 0  1.36139664132601 -10 0  1.304933922176438 -10 0  1.248471203026863 -10 0  1.194831621786765 -10 0  1.14119204054667 -10 0  1.09023444350921 -10 0  1.039276846471754 -10 0  0.9908671279064798 -10 0  0.942457409341209 -10 0  0.8964681758842019 -10 0  0.8504789424271948 -10 0  0.8067891710751951 -10 0  0.7630993997231954 -10 0  0.7215941126497469 -10 0  0.6800888255762949 -10 0  0.6406588054444597 -10 0  0.6012287853126246 -10 0  0.5637702688178621 -10 0  0.5263117523230996 -10 0  0.4907261607992695 -10 0  0.4551405692754429 -10 0  0.4213342580497894 -10 0  0.3875279468241395 -10 0  0.3554119479341011 -10 0  0.3232959490440663 -10 0  0.2927857494269297 -10 0  0.2622755498097931 -10 0  0.2332908636189828 -10 0  0.2043061774281725 -10 0  0.1767707245216883 -10 0  0.1492352716152006 -10 0  0.1230765885890825 -10 0  0.09691790556296098 -10 0  0.0720671585317838 -10 0  0.04721641150060663 -10 0  0.02360820575030331 -10 0  0 -9.972067039106145 0  0 -9.94413407821229 0  0 -9.916201117318435 0  0 -9.888268156424582 0  0 -9.860335195530727 0  0 -9.832402234636872 0  0 -9.804469273743017 0  0 -9.776536312849162 0  0 -9.748603351955307 0  0 -9.720670391061452 0  0 -9.692737430167599 0  0 -9.664804469273744 0  0 -9.636871508379889 0  0 -9.608938547486034 0  0 -9.581005586592179 0  0 -9.553072625698324 0  0 -9.525139664804469 0  0 -9.497206703910614 0  0 -9.46927374301676 0  0 -9.441340782122905 0  0 -9.41340782122905 0  0 -9.385474860335195 0  0 -9.35754189944134 0  0 -9.329608938547485 0  0 -9.30167597765363 0  0 -9.273743016759777 0  0 -9.245810055865922 0  0 -9.217877094972067 0  0 -9.189944134078212 0  0 -9.162011173184357 0  0 -9.134078212290502 0  0 -9.106145251396647 0  0 -9.078212290502794 0  0 -9.050279329608939 0  0 -9.022346368715084 0  0 -8.994413407821229 0  0 -8.966480446927374 0  0 -8.938547486033519 0  0 -8.910614525139664 0  0 -8.882681564245811 0  0 -8.854748603351956 0  0 -8.826815642458101 0  0 -8.798882681564246 0  0 -8.770949720670391 0  0 -8.743016759776536 0  0 -8.715083798882681 0  0 -8.687150837988828 0  0 -8.659217877094973 0  0 -8.631284916201118 0  0 -8.603351955307263 0  0 -8.575418994413408 0  0 -8.547486033519553 0  0 -8.519553072625698 0  0 -8.491620111731844 0  0 -8.463687150837989 0  0 -8.435754189944134 0  0 -8.407821229050279 0  0 -8.379888268156424 0  0 -8.351955307262569 0  0 -8.324022346368714 0  0 -8.296089385474861 0  0 -8.268156424581006 0  0 -8.240223463687151 0  0 -8.212290502793296 0  0 -8.184357541899441 0  0 -8.156424581005586 0  0 -8.128491620111731 0  0 -8.100558659217878 0  0 -8.072625698324023 0  0 -8.044692737430168 0  0 -8.016759776536313 0  0 -7.988826815642458 0  0 -7.960893854748603 0  0 -7.932960893854748 0  0 -7.905027932960894 0  0 -7.877094972067039 0  0 -7.849162011173184 0  0 -7.82122905027933 0  0 -7.793296089385475 0  0 -7.76536312849162 0  0 -7.737430167597765 0  0 -7.709497206703911 0  0 -7.681564245810056 0  0 -7.653631284916202 0  0 -7.625698324022347 0  0 -7.597765363128492 0  0 -7.569832402234637 0  0 -7.541899441340782 0  0 -7.513966480446927 0  0 -7.486033519553073 0  0 -7.458100558659218 0  0 -7.430167597765363 0  0 -7.402234636871508 0  0 -7.374301675977653 0  0 -7.346368715083798 0  0 -7.318435754189944 0  0 -7.290502793296089 0  0 -7.262569832402235 0  0 -7.23463687150838 0  0 -7.206703910614525 0  0 -7.17877094972067 0  0 -7.150837988826815 0  0 -7.12290502793296 0  0 -7.094972067039106 0  0 -7.067039106145251 
[...]
<PointData  Vectors="flow"> 
<DataArray  type="Float64"  Name="flow"  NumberOfComponents="3" format="ascii">2.0824976817398682e-02 5.0508406242322822e-03 0.0000000000000000e+00  -3.6003597216509004e-07 6.5933004414564460e-06 0.0000000000000000e+00  3.9544031411424264e-08 -4.5469646274394098e-07 0.0000000000000000e+00  1.1918074838852419e-07 -3.2611173689886072e-07 0.0000000000000000e+00  -4.5281909982070653e-03 7.4625269471787119e-03 0.0000000000000000e+00  -3.8790696986839574e-05 1.7585214201270211e-02 0.0000000000000000e+00  4.8657887149751645e-04 1.4391579810135722e-02 0.0000000000000000e+00  -6.2691724202537148e-04 1.3316703272833351e-02 0.0000000000000000e+00  2.8034050007645129e-05 1.4926304850195238e-02 0.0000000000000000e+00  -1.2084421716742858e-04 1.7607820351601321e-02 0.0000000000000000e+00  -3.6267177599475643e-05 2.1552572210342992e-02 0.0000000000000000e+00  -5.1535580921858991e-05 2.5230423352790875e-02 0.0000000000000000e+00  3.6693346284860035e-05 2.8062860470692261e-02 0.0000000000000000e+00  -1.0963076578544471e-04 2.9795027199417054e-02 0.0000000000000000e+00  4.2527931365045364e-05 3.0362684801045633e-02 0.0000000000000000e+00  -5.6108628514458410e-07 2.9780461260654659e-02 0.0000000000000000e+00  -8.1032625569059423e-05 2.8685881272698270e-02 0.0000000000000000e+00  3.0512373157343939e-04 2.6519798354857342e-02 0.0000000000000000e+00  -1.0155463109851653e-04 2.4513347639717350e-02 0.0000000000000000e+00  1.6877223310766403e-04 2.2380147792731491e-02 0.0000000000000000e+00  -5.4446165840376547e-05 2.0276679990520366e-02 0.0000000000000000e+00  1.3453812116578717e-04 1.8198357022151303e-02 0.0000000000000000e+00  -4.6135910045143394e-05 1.6434814761138023e-02 0.0000000000000000e+00  8.0713714116390056e-05 1.4781363338379495e-02 0.0000000000000000e+00  -6.0086761802425938e-05 1.3302603116400417e-02 0.0000000000000000e+00  1.5192024183352315e-04 1.1882419471565797e-02 0.0000000000000000e+00  4.5704311370573613e-05 1.0506648128554652e-02 0.0000000000000000e+00  -2.2472290462934117e-04 9.7083943848732049e-03 0.0000000000000000e+00  -1.1851921975745504e-05 9.0688552159916124e-03 0.0000000000000000e+00  1.4640329605816767e-04 7.9313528498305974e-03 0.0000000000000000e+00  -6.7105539793673846e-05 7.2736664104672763e-03 0.0000000000000000e+00  1.4698589736230716e-04 6.4620013748109646e-03 0.0000000000000000e+00  7.8194440760125069e-07 5.8205297334530453e-03 0.0000000000000000e+00  -5.7941680320313200e-05 5.4102499287978353e-03 0.0000000000000000e+00  1.0734050425476590e-05 4.9398418187453367e-03 0.0000000000000000e+00  -9.7659659608982941e-06 4.5275823799166316e-03 0.0000000000000000e+00  -1.1910083307337501e-05 4.1842361177473033e-03 0.0000000000000000e+00  4.5978740606939368e-05 3.7936846073937324e-03 0.0000000000000000e+00  -1.1019088140920251e-05 3.4673087167129851e-03 0.0000000000000000e+00  1.2925734886690690e-05 3.1810016709442725e-03 0.0000000000000000e+00  -7.2392643209864559e-06 2.9471043873122299e-03 0.0000000000000000e+00  2.1737414619587933e-05 2.6954179401501477e-03 0.0000000000000000e+00  -2.0607858462374240e-05 2.5051244714553072e-03 0.0000000000000000e+00  6.5461859977337364e-05 2.2533287670994774e-03 0.0000000000000000e+00  -2.6581069675242634e-06 2.0354481522981320e-03 0.0000000000000000e+00  -2.6013692274041484e-05 1.9265594132036237e-03 0.0000000000000000e+00  4.6523728074800702e-06 1.8009825653816131e-03 0.0000000000000000e+00  -1.2034159866459001e-06 1.6680695856511293e-03 0.0000000000000000e+00  2.6471559760070938e-09 1.5543990626572270e-03 0.0000000000000000e+00  2.5691792327790526e-06 1.4435583437518253e-03 0.0000000000000000e+00  7.4395316028813151e-07 1.3390217237498501e-03 0.0000000000000000e+00  -3.9995150434922981e-06 1.2523286646237907e-03 0.0000000000000000e+00  -4.1084706164321391e-06 1.1789176790113569e-03 0.0000000000000000e+00  1.9788347203095848e-05 1.0773450934327116e-03 0.0000000000000000e+00  -5.7460909052179249e-06 9.9477819173597235e-04 0.0000000000000000e+00  9.6568183152782699e-06 9.2496549935171019e-04 0.0000000000000000e+00  -1.8961902933389176e-06 8.5940093121633014e-04 0.0000000000000000e+00  2.5013970583476071e-06 8.0306230358246028e-04 0.0000000000000000e+00  -4.0482542145466327e-06 7.5520126030544402e-04 0.0000000000000000e+00  1.5895788795184907e-05 6.9344645581599282e-04 0.0000000000000000e+00  -3.5471567666143261e-06 6.4034224648745731e-04 0.0000000000000000e+00  4.5612541418733099e-06 5.9845549408843370e-04 0.0000000000000000e+00  -5.4810675586545172e-07 5.5998127124770960e-04 0.0000000000000000e+00  7.2085650319912922e-07 5.2612123037162840e-04 0.0000000000000000e+00  -1.5065539706920062e-06 4.9464010770525711e-04 0.0000000000000000e+00  5.5745787782311340e-06 4.5777937747299487e-04 0.0000000000000000e+00  -4.9210657736530010e-06 4.3534463421316782e-04 0.0000000000000000e+00  2.1007441213668036e-05 3.8671498437519347e-04 0.0000000000000000e+00  -1.7158562257598935e-06 3.4868114279262711e-04 0.0000000000000000e+00  -5.4039194339081317e-06 3.3779302262156144e-04 0.0000000000000000e+00  5.1615865011923837e-07 3.2028824736803324e-04 0.0000000000000000e+00  2.3685747655472179e-06 2.9971369708141159e-04 0.0000000000000000e+00  -2.5081491929114604e-07 2.7979992172900259e-04 0.0000000000000000e+00  -3.8372263077671345e-07 2.6447976504773000e-04 0.0000000000000000e+00  6.8291462415655764e-08 2.4969757409526048e-04 0.0000000000000000e+00  3.2512705970941516e-07 2.3439241228356063e-04 0.0000000000000000e+00  -4.8731497833782233e-08 2.2098662839762563e-04 0.0000000000000000e+00  5.3903476924687068e-07 2.0721315095269708e-04 0.0000000000000000e+00  -7.9681166948446591e-08 1.9484938522151840e-04 0.0000000000000000e+00  5.8451960630524775e-07 1.8253912172959478e-04 0.0000000000000000e+00  -1.1256060583863472e-06 1.7277485022600892e-04 0.0000000000000000e+00  6.5874342843730673e-06 1.5527548664117307e-04 0.0000000000000000e+00  -6.5617782549057384e-07 1.3997359747463161e-04 0.0000000000000000e+00  -1.8286735705358112e-07 1.3402697120937397e-04 0.0000000000000000e+00  2.1478663296372928e-07 1.2499104991573956e-04 0.0000000000000000e+00  -1.3369621883281051e-06 1.1884714407238314e-04 0.0000000000000000e+00  1.1894884208259291e-07 1.1332901481749861e-04 0.0000000000000000e+00  7.5994852239164925e-07 1.0488191492100215e-04 0.0000000000000000e+00  -4.8687802124638669e-07 9.8607658757548727e-05 0.0000000000000000e+00  2.2106408559409322e-06 8.9656889119738673e-05 0.0000000000000000e+00  -7.6497234559967925e-07 8.3180431911777814e-05 0.0000000000000000e+00  3.6711047131502852e-06 7.3789720103312857e-05 0.0000000000000000e+00  -2.7285600516513710e-07 6.6063881814051677e-05 0.0000000000000000e+00  -6.2716300130804264e-07 6.3318003664833864e-05 0.0000000000000000e+00  8.7534172553562135e-07 5.8202380877231531e-05 0.0000000000000000e+00  -5.1867360145981342e-06 5.7869605324978759e-05 0.0000000000000000e+00  -4.7983647132828767e-08 6.4061476947051795e-05 0.0000000000000000e+00  4.3448841021369151e-06 4.9865519035321651e-05 0.0000000000000000e+00  -1.9127046454346344e-07 4.3235986641195571e-05 0.0000000000000000e+00  -6.3645535757448645e-07 4.1382780751444024e-05 0.0000000000000000e+00  -5.9894859406931700e-08 3.8823766446599781e-05 0.0000000000000000e+00  8.7300924129486075e-07 3.5007154381927684e-05 0.0000000000000000e+00  -2.0804142621273027e-07 3.1913223831481945e-05 0.0000000000000000e+00  9.2300963731034515e-07 2.8755507456633699e-05 0.0000000000000000e+00  -8.6642331890466691e-08 2.5828495321426003e-05 0.0000000000000000e+00  3.1441675354384598e-07 2.3691148917792012e-05 0.0000000000000000e+00  1.0908609140318786e-08 2.1624304802025536e-05 0.0000000000000000e+00  1.2274876819822804e-07 1.9958662525784425e-05 0.0000000000000000e+00  -2.3754028419390061e-08 1.8445412226781380e-05 0.0000000000000000e+00  3.4113760499532490e-07 1.6815948026051844e-05 0.0000000000000000e+00  -1.1797829370455269e-07 1.5489350986924349e-05 0.0000000000000000e+00  1.0212510602642173e-06 1.3502182136058692e-05 0.0000000000000000e+00  9.8164173519610731e-09 1.1718277828998721e-05 0.0000000000000000e+00  -5.1108280111765917e-07 1.1579743845703307e-05 0.0000000000000000e+00  8.1037898362114474e-08 1.1479707150985334e-05 0.0000000000000000e+00  -1.4147661066978975e-07 1.1043913831747340e-05 0.0000000000000000e+00  3.1862394413561445e-08 1.0727750806205504e-05 0.0000000000000000e+00  -1.9778403258215831e-07 1.0481451375850412e-05 0.0000000000000000e+00  2.8421441142222660e-08 1.0404701472847837e-05 0.0000000000000000e+00  1.9922124370519600e-07 9.7363843421453100e-06 0.0000000000000000e+00  -4.7825691937658953e-08 9.2829611905322864e-06 0.0000000000000000e+00  4.4453114211944529e-07 8.5559882621897615e-06 0.0000000000000000e+00  5.1172219297483712e-09 7.8856847978999771e-06 0.0000000000000000e+00  -6.6655821817265565e-07 8.4290446862387504e-06 0.0000000000000000e+00  -2.0603851692306427e-07 9.7847569618928387e-06 0.0000000000000000e+00  4.1491629367172281e-07 6.8193888917258580e-06 0.0000000000000000e+00  8.1032537217451221e-08 7.5897436820354985e-06 0.0000000000000000e+00  -3.3567168127007501e-08 7.3342927010757492e-06 0.0000000000000000e+00  -2.0751251236325920e-08 7.5592429330538113e-06 0.0000000000000000e+00  -1.9730322079686457e-07 7.4524946107237532e-06 0.0000000000000000e+00  -1.7072231497839517e-07 8.0841193862606660e-06 0.0000000000000000e+00  3.8769445035501840e-07 5.3644900588330791e-06 0.0000000000000000e+00  1.3628258331524814e-07 5.8525508012272693e-06 0.0000000000000000e+00  -1.8566050219703906e-07 5.8466442799947575e-06 0.0000000000000000e+00  5.0493243765637914e-08 6.0025900612458363e-06 0.0000000000000000e+00  -4.4590932552863160e-08 5.9537342413193334e-06 0.0000000000000000e+00  -2.7841606861908198e-08 6.0005510827313486e-06 0.0000000000000000e+00  2.2377360506112941e-07 5.7317306908920441e-06 0.0000000000000000e+00  -1.9826061576102163e-07 5.5592185581026501e-06 0.0000000000000000e+00  -2.8315259723116746e-07 5.9892174235835807e-06 0.0000000000000000e+00  1.2256243303982703e-07 6.8252180543213185e-06 0.0000000000000000e+00  1.3272590641914815e-06 4.0115302577935362e-07 0.0000000000000000e+00  -6.9643605649398913e-07 -1.1875233767340395e-07 0.0000000000000000e+00  1.4051934172421365e-07 3.9675533876545530e-07 0.0000000000000000e+00  2.1986921758152074e-07 -5.3028531950190146e-07 0.0000000000000000e+00  -7.7202789566071267e-08 1.7243877633669534e-07 0.0000000000000000e+00  3.2744430233477038e-08 -1.2634226149653254e-07 0.0000000000000000e+00  6.5134929541136272e-09 -9.1802234643899033e-08 0.0000000000000000e+00  -8.3588633936792020e-09 -6.7308952306789003e-08 0.0000000000000000e+00  2.8709167393063940e-09 -6.3865556574172217e-08 0.0000000000000000e+00  2.0039196319373380e-08 -6.8039112369029029e-08 0.0000000000000000e+00  1.9046516362885207e-09 -1.0005930862578657e-07 0.0000000000000000e+00  -2.7848076953967101e-08 -6.0348055782514414e-08 0.0000000000000000e+00  -3.7766423322791314e-08 -9.0987318858343492e-08 0.0000000000000000e+00  -3.3177273341323544e-08 -9.8596144648866742e-08 0.0000000000000000e+00  -1.3337517878365742e-09 -6.5515811299126514e-08 0.0000000000000000e+00  2.0906580971295515e-08 -1.0353258538571719e-07 0.0000000000000000e+00  3.3439225137093250e-08 -1.2044953260764523e-07 0.0000000000000000e+00  2.2491127163096972e-08 -9.3050222475010003e-08 0.0000000000000000e+00  2.5298900061564021e-08 -8.6073784280095178e-08 0.0000000000000000e+00  1.8614238467378209e-08 -7.8031679859670527e-08 0.0000000000000000e+00  -9.9366079511233359e-09 -1.6490579223268984e-07 0.0000000000000000e+00  -6.4071364199014363e-08 -1.0344782372124676e-07 0.0000000000000000e+00  -7.1625067430052100e-08 -1.0370558592367317e-07 0.0000000000000000e+00  -4.3761760811070471e-08 -1.3859519889621918e-07 0.0000000000000000e+00  -5.7585164044695158e-08 4.9133331480139280e-08 0.0000000000000000e+00  -1.2614573052448518e-07 -4.1164189367676893e-08 0.0000000000000000e+00  -2.3842106821947703e-07 -4.0468436127826593e-07 0.0000000000000000e+00  1.3770952236432981e-09 -3.1100694570476456e-07 0.0000000000000000e+00  -1.1948939418556170e-07 -4.3459389825934760e-07 0.0000000000000000e+00  8.6242779513298690e-08 -4.1138119164786623e-07 0.0000000000000000e+00  -2.3894649733276214e-08 -5.8626533406519235e-07 0.0000000000000000e+00  1.5912635358742459e-08 -5.1566928852258595e-07 0.0000000000000000e+00  1.5946765904600018e-08 -5.9822005770230801e-07 0.0000000000000000e+00  2.6585510910027926e-08 -5.9751303965459666e-07 0.0000000000000000e+00  -4.4901157498103214e-09 -6.4849196899447438e-07 0.0000000000000000e+00  6.7839650209395973e-08 -6.6609403295924514e-07 0.0000000000000000e+00  4.5167404706010068e-08 -6.8865876424590064e-07 0.0000000000000000e+00  2.8632398132544912e-08 -6.7006483289759749e-07 0.0000000000000000e+00  2.5278712060788649e-07 -6.1452335616899231e-07 0.0000000000000000e+00  8.1074190111735759e-08 -6.7210413724831032e-07 0.0000000000000000e+00  1.8328434786988206e-07 -6.5826772930566184e-07 0.0000000000000000e+00  1.3088334006492787e-07 -7.1931688426317799e-07 0.0000000000000000e+00  2.2656772864079415e-07 -7.3110437706418019e-07 0.0000000000000000e+00  1.9732854187933744e-07 -7.3957317792473338e-07 0.0000000000000000e+00  2.9847151944220621e-07 -7.2101037448599236e-07 0.0000000000000000e+00  2.4185351521813185e-07 -6.8162189603449826e-07 0.0000000000000000e+00  4.2463058337747225e-07 -6.1029131146930754e-07 0.0000000000000000e+00  3.3065782355262294e-07 -5.8879040313514940e-07 0.0000000000000000e+00  4.4934149941483773e-07 -5.2666320168226555e-07 0.0000000000000000e+00  3.8179034295032317e-07 -4.8724811095346274e-07 0.0000000000000000e+00  4.0412096439577678e-07 -4.7252212896900833e-07 0.0000000000000000e+00  5.7361707939659895e-07 -4.0217889766503393e-07 0.0000000000000000e+00  5.9496669639608851e-07 -2.5860404182097254e-07 0.0000000000000000e+00  5.2199641945617253e-07 -2.1858892859500436e-07 0.0000000000000000e+00  6.5042702709906818e-07 -7.2209492495791710e-08 0.0000000000000000e+00  6.4949747002539280e-07 -7.9365861010663770e-09 0.0000000000000000e+00  6.5474836444174447e-07 1.5302990660866723e-07 0.0000000000000000e+00  6.3979326868920724e-07 1.9433638199927418e-07 0.0000000000000000e+00  6.8577385755160363e-07 3.3778474236098453e-07 0.0000000000000000e+00  6.7444383376155020e-07 4.4227513583936661e-07 0.0000000000000000e+00  6.7199607535820138e-07 5.8626368610429441e-07 0.0000000000000000e+00  6.8049159824715479e-07 7.2614606082606785e-07 0.0000000000000000e+00  6.5228212694219800e-07 8.8786120223383793e-07 0.0000000000000000e+00  6.1969962718409308e-07 1.0478845065646792e-06 0.0000000000000000e+00  6.1894091288508853e-07 1.2539257721095007e-06 0.0000000000000000e+00  5.8574729787607707e-07 1.3574581332593149e-06 0.0000000000000000e+00  1.7986690007370556e-07 1.4263288390294195e-06 0.0000000000000000e+00  2.8287603715124401e-07 1.4184841444932905e-06 0.0000000000000000e+00  1.5631781289863043e-07 1.4506582495852843e-06 0.0000000000000000e+00  1.6026849596914319e-07 1.5462774260188615e-06 0.0000000000000000e+00  -9.0331579762006509e-08 1.6079516158853394e-06 0.0000000000000000e+00  -8.3510447344681203e-08 1.6792785981483214e-06 0.0000000000000000e+00  -3.0157755047236638e-07 1.7462739697476976e-06 0.0000000000000000e+00  -3.8827723551432090e-07 1.8230355747615828e-06 0.0000000000000000e+00  -5.5937303374033221e-07 1.9399810068129276e-06 0.0000000000000000e+00  -5.9315004542778620e-07 2.0401122556327838e-06 0.0000000000000000e+00  -6.9408665614121070e-07 2.2650508105412936e-06 0.0000000000000000e+00  -1.1977317542311201e-06 2.2864292651951615e-06 0.0000000000000000e+00  -1.7100533852013543e-06 2.1590483249447801e-06 0.0000000000000000e+00  -1.2790977506625905e-06 2.0392675269420673e-06 0.0000000000000000e+00  -1.5802962514574018e-06 2.0638708156156472e-06 0.0000000000000000e+00  -2.0069240924192842e-06 2.0859319712386454e-06 0.0000000000000000e+00  -2.4504269200023989e-06 1.9054277274253419e-06 0.0000000000000000e+00  -2.4164998668054426e-06 1.7679739819801376e-06 0.0000000000000000e+00  -2.6294843250311329e-06 1.6155492821191461e-06 0.0000000000000000e+00  -2.7207865640821963e-06 1.5942189506243866e-06 0.0000000000000000e+00  -2.9664285453080343e-06 1.4960968685548968e-06 0.0000000000000000e+00  -3.0867202541502158e-06 1.4426418067325577e-06 0.0000000000000000e+00  -3.3392555999111516e-06 1.3160525730712490e-06 0.0000000000000000e+00  -3.4814551537274631e-06 1.2538647677754582e-06 0.0000000000000000e+00  -3.6978314580602117e-06 1.1090793684511988e-06 0.0000000000000000e+00  -3.7747622103969228e-06 1.0406801213201260e-06 0.0000000000000000e+00  -3.9869138626940499e-06 8.8302992336749136e-07 0.0000000000000000e+00  -4.0760397865571746e-06 8.1445630191200808e-07 0.0000000000000000e+00  -4.2583172163870290e-06 6.9389863395678963e-07 0.0000000000000000e+00  -4.3595453269399192e-06 6.2796103047966570e-07 0.0000000000000000e+00  -4.4773425375519274e-06 5.0564095374453083e-07 0.0000000000000000e+00  -4.5505397214159392e-06 4.4527808834243755e-07 0.0000000000000000e+00  -4.6619587968389307e-06 3.1840397841746323e-07 0.0000000000000000e+00  -4.7056572676390523e-06 2.6705575171433444e-07 0.0000000000000000e+00  -4.7734047685616763e-06 1.5615283603528755e-07 0.0000000000000000e+00  -4.7706224729225433e-06 9.8437790587972450e-08 0.0000000000000000e+00  -4.8361625456841582e-06 1.6005852785569974e-08 0.0000000000000000e+00  -4.8581484243661542e-06 -5.1157436766590420e-08 0.0000000000000000e+00  -4.8496034380210768e-06 -1.3304113415613834e-07 0.0000000000000000e+00  -4.9537206277039429e-06 -1.9860701784048677e-07 0.0000000000000000e+00  -4.8562847381185582e-06 -2.8723972086344793e-07 0.0000000000000000e+00  -4.6649943203311704e-06 -1.3541705237046021e-07 0.0000000000000000e+00  -4.8172534236684951e-06 -2.4422708100687718e-07 0.0000000000000000e+00  -4.8325659465393093e-06 -3.0870846490745906e-07 0.0000000000000000e+00  -4.7677509003175964e-06 -3.4457501267434251e-07 0.0000000000000000e+00  -4.6146012621488164e-06 -3.0508077498052871e-07 0.0000000000000000e+00  -4.5899206304472431e-06 -4.0852967619320394e-07 0.0000000000000000e+00  -4.6236973504273495e-06 -5.2823773949457309e-07 0.0000000000000000e+00  -4.5423917538432424e-06 -5.6005684064768647e-07 0.0000000000000000e+00  -4.4121899590984383e-06 -5.3088272465708706e-07 0.0000000000000000e+00  -4.2460311535000505e-06 -5.4326061652540672e-07 0.0000000000000000e+00  -4.1220516874838604e-06 -4.8804329188082707e-07 0.0000000000000000e+00  -4.1477550251543821e-06 -5.3118764139073455e-07 0.0000000000000000e+00  -4.0849904184627185e-06 -5.6183240273349874e-07 0.0000000000000000e+00  -3.9694391551841275e-06 -5.7500675469027387e-07 0.0000000000000000e+00  -3.8614310397883865e-06 -5.8061655621702416e-07 0.0000000000000000e+00  -3.7787186312482051e-06 -6.0840270390908863e-07 0.0000000000000000e+00  -3.6917299733361191e-06 -6.3444148318448795e-07 0.0000000000000000e+00  -3.5868112695082433e-06 -6.6922099518022999e-07 0.0000000000000000e+00  -3.4786136816077923e-06 -7.1168048778750522e-07 0.0000000000000000e+00  -3.3226418150487678e-06 -7.5955242640010396e-07 0.0000000000000000e+00  -3.2339962851717265e-06 -8.1045963653918435e-07 0.0000000000000000e+00  -3.0514809651329564e-06 -7.4222249897825153e-07 0.0000000000000000e+00  -2.8288849596878686e-06 -5.7309626380541765e-07 0.0000000000000000e+00  -2.8969653125291969e-06 -5.6313259029539111e-07 0.0000000000000000e+00  -2.7577808945851952e-06 -4.0236893578907442e-07 0.0000000000000000e+00  -2.6709087680103047e-06 -5.3943284910437809e-07 0.0000000000000000e+00  -2.6311514046457794e-06 -6.1636806560647424e-07 0.0000000000000000e+00  -2.5199956297031091e-06 -5.8723470340652866e-07 0.0000000000000000e+00  -2.3534694657484880e-06 -5.4773571660931922e-07 0.0000000000000000e+00  -2.2447968241582482e-06 -5.4332659957484122e-07 0.0000000000000000e+00  -2.1224952295956564e-06 -5.2981860909138315e-07 0.0000000000000000e+00  -2.0288681702130806e-06 -5.2083705306408598e-07 0.0000000000000000e+00  -1.9157210753829042e-06 -5.1441552751390039