<?xml version="1.0"?>
<VTKFile type="UnstructuredGrid"  version="0.1"  >
<UnstructuredGrid>
<Piece  NumberOfPoints="1691" NumberOfCells="3204">
<Points>
<DataArray  type="Float64"  NumberOfComponents="3"  format="ascii">0 0 0  30 0 0  30 -10 0  0 -10 0  0.1391574078963744 0 0  0.2856388821882616 0 0  0.4398299073010886 0 0  0.6021362569539473 0 0  0.7729850389704483 0 0  0.9528258543586996 0 0  1.142131984380316 0 0  1.34140159760994 0 0  1.551159074717981 0 0  1.771956417032531 0 0  2.004374674080994 0 0  2.249025475789527 0 0  2.506552636773105 0 0  2.777633857742732 0 0  3.062982518028728 0 0  3.363349525995907 0 0  3.679525322337712 0 0  4.01234195575742 0 0  4.362675247811097 0 0  4.731447135329707 0 0  5.119628065610077 0 0  5.528239565804708 0 0  5.958356943167011 0 0  6.411112081475485 0 0  6.887696441559404 0 0  7.389364184530748 0 0  7.917435485335147 0 0  8.473300005202017 0 0  9.058420557070402 0 0  9.674336929103793 0 0  10.32266995225095 0 0  11.00512576896296 0 0  11.72350030646412 0 0  12.47968402994705 0 0  13.27566689579597 0 0  14.1135435963616 0 0  14.9955190732806 0 0  15.92391430904694 0 0  16.90117245730496 0 0  17.92986524844506 0 0  19.01269976086341 0 0  20.15252556282024 0 0  21.35234220269763 0 0  22.61530708683689 0 0  23.94474379751883 0 0  25.34415086349739 0 0  26.81721093579712 0 0  28.3678004819169 0 0  30 -1.111111111111111 0  30 -2.222222222222222 0  30 -3.333333333333333 0  30 -4.444444444444445 0  30 -5.555555555555555 0  30 -6.666666666666666 0  30 -7.777777777777777 0  30 -8.888888888888889 0  28.36780047917311 -10 0  26.8172109305839 -10 0  25.34415085606858 -10 0  23.94474378810899 -10 0  22.61530707566275 -10 0  21.3523421899591 -10 0  20.15252554870171 -10 0  19.01269974553473 -10 0  17.92986523206254 -10 0  16.90117244001232 -10 0  15.92391429097614 -10 0  14.99551905455266 -10 0  14.11354357708742 -10 0  13.27566687607703 -10 0  12.47968400987599 -10 0  11.72350028612546 -10 0  11.00512574843363 -10 0  10.32266993160086 -10 0  9.674336908396342 -10 0  9.058420536362949 -10 0  8.473299984546333 -10 0  7.917435464777824 -10 0  7.389364164113587 -10 0  6.887696420787165 -10 0  6.411112061446698 -10 0  5.95835692337857 -10 0  5.528239546282652 -10 0  5.119628046377237 -10 0  4.731447115907979 -10 0  4.362675229213632 -10 0  4.012341937260036 -10 0  3.679525304434552 -10 0  3.363349508456405 -10 0  3.062982500861274 -10 0  2.777633840953978 -10 0  2.506552620368097 -10 0  2.249025459771861 -10 0  2.004374658452946 -10 0  1.771956401795187 -10 0  1.551159059871345 -10 0  1.341401583153029 -10 0  1.142131970307521 -10 0  0.9528258406748833 -10 0  0.7729850256685147 -10 0  0.6021362439621285 -10 0  0.4398298947504031 -10 0  0.2856388700059078 -10 0  0.1391573960769001 -10 0  0 -9.855072463768115 0  0 -9.710144927536232 0  0 -9.565217391304348 0  0 -9.420289855072463 0  0 -9.27536231884058 0  0 -9.130434782608695 0  0 -8.985507246376812 0  0 -8.840579710144928 0  0 -8.695652173913043 0  0 -8.55072463768116 0  0 -8.405797101449275 0  0 -8.260869565217391 0  0 -8.115942028985508 0  0 -7.971014492753623 0  0 -7.826086956521739 0  0 -7.681159420289855 0  0 -7.536231884057971 0  0 -7.391304347826087 0  0 -7.246376811594203 0  0 -7.101449275362318 0  0 -6.956521739130435 0  0 -6.811594202898551 0  0 -6.666666666666667 0  0 -6.521739130434783 0  0 -6.376811594202898 0  0 -6.231884057971015 0  0 -6.086956521739131 0  0 -5.942028985507246 0  0 -5.797101449275362 0  0 -5.652173913043478 0  0 -5.507246376811594 0  0 -5.36231884057971 0  0 -5.217391304347826 0  0 -5.072463768115941 0  0 -4.927536231884058 0  0 -4.782608695652174 0  0 -4.637681159420289 0  0 -4.492753623188406 0  0 -4.347826086956522 0  0 -4.202898550724638 0  0 -4.057971014492754 0  0 -3.913043478260869 0  0 -3.768115942028985 0  0 -3.623188405797101 0  0 -3.478260869565217 0  0 -3.333333333333334 0  0 -3.188405797101449 0  0 -3.043478260869565 0  0 -2.898550724637681 0  0 -2.753623188405797 0  0 -2.608695652173912 0  0 -2.463768115942029 0  0 -2.318840579710145 0  0 -2.173913043478261 0  0 -2.028985507246377 0  0 -1.884057971014492 0  0 -1.739130434782609 0  0 -1.594202898550725 0  0 -1.44927536231884 0  0 -1.304347826086957 0  0 -1.159420289855072 0  0 -1.014492753623188 0  0 -0.8695652173913047 0  0 -0.72463768115942 0  0 -0.579710144927537 0  0 -0.4347826086956523 0  0 -0.2898550724637676 0  0 -0.1449275362318829 0  0.1309460514202492 -4.990980414828784 0  0.1171526873513358 -5.869565217391296 0  0.1344252986967795 -6.716855800502001 0  0.1221309018586645 -4.161899358592938 0  0.1166997684017801 -3.25954604704229 0  4.961569127360256 -0.3118894787216622 0  4.923897360678746 -9.687537149351071 0  0.1228405945134021 -2.536958536012416 0  0.1335945686177435 -7.466846676638523 0  3.206461751753455 -0.2806173508164562 0  3.213166004658842 -9.746377676274168 0  0.1155250883680452 -8.186784073011673 0  0.1359204609538445 -1.804202625344072 0  6.662432263484016 -9.600124945047963 0  6.631056521209421 -0.3942868763482545 0  2.126700074935258 -0.2065769621215452 0  2.120437876630353 -9.808537401472012 0  8.761385473272522 -9.4914222957189 0  8.786076048231736 -0.4923064159810888 0  0.1195911345135556 -8.749677128895598 0  0.1117474302775605 -1.230589418769438 0  11.3907841305612 -9.402816705944797 0  11.36435727088349 -0.618365439918426 0  1.211504568109637 -0.1471532661956818 0  1.239596144827807 -9.832618358594059 0  13.75158625181508 -9.315497816134139 0  13.7500399625954 -0.6902569910160397 0  0.131402377539402 -3.696772604078816 0  0.1204853385030979 -6.307560917781178 0  0.1346483804691658 -4.550944754283819 0  0.1255109280847009 -5.434782608695652 0  16.39894095075685 -9.180198571581517 0  16.44068234362399 -0.8166544577416346 0  0.1255109280847009 -0.7971014492753632 0  0.1162877148651766 -9.206770243020259 0  19.56645066956165 -9.043742294716539 0  29.11731382843969 -5.098539983867493 0  19.50527862123305 -0.9323941524176265 0  23.28904960561395 -8.8608997858633 0  0.6875606479622149 -0.1442604037134076 0  0.6875606348153145 -9.855739596611892 0  23.37074358394081 -1.15131614182933 0  10.00852704311311 -9.475417469395781 0  10.01049631493635 -0.5545437343697674 0  7.639131123468924 -9.543000896765111 0  7.693537846067955 -0.4574302764599576 0  5.733194300659633 -9.66079268774309 0  5.731454990332523 -0.3687808037058806 0  3.803630689980224 -9.686555789708486 0  3.834043646352164 -0.2754981925697493 0  2.618022704128803 -9.787800068206256 0  2.634320277618269 -0.2392104743186785 0  1.65952286941916 -9.813294854785646 0  1.665360553377539 -0.1820878093930922 0  0.1365068028365961 -1.543352471920677 0  0.1128108295274224 -8.471115901500411 0  0.1249192863256123 -0.5070564851587012 0  0.1172626025927563 -9.49200175151447 0  0.1255109280847009 -2.101449275362318 0  0.1255109280847009 -7.898550724637682 0  0.1247535864599936 -2.824177050114505 0  0.1155424837078822 -7.17494363557847 0  26.05192393553612 -8.777856070543081 0  26.00031291598836 -1.159065252957426 0  0.3627343947446455 -0.1301950113519217 0  0.3690141220077834 -9.868919517536135 0  28.90574865438674 -7.135369011630129 0  29.02069681040884 -2.861993939893059 0  0.1397555488250113 -0.2163338956475025 0  0.1255109280847009 -9.782608695652172 0  24.67098979274125 -8.799958058548517 0  23.93395881668722 -7.700959994796646 0  22.61396570077244 -7.764517377391733 0  23.2032949615693 -6.630776985250927 0  21.94857473380583 -6.690613342424633 0  24.50398505507967 -6.535933305198952 0  22.51489076809043 -5.580432145971667 0  21.29537841406989 -5.639199768252479 0  21.84985259542567 -4.547213342284197 0  20.65342988351128 -4.619546679988924 0  20.11277906893955 -5.663225279336593 0  19.49454290958806 -4.673886314669294 0  18.97860072994828 -5.624185949902217 0  18.40383886642446 -4.729683279047542 0  17.90575400337286 -5.630456854950327 0  17.35903168001753 -4.836859475002379 0  16.91444903556046 -5.680257663405808 0  16.36114434035519 -4.898890029095359 0  15.89440836794127 -5.835214594829282 0  15.41608945577568 -4.979845093198404 0  14.9809818125648 -5.732909169427192 0  14.51777858619734 -4.988431190461874 0  14.14039496103406 -5.776391085527889 0  13.67321261031888 -5.031745046943032 0  13.26988611760758 -5.891550007816156 0  12.85732927991246 -5.095735823822261 0  12.46423889659403 -5.760519953635332 0  12.07741841933393 -5.116608846746942 0  11.73131647445202 -5.75987862647932 0  11.35222911621012 -5.158061768105265 0  11.01225658271747 -5.784828178519854 0  10.65393216495117 -5.205808407572067 0  10.33042159780337 -5.788944717060055 0  9.98551374198097 -5.24118342090078 0  9.687616112021921 -5.812725728827915 0  9.357518717034999 -5.284717467130579 0  9.08157001076583 -5.820057568121996 0  8.766199932316585 -5.320212662582848 0  8.494748056481422 -5.830095453943056 0  8.194406727465122 -5.347802431655208 0  7.942610344706003 -5.833678024304247 0  7.660825631728443 -5.380025954369014 0  7.416702921751611 -5.83684433397813 0  7.147290851157173 -5.413787279190068 0  6.91632006965034 -5.851605397483334 0  6.658527053286988 -5.437627383845131 0  6.441897327469297 -5.862220684948111 0  6.194860224019926 -5.464520225953867 0  5.988748643021736 -5.866336295550595 0  5.755042825355586 -5.482399938780632 0  5.555770501455733 -5.867908174086599 0  5.334991086231989 -5.504761241472904 0  5.145076642106908 -5.873191062890511 0  4.935013388047023 -5.544035964184449 0  4.754345788811499 -5.880090917794126 0  4.554437025256316 -5.569020251233177 0  4.382470744799432 -5.88665007327689 0  4.192208958329529 -5.585677590398814 0  4.029485566904095 -5.896175760774888 0  4.354949258143058 -5.270074521138358 0  4.004482386201769 -5.289207815434526 0  4.158655721068861 -4.98145486433833 0  3.821444856080801 -5.001169872115685 0  3.97033944278737 -4.700814034221719 0  3.642688047138773 -4.720140385706738 0  3.788830742180677 -4.426816067812119 0  3.467446796449556 -4.450112744784491 0  3.325275354457695 -4.730293981808933 0  3.158439978631689 -4.466074367009679 0  3.294707394527546 -4
[...]
<PointData  Vectors="flow"> 
<DataArray  type="Float64"  Name="flow"  NumberOfComponents="3" format="ascii">-8.9153757611912447e-05 6.8565302907469565e-03 0.0000000000000000e+00  6.0480347771514323e-06 4.2980943222615740e-05 0.0000000000000000e+00  -4.7816887832338999e-07 -1.8793607317276029e-06 0.0000000000000000e+00  -8.5539687746371443e-07 -2.3265249034311545e-06 0.0000000000000000e+00  -1.0145538655324936e-05 6.6273551081417617e-03 0.0000000000000000e+00  1.1657506923602262e-05 6.1943759312300586e-03 0.0000000000000000e+00  1.0258504541261666e-05 5.5070224737613794e-03 0.0000000000000000e+00  2.7642141650487181e-05 4.6712929571911792e-03 0.0000000000000000e+00  1.8368214873958054e-05 3.9053444995121650e-03 0.0000000000000000e+00  -5.1999732340240765e-05 3.4454263385180549e-03 0.0000000000000000e+00  2.1485360322659011e-06 3.0492209342625649e-03 0.0000000000000000e+00  2.5108670439131401e-05 2.9586431800347683e-03 0.0000000000000000e+00  -2.0564009902292312e-05 2.9514270779932568e-03 0.0000000000000000e+00  1.4287996607616241e-05 2.8422655226417941e-03 0.0000000000000000e+00  -2.8411833164445001e-06 2.7164454354770035e-03 0.0000000000000000e+00  -6.8103972863936032e-06 2.5497109003201272e-03 0.0000000000000000e+00  1.6944186164793412e-05 2.2764685218275289e-03 0.0000000000000000e+00  2.3421021743105443e-05 2.0099634723608102e-03 0.0000000000000000e+00  -1.6630555391966654e-05 1.8324659712949300e-03 0.0000000000000000e+00  -4.1841921337239250e-06 1.5866077124503000e-03 0.0000000000000000e+00  4.9423727900668496e-06 1.3850049201688936e-03 0.0000000000000000e+00  -1.6649965002070347e-05 1.2130901514644027e-03 0.0000000000000000e+00  7.9440082873453961e-06 1.0514081021313364e-03 0.0000000000000000e+00  9.0983444711619729e-06 9.0179193929858031e-04 0.0000000000000000e+00  -4.5609972948203520e-06 7.8174482709766891e-04 0.0000000000000000e+00  1.4905122398545728e-06 6.8820094915820064e-04 0.0000000000000000e+00  1.5818712747347569e-06 5.9910714434582163e-04 0.0000000000000000e+00  7.0401569802066055e-07 5.1090668880029934e-04 0.0000000000000000e+00  8.7483585999911084e-06 4.3536067065056907e-04 0.0000000000000000e+00  -5.1983093775858913e-06 3.8720093785202042e-04 0.0000000000000000e+00  -9.5786423053614639e-08 3.2659554926863746e-04 0.0000000000000000e+00  1.1039946502629264e-06 2.7859240157538658e-04 0.0000000000000000e+00  1.1780100880882483e-06 2.3813938331161946e-04 0.0000000000000000e+00  6.0756760020289704e-08 2.0467451546541727e-04 0.0000000000000000e+00  4.4168071135744198e-07 1.7498684771385524e-04 0.0000000000000000e+00  8.5093044135101550e-07 1.4856497971617194e-04 0.0000000000000000e+00  1.1138147496235858e-07 1.2420774723036486e-04 0.0000000000000000e+00  3.3137905285118229e-06 1.0486288077986456e-04 0.0000000000000000e+00  -2.6378284278366897e-06 9.4116447091609413e-05 0.0000000000000000e+00  3.5091959826853072e-07 8.1232370802470757e-05 0.0000000000000000e+00  1.5071616060687971e-07 7.2402164885624213e-05 0.0000000000000000e+00  5.4889894460602437e-07 6.4966415389393646e-05 0.0000000000000000e+00  9.1510139285257149e-07 5.9502205220165582e-05 0.0000000000000000e+00  1.0360745322790532e-07 5.5019982336507842e-05 0.0000000000000000e+00  -9.6747618118164198e-08 5.3031503344192906e-05 0.0000000000000000e+00  -1.5912904956012958e-06 4.9153184203631035e-05 0.0000000000000000e+00  -9.4202260090012539e-08 4.2653408877823661e-05 0.0000000000000000e+00  9.5588669050615664e-07 4.5379153003012333e-05 0.0000000000000000e+00  -2.7545703826352953e-07 4.3990855019592973e-05 0.0000000000000000e+00  2.1437085336842299e-07 4.1354690959510410e-05 0.0000000000000000e+00  1.7592636931100433e-06 3.9613550652561731e-05 0.0000000000000000e+00  -4.5686185673480644e-06 4.0247683866217774e-05 0.0000000000000000e+00  2.5169534423288111e-06 1.2266362531310143e-05 0.0000000000000000e+00  2.2072265309526217e-06 -6.0777768435356709e-06 0.0000000000000000e+00  -6.7458578621136719e-07 8.0765309950969559e-08 0.0000000000000000e+00  5.0963333043579628e-07 -2.6166482008468661e-06 0.0000000000000000e+00  1.3495042718017713e-07 -2.4083285402444423e-06 0.0000000000000000e+00  2.2978144476002253e-08 -2.3573060032623368e-06 0.0000000000000000e+00  3.4838575771657513e-07 -2.3587237789020461e-06 0.0000000000000000e+00  4.5197824071164250e-08 -3.5379580694959464e-06 0.0000000000000000e+00  2.8761755219554962e-07 -2.0383054456129734e-06 0.0000000000000000e+00  2.1874329661261661e-07 -2.0660769427990858e-06 0.0000000000000000e+00  3.8993973088296910e-07 -2.1897855365471818e-06 0.0000000000000000e+00  1.0975520098132172e-06 -2.4812391201336022e-06 0.0000000000000000e+00  2.3332591094275886e-06 -2.4988348969150489e-06 0.0000000000000000e+00  2.5035755020063721e-06 -2.5087448140966828e-06 0.0000000000000000e+00  3.4027135652981484e-06 -2.5480496922940647e-06 0.0000000000000000e+00  5.5059854532107070e-06 -2.4119023459855924e-06 0.0000000000000000e+00  6.7968090639277427e-06 -2.2190486907608055e-06 0.0000000000000000e+00  8.0042908951349691e-06 -1.7959989041265845e-06 0.0000000000000000e+00  9.5344316265648734e-06 -1.2862044349507878e-06 0.0000000000000000e+00  1.0896295092630153e-05 -7.9806609878318898e-07 0.0000000000000000e+00  1.1984009126442467e-05 -2.5032816814343001e-07 0.0000000000000000e+00  1.2524654232817217e-05 4.0310567778712750e-07 0.0000000000000000e+00  1.2322158733317097e-05 1.3753834620962322e-06 0.0000000000000000e+00  1.1988826454064618e-05 2.0205046564442463e-06 0.0000000000000000e+00  8.6407160072392083e-06 3.3514869339661109e-06 0.0000000000000000e+00  5.6628079717139696e-06 3.8959664384646705e-06 0.0000000000000000e+00  1.6338799047135832e-07 3.9881979864148330e-06 0.0000000000000000e+00  -5.4397851614479176e-06 4.4296651317702985e-06 0.0000000000000000e+00  -1.2476440294742687e-05 4.8379417058511367e-06 0.0000000000000000e+00  -2.0605152641722944e-05 5.1012003789855667e-06 0.0000000000000000e+00  -2.9475041814859716e-05 5.0524700296172405e-06 0.0000000000000000e+00  -3.8760775510772883e-05 4.4677189028401709e-06 0.0000000000000000e+00  -4.9421358158162762e-05 4.3973246611589820e-06 0.0000000000000000e+00  -5.8596653223966671e-05 4.1000780025071249e-06 0.0000000000000000e+00  -6.7410905616954400e-05 2.9306766439676155e-06 0.0000000000000000e+00  -7.4672635013653483e-05 2.1241884524044332e-06 0.0000000000000000e+00  -8.0753105323359725e-05 1.6508593810610525e-06 0.0000000000000000e+00  -8.6143147509065121e-05 9.7476213961812923e-07 0.0000000000000000e+00  -8.9773254733705262e-05 5.9540785485274656e-07 0.0000000000000000e+00  -9.2182139282664374e-05 1.2616704886249382e-07 0.0000000000000000e+00  -9.2667891205514292e-05 -5.8682528420918819e-07 0.0000000000000000e+00  -9.1731301447437046e-05 -6.9944114154287673e-07 0.0000000000000000e+00  -8.8975424192790182e-05 -1.0499348575705159e-06 0.0000000000000000e+00  -8.5616355610131472e-05 -1.4941388243954617e-06 0.0000000000000000e+00  -8.1151008711552797e-05 -1.6219670069268889e-06 0.0000000000000000e+00  -7.5607867412005121e-05 -1.7016772297538083e-06 0.0000000000000000e+00  -6.9356642652101678e-05 -2.0147436226922224e-06 0.0000000000000000e+00  -6.2907412125583700e-05 -2.1858858017481827e-06 0.0000000000000000e+00  -5.5923204822543332e-05 -2.0436197970808568e-06 0.0000000000000000e+00  -4.8505873895059294e-05 -2.2476063191185995e-06 0.0000000000000000e+00  -4.1371221889877092e-05 -2.3318422806626596e-06 0.0000000000000000e+00  -3.3895304786271701e-05 -2.2750831075533902e-06 0.0000000000000000e+00  -2.7164993633106776e-05 -2.2535118460704042e-06 0.0000000000000000e+00  -1.9900096145264946e-05 -1.7923005384208375e-06 0.0000000000000000e+00  -1.2749080508053213e-05 -1.7467471936590335e-06 0.0000000000000000e+00  -6.6008425630918335e-06 -1.6953719189933455e-06 0.0000000000000000e+00  -7.7029766624294786e-07 -1.0271463494862122e-05 0.0000000000000000e+00  -9.3063963036981364e-07 -1.9382415735693868e-05 0.0000000000000000e+00  -1.0016073542758321e-06 -2.7111196695956274e-05 0.0000000000000000e+00  -1.1665401560430322e-06 -3.1949791051546467e-05 0.0000000000000000e+00  -1.2886706940674929e-06 -3.4269325701089017e-05 0.0000000000000000e+00  -1.6743892372578983e-06 -3.4179867309182961e-05 0.0000000000000000e+00  -1.7826878295351977e-06 -3.2312486269101088e-05 0.0000000000000000e+00  -1.8673669623731421e-06 -2.8372965751596632e-05 0.0000000000000000e+00  -1.8060263569791358e-06 -2.4280914752972061e-05 0.0000000000000000e+00  -1.6192196655180597e-06 -1.9146564543038290e-05 0.0000000000000000e+00  -1.6243779446993802e-06 -1.4239195863749272e-05 0.0000000000000000e+00  -1.7413265322005379e-06 -9.0025632750005538e-06 0.0000000000000000e+00  -1.7113905710867915e-06 -3.4627045160132173e-06 0.0000000000000000e+00  -1.6799966560678632e-06 1.6096864133444677e-06 0.0000000000000000e+00  -1.7493850609869979e-06 6.9684729915868933e-06 0.0000000000000000e+00  -1.7053284155731093e-06 1.2538986351578822e-05 0.0000000000000000e+00  -1.8670196774154991e-06 1.7773003534978165e-05 0.0000000000000000e+00  -1.7743957041682012e-06 2.3738922066186881e-05 0.0000000000000000e+00  -1.8378208939138345e-06 2.9199696053527739e-05 0.0000000000000000e+00  -2.0017712988299092e-06 3.5632896855999433e-05 0.0000000000000000e+00  -2.3415891541302724e-06 4.1939137987542860e-05 0.0000000000000000e+00  -1.8628777772019692e-06 4.8346334590073788e-05 0.0000000000000000e+00  -2.8223982728595910e-06 5.6120213876393834e-05 0.0000000000000000e+00  -2.2903577694665120e-06 6.3008866183961339e-05 0.0000000000000000e+00  -2.5616933567255337e-06 7.0835492125505435e-05 0.0000000000000000e+00  -2.8134712925433940e-06 7.9588050449714133e-05 0.0000000000000000e+00  -3.0082411598351700e-06 8.8683228345705223e-05 0.0000000000000000e+00  -3.4093666783566377e-06 9.8322824203287107e-05 0.0000000000000000e+00  -3.5722835930456972e-06 1.0958694537643687e-04 0.0000000000000000e+00  -3.8488653698929537e-06 1.2047334697807817e-04 0.0000000000000000e+00  -4.2853012322379558e-06 1.3348985897613456e-04 0.0000000000000000e+00  -4.7769506570379465e-06 1.4874228634047823e-04 0.0000000000000000e+00  -6.8887638295122381e-06 1.6243001737053202e-04 0.0000000000000000e+00  -6.4285616132827101e-06 1.7821501546113274e-04 0.0000000000000000e+00  -7.1818059030681552e-06 2.0076140777441922e-04 0.0000000000000000e+00  -9.3950189199008369e-06 2.1899107440398558e-04 0.0000000000000000e+00  -8.5311844675190527e-06 2.4519653114838904e-04 0.0000000000000000e+00  -9.3973003676097434e-06 2.7163072734475823e-04 0.0000000000000000e+00  -9.0767474000121471e-06 3.0207768007591912e-04 0.0000000000000000e+00  -1.4163474334513309e-05 3.3708388246760833e-04 0.0000000000000000e+00  -1.3826713194311936e-05 3.7292503149095256e-04 0.0000000000000000e+00  -1.8715575713121930e-05 4.2782713094147162e-04 0.0000000000000000e+00  -2.1692642879701139e-05 4.7313168087569660e-04 0.0000000000000000e+00  -2.0368574364167788e-05 5.4441868708116905e-04 0.0000000000000000e+00  -2.3359440861097812e-05 6.1426937368341328e-04 0.0000000000000000e+00  -2.9831793296253167e-05 7.0215192060611492e-04 0.0000000000000000e+00  -3.8437713520103995e-05 8.1084816242139011e-04 0.0000000000000000e+00  -3.9767274468497464e-05 9.4698989660340314e-04 0.0000000000000000e+00  -4.9170889789756888e-05 1.0938539494438192e-03 0.0000000000000000e+00  -7.3483893222234730e-05 1.2892277271175766e-03 0.0000000000000000e+00  -9.7413453329405899e-05 1.5298077244464393e-03 0.0000000000000000e+00  -1.0861172545286474e-04 1.8049174508664456e-03 0.0000000000000000e+00  -1.2699024994427329e-04 2.0399024667854429e-03 0.0000000000000000e+00  -1.6221330519547742e-04 2.1895577801422116e-03 0.0000000000000000e+00  -1.6897844846593655e-04 2.0894929471822537e-03 0.0000000000000000e+00  -1.4803546251003353e-04 1.5316632074834763e-03 0.0000000000000000e+00  -4.2052080991769108e-05 3.5331297017650261e-04 0.0000000000000000e+00  3.4172345820205287e-05 -1.4769578925848802e-03 0.0000000000000000e+00  -1.4866523152748664e-04 -3.5734021206512180e-03 0.0000000000000000e+00  -1.8013957904098000e-05 -5.8516934033550974e-03 0.0000000000000000e+00  -2.8177375812591802e-05 -7.3704199354459920e-03 0.0000000000000000e+00  -6.8987701480243977e-05 -7.7810919933679785e-03 0.0000000000000000e+00  -5.5866513883674922e-05 -6.8184197303053033e-03 0.0000000000000000e+00  -6.3718299449937410e-05 -4.6491524824923093e-03 0.0000000000000000e+00  -6.7775763706164857e-05 -1.6767971463945638e-03 0.0000000000000000e+00  -6.9245710734894229e-05 1.3418362523749626e-03 0.0000000000000000e+00  -1.6875437951018204e-05 4.0902167599368563e-03 0.0000000000000000e+00  -8.1668450329144585e-05 6.0298780100053505e-03 0.0000000000000000e+00  -1.5173270821789931e-05 1.8957267492029925e-04 0.0000000000000000e+00  -7.8560075152718375e-06 1.0349688843830799e-04 0.0000000000000000e+00  -6.3093709094576438e-06 5.2602159186360358e-05 0.0000000000000000e+00  -2.8004299191461318e-05 3.4944339597467889e-04 0.0000000000000000e+00  -7.4935476557003603e-05 7.5573149001663029e-04 0.0000000000000000e+00  8.5481107051063967e-05 7.2278475167210571e-04 0.0000000000000000e+00  -7.7156901391472901e-05 7.3691046419884312e-06 0.0000000000000000e+00  -2.2429823310261742e-04 1.6315655824874870e-03 0.0000000000000000e+00  -4.9011440139041889e-06 2.0352779195060841e-05 0.0000000000000000e+00  2.0818025172108953e-04 1.4270224197073422e-03 0.0000000000000000e+00  -9.1385586700969715e-05 -2.4651251859138301e-06 0.0000000000000000e+00  -3.7437450089128153e-06 -6.2358173024607588e-06 0.0000000000000000e+00  -9.1714316574792237e-04 8.9176936653741386e-04 0.0000000000000000e+00  -4.3850288974525809e-05 1.4407444387526820e-05 0.0000000000000000e+00  5.3738687793666042e-05 3.9700468927031786e-04 0.0000000000000000e+00  1.7133447791032639e-04 2.3574617648834052e-03 0.0000000000000000e+00  -7.7816510088653297e-05 -7.0473659854722406e-06 0.0000000000000000e+00  -9.6240651065286986e-06 1.4400290980435162e-05 0.0000000000000000e+00  3.0857449243844456e-05 1.9676312790351558e-04 0.0000000000000000e+00  -3.8352607735570930e-06 -2.6180541847605640e-05 0.0000000000000000e+00  -4.8950023405279540e-04 -6.6407277420443269e-03 0.0000000000000000e+00  9.2746742267563070e-06 6.0832658414626298e-06 0.0000000000000000e+00  1.6478851230235513e-05 9.5347897832473468e-05 0.0000000000000000e+00  9.2013168291327517e-05 2.8671758826854864e-03 0.0000000000000000e+00  -5.1989619879300769e-05 -9.2240539447461023e-06 0.0000000000000000e+00  1.1474745425550205e-05 3.3185822241003665e-07 0.0000000000000000e+00  8.9714734079867326e-06 5.6679067586450614e-05 0.0000000000000000e+00  -5.3309048385732094e-05 5.0281687754544831e-04 0.0000000000000000e+00  -6.3296265103517848e-06 7.5247233654387186e-05 0.0000000000000000e+00  -2.2823245672082505e-05 2.5652755177546559e-04 0.0000000000000000e+00  -1.0327655017752086e-05 1.3813175711830086e-04 0.0000000000000000e+00  8.2716872891184913e-06 -3.2724018682807882e-06 0.0000000000000000e+00  3.8953024746541924e-06 3.6870559011653141e-05 0.0000000000000000e+00  2.9599128198509744e-04 -5.7559875617194970e-03 0.0000000000000000e+00  -4.3384843251761065e-06 -3.4348767797132910e-05 0.0000000000000000e+00  4.5106076346528464e-06 -4.9136440174303247e-06 0.0000000000000000e+00  3.7640811180512562e-07 -2.8833353393033911e-06 0.0000000000000000e+00  1.9491866488187710e-06 2.6586152276421100e-05 0.0000000000000000e+00  1.8937847522481967e-06 -4.5961247691762255e-06 0.0000000000000000e+00  5.8495642582793734e-04 3.9671772786276241e-03 0.0000000000000000e+00  -3.0320291716924049e-05 -8.2052085289038801e-06 0.0000000000000000e+00  2.5135053998248551e-07 1.6863497142806401e-05 0.0000000000000000e+00  1.8938160648727853e-06 1.0303303973228427e-05 0.0000000000000000e+00  2.2937310522076450e-05 1.3454571265616004e-04 0.0000000000000000e+00  -2.5518617691977627e-05 1.4759865655166827e-05 0.0000000000000000e+00  4.4641775256215041e-05 2.6724869567435822e-04 0.0000000000000000e+00  -6.2753578437905458e-05 1.0365118423537346e-05 0.0000000000000000e+00  7.4604669042581772e-05 5.3150828513309452e-04 0.0000000000000000e+00  -9.0023291460401646e-05 1.4081802596164860e-06 0.0000000000000000e+00  1.3642225025312072e-04 1.1373849866343102e-03 0.0000000000000000e+00  -8.6995892203685718e-05 -5.1334443753799675e-06 0.0000000000000000e+00  2.1543556592317360e-04 1.9396214458087271e-03 0.0000000000000000e+00  -6.5830765292159191e-05 -8.4915137179183688e-06 0.0000000000000000e+00  5.5567531569969342e-05 2.6146936559289817e-03 0.0000000000000000e+00  -9.1707684029465630e-04 -2.2649089666810125e-03 0.0000000000000000e+00  -3.6195282481335159e-06 -1.6695251168033883e-05 0.0000000000000000e+00  5.9612117422078159e-04 -1.2607972336970997e-04 0.0000000000000000e+00  -4.7029270789521960e-06 -2.9783241777011639e-05 0.0000000000000000e+00  -5.0973272570530579e-04 2.1278991593383315e-03 0.0000000000000000e+00  -4.3426767959295159e-06 4.5186240423205698e-06 0.0000000000000000e+00  -1.5158397266973740e-04 1.1811865901333813e-03 0.0000000000000000e+00  -4.4816519001643721e-06 3.2331731609639799e-05 0.0000000000000000e+00  6.0990630082044486e-07 -3.7958323041821896e-06 0.0000000000000000e+00  2.4528600609550028e-07 1.9317400565573083e-05 0.0000000000000000e+00  5.7335864314232872e-04 5.3527927307891188e-03 0.0000000000000000e+00  -1.6454242849177412e-05 -8.8814509689209878e-06 0.0000000000000000e+00  1.7203818925304267e-07 -2.0662860060113311e-06 0.0000000000000000e+00  5.6327089536374650e-07 -2.5908583228689320e-06 0.0000000000000000e+00  4.4424883515657211e-04 4.9139320855311934e-03 0.0000000000000000e+00  -5.3178020098663895e-06 -1.5418287150217138e-05 0.0000000000000000e+00  9.7022107268192784e-07 -4.3163258948543579e-06 0.0000000000000000e+00  1.5623250878129969e-06 -3.5655196618975052e-06 0.0000000000000000e+00  2.3249925151651742e-06 -3.6431192167295911e-06 0.0000000000000000e+00  1.8783155151002825e-06 -1.5257385883977549e-06 0.0000000000000000e+00  2.6219334037882162e-06 -1.4172604997285425e-06 0.0000000000000000e+00  1.4774809275414283e-06 -1.4295604807830094e-06 0.0000000000000000e+00  2.0099119690071000e-06 -3.3330369572077016e-06 0.0000000000000000e+00  2.6281530010908584e-06 -2.5750747790974747e-06 0.0000000000000000e+00  1.9831313578378819e-06 -9.9004007730920549e-08 0.0000000000000000e+00  2.9577053568226698e-06 -9.0155253458701549e-07 0.0000000000000000e+00  3.7159584890542797e-06 -2.0347464289082904e-06 0.0000000000000000e+00  3.8540947362656215e-06 -1.3872948320317192e-06 0.0000000000000000e+00  4.2447994273357572e-06 -1.6602038018209296e-06 0.0000000000000000e+00  3.8438374522162723e-06 -1.4959708889708105e-06 0.0000000000000000e+00  4.8036927618316531e-06 -8.2738484581717587e-07 0.0000000000000000e+00  4.9501799775938600e-06 -9.4371587425109365e-07 0.0000000000000000e+00  6.0181513321509789e-06 -2.5322025294152339e-07 0.0000000000000000e+00  6.4467816410256351e-06 -4.3592604796206089e-07 0.0000000000000000e+00  6.9254297937190240e-06 -1.7177285514578000e-07 0.0000000000000000e+00  7.0849883108456439e-06 -1.8153873838554237e-07 0.0000000000000000e+00  7.3433848833621085e-06 4.1016925784264281e-08 0.0000000000000000e+00  7.4736260083114542e-06 1.0809154668934507e-07 0.0000000000000000e+00  7.3838605400344405e-06 -3.7847290651487107e-08 0.0000000000000000e+00  7.9296424536325786e-06 -2.5571101342407417e-07 0.0000000000000000e+00  7.1210492623947430e-06 -3.3987070469148969e-07 0.0000000000000000e+00  7.6757688494812446e-06 -1.1361338685932651e-06 0.0000000000000000e+00  6.6325536260610185e-06 -1.2375801899901801e-06 0.0000000000000000e+00  7.3389945421594161e-06 -2.5110284516484157e-06 0.0000000000000000e+00  5.8632136629336732e-06 -2.0631293592757038e-06 0.0000000000000000e+00  6.6290891006409494e-06 -4.1939077473784154e-06 0.0000000000000000e+00  4.4568956988377434e-06 -3.3735444321486952e-06 0.0000000000000000e+00  4.8912766016534997e-06 -6.0145251424269814e-06 0.0000000000000000e+00  1.7760286002328193e-06 -5.2050258196959399e-06 0.0000000000000000e+00  2.4783954722134201e-06 -8.6659920882783357e-06 0.0000000000000000e+00  -1.7242290664983746e-06 