<?xml version="1.0"?>
<VTKFile type="UnstructuredGrid"  version="0.1"  >
<UnstructuredGrid>
<Piece  NumberOfPoints="1691" NumberOfCells="3204">
<Points>
<DataArray  type="Float64"  NumberOfComponents="3"  format="ascii">0 0 0  30 0 0  30 -10 0  0 -10 0  0.1391574078963744 0 0  0.2856388821882616 0 0  0.4398299073010886 0 0  0.6021362569539473 0 0  0.7729850389704483 0 0  0.9528258543586996 0 0  1.142131984380316 0 0  1.34140159760994 0 0  1.551159074717981 0 0  1.771956417032531 0 0  2.004374674080994 0 0  2.249025475789527 0 0  2.506552636773105 0 0  2.777633857742732 0 0  3.062982518028728 0 0  3.363349525995907 0 0  3.679525322337712 0 0  4.01234195575742 0 0  4.362675247811097 0 0  4.731447135329707 0 0  5.119628065610077 0 0  5.528239565804708 0 0  5.958356943167011 0 0  6.411112081475485 0 0  6.887696441559404 0 0  7.389364184530748 0 0  7.917435485335147 0 0  8.473300005202017 0 0  9.058420557070402 0 0  9.674336929103793 0 0  10.32266995225095 0 0  11.00512576896296 0 0  11.72350030646412 0 0  12.47968402994705 0 0  13.27566689579597 0 0  14.1135435963616 0 0  14.9955190732806 0 0  15.92391430904694 0 0  16.90117245730496 0 0  17.92986524844506 0 0  19.01269976086341 0 0  20.15252556282024 0 0  21.35234220269763 0 0  22.61530708683689 0 0  23.94474379751883 0 0  25.34415086349739 0 0  26.81721093579712 0 0  28.3678004819169 0 0  30 -1.111111111111111 0  30 -2.222222222222222 0  30 -3.333333333333333 0  30 -4.444444444444445 0  30 -5.555555555555555 0  30 -6.666666666666666 0  30 -7.777777777777777 0  30 -8.888888888888889 0  28.36780047917311 -10 0  26.8172109305839 -10 0  25.34415085606858 -10 0  23.94474378810899 -10 0  22.61530707566275 -10 0  21.3523421899591 -10 0  20.15252554870171 -10 0  19.01269974553473 -10 0  17.92986523206254 -10 0  16.90117244001232 -10 0  15.92391429097614 -10 0  14.99551905455266 -10 0  14.11354357708742 -10 0  13.27566687607703 -10 0  12.47968400987599 -10 0  11.72350028612546 -10 0  11.00512574843363 -10 0  10.32266993160086 -10 0  9.674336908396342 -10 0  9.058420536362949 -10 0  8.473299984546333 -10 0  7.917435464777824 -10 0  7.389364164113587 -10 0  6.887696420787165 -10 0  6.411112061446698 -10 0  5.95835692337857 -10 0  5.528239546282652 -10 0  5.119628046377237 -10 0  4.731447115907979 -10 0  4.362675229213632 -10 0  4.012341937260036 -10 0  3.679525304434552 -10 0  3.363349508456405 -10 0  3.062982500861274 -10 0  2.777633840953978 -10 0  2.506552620368097 -10 0  2.249025459771861 -10 0  2.004374658452946 -10 0  1.771956401795187 -10 0  1.551159059871345 -10 0  1.341401583153029 -10 0  1.142131970307521 -10 0  0.9528258406748833 -10 0  0.7729850256685147 -10 0  0.6021362439621285 -10 0  0.4398298947504031 -10 0  0.2856388700059078 -10 0  0.1391573960769001 -10 0  0 -9.855072463768115 0  0 -9.710144927536232 0  0 -9.565217391304348 0  0 -9.420289855072463 0  0 -9.27536231884058 0  0 -9.130434782608695 0  0 -8.985507246376812 0  0 -8.840579710144928 0  0 -8.695652173913043 0  0 -8.55072463768116 0  0 -8.405797101449275 0  0 -8.260869565217391 0  0 -8.115942028985508 0  0 -7.971014492753623 0  0 -7.826086956521739 0  0 -7.681159420289855 0  0 -7.536231884057971 0  0 -7.391304347826087 0  0 -7.246376811594203 0  0 -7.101449275362318 0  0 -6.956521739130435 0  0 -6.811594202898551 0  0 -6.666666666666667 0  0 -6.521739130434783 0  0 -6.376811594202898 0  0 -6.231884057971015 0  0 -6.086956521739131 0  0 -5.942028985507246 0  0 -5.797101449275362 0  0 -5.652173913043478 0  0 -5.507246376811594 0  0 -5.36231884057971 0  0 -5.217391304347826 0  0 -5.072463768115941 0  0 -4.927536231884058 0  0 -4.782608695652174 0  0 -4.637681159420289 0  0 -4.492753623188406 0  0 -4.347826086956522 0  0 -4.202898550724638 0  0 -4.057971014492754 0  0 -3.913043478260869 0  0 -3.768115942028985 0  0 -3.623188405797101 0  0 -3.478260869565217 0  0 -3.333333333333334 0  0 -3.188405797101449 0  0 -3.043478260869565 0  0 -2.898550724637681 0  0 -2.753623188405797 0  0 -2.608695652173912 0  0 -2.463768115942029 0  0 -2.318840579710145 0  0 -2.173913043478261 0  0 -2.028985507246377 0  0 -1.884057971014492 0  0 -1.739130434782609 0  0 -1.594202898550725 0  0 -1.44927536231884 0  0 -1.304347826086957 0  0 -1.159420289855072 0  0 -1.014492753623188 0  0 -0.8695652173913047 0  0 -0.72463768115942 0  0 -0.579710144927537 0  0 -0.4347826086956523 0  0 -0.2898550724637676 0  0 -0.1449275362318829 0  0.1309460514202492 -4.990980414828784 0  0.1171526873513358 -5.869565217391296 0  0.1344252986967795 -6.716855800502001 0  0.1221309018586645 -4.161899358592938 0  0.1166997684017801 -3.25954604704229 0  4.961569127360256 -0.3118894787216622 0  4.923897360678746 -9.687537149351071 0  0.1228405945134021 -2.536958536012416 0  0.1335945686177435 -7.466846676638523 0  3.206461751753455 -0.2806173508164562 0  3.213166004658842 -9.746377676274168 0  0.1155250883680452 -8.186784073011673 0  0.1359204609538445 -1.804202625344072 0  6.662432263484016 -9.600124945047963 0  6.631056521209421 -0.3942868763482545 0  2.126700074935258 -0.2065769621215452 0  2.120437876630353 -9.808537401472012 0  8.761385473272522 -9.4914222957189 0  8.786076048231736 -0.4923064159810888 0  0.1195911345135556 -8.749677128895598 0  0.1117474302775605 -1.230589418769438 0  11.3907841305612 -9.402816705944797 0  11.36435727088349 -0.618365439918426 0  1.211504568109637 -0.1471532661956818 0  1.239596144827807 -9.832618358594059 0  13.75158625181508 -9.315497816134139 0  13.7500399625954 -0.6902569910160397 0  0.131402377539402 -3.696772604078816 0  0.1204853385030979 -6.307560917781178 0  0.1346483804691658 -4.550944754283819 0  0.1255109280847009 -5.434782608695652 0  16.39894095075685 -9.180198571581517 0  16.44068234362399 -0.8166544577416346 0  0.1255109280847009 -0.7971014492753632 0  0.1162877148651766 -9.206770243020259 0  19.56645066956165 -9.043742294716539 0  29.11731382843969 -5.098539983867493 0  19.50527862123305 -0.9323941524176265 0  23.28904960561395 -8.8608997858633 0  0.6875606479622149 -0.1442604037134076 0  0.6875606348153145 -9.855739596611892 0  23.37074358394081 -1.15131614182933 0  10.00852704311311 -9.475417469395781 0  10.01049631493635 -0.5545437343697674 0  7.639131123468924 -9.543000896765111 0  7.693537846067955 -0.4574302764599576 0  5.733194300659633 -9.66079268774309 0  5.731454990332523 -0.3687808037058806 0  3.803630689980224 -9.686555789708486 0  3.834043646352164 -0.2754981925697493 0  2.618022704128803 -9.787800068206256 0  2.634320277618269 -0.2392104743186785 0  1.65952286941916 -9.813294854785646 0  1.665360553377539 -0.1820878093930922 0  0.1365068028365961 -1.543352471920677 0  0.1128108295274224 -8.471115901500411 0  0.1249192863256123 -0.5070564851587012 0  0.1172626025927563 -9.49200175151447 0  0.1255109280847009 -2.101449275362318 0  0.1255109280847009 -7.898550724637682 0  0.1247535864599936 -2.824177050114505 0  0.1155424837078822 -7.17494363557847 0  26.05192393553612 -8.777856070543081 0  26.00031291598836 -1.159065252957426 0  0.3627343947446455 -0.1301950113519217 0  0.3690141220077834 -9.868919517536135 0  28.90574865438674 -7.135369011630129 0  29.02069681040884 -2.861993939893059 0  0.1397555488250113 -0.2163338956475025 0  0.1255109280847009 -9.782608695652172 0  24.67098979274125 -8.799958058548517 0  23.93395881668722 -7.700959994796646 0  22.61396570077244 -7.764517377391733 0  23.2032949615693 -6.630776985250927 0  21.94857473380583 -6.690613342424633 0  24.50398505507967 -6.535933305198952 0  22.51489076809043 -5.580432145971667 0  21.29537841406989 -5.639199768252479 0  21.84985259542567 -4.547213342284197 0  20.65342988351128 -4.619546679988924 0  20.11277906893955 -5.663225279336593 0  19.49454290958806 -4.673886314669294 0  18.97860072994828 -5.624185949902217 0  18.40383886642446 -4.729683279047542 0  17.90575400337286 -5.630456854950327 0  17.35903168001753 -4.836859475002379 0  16.91444903556046 -5.680257663405808 0  16.36114434035519 -4.898890029095359 0  15.89440836794127 -5.835214594829282 0  15.41608945577568 -4.979845093198404 0  14.9809818125648 -5.732909169427192 0  14.51777858619734 -4.988431190461874 0  14.14039496103406 -5.776391085527889 0  13.67321261031888 -5.031745046943032 0  13.26988611760758 -5.891550007816156 0  12.85732927991246 -5.095735823822261 0  12.46423889659403 -5.760519953635332 0  12.07741841933393 -5.116608846746942 0  11.73131647445202 -5.75987862647932 0  11.35222911621012 -5.158061768105265 0  11.01225658271747 -5.784828178519854 0  10.65393216495117 -5.205808407572067 0  10.33042159780337 -5.788944717060055 0  9.98551374198097 -5.24118342090078 0  9.687616112021921 -5.812725728827915 0  9.357518717034999 -5.284717467130579 0  9.08157001076583 -5.820057568121996 0  8.766199932316585 -5.320212662582848 0  8.494748056481422 -5.830095453943056 0  8.194406727465122 -5.347802431655208 0  7.942610344706003 -5.833678024304247 0  7.660825631728443 -5.380025954369014 0  7.416702921751611 -5.83684433397813 0  7.147290851157173 -5.413787279190068 0  6.91632006965034 -5.851605397483334 0  6.658527053286988 -5.437627383845131 0  6.441897327469297 -5.862220684948111 0  6.194860224019926 -5.464520225953867 0  5.988748643021736 -5.866336295550595 0  5.755042825355586 -5.482399938780632 0  5.555770501455733 -5.867908174086599 0  5.334991086231989 -5.504761241472904 0  5.145076642106908 -5.873191062890511 0  4.935013388047023 -5.544035964184449 0  4.754345788811499 -5.880090917794126 0  4.554437025256316 -5.569020251233177 0  4.382470744799432 -5.88665007327689 0  4.192208958329529 -5.585677590398814 0  4.029485566904095 -5.896175760774888 0  4.354949258143058 -5.270074521138358 0  4.004482386201769 -5.289207815434526 0  4.158655721068861 -4.98145486433833 0  3.821444856080801 -5.001169872115685 0  3.97033944278737 -4.700814034221719 0  3.642688047138773 -4.720140385706738 0  3.788830742180677 -4.426816067812119 0  3.467446796449556 -4.450112744784491 0  3.325275354457695 -4.730293981808933 0  3.158439978631689 -4.466074367009679 0  3.294707394527546 -4
[...]
<PointData  Vectors="flow"> 
<DataArray  type="Float64"  Name="flow"  NumberOfComponents="3" format="ascii">-1.2060498207043678e-03 5.3996741724326516e-03 0.0000000000000000e+00  1.3716566998020182e-05 4.7764482022862392e-05 0.0000000000000000e+00  -1.9536096470293723e-06 -1.5971556354732640e-06 0.0000000000000000e+00  1.6200395452572521e-06 -1.1374693965509884e-05 0.0000000000000000e+00  3.6400974209591455e-04 8.0900932639323825e-03 0.0000000000000000e+00  -1.2189448064599471e-04 4.1688033903167117e-03 0.0000000000000000e+00  -2.6535483674615021e-04 3.2585077976297746e-03 0.0000000000000000e+00  2.8028171579097874e-04 6.4489942469158762e-03 0.0000000000000000e+00  -4.2727399808451769e-04 1.1147557750992527e-02 0.0000000000000000e+00  8.3472526842216063e-06 1.3752822071978966e-02 0.0000000000000000e+00  2.4524341107600059e-05 1.3833292920425245e-02 0.0000000000000000e+00  5.8554053431363572e-04 1.1943678241481095e-02 0.0000000000000000e+00  -2.4777920750984465e-04 1.0501697709837941e-02 0.0000000000000000e+00  1.2845526361768855e-04 8.5672999779803690e-03 0.0000000000000000e+00  1.8565573154191896e-05 7.1770885885238710e-03 0.0000000000000000e+00  1.2198204565612155e-05 6.1487980190240476e-03 0.0000000000000000e+00  5.4928396119128445e-05 5.0102735741663490e-03 0.0000000000000000e+00  2.3475537235019103e-04 3.8929009166691745e-03 0.0000000000000000e+00  -1.4074863322086780e-04 3.4307287114987341e-03 0.0000000000000000e+00  6.1000291936851535e-06 2.9481098707774597e-03 0.0000000000000000e+00  9.8766055023289354e-06 2.5346020756035021e-03 0.0000000000000000e+00  -1.1657801734359498e-04 2.2140373279198162e-03 0.0000000000000000e+00  5.6976320658917440e-05 1.7083611307239768e-03 0.0000000000000000e+00  2.8297906491095753e-05 1.5203857857150570e-03 0.0000000000000000e+00  -1.6397725966778189e-06 1.2896951188357290e-03 0.0000000000000000e+00  2.6549499420481407e-05 1.1044011456660602e-03 0.0000000000000000e+00  1.8358185717919510e-06 9.3206612417888631e-04 0.0000000000000000e+00  -1.3393435368649159e-06 7.7356713366767314e-04 0.0000000000000000e+00  4.2500242532203037e-05 6.1057786713292173e-04 0.0000000000000000e+00  -2.1800533721684417e-05 5.3106835594451929e-04 0.0000000000000000e+00  1.9737492681463862e-06 4.6678500338744646e-04 0.0000000000000000e+00  5.4023493968779742e-06 3.9121089501870825e-04 0.0000000000000000e+00  5.6733250674355561e-06 3.2046939837998632e-04 0.0000000000000000e+00  1.4352110982327164e-06 2.6689204631664650e-04 0.0000000000000000e+00  2.9417644674544051e-06 2.2312549664881381e-04 0.0000000000000000e+00  1.9485139697722567e-06 1.8496763243858083e-04 0.0000000000000000e+00  2.1224822997763310e-08 1.4955369833746131e-04 0.0000000000000000e+00  8.1882828743765988e-06 1.1653851135915610e-04 0.0000000000000000e+00  -5.4896774235637352e-06 1.0383342042870636e-04 0.0000000000000000e+00  6.0323232760602937e-07 9.4488331362379085e-05 0.0000000000000000e+00  2.8095138160389899e-07 8.4399690960189255e-05 0.0000000000000000e+00  2.5913147371506847e-06 7.2965644778206579e-05 0.0000000000000000e+00  1.9115538980043172e-06 6.4187111619869422e-05 0.0000000000000000e+00  4.6502425136724271e-07 5.7507625537762068e-05 0.0000000000000000e+00  6.3345420354566757e-07 5.4923754771002706e-05 0.0000000000000000e+00  -5.5530810334214857e-06 5.7352000483657814e-05 0.0000000000000000e+00  2.6076120481481328e-06 4.0051642221129982e-05 0.0000000000000000e+00  1.7331946344459933e-06 4.5955319525546832e-05 0.0000000000000000e+00  -6.1776789575200193e-07 4.3646409166213459e-05 0.0000000000000000e+00  -4.2922471218293330e-07 4.2572821749274494e-05 0.0000000000000000e+00  3.2184197088325731e-06 3.7843546550293125e-05 0.0000000000000000e+00  -9.4795801353444234e-06 4.2792834757415954e-05 0.0000000000000000e+00  7.7558139387064810e-07 -3.4422559349132736e-06 0.0000000000000000e+00  -7.4043649051285041e-06 2.7936673743877904e-06 0.0000000000000000e+00  1.4908167225647578e-06 -3.9998128150823450e-06 0.0000000000000000e+00  -1.3366511633577366e-06 -3.4330203321649429e-07 0.0000000000000000e+00  -2.0356400661365514e-06 -1.3888590389951146e-06 0.0000000000000000e+00  1.2975255089068232e-06 -1.9906638067988241e-06 0.0000000000000000e+00  -1.8071522324441017e-06 -5.8905258459997054e-07 0.0000000000000000e+00  -2.3988035159591165e-06 -2.7037701093913904e-06 0.0000000000000000e+00  -7.9051858183854107e-07 -4.9122910463175369e-06 0.0000000000000000e+00  2.5075799927783342e-07 -6.6913451712677813e-06 0.0000000000000000e+00  -9.4522042454312996e-07 -9.1934731578693456e-06 0.0000000000000000e+00  1.3373449237109085e-06 -9.3550867531763634e-06 0.0000000000000000e+00  1.3007444975199076e-06 -1.0041632339910788e-05 0.0000000000000000e+00  2.1289455977473920e-06 -1.0565505252577469e-05 0.0000000000000000e+00  2.1095311697371200e-06 -1.0145986476921258e-05 0.0000000000000000e+00  4.2330023070117771e-06 -1.0012539141111814e-05 0.0000000000000000e+00  4.6973684773325409e-06 -9.4252441625708332e-06 0.0000000000000000e+00  5.8563389263302430e-06 -7.9227018266403417e-06 0.0000000000000000e+00  7.0171765788063947e-06 -6.1788713792268573e-06 0.0000000000000000e+00  8.3649514329873553e-06 -3.7540208232088951e-06 0.0000000000000000e+00  9.3089109562124709e-06 -6.2934060536214541e-07 0.0000000000000000e+00  1.0151644999141564e-05 3.3824156939747300e-06 0.0000000000000000e+00  1.0402936210259124e-05 8.5372054170568366e-06 0.0000000000000000e+00  8.8491419450066769e-06 1.2644649009259056e-05 0.0000000000000000e+00  1.1273410068870929e-05 1.7061171309475142e-05 0.0000000000000000e+00  2.3340573193712347e-06 1.9052839300742692e-05 0.0000000000000000e+00  2.7161207417616447e-06 2.2367048731611121e-05 0.0000000000000000e+00  -1.3815868259495877e-06 2.4590112468216845e-05 0.0000000000000000e+00  -5.5914534228793832e-06 2.5493637103360548e-05 0.0000000000000000e+00  -1.2115452320856570e-05 2.8412459397953386e-05 0.0000000000000000e+00  -1.8817999255350908e-05 2.8423978452771810e-05 0.0000000000000000e+00  -2.4151886591054224e-05 2.8474553248637477e-05 0.0000000000000000e+00  -3.2940692296061203e-05 2.7237431323012036e-05 0.0000000000000000e+00  -4.4053567968670569e-05 2.5366010153022527e-05 0.0000000000000000e+00  -4.7770241941594138e-05 2.0244953964885800e-05 0.0000000000000000e+00  -5.1266707475218071e-05 1.5851864181323674e-05 0.0000000000000000e+00  -5.6662230977280983e-05 1.2051301235637533e-05 0.0000000000000000e+00  -6.0657160717066844e-05 9.3042698383681325e-06 0.0000000000000000e+00  -6.5503761584842526e-05 5.5320851626081317e-06 0.0000000000000000e+00  -6.7331383028448690e-05 1.8273654934230904e-06 0.0000000000000000e+00  -6.6815693412189717e-05 -2.3785307382819822e-07 0.0000000000000000e+00  -6.6532725648060852e-05 -3.3872119365476475e-06 0.0000000000000000e+00  -6.6352714249814774e-05 -5.9639162093959502e-06 0.0000000000000000e+00  -6.1530137731990528e-05 -7.9923825507778637e-06 0.0000000000000000e+00  -5.8529493774814488e-05 -9.1929096791797274e-06 0.0000000000000000e+00  -5.5637607546748048e-05 -1.0154060828820855e-05 0.0000000000000000e+00  -5.1499437693727578e-05 -1.1343072204405554e-05 0.0000000000000000e+00  -4.6030944023388627e-05 -1.2313932265387555e-05 0.0000000000000000e+00  -4.0619683468311262e-05 -1.2449611662740649e-05 0.0000000000000000e+00  -3.5461352796217592e-05 -1.3009665203479273e-05 0.0000000000000000e+00  -3.1731267921786331e-05 -1.3026289708475158e-05 0.0000000000000000e+00  -2.3638261269814851e-05 -1.2919063715730296e-05 0.0000000000000000e+00  -1.8386125204250413e-05 -1.2207635783857382e-05 0.0000000000000000e+00  -1.4090728623888093e-05 -1.0783669852887415e-05 0.0000000000000000e+00  -1.0592069165955034e-05 -9.7215401836495936e-06 0.0000000000000000e+00  -6.7598386309142380e-06 -9.1533575831470986e-06 0.0000000000000000e+00  8.8283834889206347e-07 -2.5988797796733166e-05 0.0000000000000000e+00  -2.8295554170034633e-07 -3.4740836614312952e-05 0.0000000000000000e+00  -7.5880916594036120e-07 -3.8403374029708760e-05 0.0000000000000000e+00  -1.4325935127124960e-06 -3.7685490388621701e-05 0.0000000000000000e+00  -1.3804588808085140e-06 -3.3142343233271560e-05 0.0000000000000000e+00  -1.2340014264313857e-06 -3.0703123159176306e-05 0.0000000000000000e+00  -8.2920471867601223e-07 -2.5709703753731452e-05 0.0000000000000000e+00  -1.3139155355045512e-06 -2.0983441744908857e-05 0.0000000000000000e+00  -6.8003898342786907e-07 -1.7394010397327879e-05 0.0000000000000000e+00  -8.0359142481218383e-07 -1.4486823614836108e-05 0.0000000000000000e+00  -9.7671470963739758e-07 -1.0695807456223925e-05 0.0000000000000000e+00  -1.0388956096020663e-06 -7.6136708037618355e-06 0.0000000000000000e+00  -1.1697700896209745e-06 -3.1682391519746569e-06 0.0000000000000000e+00  -9.0754100230849318e-07 9.2145066507611191e-07 0.0000000000000000e+00  -1.0233766348470441e-06 3.2383593270255560e-06 0.0000000000000000e+00  -1.0463930985910509e-06 7.1084792897550201e-06 0.0000000000000000e+00  -1.1298431293607408e-06 9.2029767152585061e-06 0.0000000000000000e+00  -1.4543744534230900e-06 1.4358735801864146e-05 0.0000000000000000e+00  -1.1897404818679375e-06 1.7507228860005783e-05 0.0000000000000000e+00  -1.4465563071001033e-06 2.1177418502817667e-05 0.0000000000000000e+00  -1.5956688353593583e-06 2.5996497765424748e-05 0.0000000000000000e+00  -1.0272089608662026e-06 3.1200471266748525e-05 0.0000000000000000e+00  -2.4005551770347807e-06 3.5537002051763777e-05 0.0000000000000000e+00  -9.6072526663928661e-07 3.9177315987900912e-05 0.0000000000000000e+00  -1.3109588626003692e-06 4.5547942661396623e-05 0.0000000000000000e+00  -2.0196695631718411e-06 4.9221617485097669e-05 0.0000000000000000e+00  -2.0748101006537254e-06 5.5998952534398717e-05 0.0000000000000000e+00  -2.1729692234492214e-06 6.0673030543133920e-05 0.0000000000000000e+00  -2.5614117086441210e-06 6.8559007116265116e-05 0.0000000000000000e+00  -2.3943862579446047e-06 7.7440978383063955e-05 0.0000000000000000e+00  -3.2125191503872342e-06 8.4136696000978322e-05 0.0000000000000000e+00  -5.4652656710334930e-06 9.3827944847043346e-05 0.0000000000000000e+00  -4.7757027975843932e-06 9.9603000841495210e-05 0.0000000000000000e+00  -2.7891808955355008e-06 1.1469955092999079e-04 0.0000000000000000e+00  -6.1375812782944282e-06 1.2967479479263240e-04 0.0000000000000000e+00  -4.0248722580180614e-06 1.3777928919981203e-04 0.0000000000000000e+00  -5.9776631004684752e-06 1.5641576332553326e-04 0.0000000000000000e+00  -7.6171725714205191e-06 1.7592747831290779e-04 0.0000000000000000e+00  -7.2101515596834600e-06 1.9013439258370500e-04 0.0000000000000000e+00  -9.3361318949961914e-06 2.0746555636264586e-04 0.0000000000000000e+00  -8.0572784673469013e-06 2.3617918819135065e-04 0.0000000000000000e+00  -1.6441035843178158e-05 2.6832388195710988e-04 0.0000000000000000e+00  -9.2060513467660381e-06 2.9414618100594923e-04 0.0000000000000000e+00  -1.3129633035968045e-05 3.4026531508202370e-04 0.0000000000000000e+00  -1.3650495772892015e-05 3.8215740149090036e-04 0.0000000000000000e+00  -1.6819143266619850e-05 4.3779908364129951e-04 0.0000000000000000e+00  -2.2399139768849313e-05 4.8925036923488767e-04 0.0000000000000000e+00  -2.5671340484068276e-05 5.6920431876075501e-04 0.0000000000000000e+00  -2.8654080324499009e-05 6.7681262601857308e-04 0.0000000000000000e+00  -4.4251677267694591e-05 7.9111269230126597e-04 0.0000000000000000e+00  -5.8470079655877503e-05 9.1077699185851608e-04 0.0000000000000000e+00  -7.2070587755597819e-05 1.0869359945187031e-03 0.0000000000000000e+00  -8.7461462182286171e-05 1.3172498273246278e-03 0.0000000000000000e+00  -1.2119371207049090e-04 1.5958892466320580e-03 0.0000000000000000e+00  -1.6841148796242471e-04 1.9551931816603522e-03 0.0000000000000000e+00  -1.4077079751601771e-04 2.4583872419553050e-03 0.0000000000000000e+00  -3.1424337750199290e-04 3.2888238237493003e-03 0.0000000000000000e+00  -5.4303018407749230e-04 4.2538787971443765e-03 0.0000000000000000e+00  -5.7919496955019523e-04 5.7880044398506865e-03 0.0000000000000000e+00  -1.4636926598202123e-03 8.3273100516760064e-03 0.0000000000000000e+00  -2.8615313410377922e-03 1.4360127845442043e-02 0.0000000000000000e+00  -5.3698188613627053e-03 2.3128369189567691e-02 0.0000000000000000e+00  -2.6528995471192724e-03 1.4631544376432791e-02 0.0000000000000000e+00  -9.7620160774695673e-03 -8.9433680781937822e-02 0.0000000000000000e+00  1.7099981736007238e-02 -1.1331945053640889e-01 0.0000000000000000e+00  2.2012387305414924e-02 3.3002657277613229e-02 0.0000000000000000e+00  -4.3249053967597323e-03 6.3991678632000532e-02 0.0000000000000000e+00  -3.1753243718353577e-04 1.0868289024077202e-02 0.0000000000000000e+00  -1.0546492735027195e-05 1.2364691482093273e-04 0.0000000000000000e+00  -5.0977474262187668e-06 6.4180504197463022e-05 0.0000000000000000e+00  -4.8606110095631923e-06 3.4121923986932946e-05 0.0000000000000000e+00  -1.8132434406357533e-05 2.1765626103915025e-04 0.0000000000000000e+00  -4.8791949479262433e-05 4.6265032772703214e-04 0.0000000000000000e+00  1.2691694677076156e-04 6.6062244207795078e-04 0.0000000000000000e+00  -5.1550716128445694e-05 1.5826421755999835e-05 0.0000000000000000e+00  -1.3524937664776053e-04 9.7026380003907824e-04 0.0000000000000000e+00  -3.0094053879719365e-06 1.1412306926455419e-05 0.0000000000000000e+00  4.3654272336823976e-04 1.5047589724774073e-03 0.0000000000000000e+00  -6.3781840945498341e-05 -3.6123079232759483e-06 0.0000000000000000e+00  -2.1595244111555406e-06 -5.4549340192939627e-06 0.0000000000000000e+00  -6.7895153226317495e-04 2.7054002825612046e-03 0.0000000000000000e+00  -2.6722867374728559e-05 2.5935478238354410e-05 0.0000000000000000e+00  8.0341758497744928e-05 3.1481350084159188e-04 0.0000000000000000e+00  9.2656886285017305e-04 3.8607431822636215e-03 0.0000000000000000e+00  -5.5808191554616107e-05 -1.6354396636121106e-05 0.0000000000000000e+00  -4.8782600974299691e-06 2.0602345160184624e-05 0.0000000000000000e+00  3.7555487579634398e-05 1.1333308319700364e-04 0.0000000000000000e+00  -2.2637013857952334e-06 -1.8754554230913517e-05 0.0000000000000000e+00  -2.6383781888139001e-03 9.6143888934331449e-03 0.0000000000000000e+00  7.5234458902467492e-06 8.1202228110255487e-06 0.0000000000000000e+00  1.6687124812436456e-05 4.3726086722390311e-05 0.0000000000000000e+00  9.8680572663396144e-04 9.2906750594336975e-03 0.0000000000000000e+00  -3.7511062614633348e-05 -2.3005725281197497e-05 0.0000000000000000e+00  6.8060858339369520e-06 2.5410010963845141e-07 0.0000000000000000e+00  9.1821593479054214e-06 2.4865979429654326e-05 0.0000000000000000e+00  -3.4266452356242369e-05 3.1538082444444780e-04 0.0000000000000000e+00  -5.0905459246042885e-06 4.7231726635597723e-05 0.0000000000000000e+00  -1.4392355291352996e-05 1.6352444848711560e-04 0.0000000000000000e+00  -6.4910519599198027e-06 8.7390196459657070e-05 0.0000000000000000e+00  5.2396834800468920e-06 -3.1826264338210759e-06 0.0000000000000000e+00  3.0291254503553876e-06 1.3234215993888030e-05 0.0000000000000000e+00  -2.8802641682244553e-02 -2.3034316538996239e-02 0.0000000000000000e+00  -2.9648900747020251e-06 -3.1416469014627488e-05 0.0000000000000000e+00  2.7360312563983948e-06 -3.3184470282325798e-06 0.0000000000000000e+00  -2.2010503620092450e-07 -2.8889731283781150e-07 0.0000000000000000e+00  1.4445760981696332e-06 6.3433849931387866e-06 0.0000000000000000e+00  1.2380311808234415e-06 -2.8927002196532165e-06 0.0000000000000000e+00  -2.6507603624157470e-03 8.6033440625116666e-03 0.0000000000000000e+00  -2.0813814586895213e-05 -2.3035107508794956e-05 0.0000000000000000e+00  7.2673351272907173e-07 2.5799510171259321e-06 0.0000000000000000e+00  3.1749806293525105e-07 1.6409605693995585e-05 0.0000000000000000e+00  2.6891086948646305e-05 7.0385562010932026e-05 0.0000000000000000e+00  -1.7315415866245167e-05 2.7364352605095110e-05 0.0000000000000000e+00  5.3510694206819180e-05 1.6769495736940765e-04 0.0000000000000000e+00  -4.3571720721703590e-05 2.2377506378707625e-05 0.0000000000000000e+00  9.8280111147972934e-05 3.7087095335699500e-04 0.0000000000000000e+00  -6.3179243081482853e-05 3.5258540856407345e-06 0.0000000000000000e+00  2.4553646144394201e-04 1.1478647296051701e-03 0.0000000000000000e+00  -6.2510464291664153e-05 -1.1818385509101204e-05 0.0000000000000000e+00  6.2317934888395977e-04 2.6600710553651959e-03 0.0000000000000000e+00  -4.7668120483455113e-05 -2.1289789870528029e-05 0.0000000000000000e+00  1.1757532246285864e-03 5.7666384203875799e-03 0.0000000000000000e+00  -1.2888173087091674e-03 4.4691354271432660e-03 0.0000000000000000e+00  -2.1442498024291812e-06 -1.2840959569439065e-05 0.0000000000000000e+00  4.6117837678530178e-02 -4.3165427022657292e-02 0.0000000000000000e+00  -3.8340017364104446e-06 -3.8502518608612873e-05 0.0000000000000000e+00  -3.0761716798139533e-04 1.7176243743812895e-03 0.0000000000000000e+00  -2.9119303744520448e-06 2.2625633256054774e-06 0.0000000000000000e+00  -9.6753309753020962e-05 7.3011269057204474e-04 0.0000000000000000e+00  -3.4215199793501540e-06 1.9339680741603257e-05 0.0000000000000000e+00  1.0146454151254287e-06 -1.9323608864669325e-06 0.0000000000000000e+00  1.3360951186128932e-06 5.0397604464369296e-06 0.0000000000000000e+00  1.2686632140349700e-03 1.2366491037917177e-02 0.0000000000000000e+00  -1.2745522789124808e-05 -2.2736109337231455e-05 0.0000000000000000e+00  1.8476506320965137e-07 -1.3263663431660533e-06 0.0000000000000000e+00  -8.1927089641448893e-07 4.0903324442972950e-06 0.0000000000000000e+00  -5.0002070920373331e-03 3.1591184228709955e-02 0.0000000000000000e+00  -3.9436702042372547e-06 -3.3026841712701314e-05 0.0000000000000000e+00  4.8925057076020050e-07 -3.0755404097082741e-06 0.0000000000000000e+00  7.1876493153832941e-07 -5.0816436489151114e-07 0.0000000000000000e+00  1.6418419893073519e-06 -2.5521222578399532e-07 0.0000000000000000e+00  1.1444185407534391e-06 -3.3817193669077638e-06 0.0000000000000000e+00  1.8755157571161047e-06 -2.6506941169781542e-06 0.0000000000000000e+00  1.1036214929950798e-06 -2.9999085166068413e-06 0.0000000000000000e+00  9.0911919389607739e-07 4.3633613660739448e-07 0.0000000000000000e+00  1.8108190607049658e-06 2.8945071873064331e-07 0.0000000000000000e+00  1.3054518175661378e-06 -3.5230244699519589e-06 0.0000000000000000e+00  2.5749299621023400e-06 -1.1754512708311134e-06 0.0000000000000000e+00  2.1763504786576785e-06 -1.4734151246195813e-06 0.0000000000000000e+00  2.7055218404967067e-06 1.0249001563578903e-06 0.0000000000000000e+00  2.8541738341888310e-06 -2.2631210335345684e-06 0.0000000000000000e+00  2.7138288951262444e-06 1.0231165687794890e-06 0.0000000000000000e+00  2.0737666716421262e-06 -1.2643169473512231e-06 0.0000000000000000e+00  3.0248776763700890e-06 -2.9592237683681525e-07 0.0000000000000000e+00  4.3872747601330098e-06 -2.7080948942889008e-07 0.0000000000000000e+00  4.2990331507454068e-06 -6.2912885610152992e-07 0.0000000000000000e+00  4.3919272959177058e-06 1.3495168227997640e-08 0.0000000000000000e+00  4.5989051468056918e-06 -3.8355288618187502e-07 0.0000000000000000e+00  4.0830977684862201e-06 -3.7863188658826010e-07 0.0000000000000000e+00  4.8009035450653898e-06 -7.8471590311028736e-07 0.0000000000000000e+00  5.9712009479827181e-06 -2.1978072720548097e-07 0.0000000000000000e+00  5.0790762184074780e-06 -1.0814295050778779e-07 0.0000000000000000e+00  4.2582310239647711e-06 -1.2515048443689101e-07 0.0000000000000000e+00  4.5905991672939422e-06 -1.4877663522230258e-06 0.0000000000000000e+00  3.8202166864673149e-06 5.4629216675964018e-08 0.0000000000000000e+00  5.1976066422941544e-06 -3.6064464696432663e-06 0.0000000000000000e+00  4.5043413812129935e-06 -1.3132479436237353e-06 0.0000000000000000e+00  3.8751213883003795e-06 -2.6179154031492269e-06 0.0000000000000000e+00  3.2305917862687717e-06 -1.6651033491050028e-06 0.0000000000000000e+00  4.4772040528324995e-06 -4.0902752950937330e-06 0.0000000000000000e+00  1.4815172951571675e-06 -3.4734012096547278e-06 0.0000000000000000e+00  2.8013815205373528e-07 -5.3943514174892452e-06 0.0000000000000000e+00  -7.9043785363038508e-07 -4.3227