<?xml version="1.0"?>
<VTKFile type="UnstructuredGrid"  version="0.1"  >
<UnstructuredGrid>
<Piece  NumberOfPoints="18082" NumberOfCells="35500">
<Points>
<DataArray  type="Float64"  NumberOfComponents="3"  format="ascii">0 0 0  30 0 0  30 -10 0  0 -10 0  0.02360821169319077 0 0  0.04721642338638154 0 0  0.07206717063563725 0 0  0.09691791788489297 0 0  0.1230766011355843 0 0  0.1492352843862757 0 0  0.1767707375239038 0 0  0.204306190661532 0 0  0.2332908770901271 0 0  0.2622755635187223 0 0  0.2927857633803451 0 0  0.323295963241968 0 0  0.3554119623832387 0 0  0.3875279615245094 0 0  0.4213342730081758 0 0  0.4551405844918422 0 0  0.4907261762804851 0 0  0.526311768069128 0 0  0.5637702848355051 0 0  0.6012288016018821 0 0  0.6406588220121138 0 0  0.6800888424223455 0 0  0.721594129780935 0 0  0.7630994171395246 0 0  0.8067891887833475 0 0  0.8504789604271704 0 0  0.8964681941825949 0 0  0.9424574279380195 0 0  0.9908671465681095 0 0  1.039276865198199 0 0  1.090234462786975 0 0  1.141192060375751 0 0  1.194831641933244 0 0  1.248471223490737 0 0  1.304933942963653 0 0  1.361396662436569 0 0  1.420831104471586 0 0  1.480265546506604 0 0  1.542828113436244 0 0  1.605390680365884 0 0  1.671246013469327 0 0  1.73710134657277 0 0  1.806422752814762 0 0  1.875744159056755 0 0  1.948714057431306 0 0  2.021683955805857 0 0  2.098494373901932 0 0  2.175304791998006 0 0  2.256157866653476 0 0  2.337010941308945 0 0  2.422119443935387 0 0  2.50722794656183 0 0  2.596815840700639 0 0  2.686403734839449 0 0  2.780706776094687 0 0  2.875009817349925 0 0  2.974276175689285 0 0  3.073542534028646 0 0  3.178033441002704 0 0  3.282524347976761 0 0  3.392514777963501 0 0  3.502505207950242 0 0  3.618284608533553 0 0  3.734064009116865 0 0  3.855937062816526 0 0  3.977810116516187 0 0  4.106097541496641 0 0  4.234384966477093 0 0  4.369424362562147 0 0  4.5044637586472 0 0  4.646610489729194 0 0  4.788757220811188 0 0  4.938385356669961 0 0  5.088013492528733 0 0  5.24551679218304 0 0  5.403020091837347 0 0  5.568813038399614 0 0  5.73460598496188 0 0  5.909124878408681 0 0  6.083643771855482 0 0  6.267347873338513 0 0  6.451051974821543 0 0  6.644424714363561 0 0  6.83779745390558 0 0  7.041347702348167 0 0  7.244897950790754 0 0  7.459161368238869 0 0  7.673424785686984 0 0  7.898965226038037 0 0  8.124505666389089 0 0  8.361916654054033 0 0  8.599327641718979 0 0  8.849233942517035 0 0  9.099140243315093 0 0  9.362199507946787 0 0  9.625258772578484 0 0  9.902163261537794 0 0  10.1790677504971 0 0  10.47054616023911 0 0  10.76202456998112 0 0  11.06884394887334 0 0  11.37566332776555 0 0  11.69863109504192 0 0  12.02159886231829 0 0  12.3615649378891 0 0  12.7015310134599 0 0  13.05939003847426 0 0  13.41724906348862 0 0  13.79394276982091 0 0  14.1706364761532 0 0  14.5671561683298 0 0  14.96367586050641 0 0  15.38106501332897 0 0  15.79845416615153 0 0  16.23781117165827 0 0  16.677168177165 0 0  17.13964923659526 0 0  17.60213029602552 0 0  18.0889524622663 0 0  18.57577462850707 0 0  19.08821901304263 0 0  19.60066339757818 0 0  20.14007853843172 0 0  20.67949367928525 0 0  21.24729908993883 0 0  21.8151045005924 0 0  22.41279440541421 0 0  23.01048431023601 0 0  23.63963157605829 0 0  24.26877884188056 0 0  24.93103912515648 0 0  25.59329940843241 0 0  26.29041549584691 0 0  26.98753158326142 0 0  27.72133799026916 0 0  28.45514439727691 0 0  29.22757219863846 0 0  30 -0.3571428571428571 0  30 -0.7142857142857142 0  30 -1.071428571428571 0  30 -1.428571428571428 0  30 -1.785714285714286 0  30 -2.142857142857143 0  30 -2.5 0  30 -2.857142857142857 0  30 -3.214285714285714 0  30 -3.571428571428571 0  30 -3.928571428571428 0  30 -4.285714285714286 0  30 -4.642857142857142 0  30 -5 0  30 -5.357142857142857 0  30 -5.714285714285714 0  30 -6.071428571428571 0  30 -6.428571428571428 0  30 -6.785714285714285 0  30 -7.142857142857142 0  30 -7.5 0  30 -7.857142857142857 0  30 -8.214285714285714 0  30 -8.571428571428571 0  30 -8.928571428571427 0  30 -9.285714285714285 0  30 -9.642857142857142 0  29.22757220128658 -10 0  28.45514440257316 -10 0  27.72133799277628 -10 0  26.98753158297939 -10 0  26.29041549304805 -10 0  25.5932994031167 -10 0  24.93103911757599 -10 0  24.26877883203527 -10 0  23.63963156418132 -10 0  23.01048429632737 -10 0  22.41279438968936 -10 0  21.81510448305136 -10 0  21.24729907078059 -10 0  20.67949365850982 -10 0  20.14007851622273 -10 0  19.60066337393564 -10 0  19.08821898813588 -10 0  18.57577460233611 -10 0  18.08895243498708 -10 0  17.60213026763805 -10 0  17.13964920724307 -10 0  16.6771681468481 -10 0  16.2378111405086 -10 0  15.79845413416909 -10 0  15.38106498063496 -10 0  14.96367582710082 -10 0  14.56715613432376 -10 0  14.17063644154669 -10 0  13.79394273471576 -10 0  13.41724902788484 -10 0  13.05939000246495 -10 0  12.70153097704506 -10 0  12.36156490115379 -10 0  12.02159882526251 -10 0  11.69863105774323 -10 0  11.37566329022395 -10 0  11.06884391115945 -10 0  10.76202453209494 -10 0  10.47054612224479 -10 0  10.17906771239465 -10 0  9.902163223385379 -10 0  9.625258734376107 -10 0  9.362199469747061 -10 0  9.099140205118012 -10 0  8.849233904370102 -10 0  8.599327603622193 -10 0  8.361916616050124 -10 0  8.124505628478055 -10 0  7.898965188258209 -10 0  7.673424748038361 -10 0  7.459161330755727 -10 0  7.244897913473093 -10 0  7.041347665226496 -10 0  6.837797416979896 -10 0  6.644424677660922 -10 0  6.451051938341948 -10 0  6.26734783710581 -10 0  6.083643735869675 -10 0  5.90912484269068 -10 0  5.734605949511682 -10 0  5.568813003235423 -10 0  5.403020056959164 -10 0  5.24551675760658 -10 0  5.088013458254 -10 0  4.938385322710374 -10 0  4.788757187166745 -10 0  4.646610456411224 -10 0  4.504463725655707 -10 0  4.369424329906533 -10 0  4.234384934157362 -10 0  4.106097509520442 -10 0  3.977810084883522 -10 0  3.85593703153344 -10 0  3.734063978183357 -10 0  3.618284577954206 -10 0  3.502505177725055 -10 0  3.392514748095728 -10 0  3.282524318466404 -10 0  3.1780334118518 -10 0  3.073542505237196 -10 0  2.97427614725823 -10 0  2.875009789279265 -10 0  2.780706748384375 -10 0  2.686403707489482 -10 0  2.596815813710069 -10 0  2.507227919930656 -10 0  2.422119417661861 -10 0  2.337010915393062 -10 0  2.256157841092762 -10 0  2.175304766792465 -10 0  2.098494349048437 -10 0  2.021683931304413 -10 0  1.948714033278215 -10 0  1.875744135252013 -10 0  1.806422729354161 -10 0  1.737101323456312 -10 0  1.671245990692352 -10 0  1.605390657928396 -10 0  1.542828091333185 -10 0  1.480265524737977 -10 0  1.420831083031992 -10 0  1.36139664132601 -10 0  1.304933922176438 -10 0  1.248471203026863 -10 0  1.194831621786765 -10 0  1.14119204054667 -10 0  1.09023444350921 -10 0  1.039276846471754 -10 0  0.9908671279064798 -10 0  0.942457409341209 -10 0  0.8964681758842019 -10 0  0.8504789424271948 -10 0  0.8067891710751951 -10 0  0.7630993997231954 -10 0  0.7215941126497469 -10 0  0.6800888255762949 -10 0  0.6406588054444597 -10 0  0.6012287853126246 -10 0  0.5637702688178621 -10 0  0.5263117523230996 -10 0  0.4907261607992695 -10 0  0.4551405692754429 -10 0  0.4213342580497894 -10 0  0.3875279468241395 -10 0  0.3554119479341011 -10 0  0.3232959490440663 -10 0  0.2927857494269297 -10 0  0.2622755498097931 -10 0  0.2332908636189828 -10 0  0.2043061774281725 -10 0  0.1767707245216883 -10 0  0.1492352716152006 -10 0  0.1230765885890825 -10 0  0.09691790556296098 -10 0  0.0720671585317838 -10 0  0.04721641150060663 -10 0  0.02360820575030331 -10 0  0 -9.972067039106145 0  0 -9.94413407821229 0  0 -9.916201117318435 0  0 -9.888268156424582 0  0 -9.860335195530727 0  0 -9.832402234636872 0  0 -9.804469273743017 0  0 -9.776536312849162 0  0 -9.748603351955307 0  0 -9.720670391061452 0  0 -9.692737430167599 0  0 -9.664804469273744 0  0 -9.636871508379889 0  0 -9.608938547486034 0  0 -9.581005586592179 0  0 -9.553072625698324 0  0 -9.525139664804469 0  0 -9.497206703910614 0  0 -9.46927374301676 0  0 -9.441340782122905 0  0 -9.41340782122905 0  0 -9.385474860335195 0  0 -9.35754189944134 0  0 -9.329608938547485 0  0 -9.30167597765363 0  0 -9.273743016759777 0  0 -9.245810055865922 0  0 -9.217877094972067 0  0 -9.189944134078212 0  0 -9.162011173184357 0  0 -9.134078212290502 0  0 -9.106145251396647 0  0 -9.078212290502794 0  0 -9.050279329608939 0  0 -9.022346368715084 0  0 -8.994413407821229 0  0 -8.966480446927374 0  0 -8.938547486033519 0  0 -8.910614525139664 0  0 -8.882681564245811 0  0 -8.854748603351956 0  0 -8.826815642458101 0  0 -8.798882681564246 0  0 -8.770949720670391 0  0 -8.743016759776536 0  0 -8.715083798882681 0  0 -8.687150837988828 0  0 -8.659217877094973 0  0 -8.631284916201118 0  0 -8.603351955307263 0  0 -8.575418994413408 0  0 -8.547486033519553 0  0 -8.519553072625698 0  0 -8.491620111731844 0  0 -8.463687150837989 0  0 -8.435754189944134 0  0 -8.407821229050279 0  0 -8.379888268156424 0  0 -8.351955307262569 0  0 -8.324022346368714 0  0 -8.296089385474861 0  0 -8.268156424581006 0  0 -8.240223463687151 0  0 -8.212290502793296 0  0 -8.184357541899441 0  0 -8.156424581005586 0  0 -8.128491620111731 0  0 -8.100558659217878 0  0 -8.072625698324023 0  0 -8.044692737430168 0  0 -8.016759776536313 0  0 -7.988826815642458 0  0 -7.960893854748603 0  0 -7.932960893854748 0  0 -7.905027932960894 0  0 -7.877094972067039 0  0 -7.849162011173184 0  0 -7.82122905027933 0  0 -7.793296089385475 0  0 -7.76536312849162 0  0 -7.737430167597765 0  0 -7.709497206703911 0  0 -7.681564245810056 0  0 -7.653631284916202 0  0 -7.625698324022347 0  0 -7.597765363128492 0  0 -7.569832402234637 0  0 -7.541899441340782 0  0 -7.513966480446927 0  0 -7.486033519553073 0  0 -7.458100558659218 0  0 -7.430167597765363 0  0 -7.402234636871508 0  0 -7.374301675977653 0  0 -7.346368715083798 0  0 -7.318435754189944 0  0 -7.290502793296089 0  0 -7.262569832402235 0  0 -7.23463687150838 0  0 -7.206703910614525 0  0 -7.17877094972067 0  0 -7.150837988826815 0  0 -7.12290502793296 0  0 -7.094972067039106 0  0 -7.067039106145251 
[...]
<PointData  Vectors="flow"> 
<DataArray  type="Float64"  Name="flow"  NumberOfComponents="3" format="ascii">7.2281837313186391e-04 -2.2598006533746037e-03 0.0000000000000000e+00  -7.4160585551782341e-07 1.2925462764915710e-05 0.0000000000000000e+00  1.7135343659303111e-08 -6.4110869732498578e-07 0.0000000000000000e+00  1.6426953255087431e-07 -4.4384485175740580e-07 0.0000000000000000e+00  -1.3920788224988884e-04 -2.0958219182128117e-03 0.0000000000000000e+00  -1.2697063500823451e-04 -1.4298550629840991e-03 0.0000000000000000e+00  1.1577489259568234e-04 -1.5722168065353921e-03 0.0000000000000000e+00  -3.8880986599538830e-04 -1.2787096761690930e-03 0.0000000000000000e+00  1.3331892706147734e-04 -1.1448423566777185e-03 0.0000000000000000e+00  -2.6937758014916108e-05 -1.3885549635246489e-03 0.0000000000000000e+00  5.8495038145286656e-06 -1.3270519944298459e-03 0.0000000000000000e+00  5.6594503715730599e-05 -1.0361280950153991e-03 0.0000000000000000e+00  -3.1890799794550502e-05 -1.9611595570327313e-04 0.0000000000000000e+00  3.3898687152166602e-05 1.1620534738016996e-03 0.0000000000000000e+00  -1.6234777018775661e-05 2.9917064245897902e-03 0.0000000000000000e+00  1.2640810433971778e-06 4.9967082078682060e-03 0.0000000000000000e+00  5.4811115116668816e-06 7.0258221820285660e-03 0.0000000000000000e+00  1.4348145586560628e-05 8.9491229424318881e-03 0.0000000000000000e+00  -3.0394335851002581e-05 1.0461146173805162e-02 0.0000000000000000e+00  4.4364362781842806e-05 1.1695376152579666e-02 0.0000000000000000e+00  -2.0285494642878157e-05 1.2496562674067504e-02 0.0000000000000000e+00  6.2974205949938063e-05 1.2939142148073788e-02 0.0000000000000000e+00  -2.9284250836461769e-05 1.3093229588977958e-02 0.0000000000000000e+00  4.5219354502677500e-05 1.2998922152698227e-02 0.0000000000000000e+00  -3.5765539687701722e-05 1.2696866112995290e-02 0.0000000000000000e+00  9.4992570188644456e-05 1.2174651395934152e-02 0.0000000000000000e+00  4.0041663417572978e-05 1.1460404809440985e-02 0.0000000000000000e+00  -1.6287801592089796e-04 1.1002084254458457e-02 0.0000000000000000e+00  -9.9987179752000092e-06 1.0578263959531972e-02 0.0000000000000000e+00  1.2035851461125033e-04 9.6679888358707396e-03 0.0000000000000000e+00  -5.9954414600406743e-05 9.1070550814068684e-03 0.0000000000000000e+00  1.2907317582772359e-04 8.3497257964165600e-03 0.0000000000000000e+00  3.8250078598603674e-06 7.7124020102580437e-03 0.0000000000000000e+00  -5.0134348821224873e-05 7.2594664509319012e-03 0.0000000000000000e+00  9.4194811255656226e-06 6.7272450847898832e-03 0.0000000000000000e+00  -8.8789178899207399e-06 6.2519124770849775e-03 0.0000000000000000e+00  -1.3360001918048086e-05 5.8388548099243525e-03 0.0000000000000000e+00  4.5761981605327299e-05 5.3710424376337889e-03 0.0000000000000000e+00  -1.0226395576584633e-05 4.9670462420604473e-03 0.0000000000000000e+00  1.1316031699655119e-05 4.6029645165268232e-03 0.0000000000000000e+00  -7.9134339348025552e-06 4.2970283974888982e-03 0.0000000000000000e+00  2.3971350487422804e-05 3.9666921121046771e-03 0.0000000000000000e+00  -2.4431723102860172e-05 3.7112234412081070e-03 0.0000000000000000e+00  7.0145514911909741e-05 3.3833380251819668e-03 0.0000000000000000e+00  -1.4035475026067845e-06 3.0966361657946916e-03 0.0000000000000000e+00  -2.7010468951480716e-05 2.9271391579834254e-03 0.0000000000000000e+00  4.7984690538288998e-06 2.7381159584073484e-03 0.0000000000000000e+00  -1.5017667683693605e-06 2.5484075672064094e-03 0.0000000000000000e+00  -8.1387549861816497e-08 2.3822723018699344e-03 0.0000000000000000e+00  2.9754125024844056e-06 2.2212533336916427e-03 0.0000000000000000e+00  8.4481018115215383e-07 2.0689395529562846e-03 0.0000000000000000e+00  -3.9344858958743671e-06 1.9387165034631048e-03 0.0000000000000000e+00  -5.5190795416131727e-06 1.8255432769926070e-03 0.0000000000000000e+00  2.2230697832469312e-05 1.6815941497182825e-03 0.0000000000000000e+00  -6.8242546758614393e-06 1.5626907584181543e-03 0.0000000000000000e+00  1.0819919326723176e-05 1.4579316792926553e-03 0.0000000000000000e+00  -2.3150416605887550e-06 1.3605640966340927e-03 0.0000000000000000e+00  3.3182616991741577e-06 1.2737766003319865e-03 0.0000000000000000e+00  -5.7722919284953187e-06 1.2001618975599623e-03 0.0000000000000000e+00  1.8659903372909591e-05 1.1101988959356065e-03 0.0000000000000000e+00  -4.0460537876062684e-06 1.0305598016049746e-03 0.0000000000000000e+00  5.2679963006728668e-06 9.6495871485103169e-04 0.0000000000000000e+00  -1.0403125067671987e-06 9.0628371805216419e-04 0.0000000000000000e+00  1.1827268331832310e-06 8.5274220625131472e-04 0.0000000000000000e+00  -2.0881499985710110e-06 8.0182711625268377e-04 0.0000000000000000e+00  6.9079474861943314e-06 7.4537093556372802e-04 0.0000000000000000e+00  -7.1905606082670175e-06 7.1035842535565805e-04 0.0000000000000000e+00  2.6214704064808896e-05 6.4088354723544465e-04 0.0000000000000000e+00  -2.4633243615841533e-06 5.8536290066647399e-04 0.0000000000000000e+00  -6.1187572421031045e-06 5.6334743550010382e-04 0.0000000000000000e+00  5.6351419047257429e-07 5.3250704144936455e-04 0.0000000000000000e+00  2.9892501860070531e-06 4.9903575531839929e-04 0.0000000000000000e+00  -4.4534784046517514e-07 4.6734479633475982e-04 0.0000000000000000e+00  -4.0835061890080810e-07 4.4175592662873463e-04 0.0000000000000000e+00  4.3732403976528678e-09 4.1698712453364778e-04 0.0000000000000000e+00  4.3739850720943326e-07 3.9205591522730631e-04 0.0000000000000000e+00  -1.7794174551007815e-07 3.6987268525101569e-04 0.0000000000000000e+00  7.5187228911374193e-07 3.4747593256703285e-04 0.0000000000000000e+00  -2.7154962663808785e-07 3.2716364335597201e-04 0.0000000000000000e+00  9.9822574848078738e-07 3.0689918849705950e-04 0.0000000000000000e+00  -1.9679600271015203e-06 2.9103438474546191e-04 0.0000000000000000e+00  8.8465342184329314e-06 2.6463903704654638e-04 0.0000000000000000e+00  -1.1806342535097627e-06 2.4127758166700466e-04 0.0000000000000000e+00  -1.2682015652904188e-08 2.3040617454709604e-04 0.0000000000000000e+00  3.2451504096858869e-07 2.1497200938446295e-04 0.0000000000000000e+00  -1.7796108871377969e-06 2.0378591811196281e-04 0.0000000000000000e+00  1.4252798595368749e-07 1.9372152699542055e-04 0.0000000000000000e+00  1.0304794055128283e-06 1.7999501178696606e-04 0.0000000000000000e+00  -8.2945598796217317e-07 1.6944768500325042e-04 0.0000000000000000e+00  3.0929027881213417e-06 1.5521093865064408e-04 0.0000000000000000e+00  -1.4197446041001192e-06 1.4518617992233531e-04 0.0000000000000000e+00  5.3008945284537632e-06 1.3062610775659914e-04 0.0000000000000000e+00  -5.5660040607984512e-07 1.1827057152296261e-04 0.0000000000000000e+00  -8.3095667008306462e-07 1.1272403662414148e-04 0.0000000000000000e+00  1.4374504386237665e-06 1.0358385693404326e-04 0.0000000000000000e+00  -7.0292698114711947e-06 1.0144962430644207e-04 0.0000000000000000e+00  -9.2622218800159617e-08 1.0811540137272492e-04 0.0000000000000000e+00  5.7385968820556957e-06 8.7011855001754141e-05 0.0000000000000000e+00  -4.7262722074912715e-07 7.7616911415920257e-05 0.0000000000000000e+00  -7.4367131509149385e-07 7.4150817943610710e-05 0.0000000000000000e+00  -1.3434990563169182e-07 6.9293051553232903e-05 0.0000000000000000e+00  1.2617771549863433e-06 6.2901416644000144e-05 0.0000000000000000e+00  -4.1996364110485086e-07 5.7803906759519123e-05 0.0000000000000000e+00  1.4340698484234549e-06 5.2347879512273753e-05 0.0000000000000000e+00  -2.5178099389219473e-07 4.7474524518041847e-05 0.0000000000000000e+00  5.4234601545910724e-07 4.3775330364897331e-05 0.0000000000000000e+00  -5.2896059826575899e-08 4.0150329527795777e-05 0.0000000000000000e+00  2.3272090885710019e-07 3.7172383494986685e-05 0.0000000000000000e+00  -9.1056403417003106e-08 3.4421589282300590e-05 0.0000000000000000e+00  5.7494045043148862e-07 3.1537100065908142e-05 0.0000000000000000e+00  -2.9602549073683839e-07 2.9277265007114896e-05 0.0000000000000000e+00  1.7052614070423113e-06 2.5884671548819752e-05 0.0000000000000000e+00  -4.7609139091197914e-08 2.2870743056445607e-05 0.0000000000000000e+00  -8.1080125500584138e-07 2.2504364585168513e-05 0.0000000000000000e+00  1.5425272474377336e-07 2.2018571220591886e-05 0.0000000000000000e+00  -2.4817756254156776e-07 2.1104382159403349e-05 0.0000000000000000e+00  7.3194057433451530e-08 2.0426850713295677e-05 0.0000000000000000e+00  -3.1096806264509039e-07 1.9834300317016047e-05 0.0000000000000000e+00  2.9047544059493073e-08 1.9605690742516648e-05 0.0000000000000000e+00  3.3848233870383341e-07 1.8441285589420380e-05 0.0000000000000000e+00  -1.1501873569263562e-07 1.7697112983122465e-05 0.0000000000000000e+00  7.2978800882899824e-07 1.6545851562185948e-05 0.0000000000000000e+00  2.8013006171834688e-08 1.5387022488730208e-05 0.0000000000000000e+00  -1.0916226172367962e-06 1.6163159493888736e-05 0.0000000000000000e+00  -2.6841071909025858e-07 1.8151929108627060e-05 0.0000000000000000e+00  6.4537382357206859e-07 1.3627808303828496e-05 0.0000000000000000e+00  9.0834528625618721e-08 1.4758006088391208e-05 0.0000000000000000e+00  -4.8476540087231718e-08 1.4399307776016811e-05 0.0000000000000000e+00  -6.8650104780237151e-09 1.4702105164046776e-05 0.0000000000000000e+00  -3.1017380572852644e-07 1.4358959371618398e-05 0.0000000000000000e+00  -2.9234561440888050e-07 1.5408551875725192e-05 0.0000000000000000e+00  7.3005792963687335e-07 1.1046980322190591e-05 0.0000000000000000e+00  1.4755739506775205e-07 1.1727707141453240e-05 0.0000000000000000e+00  -2.8710706780448107e-07 1.1818558217207438e-05 0.0000000000000000e+00  8.4331649311000535e-08 1.2020453911317280e-05 0.0000000000000000e+00  -8.3160387116843033e-08 1.1910544531607242e-05 0.0000000000000000e+00  -2.9142952501054435e-08 1.1969730493402836e-05 0.0000000000000000e+00  3.3274420867708512e-07 1.1588188697811584e-05 0.0000000000000000e+00  -2.1770520634435927e-07 1.1143747137405009e-05 0.0000000000000000e+00  -5.9224585493900158e-07 1.1973438610239419e-05 0.0000000000000000e+00  2.4990149144004753e-07 1.3138060307439938e-05 0.0000000000000000e+00  1.8284548910506830e-06 2.2901483691344622e-06 0.0000000000000000e+00  -6.6859990394291698e-07 -3.3924604806077111e-08 0.0000000000000000e+00  1.8830347345752840e-07 5.8596809675432371e-08 0.0000000000000000e+00  -6.5273491381561541e-09 -3.0112169165191211e-07 0.0000000000000000e+00  2.7918057946346251e-08 -1.6448301707969467e-07 0.0000000000000000e+00  2.7281016783572488e-09 -1.2585077728304222e-07 0.0000000000000000e+00  9.6640906416012263e-09 -2.2022507765539131e-07 0.0000000000000000e+00  6.3666245647049836e-09 -1.6779954557612889e-07 0.0000000000000000e+00  1.0080571843088586e-08 -1.4326140608006099e-07 0.0000000000000000e+00  2.2154297491836152e-08 -1.7052459428770507e-07 0.0000000000000000e+00  -1.2971425406864330e-09 -2.1138251634204927e-07 0.0000000000000000e+00  -2.4184496471524371e-08 -1.6529404049052208e-07 0.0000000000000000e+00  -3.5676212577454636e-08 -2.0547823850415189e-07 0.0000000000000000e+00  -2.9420588837459043e-08 -2.1126478014209092e-07 0.0000000000000000e+00  -1.7950178810580247e-09 -1.6283657015674085e-07 0.0000000000000000e+00  1.4762352482839068e-08 -2.3038498932621695e-07 0.0000000000000000e+00  3.2527685859888810e-08 -2.6070048631883846e-07 0.0000000000000000e+00  2.1754651479489708e-08 -2.1969678496145111e-07 0.0000000000000000e+00  1.9321633621666697e-08 -1.9959717629098606e-07 0.0000000000000000e+00  1.7135531895609170e-08 -2.0649110502383763e-07 0.0000000000000000e+00  -1.2417341753897149e-09 -3.5101078448614355e-07 0.0000000000000000e+00  -5.0638223490358796e-08 -2.7492002372331506e-07 0.0000000000000000e+00  -6.2979473766783504e-08 -2.4057047764258707e-07 0.0000000000000000e+00  -4.9819393433887943e-08 -2.8317247168509939e-07 0.0000000000000000e+00  -8.7792234137273996e-08 3.6722280507451423e-08 0.0000000000000000e+00  -1.5210513524292970e-07 -2.0128020831291777e-07 0.0000000000000000e+00  -3.4811612212427258e-07 -7.1325104207521820e-07 0.0000000000000000e+00  -7.2798026157483315e-09 -4.9523134661265536e-07 0.0000000000000000e+00  -1.8031038657191707e-07 -6.7051781749734367e-07 0.0000000000000000e+00  1.4247783798273523e-07 -6.8979630837700250e-07 0.0000000000000000e+00  6.0654696774172464e-09 -8.6548425601865990e-07 0.0000000000000000e+00  1.0953503971230108e-08 -7.9968786498596982e-07 0.0000000000000000e+00  6.1564146706055981e-08 -8.7962916003018033e-07 0.0000000000000000e+00  5.7512896416824689e-08 -9.0040151691812578e-07 0.0000000000000000e+00  2.1161845396752318e-08 -9.6785393588997663e-07 0.0000000000000000e+00  1.4827618038211286e-07 -1.0114135457705315e-06 0.0000000000000000e+00  1.0651339882511789e-07 -1.0662016326732142e-06 0.0000000000000000e+00  1.0324892440611856e-07 -1.0698815865207294e-06 0.0000000000000000e+00  4.5187349785839247e-07 -9.7845715043169037e-07 0.0000000000000000e+00  2.5222742313073165e-07 -9.9411242716542089e-07 0.0000000000000000e+00  3.7908145840168301e-07 -9.5327920839907556e-07 0.0000000000000000e+00  3.4642067320355775e-07 -1.0060815300370620e-06 0.0000000000000000e+00  4.7120493063499336e-07 -1.0117680662351518e-06 0.0000000000000000e+00  4.8281872314330856e-07 -1.0190294029803712e-06 0.0000000000000000e+00  6.0522615018187167e-07 -9.8690643147013818e-07 0.0000000000000000e+00  5.8996020625624010e-07 -9.2952039672375168e-07 0.0000000000000000e+00  8.4501396503650310e-07 -8.2259592403596280e-07 0.0000000000000000e+00  7.9225725061905335e-07 -7.7307714861142244e-07 0.0000000000000000e+00  9.4243223742603303e-07 -6.9903275378977406e-07 0.0000000000000000e+00  8.7673810142164056e-07 -6.4236417226455511e-07 0.0000000000000000e+00  9.4757721045616044e-07 -6.3712577692165487e-07 0.0000000000000000e+00  1.2095601246668322e-06 -5.4739084099611473e-07 0.0000000000000000e+00  1.2563870784576681e-06 -3.6645369626806043e-07 0.0000000000000000e+00  1.1958496482120167e-06 -2.7940374528641499e-07 0.0000000000000000e+00  1.3772258686981266e-06 -1.0299043574406953e-07 0.0000000000000000e+00  1.4096022247976040e-06 1.0775873655850321e-08 0.0000000000000000e+00  1.4146825733905569e-06 2.0564730421153902e-07 0.0000000000000000e+00  1.4095442976579920e-06 2.8425123877697862e-07 0.0000000000000000e+00  1.4605938978517236e-06 4.5509596563074903e-07 0.0000000000000000e+00  1.4500046651323823e-06 6.0021126563514478e-07 0.0000000000000000e+00  1.4364081374712753e-06 7.8472607628589270e-07 0.0000000000000000e+00  1.4288670797517819e-06 9.6759492171930436e-07 0.0000000000000000e+00  1.3586627450251932e-06 1.1807610423925813e-06 0.0000000000000000e+00  1.2940026995513252e-06 1.3988380592420887e-06 0.0000000000000000e+00  1.2510842116342911e-06 1.6716367566615733e-06 0.0000000000000000e+00  1.0933506648252027e-06 1.8472642920163830e-06 0.0000000000000000e+00  5.6256793538724733e-07 1.9293095912254688e-06 0.0000000000000000e+00  5.1304859656908649e-07 1.9164514655153584e-06 0.0000000000000000e+00  3.3765160861478018e-07 1.9423898249266580e-06 0.0000000000000000e+00  1.8652103624881151e-07 2.0264536248244967e-06 0.0000000000000000e+00  -1.8108341009099245e-07 2.0870943470663725e-06 0.0000000000000000e+00  -3.5222047597929147e-07 2.1567727150058683e-06 0.0000000000000000e+00  -7.1968031531253771e-07 2.2329662796190644e-06 0.0000000000000000e+00  -1.0020769270503620e-06 2.3194945143554936e-06 0.0000000000000000e+00  -1.3473819911919123e-06 2.4742390176022997e-06 0.0000000000000000e+00  -1.5140009132007966e-06 2.5968783135364938e-06 0.0000000000000000e+00  -1.9135309958850320e-06 2.8757401647196907e-06 0.0000000000000000e+00  -2.7073017075361912e-06 2.9605874121979640e-06 0.0000000000000000e+00  -3.3806088977097025e-06 2.7844082723713392e-06 0.0000000000000000e+00  -3.2134478605955522e-06 2.5649004331806446e-06 0.0000000000000000e+00  -3.7425147814208774e-06 2.6457844625677436e-06 0.0000000000000000e+00  -4.4739121540813392e-06 2.6909485495255422e-06 0.0000000000000000e+00  -5.1635806911934500e-06 2.4342881283392920e-06 0.0000000000000000e+00  -5.4795716860829948e-06 2.2019379358192017e-06 0.0000000000000000e+00  -5.8249500719390122e-06 2.0521274301883683e-06 0.0000000000000000e+00  -6.1286427604020190e-06 1.9959505166359651e-06 0.0000000000000000e+00  -6.5700903910561290e-06 1.8664622437690045e-06 0.0000000000000000e+00  -6.9373303221591737e-06 1.7840165755419360e-06 0.0000000000000000e+00  -7.3844908612997141e-06 1.6348345621554990e-06 0.0000000000000000e+00  -7.7543762930382318e-06 1.5458265127747771e-06 0.0000000000000000e+00  -8.1443847876175542e-06 1.3756647100971410e-06 0.0000000000000000e+00  -8.4280820737242101e-06 1.2768153107409766e-06 0.0000000000000000e+00  -8.7913483846750101e-06 1.0953221181393182e-06 0.0000000000000000e+00  -9.0674746849451118e-06 9.9678136069806936e-07 0.0000000000000000e+00  -9.3924557275435888e-06 8.5510690525137623e-07 0.0000000000000000e+00  -9.6430797688853844e-06 7.6762559474041591e-07 0.0000000000000000e+00  -9.8743964493560850e-06 6.1945618760146259e-07 0.0000000000000000e+00  -1.0064053162015284e-05 5.3667497610792401e-07 0.0000000000000000e+00  -1.0258298812432564e-05 3.9042417680265417e-07 0.0000000000000000e+00  -1.0381932775976120e-05 3.1513487985919571e-07 0.0000000000000000e+00  -1.0500893941962961e-05 1.8631031720324184e-07 0.0000000000000000e+00  -1.0548211058601065e-05 1.0534552555741325e-07 0.0000000000000000e+00  -1.0645255595240238e-05 4.1185291354262960e-09 0.0000000000000000e+00  -1.0696734987645279e-05 -8.0037485809845795e-08 0.0000000000000000e+00  -1.0694230608177080e-05 -1.8189363483235844e-07 0.0000000000000000e+00  -1.0769878376620474e-05 -2.7181204459072401e-07 0.0000000000000000e+00  -1.0689669203594932e-05 -3.5911195733045518e-07 0.0000000000000000e+00  -1.0455351990833845e-05 -1.7983895622405181e-07 0.0000000000000000e+00  -1.0558118008146396e-05 -3.2705181449749551e-07 0.0000000000000000e+00  -1.0530146024819682e-05 -4.1702133209675919e-07 0.0000000000000000e+00  -1.0428710220770343e-05 -4.4850897680365277e-07 0.0000000000000000e+00  -1.0212458887119653e-05 -3.8338829161983048e-07 0.0000000000000000e+00  -1.0087881236423215e-05 -5.4061936204161928e-07 0.0000000000000000e+00  -1.0060347278307387e-05 -6.9398950689230367e-07 0.0000000000000000e+00  -9.8979135094781403e-06 -7.1892162759791389e-07 0.0000000000000000e+00  -9.6469061299684124e-06 -6.9219877256469634e-07 0.0000000000000000e+00  -9.4200694567716275e-06 -6.9719464570630046e-07 0.0000000000000000e+00  -9.1586331599421238e-06 -6.2232244415413178e-07 0.0000000000000000e+00  -9.0771669722549444e-06 -6.9052948959009220e-07 0.0000000000000000e+00  -8.9069879630738986e-06 -7.3390624464191986e-07 0.0000000000000000e+00  -8.6942458315420329e-06 -7.4717215907657584e-07 0.0000000000000000e+00  -8.4634785477382389e-06 -7.5299153239248354e-07 0.0000000000000000e+00  -8.2628285722305003e-06 -7.9149044662960566e-07 0.0000000000000000e+00  -8.0548597255053128e-06 -8.2144215864312705e-07 0.0000000000000000e+00  -7.8098981131744903e-06 -8.6996389311678269e-07 0.0000000000000000e+00  -7.5932474121414528e-06 -9.1588812302397220e-07 0.0000000000000000e+00  -7.2648205682257897e-06 -9.8523580637453974e-07 0.0000000000000000e+00  -7.0335088019179615e-06 -1.0679776462459174e-06 0.0000000000000000e+00  -6.8064198157554384e-06 -9.6095235577052581e-07 0.0000000000000000e+00  -6.3555500600438368e-06 -7.4116536969165285e-07 0.0000000000000000e+00  -6.3637083499797167e-06 -7.4108611158220407e-07 0.0000000000000000e+00  -6.0608892529754078e-06 -5.1257738448029657e-07 0.0000000000000000e+00  -5.8221133355422191e-06 -7.1348545051670712e-07 0.0000000000000000e+00  -5.6982018694124888e-06 -8.2517619129136185e-07 0.0000000000000000e+00  -5.4654742625972544e-06 -7.7499631363428787e-07 0.0000000000000000e+00  -5.1429912848447297e-06 -7.1959417407549446e-07 0.0000000000000000e+00  -4.9358262608446793e-06 -7.2010009019918139e-07 0.0000000000000000e+00  -4.6771765315958915e-06 -7.0134534106343578e-07 0.0000000000000000e+00  -4.4782903708825884e-06 -6.9181118131645669e-07 0.0000000000000000e+00  -4.2321121538377029e-06 -6.8469784