<?xml version="1.0"?>
<VTKFile type="UnstructuredGrid"  version="0.1"  >
<UnstructuredGrid>
<Piece  NumberOfPoints="1691" NumberOfCells="3204">
<Points>
<DataArray  type="Float64"  NumberOfComponents="3"  format="ascii">0 0 0  30 0 0  30 -10 0  0 -10 0  0.1391574078963744 0 0  0.2856388821882616 0 0  0.4398299073010886 0 0  0.6021362569539473 0 0  0.7729850389704483 0 0  0.9528258543586996 0 0  1.142131984380316 0 0  1.34140159760994 0 0  1.551159074717981 0 0  1.771956417032531 0 0  2.004374674080994 0 0  2.249025475789527 0 0  2.506552636773105 0 0  2.777633857742732 0 0  3.062982518028728 0 0  3.363349525995907 0 0  3.679525322337712 0 0  4.01234195575742 0 0  4.362675247811097 0 0  4.731447135329707 0 0  5.119628065610077 0 0  5.528239565804708 0 0  5.958356943167011 0 0  6.411112081475485 0 0  6.887696441559404 0 0  7.389364184530748 0 0  7.917435485335147 0 0  8.473300005202017 0 0  9.058420557070402 0 0  9.674336929103793 0 0  10.32266995225095 0 0  11.00512576896296 0 0  11.72350030646412 0 0  12.47968402994705 0 0  13.27566689579597 0 0  14.1135435963616 0 0  14.9955190732806 0 0  15.92391430904694 0 0  16.90117245730496 0 0  17.92986524844506 0 0  19.01269976086341 0 0  20.15252556282024 0 0  21.35234220269763 0 0  22.61530708683689 0 0  23.94474379751883 0 0  25.34415086349739 0 0  26.81721093579712 0 0  28.3678004819169 0 0  30 -1.111111111111111 0  30 -2.222222222222222 0  30 -3.333333333333333 0  30 -4.444444444444445 0  30 -5.555555555555555 0  30 -6.666666666666666 0  30 -7.777777777777777 0  30 -8.888888888888889 0  28.36780047917311 -10 0  26.8172109305839 -10 0  25.34415085606858 -10 0  23.94474378810899 -10 0  22.61530707566275 -10 0  21.3523421899591 -10 0  20.15252554870171 -10 0  19.01269974553473 -10 0  17.92986523206254 -10 0  16.90117244001232 -10 0  15.92391429097614 -10 0  14.99551905455266 -10 0  14.11354357708742 -10 0  13.27566687607703 -10 0  12.47968400987599 -10 0  11.72350028612546 -10 0  11.00512574843363 -10 0  10.32266993160086 -10 0  9.674336908396342 -10 0  9.058420536362949 -10 0  8.473299984546333 -10 0  7.917435464777824 -10 0  7.389364164113587 -10 0  6.887696420787165 -10 0  6.411112061446698 -10 0  5.95835692337857 -10 0  5.528239546282652 -10 0  5.119628046377237 -10 0  4.731447115907979 -10 0  4.362675229213632 -10 0  4.012341937260036 -10 0  3.679525304434552 -10 0  3.363349508456405 -10 0  3.062982500861274 -10 0  2.777633840953978 -10 0  2.506552620368097 -10 0  2.249025459771861 -10 0  2.004374658452946 -10 0  1.771956401795187 -10 0  1.551159059871345 -10 0  1.341401583153029 -10 0  1.142131970307521 -10 0  0.9528258406748833 -10 0  0.7729850256685147 -10 0  0.6021362439621285 -10 0  0.4398298947504031 -10 0  0.2856388700059078 -10 0  0.1391573960769001 -10 0  0 -9.855072463768115 0  0 -9.710144927536232 0  0 -9.565217391304348 0  0 -9.420289855072463 0  0 -9.27536231884058 0  0 -9.130434782608695 0  0 -8.985507246376812 0  0 -8.840579710144928 0  0 -8.695652173913043 0  0 -8.55072463768116 0  0 -8.405797101449275 0  0 -8.260869565217391 0  0 -8.115942028985508 0  0 -7.971014492753623 0  0 -7.826086956521739 0  0 -7.681159420289855 0  0 -7.536231884057971 0  0 -7.391304347826087 0  0 -7.246376811594203 0  0 -7.101449275362318 0  0 -6.956521739130435 0  0 -6.811594202898551 0  0 -6.666666666666667 0  0 -6.521739130434783 0  0 -6.376811594202898 0  0 -6.231884057971015 0  0 -6.086956521739131 0  0 -5.942028985507246 0  0 -5.797101449275362 0  0 -5.652173913043478 0  0 -5.507246376811594 0  0 -5.36231884057971 0  0 -5.217391304347826 0  0 -5.072463768115941 0  0 -4.927536231884058 0  0 -4.782608695652174 0  0 -4.637681159420289 0  0 -4.492753623188406 0  0 -4.347826086956522 0  0 -4.202898550724638 0  0 -4.057971014492754 0  0 -3.913043478260869 0  0 -3.768115942028985 0  0 -3.623188405797101 0  0 -3.478260869565217 0  0 -3.333333333333334 0  0 -3.188405797101449 0  0 -3.043478260869565 0  0 -2.898550724637681 0  0 -2.753623188405797 0  0 -2.608695652173912 0  0 -2.463768115942029 0  0 -2.318840579710145 0  0 -2.173913043478261 0  0 -2.028985507246377 0  0 -1.884057971014492 0  0 -1.739130434782609 0  0 -1.594202898550725 0  0 -1.44927536231884 0  0 -1.304347826086957 0  0 -1.159420289855072 0  0 -1.014492753623188 0  0 -0.8695652173913047 0  0 -0.72463768115942 0  0 -0.579710144927537 0  0 -0.4347826086956523 0  0 -0.2898550724637676 0  0 -0.1449275362318829 0  0.1309460514202492 -4.990980414828784 0  0.1171526873513358 -5.869565217391296 0  0.1344252986967795 -6.716855800502001 0  0.1221309018586645 -4.161899358592938 0  0.1166997684017801 -3.25954604704229 0  4.961569127360256 -0.3118894787216622 0  4.923897360678746 -9.687537149351071 0  0.1228405945134021 -2.536958536012416 0  0.1335945686177435 -7.466846676638523 0  3.206461751753455 -0.2806173508164562 0  3.213166004658842 -9.746377676274168 0  0.1155250883680452 -8.186784073011673 0  0.1359204609538445 -1.804202625344072 0  6.662432263484016 -9.600124945047963 0  6.631056521209421 -0.3942868763482545 0  2.126700074935258 -0.2065769621215452 0  2.120437876630353 -9.808537401472012 0  8.761385473272522 -9.4914222957189 0  8.786076048231736 -0.4923064159810888 0  0.1195911345135556 -8.749677128895598 0  0.1117474302775605 -1.230589418769438 0  11.3907841305612 -9.402816705944797 0  11.36435727088349 -0.618365439918426 0  1.211504568109637 -0.1471532661956818 0  1.239596144827807 -9.832618358594059 0  13.75158625181508 -9.315497816134139 0  13.7500399625954 -0.6902569910160397 0  0.131402377539402 -3.696772604078816 0  0.1204853385030979 -6.307560917781178 0  0.1346483804691658 -4.550944754283819 0  0.1255109280847009 -5.434782608695652 0  16.39894095075685 -9.180198571581517 0  16.44068234362399 -0.8166544577416346 0  0.1255109280847009 -0.7971014492753632 0  0.1162877148651766 -9.206770243020259 0  19.56645066956165 -9.043742294716539 0  29.11731382843969 -5.098539983867493 0  19.50527862123305 -0.9323941524176265 0  23.28904960561395 -8.8608997858633 0  0.6875606479622149 -0.1442604037134076 0  0.6875606348153145 -9.855739596611892 0  23.37074358394081 -1.15131614182933 0  10.00852704311311 -9.475417469395781 0  10.01049631493635 -0.5545437343697674 0  7.639131123468924 -9.543000896765111 0  7.693537846067955 -0.4574302764599576 0  5.733194300659633 -9.66079268774309 0  5.731454990332523 -0.3687808037058806 0  3.803630689980224 -9.686555789708486 0  3.834043646352164 -0.2754981925697493 0  2.618022704128803 -9.787800068206256 0  2.634320277618269 -0.2392104743186785 0  1.65952286941916 -9.813294854785646 0  1.665360553377539 -0.1820878093930922 0  0.1365068028365961 -1.543352471920677 0  0.1128108295274224 -8.471115901500411 0  0.1249192863256123 -0.5070564851587012 0  0.1172626025927563 -9.49200175151447 0  0.1255109280847009 -2.101449275362318 0  0.1255109280847009 -7.898550724637682 0  0.1247535864599936 -2.824177050114505 0  0.1155424837078822 -7.17494363557847 0  26.05192393553612 -8.777856070543081 0  26.00031291598836 -1.159065252957426 0  0.3627343947446455 -0.1301950113519217 0  0.3690141220077834 -9.868919517536135 0  28.90574865438674 -7.135369011630129 0  29.02069681040884 -2.861993939893059 0  0.1397555488250113 -0.2163338956475025 0  0.1255109280847009 -9.782608695652172 0  24.67098979274125 -8.799958058548517 0  23.93395881668722 -7.700959994796646 0  22.61396570077244 -7.764517377391733 0  23.2032949615693 -6.630776985250927 0  21.94857473380583 -6.690613342424633 0  24.50398505507967 -6.535933305198952 0  22.51489076809043 -5.580432145971667 0  21.29537841406989 -5.639199768252479 0  21.84985259542567 -4.547213342284197 0  20.65342988351128 -4.619546679988924 0  20.11277906893955 -5.663225279336593 0  19.49454290958806 -4.673886314669294 0  18.97860072994828 -5.624185949902217 0  18.40383886642446 -4.729683279047542 0  17.90575400337286 -5.630456854950327 0  17.35903168001753 -4.836859475002379 0  16.91444903556046 -5.680257663405808 0  16.36114434035519 -4.898890029095359 0  15.89440836794127 -5.835214594829282 0  15.41608945577568 -4.979845093198404 0  14.9809818125648 -5.732909169427192 0  14.51777858619734 -4.988431190461874 0  14.14039496103406 -5.776391085527889 0  13.67321261031888 -5.031745046943032 0  13.26988611760758 -5.891550007816156 0  12.85732927991246 -5.095735823822261 0  12.46423889659403 -5.760519953635332 0  12.07741841933393 -5.116608846746942 0  11.73131647445202 -5.75987862647932 0  11.35222911621012 -5.158061768105265 0  11.01225658271747 -5.784828178519854 0  10.65393216495117 -5.205808407572067 0  10.33042159780337 -5.788944717060055 0  9.98551374198097 -5.24118342090078 0  9.687616112021921 -5.812725728827915 0  9.357518717034999 -5.284717467130579 0  9.08157001076583 -5.820057568121996 0  8.766199932316585 -5.320212662582848 0  8.494748056481422 -5.830095453943056 0  8.194406727465122 -5.347802431655208 0  7.942610344706003 -5.833678024304247 0  7.660825631728443 -5.380025954369014 0  7.416702921751611 -5.83684433397813 0  7.147290851157173 -5.413787279190068 0  6.91632006965034 -5.851605397483334 0  6.658527053286988 -5.437627383845131 0  6.441897327469297 -5.862220684948111 0  6.194860224019926 -5.464520225953867 0  5.988748643021736 -5.866336295550595 0  5.755042825355586 -5.482399938780632 0  5.555770501455733 -5.867908174086599 0  5.334991086231989 -5.504761241472904 0  5.145076642106908 -5.873191062890511 0  4.935013388047023 -5.544035964184449 0  4.754345788811499 -5.880090917794126 0  4.554437025256316 -5.569020251233177 0  4.382470744799432 -5.88665007327689 0  4.192208958329529 -5.585677590398814 0  4.029485566904095 -5.896175760774888 0  4.354949258143058 -5.270074521138358 0  4.004482386201769 -5.289207815434526 0  4.158655721068861 -4.98145486433833 0  3.821444856080801 -5.001169872115685 0  3.97033944278737 -4.700814034221719 0  3.642688047138773 -4.720140385706738 0  3.788830742180677 -4.426816067812119 0  3.467446796449556 -4.450112744784491 0  3.325275354457695 -4.730293981808933 0  3.158439978631689 -4.466074367009679 0  3.294707394527546 -4
[...]
<PointData  Vectors="flow"> 
<DataArray  type="Float64"  Name="flow"  NumberOfComponents="3" format="ascii">9.3704544721021736e-03 5.0469065005172981e-03 0.0000000000000000e+00  1.2568462473427271e-05 4.2844959754783099e-05 0.0000000000000000e+00  -1.8574035396720965e-06 -1.4193378345202696e-06 0.0000000000000000e+00  1.7982699567817795e-06 -1.1585643915937701e-05 0.0000000000000000e+00  -2.4798138118363755e-03 3.2881131905743242e-03 0.0000000000000000e+00  -8.0992992423266260e-05 4.2112209337626270e-03 0.0000000000000000e+00  -5.9044907906317780e-05 7.2486713407945141e-03 0.0000000000000000e+00  2.4956680753936811e-04 1.0996547477890599e-02 0.0000000000000000e+00  -1.8005657182070052e-04 1.5302172857383240e-02 0.0000000000000000e+00  -2.7101573244094112e-04 1.6814369336941661e-02 0.0000000000000000e+00  8.5800056488887744e-05 1.5466590298697923e-02 0.0000000000000000e+00  7.0830354930208740e-04 1.2662985289661097e-02 0.0000000000000000e+00  -2.9016056982318568e-04 1.0813925710916789e-02 0.0000000000000000e+00  1.3903779095936498e-04 8.5933901583567507e-03 0.0000000000000000e+00  1.4615779515416039e-05 7.0778212781822739e-03 0.0000000000000000e+00  2.2928363518801183e-05 5.9879222291448746e-03 0.0000000000000000e+00  4.8873741018679358e-05 4.8247376168103380e-03 0.0000000000000000e+00  2.3961617004997224e-04 3.6965017480511215e-03 0.0000000000000000e+00  -1.4036424742355238e-04 3.2386892624927241e-03 0.0000000000000000e+00  7.0445110915178410e-06 2.7781997378220403e-03 0.0000000000000000e+00  8.9264064401424610e-06 2.3824609868440439e-03 0.0000000000000000e+00  -1.1833527102491090e-04 2.0862252916435246e-03 0.0000000000000000e+00  5.9729317547948525e-05 1.5847926230749413e-03 0.0000000000000000e+00  2.6403554202911604e-05 1.4150081141119280e-03 0.0000000000000000e+00  -1.0829980351748238e-06 1.1981631320530626e-03 0.0000000000000000e+00  2.7096097920197452e-05 1.0209407173889437e-03 0.0000000000000000e+00  1.1613563334080354e-06 8.5801282286133355e-04 0.0000000000000000e+00  -1.3087313905530657e-06 7.1115837791090291e-04 0.0000000000000000e+00  4.0352564884750307e-05 5.5801102685875737e-04 0.0000000000000000e+00  -2.0247450312898811e-05 4.8370151704414302e-04 0.0000000000000000e+00  1.8138042432636021e-06 4.2621584478182866e-04 0.0000000000000000e+00  5.1180450305487766e-06 3.5690872652300806e-04 0.0000000000000000e+00  5.3981977711477047e-06 2.9138896639154888e-04 0.0000000000000000e+00  1.4908266607262013e-06 2.4154575247270469e-04 0.0000000000000000e+00  2.7236436455870848e-06 2.0135070458603913e-04 0.0000000000000000e+00  1.8024223521781171e-06 1.6668744099084337e-04 0.0000000000000000e+00  2.7261205923530661e-08 1.3447944712708960e-04 0.0000000000000000e+00  7.4610491455348972e-06 1.0429438173532746e-04 0.0000000000000000e+00  -4.8981623337561366e-06 9.2723351851005538e-05 0.0000000000000000e+00  4.7747363185014224e-07 8.4627410270609615e-05 0.0000000000000000e+00  2.9697332599511859e-07 7.5618076750673396e-05 0.0000000000000000e+00  2.3933345487588310e-06 6.5171054386142877e-05 0.0000000000000000e+00  1.7521663962526682e-06 5.7216809663583726e-05 0.0000000000000000e+00  4.2001668995610954e-07 5.1182849981611007e-05 0.0000000000000000e+00  6.2395529228867932e-07 4.8851697913833127e-05 0.0000000000000000e+00  -5.1747466267879178e-06 5.1478626764564982e-05 0.0000000000000000e+00  2.4695735507413953e-06 3.5530394084628178e-05 0.0000000000000000e+00  1.6021950234655930e-06 4.0904016402648256e-05 0.0000000000000000e+00  -5.7451741125754388e-07 3.8766072949838025e-05 0.0000000000000000e+00  -4.2011734548042807e-07 3.7977936393909731e-05 0.0000000000000000e+00  2.9371254686142144e-06 3.3671405356314721e-05 0.0000000000000000e+00  -8.6604144752397571e-06 3.8310701819444422e-05 0.0000000000000000e+00  4.1142724543478279e-07 -3.5891934854160679e-06 0.0000000000000000e+00  -7.4805716908361236e-06 2.9580371679035166e-06 0.0000000000000000e+00  1.7080332722007921e-06 -3.9590253496182664e-06 0.0000000000000000e+00  -1.5589800624478631e-06 -5.5374375812430487e-08 0.0000000000000000e+00  -1.9375486859862534e-06 -1.3300105672428709e-06 0.0000000000000000e+00  1.3683365073027123e-06 -1.6909090954220670e-06 0.0000000000000000e+00  -1.9234966768562594e-06 -4.8368954036607704e-07 0.0000000000000000e+00  -2.4939409151269459e-06 -2.3677489707159713e-06 0.0000000000000000e+00  -8.0237087170795791e-07 -4.5614781887638581e-06 0.0000000000000000e+00  2.7825270759054588e-07 -6.1454906868751885e-06 0.0000000000000000e+00  -9.7214995929768914e-07 -8.6197242324358464e-06 0.0000000000000000e+00  1.2573098042967984e-06 -8.7410056863495962e-06 0.0000000000000000e+00  1.0548561383029108e-06 -9.4657069840607176e-06 0.0000000000000000e+00  1.9186439346349965e-06 -1.0064104716448361e-05 0.0000000000000000e+00  1.8235755516612919e-06 -9.8305814468903411e-06 0.0000000000000000e+00  3.7718074112081413e-06 -9.7866582290392513e-06 0.0000000000000000e+00  4.1584967412126654e-06 -9.1859729556061233e-06 0.0000000000000000e+00  5.2403721289136143e-06 -7.6985559155825458e-06 0.0000000000000000e+00  6.2429758006228874e-06 -6.0565041317422340e-06 0.0000000000000000e+00  7.4870322695132779e-06 -3.6666338948346880e-06 0.0000000000000000e+00  8.3746576465724972e-06 -6.6274390859920535e-07 0.0000000000000000e+00  9.1079642012981318e-06 3.4236786566357410e-06 0.0000000000000000e+00  9.5678236789775902e-06 8.4811123204106566e-06 0.0000000000000000e+00  7.6679566141257357e-06 1.2814369475695462e-05 0.0000000000000000e+00  1.0651762219415767e-05 1.6937518154062948e-05 0.0000000000000000e+00  1.7101491961101328e-06 1.8922759056060410e-05 0.0000000000000000e+00  2.9245201595617155e-06 2.2575204502080688e-05 0.0000000000000000e+00  -1.1523731303390481e-06 2.4659526152879927e-05 0.0000000000000000e+00  -4.6084959783796050e-06 2.5569895788335966e-05 0.0000000000000000e+00  -1.0514848202730368e-05 2.8660893338156714e-05 0.0000000000000000e+00  -1.6497574432579724e-05 2.8813341960306273e-05 0.0000000000000000e+00  -2.1271224218044546e-05 2.9268734170978730e-05 0.0000000000000000e+00  -2.8858446032105548e-05 2.8031245951625351e-05 0.0000000000000000e+00  -3.9531685273276029e-05 2.6176100860867589e-05 0.0000000000000000e+00  -4.2426148665469905e-05 2.1037971890429242e-05 0.0000000000000000e+00  -4.5463496813647915e-05 1.6531669861312738e-05 0.0000000000000000e+00  -5.0422982211267546e-05 1.2508262328137187e-05 0.0000000000000000e+00  -5.3787895889916294e-05 9.8148553496146583e-06 0.0000000000000000e+00  -5.8440334254731948e-05 5.7712276696646441e-06 0.0000000000000000e+00  -5.9981663593218130e-05 1.8627506320355221e-06 0.0000000000000000e+00  -5.9419897504692047e-05 -6.2702231901536598e-08 0.0000000000000000e+00  -5.9164864603246634e-05 -3.4646129510303262e-06 0.0000000000000000e+00  -5.9421469523089292e-05 -6.1682252959876773e-06 0.0000000000000000e+00  -5.4603077424778556e-05 -8.2240889428661298e-06 0.0000000000000000e+00  -5.1970975336927073e-05 -9.4004795558779010e-06 0.0000000000000000e+00  -4.9652647336424026e-05 -1.0466286521686942e-05 0.0000000000000000e+00  -4.5976275953316901e-05 -1.1628254048544183e-05 0.0000000000000000e+00  -4.0958182830096789e-05 -1.2590511777297776e-05 0.0000000000000000e+00  -3.6035893516868855e-05 -1.2719064975919015e-05 0.0000000000000000e+00  -3.1558812357152411e-05 -1.3267805413494548e-05 0.0000000000000000e+00  -2.8571506006358950e-05 -1.3350534629188077e-05 0.0000000000000000e+00  -2.0866853483510065e-05 -1.3250866467465838e-05 0.0000000000000000e+00  -1.5955379868240059e-05 -1.2420393147434016e-05 0.0000000000000000e+00  -1.2398126351867531e-05 -1.1001032288967415e-05 0.0000000000000000e+00  -9.6963675739260476e-06 -9.8767701608562269e-06 0.0000000000000000e+00  -6.3190009952038837e-06 -9.2953283926565804e-06 0.0000000000000000e+00  9.9180335658526999e-07 -2.5073400137881459e-05 0.0000000000000000e+00  -1.9476321651618383e-07 -3.1830708080431567e-05 0.0000000000000000e+00  -6.8696075582801483e-07 -3.4909923170737487e-05 0.0000000000000000e+00  -1.3116286965524749e-06 -3.4024813619471809e-05 0.0000000000000000e+00  -1.2536269164697725e-06 -2.9488163466718148e-05 0.0000000000000000e+00  -1.0944630633365355e-06 -2.7571635297911602e-05 0.0000000000000000e+00  -6.6157348690503195e-07 -2.2954447618741173e-05 0.0000000000000000e+00  -1.1343931767741732e-06 -1.8610262711218400e-05 0.0000000000000000e+00  -4.7846102188523859e-07 -1.5445130505307081e-05 0.0000000000000000e+00  -6.0701719271690970e-07 -1.3062204488978911e-05 0.0000000000000000e+00  -8.3857841744356305e-07 -9.5830961761017281e-06 0.0000000000000000e+00  -9.1867560454437252e-07 -7.0167705757265798e-06 0.0000000000000000e+00  -1.0156274373746102e-06 -2.9344063760011262e-06 0.0000000000000000e+00  -7.8938939236938500e-07 8.4577937300091749e-07 0.0000000000000000e+00  -8.9075378573175819e-07 2.6518191084225030e-06 0.0000000000000000e+00  -9.2356091732453944e-07 6.1551223689914347e-06 0.0000000000000000e+00  -9.9504404671103874e-07 7.7686307043021062e-06 0.0000000000000000e+00  -1.3554233025076811e-06 1.2643686747848669e-05 0.0000000000000000e+00  -1.1350062528280244e-06 1.5345038597378972e-05 0.0000000000000000e+00  -1.3192785291871044e-06 1.8370223797110362e-05 0.0000000000000000e+00  -1.4099556495062604e-06 2.2775545117802980e-05 0.0000000000000000e+00  -8.4775644845224587e-07 2.7644629765586832e-05 0.0000000000000000e+00  -2.1629762208442987e-06 3.1189734724121592e-05 0.0000000000000000e+00  -6.6019169374864508e-07 3.4355921219050850e-05 0.0000000000000000e+00  -1.0823120779197190e-06 4.0382774142216247e-05 0.0000000000000000e+00  -1.8343467056039788e-06 4.3175010547414293e-05 0.0000000000000000e+00  -1.8474899613332895e-06 4.9376761077623073e-05 0.0000000000000000e+00  -1.9466033260976181e-06 5.3088837887471723e-05 0.0000000000000000e+00  -2.2176371323506358e-06 6.0254960920529334e-05 0.0000000000000000e+00  -2.1036461566036442e-06 6.8567575695529330e-05 0.0000000000000000e+00  -2.9413141194976867e-06 7.4167860656296160e-05 0.0000000000000000e+00  -5.1953686023786480e-06 8.2753935628418300e-05 0.0000000000000000e+00  -4.4202794049579435e-06 8.7040821035172148e-05 0.0000000000000000e+00  -2.4504824944312858e-06 1.0171907637054154e-04 0.0000000000000000e+00  -5.6841678296706136e-06 1.1489005966032931e-04 0.0000000000000000e+00  -2.9307188788467291e-06 1.2086696638222274e-04 0.0000000000000000e+00  -5.0701553738346620e-06 1.3825052619445761e-04 0.0000000000000000e+00  -7.1480484376823116e-06 1.5656695945002796e-04 0.0000000000000000e+00  -6.9668901069408457e-06 1.6775608773135175e-04 0.0000000000000000e+00  -8.4561669536318225e-06 1.8170450596931224e-04 0.0000000000000000e+00  -7.0803501369181621e-06 2.0919941345071656e-04 0.0000000000000000e+00  -1.5333340539938588e-05 2.3678623724537675e-04 0.0000000000000000e+00  -7.1236182338543761e-06 2.5884490495069299e-04 0.0000000000000000e+00  -1.1207537749655053e-05 3.0023591772772784e-04 0.0000000000000000e+00  -1.1293753431976147e-05 3.3754095925603642e-04 0.0000000000000000e+00  -1.4422505163480625e-05 3.8779938901088289e-04 0.0000000000000000e+00  -1.9958997245961168e-05 4.2910975029342244e-04 0.0000000000000000e+00  -2.2865747624139550e-05 4.9970178712274802e-04 0.0000000000000000e+00  -2.5360466836221767e-05 6.0077737639760485e-04 0.0000000000000000e+00  -3.9247176553080538e-05 7.0018284364126897e-04 0.0000000000000000e+00  -5.1464940188075038e-05 7.9724750139202832e-04 0.0000000000000000e+00  -6.3766066825518086e-05 9.5151446765202982e-04 0.0000000000000000e+00  -7.6751885484762389e-05 1.1567004887669333e-03 0.0000000000000000e+00  -1.0468981064239144e-04 1.3908903994831925e-03 0.0000000000000000e+00  -1.4435491463397445e-04 1.6917771615638357e-03 0.0000000000000000e+00  -1.1356841575866044e-04 2.1222260649664047e-03 0.0000000000000000e+00  -2.6792293219282470e-04 2.8188774706448946e-03 0.0000000000000000e+00  -4.3593568912538353e-04 3.6211576742145478e-03 0.0000000000000000e+00  -4.7337831472780235e-04 4.8334426549349451e-03 0.0000000000000000e+00  -1.1183615854556594e-03 7.0713101786526325e-03 0.0000000000000000e+00  -2.1811272944919705e-03 1.1097745334608765e-02 0.0000000000000000e+00  -4.6075638110179779e-03 1.6486766265556056e-02 0.0000000000000000e+00  -2.9936624235296716e-03 3.0568684029098025e-02 0.0000000000000000e+00  -1.2274230600463919e-02 -3.4750208589583553e-02 0.0000000000000000e+00  1.1438910794362765e-02 -1.0890860472032979e-01 0.0000000000000000e+00  1.9414711377191699e-02 -4.7282307074627057e-02 0.0000000000000000e+00  4.2758352685798098e-03 4.9391233769255638e-02 0.0000000000000000e+00  3.8621438638873963e-03 4.8823510243001578e-02 0.0000000000000000e+00  -9.5029536412345411e-06 1.1009674674183087e-04 0.0000000000000000e+00  -4.4537032747329097e-06 5.6223087766720751e-05 0.0000000000000000e+00  -4.4738385740862921e-06 3.0261488965773023e-05 0.0000000000000000e+00  -1.6076667983895709e-05 1.9175446552357347e-04 0.0000000000000000e+00  -4.3762301348634183e-05 4.0757461735904866e-04 0.0000000000000000e+00  1.1874846963104779e-04 5.7400821305152855e-04 0.0000000000000000e+00  -4.5528415872550449e-05 1.4917115399312449e-05 0.0000000000000000e+00  -1.1969022099960952e-04 8.4820563542878098e-04 0.0000000000000000e+00  -2.6226844693462270e-06 9.8430044243841383e-06 0.0000000000000000e+00  4.1906234775857584e-04 1.3322935723303825e-03 0.0000000000000000e+00  -5.6455936079198273e-05 -3.2518287316777408e-06 0.0000000000000000e+00  -1.8401781779262175e-06 -5.0680566933259401e-06 0.0000000000000000e+00  -5.6603976669832717e-04 2.3433037106016831e-03 0.0000000000000000e+00  -2.3283610669605646e-05 2.3896089135566535e-05 0.0000000000000000e+00  7.4171672601627150e-05 2.7134146107815409e-04 0.0000000000000000e+00  9.4868351991950314e-04 3.5677861582263056e-03 0.0000000000000000e+00  -4.9627284986262553e-05 -1.5637362212529030e-05 0.0000000000000000e+00  -4.2373888453888893e-06 1.8670699131461493e-05 0.0000000000000000e+00  3.4176270886061838e-05 9.4448616502020347e-05 0.0000000000000000e+00  -1.9751771525938953e-06 -1.6592010870276694e-05 0.0000000000000000e+00  -2.3750913878949798e-03 8.1149684510515054e-03 0.0000000000000000e+00  6.8110504286996374e-06 7.2385086544305058e-06 0.0000000000000000e+00  1.4843244509742533e-05 3.6023062489080937e-05 0.0000000000000000e+00  1.4790838518293692e-03 9.5306902087684588e-03 0.0000000000000000e+00  -3.3298280179164807e-05 -2.2095496274213806e-05 0.0000000000000000e+00  5.8674683397512909e-06 1.9759726388611300e-07 0.0000000000000000e+00  8.1759013671337985e-06 2.0555369226175488e-05 0.0000000000000000e+00  -3.0054469767292869e-05 2.7866248295793525e-04 0.0000000000000000e+00  -4.6373456495828387e-06 4.1589543164306905e-05 0.0000000000000000e+00  -1.2592493429973530e-05 1.4459116052567507e-04 0.0000000000000000e+00  -5.7747770641542616e-06 7.7135327588938492e-05 0.0000000000000000e+00  4.5937918967301096e-06 -2.7902681619752193e-06 0.0000000000000000e+00  2.6352640140597845e-06 1.0747509041803762e-05 0.0000000000000000e+00  -2.6518125165202629e-02 7.3112737604474074e-03 0.0000000000000000e+00  -2.6661157235984920e-06 -2.8018216161075471e-05 0.0000000000000000e+00  2.3830324157817757e-06 -2.7595896946822519e-06 0.0000000000000000e+00  -2.3945434601232627e-07 -2.1898958261810336e-07 0.0000000000000000e+00  1.2576078839396333e-06 4.7843844356296172e-06 0.0000000000000000e+00  1.0849231032254330e-06 -2.4845584082213193e-06 0.0000000000000000e+00  -2.3667997854282031e-03 1.0705813815536733e-02 0.0000000000000000e+00  -1.8289410408705837e-05 -2.2551679401623154e-05 0.0000000000000000e+00  6.6689188574875353e-07 1.8034105030144818e-06 0.0000000000000000e+00  1.6838037934806124e-07 1.4883619524079828e-05 0.0000000000000000e+00  2.4195285171642117e-05 5.8942033760232036e-05 0.0000000000000000e+00  -1.5317154385087802e-05 2.5286644146405593e-05 0.0000000000000000e+00  4.8525489549854221e-05 1.4159492394556392e-04 0.0000000000000000e+00  -3.8622644927935889e-05 2.1196815486992456e-05 0.0000000000000000e+00  9.0319701836335332e-05 3.1472401941269774e-04 0.0000000000000000e+00  -5.6023747012034175e-05 3.3092173917190565e-06 0.0000000000000000e+00  2.3156644153787785e-04 1.0055685942230565e-03 0.0000000000000000e+00  -5.5591711320707187e-05 -1.1317296217376330e-05 0.0000000000000000e+00  6.1239231872929167e-04 2.4214650791557833e-03 0.0000000000000000e+00  -4.2382112490196257e-05 -2.0497496694869164e-05 0.0000000000000000e+00  1.3404465729003618e-03 5.4947200707246907e-03 0.0000000000000000e+00  -1.0443825341637713e-03 3.8290371078829820e-03 0.0000000000000000e+00  -1.8493559464915680e-06 -1.1617660705418965e-05 0.0000000000000000e+00  2.5933800676489257e-02 -7.8465332659448966e-02 0.0000000000000000e+00  -3.5111223366064140e-06 -3.4961422761696899e-05 0.0000000000000000e+00  -2.6801493824304929e-04 1.4953422877439016e-03 0.0000000000000000e+00  -2.6047546973152901e-06 1.8864399344638048e-06 0.0000000000000000e+00  -8.6998911793470556e-05 6.4793366889478879e-04 0.0000000000000000e+00  -3.1842355427293571e-06 1.6866191719427078e-05 0.0000000000000000e+00  9.4050309433527717e-07 -1.6455585703476262e-06 0.0000000000000000e+00  1.2302410840641838e-06 3.8764400461856769e-06 0.0000000000000000e+00  -7.6304044838234000e-06 1.1972036814732013e-02 0.0000000000000000e+00  -1.1491323721674452e-05 -2.1868210152952347e-05 0.0000000000000000e+00  1.6762823852219598e-07 -1.2037697706242242e-06 0.0000000000000000e+00  -7.3957290142472311e-07 3.7505025478920828e-06 0.0000000000000000e+00  1.2944762788109347e-02 5.0939035010559360e-02 0.0000000000000000e+00  -3.4269733865177728e-06 -3.1072753271714193e-05 0.0000000000000000e+00  4.3568156569886593e-07 -2.6934331179747677e-06 0.0000000000000000e+00  6.0751632733440452e-07 -2.9880433098827737e-07 0.0000000000000000e+00  1.4191296568422890e-06 -5.3216416896440642e-08 0.0000000000000000e+00  1.0398829614706707e-06 -3.2035452470087420e-06 0.0000000000000000e+00  1.6635527802317472e-06 -2.5089026504966212e-06 0.0000000000000000e+00  9.7738554090780186e-07 -2.8408378598366426e-06 0.0000000000000000e+00  7.5673787940962330e-07 6.4741121530246706e-07 0.0000000000000000e+00  1.5760510838214567e-06 4.2800636456886444e-07 0.0000000000000000e+00  1.1812460089117171e-06 -3.2965643196352364e-06 0.0000000000000000e+00  2.3694723782657234e-06 -9.7241177447389348e-07 0.0000000000000000e+00  1.8538417226539138e-06 -1.4393606082850835e-06 0.0000000000000000e+00  2.3561865812526237e-06 1.2261964290209248e-06 0.0000000000000000e+00  2.5587117041310744e-06 -2.2288120106282095e-06 0.0000000000000000e+00  2.3698734143797103e-06 1.1200890530593555e-06 0.0000000000000000e+00  1.7211792581355516e-06 -1.1796271776653193e-06 0.0000000000000000e+00  2.6462918459828563e-06 -3.2481557756409061e-07 0.0000000000000000e+00  3.9511668363472487e-06 -2.2210589581995196e-07 0.0000000000000000e+00  3.7372871770199541e-06 -6.7178617137431624e-07 0.0000000000000000e+00  3.8617250796696082e-06 5.9196754127279437e-08 0.0000000000000000e+00  4.0839645492546963e-06 -3.2625940432898243e-07 0.0000000000000000e+00  3.5024955370082219e-06 -3.1996328948240843e-07 0.0000000000000000e+00  4.2373988961249701e-06 -6.5381532420117413e-07 0.0000000000000000e+00  5.4096853470138324e-06 -2.1206676103712468e-07 0.0000000000000000e+00  4.4769939548075938e-06 3.4347478674613213e-08 0.0000000000000000e+00  3.7249073985466751e-06 -9.1470213911445412e-08 0.0000000000000000e+00  4.0189084385343042e-06 -1.3201423848075909e-06 0.0000000000000000e+00  3.3345444142266495e-06 2.2513629816625053e-07 0.0000000000000000e+00  4.6899275557549146e-06 -3.3082821057048631e-06 0.0000000000000000e+00  4.0946335139614583e-06 -1.1682838920038653e-06 0.0000000000000000e+00  3.3604197194135877e-06 -2.1556640738772868e-06 0.0000000000000000e+00  2.8456628356644382e-06 -1.3761521603844269e-06 0.0000000000000000e+00  4.1587872115943073e-06 -3.5963234054796729e-06 0.0000000000000000e+00  1.4042222586893123e-06 -3.0407213320063716e-06 0.0000000000000000e+00  1.5785107229525480e-07 -4.6697826187892645e-06 0.0000000000000000e+00  -5.9334421274258973e-07 -3.791722