<?xml version="1.0"?>
<VTKFile type="UnstructuredGrid"  version="0.1"  >
<UnstructuredGrid>
<Piece  NumberOfPoints="18082" NumberOfCells="35500">
<Points>
<DataArray  type="Float64"  NumberOfComponents="3"  format="ascii">0 0 0  30 0 0  30 -10 0  0 -10 0  0.02360821169319077 0 0  0.04721642338638154 0 0  0.07206717063563725 0 0  0.09691791788489297 0 0  0.1230766011355843 0 0  0.1492352843862757 0 0  0.1767707375239038 0 0  0.204306190661532 0 0  0.2332908770901271 0 0  0.2622755635187223 0 0  0.2927857633803451 0 0  0.323295963241968 0 0  0.3554119623832387 0 0  0.3875279615245094 0 0  0.4213342730081758 0 0  0.4551405844918422 0 0  0.4907261762804851 0 0  0.526311768069128 0 0  0.5637702848355051 0 0  0.6012288016018821 0 0  0.6406588220121138 0 0  0.6800888424223455 0 0  0.721594129780935 0 0  0.7630994171395246 0 0  0.8067891887833475 0 0  0.8504789604271704 0 0  0.8964681941825949 0 0  0.9424574279380195 0 0  0.9908671465681095 0 0  1.039276865198199 0 0  1.090234462786975 0 0  1.141192060375751 0 0  1.194831641933244 0 0  1.248471223490737 0 0  1.304933942963653 0 0  1.361396662436569 0 0  1.420831104471586 0 0  1.480265546506604 0 0  1.542828113436244 0 0  1.605390680365884 0 0  1.671246013469327 0 0  1.73710134657277 0 0  1.806422752814762 0 0  1.875744159056755 0 0  1.948714057431306 0 0  2.021683955805857 0 0  2.098494373901932 0 0  2.175304791998006 0 0  2.256157866653476 0 0  2.337010941308945 0 0  2.422119443935387 0 0  2.50722794656183 0 0  2.596815840700639 0 0  2.686403734839449 0 0  2.780706776094687 0 0  2.875009817349925 0 0  2.974276175689285 0 0  3.073542534028646 0 0  3.178033441002704 0 0  3.282524347976761 0 0  3.392514777963501 0 0  3.502505207950242 0 0  3.618284608533553 0 0  3.734064009116865 0 0  3.855937062816526 0 0  3.977810116516187 0 0  4.106097541496641 0 0  4.234384966477093 0 0  4.369424362562147 0 0  4.5044637586472 0 0  4.646610489729194 0 0  4.788757220811188 0 0  4.938385356669961 0 0  5.088013492528733 0 0  5.24551679218304 0 0  5.403020091837347 0 0  5.568813038399614 0 0  5.73460598496188 0 0  5.909124878408681 0 0  6.083643771855482 0 0  6.267347873338513 0 0  6.451051974821543 0 0  6.644424714363561 0 0  6.83779745390558 0 0  7.041347702348167 0 0  7.244897950790754 0 0  7.459161368238869 0 0  7.673424785686984 0 0  7.898965226038037 0 0  8.124505666389089 0 0  8.361916654054033 0 0  8.599327641718979 0 0  8.849233942517035 0 0  9.099140243315093 0 0  9.362199507946787 0 0  9.625258772578484 0 0  9.902163261537794 0 0  10.1790677504971 0 0  10.47054616023911 0 0  10.76202456998112 0 0  11.06884394887334 0 0  11.37566332776555 0 0  11.69863109504192 0 0  12.02159886231829 0 0  12.3615649378891 0 0  12.7015310134599 0 0  13.05939003847426 0 0  13.41724906348862 0 0  13.79394276982091 0 0  14.1706364761532 0 0  14.5671561683298 0 0  14.96367586050641 0 0  15.38106501332897 0 0  15.79845416615153 0 0  16.23781117165827 0 0  16.677168177165 0 0  17.13964923659526 0 0  17.60213029602552 0 0  18.0889524622663 0 0  18.57577462850707 0 0  19.08821901304263 0 0  19.60066339757818 0 0  20.14007853843172 0 0  20.67949367928525 0 0  21.24729908993883 0 0  21.8151045005924 0 0  22.41279440541421 0 0  23.01048431023601 0 0  23.63963157605829 0 0  24.26877884188056 0 0  24.93103912515648 0 0  25.59329940843241 0 0  26.29041549584691 0 0  26.98753158326142 0 0  27.72133799026916 0 0  28.45514439727691 0 0  29.22757219863846 0 0  30 -0.3571428571428571 0  30 -0.7142857142857142 0  30 -1.071428571428571 0  30 -1.428571428571428 0  30 -1.785714285714286 0  30 -2.142857142857143 0  30 -2.5 0  30 -2.857142857142857 0  30 -3.214285714285714 0  30 -3.571428571428571 0  30 -3.928571428571428 0  30 -4.285714285714286 0  30 -4.642857142857142 0  30 -5 0  30 -5.357142857142857 0  30 -5.714285714285714 0  30 -6.071428571428571 0  30 -6.428571428571428 0  30 -6.785714285714285 0  30 -7.142857142857142 0  30 -7.5 0  30 -7.857142857142857 0  30 -8.214285714285714 0  30 -8.571428571428571 0  30 -8.928571428571427 0  30 -9.285714285714285 0  30 -9.642857142857142 0  29.22757220128658 -10 0  28.45514440257316 -10 0  27.72133799277628 -10 0  26.98753158297939 -10 0  26.29041549304805 -10 0  25.5932994031167 -10 0  24.93103911757599 -10 0  24.26877883203527 -10 0  23.63963156418132 -10 0  23.01048429632737 -10 0  22.41279438968936 -10 0  21.81510448305136 -10 0  21.24729907078059 -10 0  20.67949365850982 -10 0  20.14007851622273 -10 0  19.60066337393564 -10 0  19.08821898813588 -10 0  18.57577460233611 -10 0  18.08895243498708 -10 0  17.60213026763805 -10 0  17.13964920724307 -10 0  16.6771681468481 -10 0  16.2378111405086 -10 0  15.79845413416909 -10 0  15.38106498063496 -10 0  14.96367582710082 -10 0  14.56715613432376 -10 0  14.17063644154669 -10 0  13.79394273471576 -10 0  13.41724902788484 -10 0  13.05939000246495 -10 0  12.70153097704506 -10 0  12.36156490115379 -10 0  12.02159882526251 -10 0  11.69863105774323 -10 0  11.37566329022395 -10 0  11.06884391115945 -10 0  10.76202453209494 -10 0  10.47054612224479 -10 0  10.17906771239465 -10 0  9.902163223385379 -10 0  9.625258734376107 -10 0  9.362199469747061 -10 0  9.099140205118012 -10 0  8.849233904370102 -10 0  8.599327603622193 -10 0  8.361916616050124 -10 0  8.124505628478055 -10 0  7.898965188258209 -10 0  7.673424748038361 -10 0  7.459161330755727 -10 0  7.244897913473093 -10 0  7.041347665226496 -10 0  6.837797416979896 -10 0  6.644424677660922 -10 0  6.451051938341948 -10 0  6.26734783710581 -10 0  6.083643735869675 -10 0  5.90912484269068 -10 0  5.734605949511682 -10 0  5.568813003235423 -10 0  5.403020056959164 -10 0  5.24551675760658 -10 0  5.088013458254 -10 0  4.938385322710374 -10 0  4.788757187166745 -10 0  4.646610456411224 -10 0  4.504463725655707 -10 0  4.369424329906533 -10 0  4.234384934157362 -10 0  4.106097509520442 -10 0  3.977810084883522 -10 0  3.85593703153344 -10 0  3.734063978183357 -10 0  3.618284577954206 -10 0  3.502505177725055 -10 0  3.392514748095728 -10 0  3.282524318466404 -10 0  3.1780334118518 -10 0  3.073542505237196 -10 0  2.97427614725823 -10 0  2.875009789279265 -10 0  2.780706748384375 -10 0  2.686403707489482 -10 0  2.596815813710069 -10 0  2.507227919930656 -10 0  2.422119417661861 -10 0  2.337010915393062 -10 0  2.256157841092762 -10 0  2.175304766792465 -10 0  2.098494349048437 -10 0  2.021683931304413 -10 0  1.948714033278215 -10 0  1.875744135252013 -10 0  1.806422729354161 -10 0  1.737101323456312 -10 0  1.671245990692352 -10 0  1.605390657928396 -10 0  1.542828091333185 -10 0  1.480265524737977 -10 0  1.420831083031992 -10 0  1.36139664132601 -10 0  1.304933922176438 -10 0  1.248471203026863 -10 0  1.194831621786765 -10 0  1.14119204054667 -10 0  1.09023444350921 -10 0  1.039276846471754 -10 0  0.9908671279064798 -10 0  0.942457409341209 -10 0  0.8964681758842019 -10 0  0.8504789424271948 -10 0  0.8067891710751951 -10 0  0.7630993997231954 -10 0  0.7215941126497469 -10 0  0.6800888255762949 -10 0  0.6406588054444597 -10 0  0.6012287853126246 -10 0  0.5637702688178621 -10 0  0.5263117523230996 -10 0  0.4907261607992695 -10 0  0.4551405692754429 -10 0  0.4213342580497894 -10 0  0.3875279468241395 -10 0  0.3554119479341011 -10 0  0.3232959490440663 -10 0  0.2927857494269297 -10 0  0.2622755498097931 -10 0  0.2332908636189828 -10 0  0.2043061774281725 -10 0  0.1767707245216883 -10 0  0.1492352716152006 -10 0  0.1230765885890825 -10 0  0.09691790556296098 -10 0  0.0720671585317838 -10 0  0.04721641150060663 -10 0  0.02360820575030331 -10 0  0 -9.972067039106145 0  0 -9.94413407821229 0  0 -9.916201117318435 0  0 -9.888268156424582 0  0 -9.860335195530727 0  0 -9.832402234636872 0  0 -9.804469273743017 0  0 -9.776536312849162 0  0 -9.748603351955307 0  0 -9.720670391061452 0  0 -9.692737430167599 0  0 -9.664804469273744 0  0 -9.636871508379889 0  0 -9.608938547486034 0  0 -9.581005586592179 0  0 -9.553072625698324 0  0 -9.525139664804469 0  0 -9.497206703910614 0  0 -9.46927374301676 0  0 -9.441340782122905 0  0 -9.41340782122905 0  0 -9.385474860335195 0  0 -9.35754189944134 0  0 -9.329608938547485 0  0 -9.30167597765363 0  0 -9.273743016759777 0  0 -9.245810055865922 0  0 -9.217877094972067 0  0 -9.189944134078212 0  0 -9.162011173184357 0  0 -9.134078212290502 0  0 -9.106145251396647 0  0 -9.078212290502794 0  0 -9.050279329608939 0  0 -9.022346368715084 0  0 -8.994413407821229 0  0 -8.966480446927374 0  0 -8.938547486033519 0  0 -8.910614525139664 0  0 -8.882681564245811 0  0 -8.854748603351956 0  0 -8.826815642458101 0  0 -8.798882681564246 0  0 -8.770949720670391 0  0 -8.743016759776536 0  0 -8.715083798882681 0  0 -8.687150837988828 0  0 -8.659217877094973 0  0 -8.631284916201118 0  0 -8.603351955307263 0  0 -8.575418994413408 0  0 -8.547486033519553 0  0 -8.519553072625698 0  0 -8.491620111731844 0  0 -8.463687150837989 0  0 -8.435754189944134 0  0 -8.407821229050279 0  0 -8.379888268156424 0  0 -8.351955307262569 0  0 -8.324022346368714 0  0 -8.296089385474861 0  0 -8.268156424581006 0  0 -8.240223463687151 0  0 -8.212290502793296 0  0 -8.184357541899441 0  0 -8.156424581005586 0  0 -8.128491620111731 0  0 -8.100558659217878 0  0 -8.072625698324023 0  0 -8.044692737430168 0  0 -8.016759776536313 0  0 -7.988826815642458 0  0 -7.960893854748603 0  0 -7.932960893854748 0  0 -7.905027932960894 0  0 -7.877094972067039 0  0 -7.849162011173184 0  0 -7.82122905027933 0  0 -7.793296089385475 0  0 -7.76536312849162 0  0 -7.737430167597765 0  0 -7.709497206703911 0  0 -7.681564245810056 0  0 -7.653631284916202 0  0 -7.625698324022347 0  0 -7.597765363128492 0  0 -7.569832402234637 0  0 -7.541899441340782 0  0 -7.513966480446927 0  0 -7.486033519553073 0  0 -7.458100558659218 0  0 -7.430167597765363 0  0 -7.402234636871508 0  0 -7.374301675977653 0  0 -7.346368715083798 0  0 -7.318435754189944 0  0 -7.290502793296089 0  0 -7.262569832402235 0  0 -7.23463687150838 0  0 -7.206703910614525 0  0 -7.17877094972067 0  0 -7.150837988826815 0  0 -7.12290502793296 0  0 -7.094972067039106 0  0 -7.067039106145251 
[...]
<PointData  Vectors="flow"> 
<DataArray  type="Float64"  Name="flow"  NumberOfComponents="3" format="ascii">1.6114368184487845e-04 -2.2874335270455363e-03 0.0000000000000000e+00  -1.0928122559224085e-06 1.9541516128775601e-05 0.0000000000000000e+00  -1.5501086812853320e-08 -7.8025470813680121e-07 0.0000000000000000e+00  1.9052490199763734e-07 -5.2622680729447024e-07 0.0000000000000000e+00  -2.9394628055957176e-05 -2.2694413045089320e-03 0.0000000000000000e+00  -2.2014787050049075e-05 -2.1527748031043327e-03 0.0000000000000000e+00  2.2661603530148487e-05 -2.1701465578232706e-03 0.0000000000000000e+00  -8.3533188080727846e-05 -2.0879887800699429e-03 0.0000000000000000e+00  3.4013628186142686e-05 -2.0702718542525362e-03 0.0000000000000000e+00  -1.2363706621336049e-05 -2.1496865545509183e-03 0.0000000000000000e+00  -1.6695250046503968e-07 -2.2253477177510790e-03 0.0000000000000000e+00  2.6120229270354150e-05 -2.3733815117192034e-03 0.0000000000000000e+00  -1.4479377018327634e-05 -2.5024535451456113e-03 0.0000000000000000e+00  4.3814242745206359e-05 -2.5894127310806068e-03 0.0000000000000000e+00  -8.5029777062710556e-06 -2.5300903858399989e-03 0.0000000000000000e+00  4.4189556434224497e-06 -2.2555934864864845e-03 0.0000000000000000e+00  2.7920925476263174e-05 -1.8483280279521493e-03 0.0000000000000000e+00  -9.6477814443720640e-05 -1.0423401199470860e-03 0.0000000000000000e+00  2.6309906157499376e-05 -2.0177570466580914e-04 0.0000000000000000e+00  -4.3187157170422596e-05 7.6546596195890479e-04 0.0000000000000000e+00  9.2289961503586734e-06 1.7833544666660268e-03 0.0000000000000000e+00  -1.7933646036721453e-05 2.8282942177962024e-03 0.0000000000000000e+00  -1.4264472552028204e-06 3.7816367004282550e-03 0.0000000000000000e+00  -1.1095676903694138e-05 4.6900591355863979e-03 0.0000000000000000e+00  1.2994445730169085e-06 5.4703565734670473e-03 0.0000000000000000e+00  -8.3356088458522664e-07 6.1270288554426166e-03 0.0000000000000000e+00  2.7401830337527948e-06 6.5833494292777614e-03 0.0000000000000000e+00  -3.1297353214851507e-05 6.9197648030939890e-03 0.0000000000000000e+00  2.0257081294805863e-06 7.2191329513941445e-03 0.0000000000000000e+00  5.5070369954089796e-05 7.2091080518917258e-03 0.0000000000000000e+00  -3.6583837419015911e-05 7.2215045953445819e-03 0.0000000000000000e+00  7.8883131324777113e-05 7.0608860471921510e-03 0.0000000000000000e+00  -2.0053511062202825e-06 6.8552379914775538e-03 0.0000000000000000e+00  -3.1485539404350180e-05 6.7123248449577986e-03 0.0000000000000000e+00  8.2629932775363959e-06 6.4683123877543169e-03 0.0000000000000000e+00  -6.3219688638713309e-06 6.2045617419870325e-03 0.0000000000000000e+00  -9.9799943363931528e-06 5.9556519783882655e-03 0.0000000000000000e+00  3.4971261284173037e-05 5.6327333049002370e-03 0.0000000000000000e+00  -7.8852913573769741e-06 5.3320660632976708e-03 0.0000000000000000e+00  9.3328336946775496e-06 5.0432306782828068e-03 0.0000000000000000e+00  -7.1807917842454945e-06 4.7881863720069320e-03 0.0000000000000000e+00  2.1576241107550417e-05 4.4985563539174638e-03 0.0000000000000000e+00  -2.3068030274791805e-05 4.2684712883788974e-03 0.0000000000000000e+00  6.3117374001974463e-05 3.9611927098988460e-03 0.0000000000000000e+00  -4.2362613005148201e-07 3.6842722418340195e-03 0.0000000000000000e+00  -2.4301975341133765e-05 3.5082216286901314e-03 0.0000000000000000e+00  4.4104592192401304e-06 3.3088715185345895e-03 0.0000000000000000e+00  -1.5199409681203140e-06 3.1088015624945891e-03 0.0000000000000000e+00  -1.0334624873507799e-07 2.9292466959799091e-03 0.0000000000000000e+00  2.9655594159478132e-06 2.7528832931980039e-03 0.0000000000000000e+00  8.6178640077917370e-07 2.5834798715954322e-03 0.0000000000000000e+00  -3.5411763716659178e-06 2.4349720009253862e-03 0.0000000000000000e+00  -6.0807936555210894e-06 2.3030171524721964e-03 0.0000000000000000e+00  2.2313530416799405e-05 2.1391444739778747e-03 0.0000000000000000e+00  -7.0437924087953688e-06 2.0018041854258156e-03 0.0000000000000000e+00  1.0887210770214320e-05 1.8774173225822555e-03 0.0000000000000000e+00  -2.4193518612336717e-06 1.7615645625459215e-03 0.0000000000000000e+00  3.7083144684686562e-06 1.6558268702222840e-03 0.0000000000000000e+00  -6.6525937101235185e-06 1.5653646973924418e-03 0.0000000000000000e+00  1.9586111885588615e-05 1.4570273755968594e-03 0.0000000000000000e+00  -4.1001697642956070e-06 1.3596455004808989e-03 0.0000000000000000e+00  5.4084788888989930e-06 1.2773077790163654e-03 0.0000000000000000e+00  -1.2888512014309674e-06 1.2039919854776213e-03 0.0000000000000000e+00  1.4849203663008385e-06 1.1355300550518006e-03 0.0000000000000000e+00  -2.4200629155376882e-06 1.0697191853461399e-03 0.0000000000000000e+00  7.5387243742660649e-06 9.9854142407423399e-04 0.0000000000000000e+00  -8.5016850064167092e-06 9.5315188504112107e-04 0.0000000000000000e+00  2.8819872813961384e-05 8.6846316173595393e-04 0.0000000000000000e+00  -2.7215033479222843e-06 7.9981868960200581e-04 0.0000000000000000e+00  -6.3333818965641652e-06 7.6759916191260094e-04 0.0000000000000000e+00  5.4322477899222661e-07 7.2533284563651445e-04 0.0000000000000000e+00  3.3555990918272652e-06 6.8109501735972807e-04 0.0000000000000000e+00  -5.7252509870012769e-07 6.3947347377047814e-04 0.0000000000000000e+00  -4.2173304569634487e-07 6.0497631959220612e-04 0.0000000000000000e+00  -4.2497894393170281e-08 5.7152576396452904e-04 0.0000000000000000e+00  4.8673721101532084e-07 5.3828806488913686e-04 0.0000000000000000e+00  -2.5604581190834396e-07 5.0836485400339033e-04 0.0000000000000000e+00  8.6524656734651931e-07 4.7841319134674245e-04 0.0000000000000000e+00  -3.9801545711212768e-07 4.5103299760440536e-04 0.0000000000000000e+00  1.2802757614378691e-06 4.2371508337710754e-04 0.0000000000000000e+00  -2.5590611608839830e-06 4.0222422152551090e-04 0.0000000000000000e+00  1.0253479002520626e-05 3.6839799566898429e-04 0.0000000000000000e+00  -1.4712345263369733e-06 3.3822842415311128e-04 0.0000000000000000e+00  1.5450817545541734e-07 3.2241129304947416e-04 0.0000000000000000e+00  3.8930179645772446e-07 3.0116803496809460e-04 0.0000000000000000e+00  -2.0629953188294296e-06 2.8525220641069886e-04 0.0000000000000000e+00  1.3778717085733697e-07 2.7085804723979011e-04 0.0000000000000000e+00  1.2057019174860866e-06 2.5241327130457516e-04 0.0000000000000000e+00  -1.0690519280963813e-06 2.3780722438948625e-04 0.0000000000000000e+00  3.6624433139575985e-06 2.1888284603076343e-04 0.0000000000000000e+00  -1.9102004717426934e-06 2.0559695097456675e-04 0.0000000000000000e+00  6.4136449696321075e-06 1.8650540670125826e-04 0.0000000000000000e+00  -7.1530729617904006e-07 1.7002590386949010e-04 0.0000000000000000e+00  -9.8628852055380439e-07 1.6161839097706603e-04 0.0000000000000000e+00  1.8809169735881548e-06 1.4881848090052299e-04 0.0000000000000000e+00  -8.2758473724622080e-06 1.4468031162179299e-04 0.0000000000000000e+00  -1.5752031312406253e-07 1.5073611232933288e-04 0.0000000000000000e+00  6.6315975330502464e-06 1.2415777409410908e-04 0.0000000000000000e+00  -6.5451408606954839e-07 1.1225559160297821e-04 0.0000000000000000e+00  -7.9267045452094339e-07 1.0700230385098920e-04 0.0000000000000000e+00  -2.1625965753206796e-07 9.9971040335870639e-05 0.0000000000000000e+00  1.5573077457319010e-06 9.1189616185304031e-05 0.0000000000000000e+00  -5.8837960036926757e-07 8.4151448966879774e-05 0.0000000000000000e+00  1.8179904352093572e-06 7.6545503816954878e-05 0.0000000000000000e+00  -3.9347063199242811e-07 6.9848334235319989e-05 0.0000000000000000e+00  7.2126279850543750e-07 6.4593379609469736e-05 0.0000000000000000e+00  -1.1751132246861067e-07 5.9474479767504391e-05 0.0000000000000000e+00  3.3442308845306933e-07 5.5179735266849889e-05 0.0000000000000000e+00  -1.6525046393902386e-07 5.1196549747835215e-05 0.0000000000000000e+00  7.8081610389064400e-07 4.7072026973787007e-05 0.0000000000000000e+00  -4.7739337375479907e-07 4.3882264568458976e-05 0.0000000000000000e+00  2.2764554043165232e-06 3.9147534925834147e-05 0.0000000000000000e+00  -1.0550064170157033e-07 3.4961421401206450e-05 0.0000000000000000e+00  -1.0567825607735152e-06 3.4279535253606481e-05 0.0000000000000000e+00  2.2696212874271018e-07 3.3310689801639160e-05 0.0000000000000000e+00  -3.3856319875962655e-07 3.1841204133546372e-05 0.0000000000000000e+00  1.1195713925155203e-07 3.0730770632365964e-05 0.0000000000000000e+00  -3.9701708457134178e-07 2.9727912982245908e-05 0.0000000000000000e+00  1.9787903987244062e-08 2.9279505520760718e-05 0.0000000000000000e+00  4.5975272818514665e-07 2.7624341182258578e-05 0.0000000000000000e+00  -1.9128971564617601e-07 2.6597386725485477e-05 0.0000000000000000e+00  9.6864409242754813e-07 2.5040663981049780e-05 0.0000000000000000e+00  4.8683184159077908e-08 2.3401849766036629e-05 0.0000000000000000e+00  -1.4220715292026019e-06 2.4305473680600988e-05 0.0000000000000000e+00  -3.1558508436799965e-07 2.6780868894375782e-05 0.0000000000000000e+00  8.4638172331519000e-07 2.1024166075729219e-05 0.0000000000000000e+00  1.1202950595753771e-07 2.2272030844258428e-05 0.0000000000000000e+00  -7.8141531603847054e-08 2.1784360896228961e-05 0.0000000000000000e+00  1.8835221171278463e-08 2.2170787343990125e-05 0.0000000000000000e+00  -3.9221957985776942e-07 2.1592342288241922e-05 0.0000000000000000e+00  -4.0116463143403767e-07 2.3031771651818608e-05 0.0000000000000000e+00  1.0583715443328405e-06 1.7370414340011348e-05 0.0000000000000000e+00  1.3922212463445489e-07 1.8088089113355079e-05 0.0000000000000000e+00  -3.7017311993511556e-07 1.8263674521065736e-05 0.0000000000000000e+00  1.1354749898116921e-07 1.8493086417203960e-05 0.0000000000000000e+00  -1.1468250737191415e-07 1.8310201819876186e-05 0.0000000000000000e+00  -2.7117401853454578e-08 1.8361473343965348e-05 0.0000000000000000e+00  4.0523147358709810e-07 1.7904594513544036e-05 0.0000000000000000e+00  -1.8535627530910186e-07 1.7173437495850914e-05 0.0000000000000000e+00  -8.9936383048097082e-07 1.8367843820174869e-05 0.0000000000000000e+00  3.6990869039310251e-07 1.9686539482139009e-05 0.0000000000000000e+00  2.0528696529620951e-06 5.3162305766946212e-06 0.0000000000000000e+00  -4.3585914030718819e-07 6.6338206718788740e-07 0.0000000000000000e+00  3.4461572215471773e-07 -6.5167988073998080e-07 0.0000000000000000e+00  -9.1305690425765238e-08 -1.3582871903674612e-07 0.0000000000000000e+00  7.5911309957651365e-10 -2.9967216418967529e-07 0.0000000000000000e+00  1.9025744840465331e-08 -3.0311019617692601e-07 0.0000000000000000e+00  7.3506786973610989e-10 -3.2492309552767297e-07 0.0000000000000000e+00  7.7660625526970298e-09 -2.9748570841229392e-07 0.0000000000000000e+00  1.0509602719549762e-08 -2.6112681242798223e-07 0.0000000000000000e+00  2.3113470151716112e-08 -3.0176028398425524e-07 0.0000000000000000e+00  -1.3192251949092759e-10 -3.5346044857505927e-07 0.0000000000000000e+00  -2.3594674740485741e-08 -3.0291855807340909e-07 0.0000000000000000e+00  -3.4273531618833330e-08 -3.5124824847516041e-07 0.0000000000000000e+00  -2.6014989931887270e-08 -3.5430884187206953e-07 0.0000000000000000e+00  8.5931340552431450e-10 -3.0313295331249301e-07 0.0000000000000000e+00  1.4721036403390792e-08 -3.9151867606046785e-07 0.0000000000000000e+00  3.2863695631002370e-08 -4.3453939846113952e-07 0.0000000000000000e+00  1.9001369172929695e-08 -3.8658487652286615e-07 0.0000000000000000e+00  1.4333403299324347e-08 -3.5468989563840979e-07 0.0000000000000000e+00  1.5768628008569781e-08 -3.7881290932408482e-07 0.0000000000000000e+00  2.1098349795840297e-09 -5.7021155766532898e-07 0.0000000000000000e+00  -4.1521348579400066e-08 -4.9287021599358567e-07 0.0000000000000000e+00  -5.9877888087091722e-08 -4.3972035160012223e-07 0.0000000000000000e+00  -4.9802058359220979e-08 -4.3412829818912123e-07 0.0000000000000000e+00  -1.0871085446409896e-07 -7.9418835979169242e-08 0.0000000000000000e+00  -1.5788699217633165e-07 -4.2044742475349453e-07 0.0000000000000000e+00  -4.2056294342983321e-07 -9.8758942158102493e-07 0.0000000000000000e+00  -2.1741690982565717e-08 -6.5532792023206781e-07 0.0000000000000000e+00  -2.1159812691414042e-07 -8.6511582824072371e-07 0.0000000000000000e+00  1.8788927605268983e-07 -9.1165516994163647e-07 0.0000000000000000e+00  5.3997998475351731e-08 -1.0705680068718791e-06 0.0000000000000000e+00  1.3128560195083364e-08 -1.0157574160142968e-06 0.0000000000000000e+00  1.1645128430684102e-07 -1.0918139393497030e-06 0.0000000000000000e+00  1.0399033766383891e-07 -1.1267987779711134e-06 0.0000000000000000e+00  7.4150227422967360e-08 -1.2080092507798959e-06 0.0000000000000000e+00  2.4625532270255259e-07 -1.2720174774116388e-06 0.0000000000000000e+00  2.0486261005129824e-07 -1.3524218148422050e-06 0.0000000000000000e+00  2.2116171731674965e-07 -1.3677573682790902e-06 0.0000000000000000e+00  6.5447128352020248e-07 -1.2554072932208456e-06 0.0000000000000000e+00  4.8339401383955618e-07 -1.2360346936457682e-06 0.0000000000000000e+00  6.1901081471592408e-07 -1.1779410437183075e-06 0.0000000000000000e+00  6.2601334165342327e-07 -1.2123452309498697e-06 0.0000000000000000e+00  7.8405871548850200e-07 -1.2104400976685914e-06 0.0000000000000000e+00  8.4358388056582609e-07 -1.2097852280408935e-06 0.0000000000000000e+00  9.9006031747034956e-07 -1.1627329303291296e-06 0.0000000000000000e+00  1.0324868293698070e-06 -1.0882895569020707e-06 0.0000000000000000e+00  1.3551743242100072e-06 -9.6276909156578214e-07 0.0000000000000000e+00  1.3712569849214157e-06 -8.9457108298885983e-07 0.0000000000000000e+00  1.5471550315495334e-06 -8.1419482608775510e-07 0.0000000000000000e+00  1.5053018811017720e-06 -7.4649423268044572e-07 0.0000000000000000e+00  1.6423770993374357e-06 -7.3481547771130806e-07 0.0000000000000000e+00  1.9652110459639569e-06 -6.3160602928279981e-07 0.0000000000000000e+00  2.0542962118756693e-06 -4.2651404934939881e-07 0.0000000000000000e+00  2.0362547659309921e-06 -3.0196833836282916e-07 0.0000000000000000e+00  2.2485118307425032e-06 -1.0521192479357635e-07 0.0000000000000000e+00  2.3114540634957317e-06 4.0912867978510246e-08 0.0000000000000000e+00  2.3314184948669545e-06 2.5641636289986197e-07 0.0000000000000000e+00  2.3299004935141498e-06 3.6283054356036135e-07 0.0000000000000000e+00  2.3771804216952280e-06 5.5463122248169591e-07 0.0000000000000000e+00  2.3604642331198033e-06 7.2784750761817238e-07 0.0000000000000000e+00  2.3270506855329077e-06 9.4171680841935511e-07 0.0000000000000000e+00  2.2813892051238332e-06 1.1559395479081589e-06 0.0000000000000000e+00  2.1584643729686467e-06 1.4052817866801731e-06 0.0000000000000000e+00  2.0515726337198909e-06 1.6571403219245526e-06 0.0000000000000000e+00  1.9117861522693512e-06 1.9760101783718552e-06 0.0000000000000000e+00  1.6050302039730357e-06 2.2061011644281861e-06 0.0000000000000000e+00  9.7136454517089097e-07 2.2800807471755884e-06 0.0000000000000000e+00  7.1939082330492456e-07 2.2539172809497329e-06 0.0000000000000000e+00  4.4787442337243218e-07 2.2842547022939976e-06 0.0000000000000000e+00  1.1239374217120686e-07 2.3644836669139246e-06 0.0000000000000000e+00  -4.0597393752876584e-07 2.4199076740953149e-06 0.0000000000000000e+00  -8.0597867846119053e-07 2.4877269376378807e-06 0.0000000000000000e+00  -1.3676666618492038e-06 2.5712021675978905e-06 0.0000000000000000e+00  -1.8841766004711669e-06 2.6643035620337852e-06 0.0000000000000000e+00  -2.4549116585806658e-06 2.8399629074172812e-06 0.0000000000000000e+00  -2.8435284037770165e-06 2.9660239909253226e-06 0.0000000000000000e+00  -3.5853118018734207e-06 3.2831190847816074e-06 0.0000000000000000e+00  -4.6645595537418496e-06 3.4297471765642357e-06 0.0000000000000000e+00  -5.5276190985220034e-06 3.2006097332298788e-06 0.0000000000000000e+00  -5.7511571988280340e-06 2.8786952910507335e-06 0.0000000000000000e+00  -6.5967208568366569e-06 3.0269210554128117e-06 0.0000000000000000e+00  -7.6225752618296159e-06 3.1139676348810873e-06 0.0000000000000000e+00  -8.5511639394853678e-06 2.7887358678292502e-06 0.0000000000000000e+00  -9.2870056946115636e-06 2.4673085559332049e-06 0.0000000000000000e+00  -9.8540859184441589e-06 2.3314220166332127e-06 0.0000000000000000e+00  -1.0421241330184835e-05 2.2547621508925403e-06 0.0000000000000000e+00  -1.1091485575375879e-05 2.1052125767191764e-06 0.0000000000000000e+00  -1.1741024154524197e-05 2.0007681425862754e-06 0.0000000000000000e+00  -1.2418047811254884e-05 1.8363184990159449e-06 0.0000000000000000e+00  -1.3050580602928369e-05 1.7281937492280601e-06 0.0000000000000000e+00  -1.3650115644835421e-05 1.5438844599443556e-06 0.0000000000000000e+00  -1.4177306608873358e-05 1.4229618607859044e-06 0.0000000000000000e+00  -1.4722693089632579e-05 1.2278513710536996e-06 0.0000000000000000e+00  -1.5209072404762741e-05 1.1064926965164314e-06 0.0000000000000000e+00  -1.5693861888113394e-05 9.5332892540134723e-07 0.0000000000000000e+00  -1.6112552229708008e-05 8.5002740236253306e-07 0.0000000000000000e+00  -1.6472168168443225e-05 6.8609116642565980e-07 0.0000000000000000e+00  -1.6790028048748833e-05 5.8694368427816881e-07 0.0000000000000000e+00  -1.7076643051462604e-05 4.2889398876771984e-07 0.0000000000000000e+00  -1.7289165472325366e-05 3.3529754514649306e-07 0.0000000000000000e+00  -1.7467214758618391e-05 1.9704085622780335e-07 0.0000000000000000e+00  -1.7569094857088944e-05 9.9468568892490238e-08 0.0000000000000000e+00  -1.7695334565125616e-05 -1.2660777089596123e-08 0.0000000000000000e+00  -1.7766983108452999e-05 -1.0892770973044020e-07 0.0000000000000000e+00  -1.7766069888835258e-05 -2.2196085426438435e-07 0.0000000000000000e+00  -1.7809920799727318e-05 -3.3260968189635321e-07 0.0000000000000000e+00  -1.7738600102977637e-05 -4.1408090193743164e-07 0.0000000000000000e+00  -1.7453269259794959e-05 -2.1150768925033821e-07 0.0000000000000000e+00  -1.7493973616796749e-05 -3.8566876777307126e-07 0.0000000000000000e+00  -1.7405623471553421e-05 -4.9916135465643086e-07 0.0000000000000000e+00  -1.7243920431367545e-05 -5.2520274828367259e-07 0.0000000000000000e+00  -1.6946466489292304e-05 -4.3639510979720778e-07 0.0000000000000000e+00  -1.6705866296584086e-05 -6.3556203622234131e-07 0.0000000000000000e+00  -1.6589709688316858e-05 -8.1495077230479906e-07 0.0000000000000000e+00  -1.6326074778410690e-05 -8.3081696708135527e-07 0.0000000000000000e+00  -1.5939896401661640e-05 -8.0621926662955630e-07 0.0000000000000000e+00  -1.5629451600190808e-05 -8.0224666243398642e-07 0.0000000000000000e+00  -1.5215408004722880e-05 -7.1224990274448775e-07 0.0000000000000000e+00  -1.5000016336699434e-05 -7.9901922153494127e-07 0.0000000000000000e+00  -1.4692200595038892e-05 -8.5154258214938655e-07 0.0000000000000000e+00  -1.4349293331839508e-05 -8.6337840901720365e-07 0.0000000000000000e+00  -1.3966512872345943e-05 -8.6918125708994851e-07 0.0000000000000000e+00  -1.3619242179997095e-05 -9.1545918534228996e-07 0.0000000000000000e+00  -1.3262745796754717e-05 -9.4772784458425521e-07 0.0000000000000000e+00  -1.2853791913168664e-05 -1.0071014484864974e-06 0.0000000000000000e+00  -1.2501827787770648e-05 -1.0544670558324672e-06 0.0000000000000000e+00  -1.1990264812562026e-05 -1.1411984261837176e-06 0.0000000000000000e+00  -1.1590618284876023e-05 -1.2497053410852783e-06 0.0000000000000000e+00  -1.1285956981523088e-05 -1.1094557660434327e-06 0.0000000000000000e+00  -1.0595691267022496e-05 -8.5500349344790746e-07 0.0000000000000000e+00  -1.0504158362803788e-05 -8.6084344388544284e-07 0.0000000000000000e+00  -1.0017495986998992e-05 -5.8191961612583119e-07 0.0000000000000000e+00  -9.6005621471217305e-06 -8.3029093357553734e-07 0.0000000000000000e+00  -9.3583139338317680e-06 -9.7032080505506014e-07 0.0000000000000000e+00  -8.9768868836341273e-06 -9.0260517447639311e-07 0.0000000000000000e+00  -8.4804937493584851e-06 -8.3415738347205822e-07 0.0000000000000000e+00  -8.1478867781871431e-06 -8.3897140427866247e-07 0.0000000000000000e+00  -7.7311492206682021e-06 -8.1600579659946148e-07 0.0000000000000000e+00  -7.4017311830685190e-06 -8.0556706507130008e-07 0.0000000000000000e+00  -7.0009298952839897e-06 -