<?xml version="1.0"?>
<VTKFile type="UnstructuredGrid"  version="0.1"  >
<UnstructuredGrid>
<Piece  NumberOfPoints="1691" NumberOfCells="3204">
<Points>
<DataArray  type="Float64"  NumberOfComponents="3"  format="ascii">0 0 0  30 0 0  30 -10 0  0 -10 0  0.1391574078963744 0 0  0.2856388821882616 0 0  0.4398299073010886 0 0  0.6021362569539473 0 0  0.7729850389704483 0 0  0.9528258543586996 0 0  1.142131984380316 0 0  1.34140159760994 0 0  1.551159074717981 0 0  1.771956417032531 0 0  2.004374674080994 0 0  2.249025475789527 0 0  2.506552636773105 0 0  2.777633857742732 0 0  3.062982518028728 0 0  3.363349525995907 0 0  3.679525322337712 0 0  4.01234195575742 0 0  4.362675247811097 0 0  4.731447135329707 0 0  5.119628065610077 0 0  5.528239565804708 0 0  5.958356943167011 0 0  6.411112081475485 0 0  6.887696441559404 0 0  7.389364184530748 0 0  7.917435485335147 0 0  8.473300005202017 0 0  9.058420557070402 0 0  9.674336929103793 0 0  10.32266995225095 0 0  11.00512576896296 0 0  11.72350030646412 0 0  12.47968402994705 0 0  13.27566689579597 0 0  14.1135435963616 0 0  14.9955190732806 0 0  15.92391430904694 0 0  16.90117245730496 0 0  17.92986524844506 0 0  19.01269976086341 0 0  20.15252556282024 0 0  21.35234220269763 0 0  22.61530708683689 0 0  23.94474379751883 0 0  25.34415086349739 0 0  26.81721093579712 0 0  28.3678004819169 0 0  30 -1.111111111111111 0  30 -2.222222222222222 0  30 -3.333333333333333 0  30 -4.444444444444445 0  30 -5.555555555555555 0  30 -6.666666666666666 0  30 -7.777777777777777 0  30 -8.888888888888889 0  28.36780047917311 -10 0  26.8172109305839 -10 0  25.34415085606858 -10 0  23.94474378810899 -10 0  22.61530707566275 -10 0  21.3523421899591 -10 0  20.15252554870171 -10 0  19.01269974553473 -10 0  17.92986523206254 -10 0  16.90117244001232 -10 0  15.92391429097614 -10 0  14.99551905455266 -10 0  14.11354357708742 -10 0  13.27566687607703 -10 0  12.47968400987599 -10 0  11.72350028612546 -10 0  11.00512574843363 -10 0  10.32266993160086 -10 0  9.674336908396342 -10 0  9.058420536362949 -10 0  8.473299984546333 -10 0  7.917435464777824 -10 0  7.389364164113587 -10 0  6.887696420787165 -10 0  6.411112061446698 -10 0  5.95835692337857 -10 0  5.528239546282652 -10 0  5.119628046377237 -10 0  4.731447115907979 -10 0  4.362675229213632 -10 0  4.012341937260036 -10 0  3.679525304434552 -10 0  3.363349508456405 -10 0  3.062982500861274 -10 0  2.777633840953978 -10 0  2.506552620368097 -10 0  2.249025459771861 -10 0  2.004374658452946 -10 0  1.771956401795187 -10 0  1.551159059871345 -10 0  1.341401583153029 -10 0  1.142131970307521 -10 0  0.9528258406748833 -10 0  0.7729850256685147 -10 0  0.6021362439621285 -10 0  0.4398298947504031 -10 0  0.2856388700059078 -10 0  0.1391573960769001 -10 0  0 -9.855072463768115 0  0 -9.710144927536232 0  0 -9.565217391304348 0  0 -9.420289855072463 0  0 -9.27536231884058 0  0 -9.130434782608695 0  0 -8.985507246376812 0  0 -8.840579710144928 0  0 -8.695652173913043 0  0 -8.55072463768116 0  0 -8.405797101449275 0  0 -8.260869565217391 0  0 -8.115942028985508 0  0 -7.971014492753623 0  0 -7.826086956521739 0  0 -7.681159420289855 0  0 -7.536231884057971 0  0 -7.391304347826087 0  0 -7.246376811594203 0  0 -7.101449275362318 0  0 -6.956521739130435 0  0 -6.811594202898551 0  0 -6.666666666666667 0  0 -6.521739130434783 0  0 -6.376811594202898 0  0 -6.231884057971015 0  0 -6.086956521739131 0  0 -5.942028985507246 0  0 -5.797101449275362 0  0 -5.652173913043478 0  0 -5.507246376811594 0  0 -5.36231884057971 0  0 -5.217391304347826 0  0 -5.072463768115941 0  0 -4.927536231884058 0  0 -4.782608695652174 0  0 -4.637681159420289 0  0 -4.492753623188406 0  0 -4.347826086956522 0  0 -4.202898550724638 0  0 -4.057971014492754 0  0 -3.913043478260869 0  0 -3.768115942028985 0  0 -3.623188405797101 0  0 -3.478260869565217 0  0 -3.333333333333334 0  0 -3.188405797101449 0  0 -3.043478260869565 0  0 -2.898550724637681 0  0 -2.753623188405797 0  0 -2.608695652173912 0  0 -2.463768115942029 0  0 -2.318840579710145 0  0 -2.173913043478261 0  0 -2.028985507246377 0  0 -1.884057971014492 0  0 -1.739130434782609 0  0 -1.594202898550725 0  0 -1.44927536231884 0  0 -1.304347826086957 0  0 -1.159420289855072 0  0 -1.014492753623188 0  0 -0.8695652173913047 0  0 -0.72463768115942 0  0 -0.579710144927537 0  0 -0.4347826086956523 0  0 -0.2898550724637676 0  0 -0.1449275362318829 0  0.1309460514202492 -4.990980414828784 0  0.1171526873513358 -5.869565217391296 0  0.1344252986967795 -6.716855800502001 0  0.1221309018586645 -4.161899358592938 0  0.1166997684017801 -3.25954604704229 0  4.961569127360256 -0.3118894787216622 0  4.923897360678746 -9.687537149351071 0  0.1228405945134021 -2.536958536012416 0  0.1335945686177435 -7.466846676638523 0  3.206461751753455 -0.2806173508164562 0  3.213166004658842 -9.746377676274168 0  0.1155250883680452 -8.186784073011673 0  0.1359204609538445 -1.804202625344072 0  6.662432263484016 -9.600124945047963 0  6.631056521209421 -0.3942868763482545 0  2.126700074935258 -0.2065769621215452 0  2.120437876630353 -9.808537401472012 0  8.761385473272522 -9.4914222957189 0  8.786076048231736 -0.4923064159810888 0  0.1195911345135556 -8.749677128895598 0  0.1117474302775605 -1.230589418769438 0  11.3907841305612 -9.402816705944797 0  11.36435727088349 -0.618365439918426 0  1.211504568109637 -0.1471532661956818 0  1.239596144827807 -9.832618358594059 0  13.75158625181508 -9.315497816134139 0  13.7500399625954 -0.6902569910160397 0  0.131402377539402 -3.696772604078816 0  0.1204853385030979 -6.307560917781178 0  0.1346483804691658 -4.550944754283819 0  0.1255109280847009 -5.434782608695652 0  16.39894095075685 -9.180198571581517 0  16.44068234362399 -0.8166544577416346 0  0.1255109280847009 -0.7971014492753632 0  0.1162877148651766 -9.206770243020259 0  19.56645066956165 -9.043742294716539 0  29.11731382843969 -5.098539983867493 0  19.50527862123305 -0.9323941524176265 0  23.28904960561395 -8.8608997858633 0  0.6875606479622149 -0.1442604037134076 0  0.6875606348153145 -9.855739596611892 0  23.37074358394081 -1.15131614182933 0  10.00852704311311 -9.475417469395781 0  10.01049631493635 -0.5545437343697674 0  7.639131123468924 -9.543000896765111 0  7.693537846067955 -0.4574302764599576 0  5.733194300659633 -9.66079268774309 0  5.731454990332523 -0.3687808037058806 0  3.803630689980224 -9.686555789708486 0  3.834043646352164 -0.2754981925697493 0  2.618022704128803 -9.787800068206256 0  2.634320277618269 -0.2392104743186785 0  1.65952286941916 -9.813294854785646 0  1.665360553377539 -0.1820878093930922 0  0.1365068028365961 -1.543352471920677 0  0.1128108295274224 -8.471115901500411 0  0.1249192863256123 -0.5070564851587012 0  0.1172626025927563 -9.49200175151447 0  0.1255109280847009 -2.101449275362318 0  0.1255109280847009 -7.898550724637682 0  0.1247535864599936 -2.824177050114505 0  0.1155424837078822 -7.17494363557847 0  26.05192393553612 -8.777856070543081 0  26.00031291598836 -1.159065252957426 0  0.3627343947446455 -0.1301950113519217 0  0.3690141220077834 -9.868919517536135 0  28.90574865438674 -7.135369011630129 0  29.02069681040884 -2.861993939893059 0  0.1397555488250113 -0.2163338956475025 0  0.1255109280847009 -9.782608695652172 0  24.67098979274125 -8.799958058548517 0  23.93395881668722 -7.700959994796646 0  22.61396570077244 -7.764517377391733 0  23.2032949615693 -6.630776985250927 0  21.94857473380583 -6.690613342424633 0  24.50398505507967 -6.535933305198952 0  22.51489076809043 -5.580432145971667 0  21.29537841406989 -5.639199768252479 0  21.84985259542567 -4.547213342284197 0  20.65342988351128 -4.619546679988924 0  20.11277906893955 -5.663225279336593 0  19.49454290958806 -4.673886314669294 0  18.97860072994828 -5.624185949902217 0  18.40383886642446 -4.729683279047542 0  17.90575400337286 -5.630456854950327 0  17.35903168001753 -4.836859475002379 0  16.91444903556046 -5.680257663405808 0  16.36114434035519 -4.898890029095359 0  15.89440836794127 -5.835214594829282 0  15.41608945577568 -4.979845093198404 0  14.9809818125648 -5.732909169427192 0  14.51777858619734 -4.988431190461874 0  14.14039496103406 -5.776391085527889 0  13.67321261031888 -5.031745046943032 0  13.26988611760758 -5.891550007816156 0  12.85732927991246 -5.095735823822261 0  12.46423889659403 -5.760519953635332 0  12.07741841933393 -5.116608846746942 0  11.73131647445202 -5.75987862647932 0  11.35222911621012 -5.158061768105265 0  11.01225658271747 -5.784828178519854 0  10.65393216495117 -5.205808407572067 0  10.33042159780337 -5.788944717060055 0  9.98551374198097 -5.24118342090078 0  9.687616112021921 -5.812725728827915 0  9.357518717034999 -5.284717467130579 0  9.08157001076583 -5.820057568121996 0  8.766199932316585 -5.320212662582848 0  8.494748056481422 -5.830095453943056 0  8.194406727465122 -5.347802431655208 0  7.942610344706003 -5.833678024304247 0  7.660825631728443 -5.380025954369014 0  7.416702921751611 -5.83684433397813 0  7.147290851157173 -5.413787279190068 0  6.91632006965034 -5.851605397483334 0  6.658527053286988 -5.437627383845131 0  6.441897327469297 -5.862220684948111 0  6.194860224019926 -5.464520225953867 0  5.988748643021736 -5.866336295550595 0  5.755042825355586 -5.482399938780632 0  5.555770501455733 -5.867908174086599 0  5.334991086231989 -5.504761241472904 0  5.145076642106908 -5.873191062890511 0  4.935013388047023 -5.544035964184449 0  4.754345788811499 -5.880090917794126 0  4.554437025256316 -5.569020251233177 0  4.382470744799432 -5.88665007327689 0  4.192208958329529 -5.585677590398814 0  4.029485566904095 -5.896175760774888 0  4.354949258143058 -5.270074521138358 0  4.004482386201769 -5.289207815434526 0  4.158655721068861 -4.98145486433833 0  3.821444856080801 -5.001169872115685 0  3.97033944278737 -4.700814034221719 0  3.642688047138773 -4.720140385706738 0  3.788830742180677 -4.426816067812119 0  3.467446796449556 -4.450112744784491 0  3.325275354457695 -4.730293981808933 0  3.158439978631689 -4.466074367009679 0  3.294707394527546 -4
[...]
<PointData  Vectors="flow"> 
<DataArray  type="Float64"  Name="flow"  NumberOfComponents="3" format="ascii">-9.5204504641274249e-05 8.0941641350368645e-03 0.0000000000000000e+00  6.9959675145877673e-06 4.5617566435831542e-05 0.0000000000000000e+00  -5.5699251974747459e-07 -2.0241063245987213e-06 0.0000000000000000e+00  -7.7492035906989127e-07 -2.6840047661278458e-06 0.0000000000000000e+00  -1.4573388139965058e-05 7.7964146411609991e-03 0.0000000000000000e+00  9.4638384397446895e-06 7.2104231762037986e-03 0.0000000000000000e+00  1.7508717470966172e-05 6.3095468419141956e-03 0.0000000000000000e+00  3.1331477818027077e-05 5.2476626495503676e-03 0.0000000000000000e+00  2.1768453608410496e-05 4.3142408900645225e-03 0.0000000000000000e+00  -6.2608906044731423e-05 3.7900578129988747e-03 0.0000000000000000e+00  4.2049765264574801e-06 3.3845393335932578e-03 0.0000000000000000e+00  2.6856838958353054e-05 3.3256053804365860e-03 0.0000000000000000e+00  -2.3654232867109426e-05 3.3354268145009257e-03 0.0000000000000000e+00  1.8473491152841583e-05 3.2009677758721242e-03 0.0000000000000000e+00  -2.6438613551521770e-06 3.0331917103864950e-03 0.0000000000000000e+00  -7.6515297780677370e-06 2.8227222675640561e-03 0.0000000000000000e+00  1.9905079023842283e-05 2.4985691916576307e-03 0.0000000000000000e+00  2.8692992232806280e-05 2.1915406767971436e-03 0.0000000000000000e+00  -2.0539164644227465e-05 1.9939047116075718e-03 0.0000000000000000e+00  -4.6753073869472135e-06 1.7223214444505371e-03 0.0000000000000000e+00  5.6865507065627395e-06 1.5012620419765756e-03 0.0000000000000000e+00  -1.9149419834077851e-05 1.3112262408559393e-03 0.0000000000000000e+00  8.2644591151878730e-06 1.1351323659297874e-03 0.0000000000000000e+00  1.0756571946982270e-05 9.7411851177447387e-04 0.0000000000000000e+00  -4.9738594196152011e-06 8.4296937753390241e-04 0.0000000000000000e+00  1.9152857093050295e-06 7.4202674497644762e-04 0.0000000000000000e+00  1.8909044954071315e-06 6.4565514222379174e-04 0.0000000000000000e+00  7.0137459347294913e-07 5.4976152528750084e-04 0.0000000000000000e+00  1.0723640427856529e-05 4.6720325202361077e-04 0.0000000000000000e+00  -6.4280507870977330e-06 4.1549611059349542e-04 0.0000000000000000e+00  4.3650619567900068e-08 3.5069191536376334e-04 0.0000000000000000e+00  1.3407892150308130e-06 2.9866638038175252e-04 0.0000000000000000e+00  1.4226844813145890e-06 2.5485061618840232e-04 0.0000000000000000e+00  6.9332188140108840e-08 2.1890947633639986e-04 0.0000000000000000e+00  5.6630341369912244e-07 1.8699018111795714e-04 0.0000000000000000e+00  9.9049399920096177e-07 1.5847724435337734e-04 0.0000000000000000e+00  9.2523657865445725e-08 1.3219906840359526e-04 0.0000000000000000e+00  3.8880485495914972e-06 1.1113069554594549e-04 0.0000000000000000e+00  -3.0681990145608359e-06 9.9755087899943979e-05 0.0000000000000000e+00  4.2178448205014484e-07 8.6306625858545541e-05 0.0000000000000000e+00  1.5613478242567018e-07 7.6971743805244792e-05 0.0000000000000000e+00  6.9797409852236107e-07 6.8992329358529090e-05 0.0000000000000000e+00  1.0404077911003285e-06 6.3076723690484333e-05 0.0000000000000000e+00  1.5194193771689508e-07 5.8208868702570086e-05 0.0000000000000000e+00  -9.9522202046016125e-08 5.6146334871195105e-05 0.0000000000000000e+00  -1.8760022518527512e-06 5.2246729217189651e-05 0.0000000000000000e+00  3.8492985378021161e-08 4.4708438553448595e-05 0.0000000000000000e+00  1.0373104665303013e-06 4.7910601440609068e-05 0.0000000000000000e+00  -3.0741457826500274e-07 4.6466523975420471e-05 0.0000000000000000e+00  2.0040436065482636e-07 4.3636141486629657e-05 0.0000000000000000e+00  1.9648476239344182e-06 4.1512426133022218e-05 0.0000000000000000e+00  -5.2264375971049715e-06 4.2488615275382703e-05 0.0000000000000000e+00  2.7974768997554764e-06 1.1189397294947021e-05 0.0000000000000000e+00  2.3031880802373490e-06 -6.1465860832072895e-06 0.0000000000000000e+00  -9.4129283740053324e-07 4.4557199440628011e-07 0.0000000000000000e+00  7.5165709065274077e-07 -2.9772263354073436e-06 0.0000000000000000e+00  2.9641769207607988e-08 -2.1733221922734951e-06 0.0000000000000000e+00  4.2159417359297160e-08 -2.5496999633468213e-06 0.0000000000000000e+00  4.2314666954238851e-07 -2.2220991172726408e-06 0.0000000000000000e+00  7.5500806523212457e-08 -3.6874183482489024e-06 0.0000000000000000e+00  2.9811163288113032e-07 -2.3032732016648223e-06 0.0000000000000000e+00  2.1586345862429833e-07 -2.3596902751884195e-06 0.0000000000000000e+00  3.6319081249576478e-07 -2.5076263383684843e-06 0.0000000000000000e+00  1.0743753254886309e-06 -2.8481323790144611e-06 0.0000000000000000e+00  2.4113941370569377e-06 -2.8481187287347948e-06 0.0000000000000000e+00  2.4822064859934577e-06 -2.8585948734497681e-06 0.0000000000000000e+00  3.3900767507218611e-06 -2.8678707399046455e-06 0.0000000000000000e+00  5.5921725026678965e-06 -2.6831573584298545e-06 0.0000000000000000e+00  6.8595590899510093e-06 -2.4559814634710829e-06 0.0000000000000000e+00  8.0625712163855324e-06 -2.0221831594169540e-06 0.0000000000000000e+00  9.6386966612464453e-06 -1.4953476686388208e-06 0.0000000000000000e+00  1.1020281928925410e-05 -9.3455298791047312e-07 0.0000000000000000e+00  1.2157543517507040e-05 -2.9736998431255756e-07 0.0000000000000000e+00  1.2710726967499182e-05 4.4743234015791012e-07 0.0000000000000000e+00  1.2499473416755340e-05 1.5330702469149716e-06 0.0000000000000000e+00  1.2361466803474971e-05 2.2769579276939410e-06 0.0000000000000000e+00  8.9502102622164826e-06 3.8415244028594070e-06 0.0000000000000000e+00  5.8663409230335573e-06 4.4817607358188153e-06 0.0000000000000000e+00  2.9014472531064681e-07 4.5913498549961601e-06 0.0000000000000000e+00  -5.2026912525336767e-06 5.1060265887974114e-06 0.0000000000000000e+00  -1.2310611244487572e-05 5.5972365604723547e-06 0.0000000000000000e+00  -2.0597637356176086e-05 5.9107372083906570e-06 0.0000000000000000e+00  -2.9475367955050162e-05 5.8701641451280756e-06 0.0000000000000000e+00  -3.8811001622119199e-05 5.2232226358334680e-06 0.0000000000000000e+00  -4.9853853456297935e-05 5.1045395488182219e-06 0.0000000000000000e+00  -5.9221047684138133e-05 4.7486570719826994e-06 0.0000000000000000e+00  -6.8154374289982497e-05 3.4179770565332465e-06 0.0000000000000000e+00  -7.5402959840518204e-05 2.4967460436433876e-06 0.0000000000000000e+00  -8.1562518084569334e-05 1.9403946922282181e-06 0.0000000000000000e+00  -8.7157609128145689e-05 1.1727787333823452e-06 0.0000000000000000e+00  -9.0938220304827294e-05 7.2416115636318497e-07 0.0000000000000000e+00  -9.3471356256735443e-05 1.9222894013229873e-07 0.0000000000000000e+00  -9.3999356800870661e-05 -6.5120310606218805e-07 0.0000000000000000e+00  -9.3075832679347239e-05 -7.9745864307166216e-07 0.0000000000000000e+00  -9.0277050149751244e-05 -1.2063048165386140e-06 0.0000000000000000e+00  -8.6909070241183859e-05 -1.7174985062068246e-06 0.0000000000000000e+00  -8.2401440261015645e-05 -1.8739623426463068e-06 0.0000000000000000e+00  -7.6774811791608538e-05 -1.9754242253353847e-06 0.0000000000000000e+00  -7.0439408061538438e-05 -2.3327383932926054e-06 0.0000000000000000e+00  -6.3924971930419115e-05 -2.5294142323986605e-06 0.0000000000000000e+00  -5.6841402470078376e-05 -2.3810187058950666e-06 0.0000000000000000e+00  -4.9286424280105219e-05 -2.6054521166524015e-06 0.0000000000000000e+00  -4.2061925913934340e-05 -2.6911582080393487e-06 0.0000000000000000e+00  -3.4448828439930262e-05 -2.6403131715284007e-06 0.0000000000000000e+00  -2.7665294080549992e-05 -2.6156497893881885e-06 0.0000000000000000e+00  -2.0263986882850277e-05 -2.0948794095058652e-06 0.0000000000000000e+00  -1.2966552310793408e-05 -2.0260385150328168e-06 0.0000000000000000e+00  -6.7638444675335350e-06 -1.9730970821745244e-06 0.0000000000000000e+00  -7.1027006721913944e-07 -1.1511752430980720e-05 0.0000000000000000e+00  -9.0978060558312735e-07 -2.1636746453987208e-05 0.0000000000000000e+00  -1.0011354920083672e-06 -2.9917184625882313e-05 0.0000000000000000e+00  -1.1943747949364741e-06 -3.4799473849677334e-05 0.0000000000000000e+00  -1.3405626610234839e-06 -3.6795648915513354e-05 0.0000000000000000e+00  -1.7372578995918938e-06 -3.6196111819378223e-05 0.0000000000000000e+00  -1.8245225188248013e-06 -3.3755887432302100e-05 0.0000000000000000e+00  -1.9153476627503175e-06 -2.9329919600442192e-05 0.0000000000000000e+00  -1.8425571991506287e-06 -2.4894239665821300e-05 0.0000000000000000e+00  -1.6393295543549055e-06 -1.9518697938540697e-05 0.0000000000000000e+00  -1.6386358692991052e-06 -1.4467037051544266e-05 0.0000000000000000e+00  -1.7514433265643585e-06 -9.1367690456237074e-06 0.0000000000000000e+00  -1.7192163573671692e-06 -3.5413116766482206e-06 0.0000000000000000e+00  -1.6867800665102770e-06 1.5597169292502783e-06 0.0000000000000000e+00  -1.7556378926708622e-06 6.9365634815356846e-06 0.0000000000000000e+00  -1.7115201008636222e-06 1.2513490426858255e-05 0.0000000000000000e+00  -1.8745121520385528e-06 1.7755482019995965e-05 0.0000000000000000e+00  -1.7817430711608137e-06 2.3732266807400255e-05 0.0000000000000000e+00  -1.8472860768150951e-06 2.9214472310779285e-05 0.0000000000000000e+00  -2.0126989203004503e-06 3.5680716701489881e-05 0.0000000000000000e+00  -2.3551803606852109e-06 4.2018864111019843e-05 0.0000000000000000e+00  -1.8757227177195026e-06 4.8453286171458124e-05 0.0000000000000000e+00  -2.8375190428485709e-06 5.6258252705893526e-05 0.0000000000000000e+00  -2.3053733009854709e-06 6.3165443617052024e-05 0.0000000000000000e+00  -2.5780599962311372e-06 7.1008839185826998e-05 0.0000000000000000e+00  -2.8304657597992131e-06 7.9787446228688630e-05 0.0000000000000000e+00  -3.0248293923321091e-06 8.8904988569573140e-05 0.0000000000000000e+00  -3.4269467585133288e-06 9.8571140024619343e-05 0.0000000000000000e+00  -3.5890060627850153e-06 1.0985958688026012e-04 0.0000000000000000e+00  -3.8657510004179003e-06 1.2076202928169005e-04 0.0000000000000000e+00  -4.3028693589555082e-06 1.3380488726966945e-04 0.0000000000000000e+00  -4.7926361049156945e-06 1.4909710837239922e-04 0.0000000000000000e+00  -6.9187456832352813e-06 1.6283346116521754e-04 0.0000000000000000e+00  -6.4595934937964786e-06 1.7867148383054115e-04 0.0000000000000000e+00  -7.2109159142579620e-06 2.0130355843061130e-04 0.0000000000000000e+00  -9.4386862552019434e-06 2.1958787646548681e-04 0.0000000000000000e+00  -8.5701600169757959e-06 2.4584157837815381e-04 0.0000000000000000e+00  -9.4355291287172907e-06 2.7228462316021134e-04 0.0000000000000000e+00  -9.1088352409730611e-06 3.0274572149324095e-04 0.0000000000000000e+00  -1.4212424664915351e-05 3.3776696994449026e-04 0.0000000000000000e+00  -1.3890694416519783e-05 3.7361554405530368e-04 0.0000000000000000e+00  -1.8782782000411851e-05 4.2859465030952576e-04 0.0000000000000000e+00  -2.1768492940135852e-05 4.7392949379995410e-04 0.0000000000000000e+00  -2.0429520580794577e-05 5.4528782806141619e-04 0.0000000000000000e+00  -2.3418210816376666e-05 6.1515936438509284e-04 0.0000000000000000e+00  -2.9871752049882478e-05 7.0306799476654229e-04 0.0000000000000000e+00  -3.8455110372449519e-05 8.1176849271399822e-04 0.0000000000000000e+00  -3.9757603637915470e-05 9.4790024847159551e-04 0.0000000000000000e+00  -4.9195258863269598e-05 1.0951933572115960e-03 0.0000000000000000e+00  -7.4262361048344909e-05 1.2938505668388897e-03 0.0000000000000000e+00  -1.0001060252361256e-04 1.5488258358197988e-03 0.0000000000000000e+00  -1.1467869398201778e-04 1.8657861341602297e-03 0.0000000000000000e+00  -1.4117940590662641e-04 2.1883149780623618e-03 0.0000000000000000e+00  -1.8722708916325996e-04 2.4994452727177601e-03 0.0000000000000000e+00  -2.0927429501539879e-04 2.6097879566490804e-03 0.0000000000000000e+00  -1.8274027309522805e-04 2.2483366944808236e-03 0.0000000000000000e+00  -7.8372874238073415e-05 1.1274354259843606e-03 0.0000000000000000e+00  2.9730957562889795e-05 -9.4773785375164581e-04 0.0000000000000000e+00  -1.8014170861831603e-04 -3.5603579323037760e-03 0.0000000000000000e+00  -6.1937971666909265e-06 -6.6223259851817245e-03 0.0000000000000000e+00  -7.2278347130599993e-06 -8.8257490190252232e-03 0.0000000000000000e+00  -6.1959849991573201e-05 -9.5570975983049426e-03 0.0000000000000000e+00  -4.0786771433920811e-05 -8.3734919094832373e-03 0.0000000000000000e+00  -4.2123589773197879e-05 -5.5501212103951179e-03 0.0000000000000000e+00  -4.6638398499799263e-05 -1.7426778430350953e-03 0.0000000000000000e+00  -3.6399362021397630e-05 1.9537205188400815e-03 0.0000000000000000e+00  2.0221979499581137e-05 5.0983413899841276e-03 0.0000000000000000e+00  -5.8787444079744919e-05 7.1999556598990166e-03 0.0000000000000000e+00  -1.5244011322350314e-05 1.9006848638339571e-04 0.0000000000000000e+00  -7.9011048451234306e-06 1.0375770049196772e-04 0.0000000000000000e+00  -6.3520244836325688e-06 5.2723604053154179e-05 0.0000000000000000e+00  -2.8158232190817334e-05 3.5012711280978532e-04 0.0000000000000000e+00  -7.5034814905018397e-05 7.5669090609868834e-04 0.0000000000000000e+00  9.1692263698795061e-05 7.6628652107606069e-04 0.0000000000000000e+00  -7.7838524475137456e-05 8.2123127487635174e-06 0.0000000000000000e+00  -2.2518462725906562e-04 1.6650368192956168e-03 0.0000000000000000e+00  -4.9251479529475384e-06 2.0337630955091460e-05 0.0000000000000000e+00  2.2966056017910728e-04 1.5244531747812980e-03 0.0000000000000000e+00  -9.2597175588217585e-05 -2.6997835741933593e-06 0.0000000000000000e+00  -3.7550282318875906e-06 -6.3389777575684602e-06 0.0000000000000000e+00  -1.0716441272517314e-03 1.6169312842182490e-03 0.0000000000000000e+00  -4.4037239398446330e-05 1.5995484888548894e-05 0.0000000000000000e+00  5.7567232358412668e-05 4.1730124943506621e-04 0.0000000000000000e+00  2.1363779137543784e-04 2.5937734812688483e-03 0.0000000000000000e+00  -7.8953439119718345e-05 -7.8536460374233942e-06 0.0000000000000000e+00  -9.4809301219703538e-06 1.5729466000301065e-05 0.0000000000000000e+00  3.2793594068476672e-05 2.0385735617523251e-04 0.0000000000000000e+00  -3.8337532645410426e-06 -2.6913735172146574e-05 0.0000000000000000e+00  -6.2536086782849704e-04 -7.7538512085589843e-03 0.0000000000000000e+00  9.4390989198497307e-06 6.6027458741667550e-06 0.0000000000000000e+00  1.7365460243555243e-05 9.7258725370885871e-05 0.0000000000000000e+00  7.1666797721109019e-05 3.1948191576206958e-03 0.0000000000000000e+00  -5.2810764317350530e-05 -1.0326463209201103e-05 0.0000000000000000e+00  1.1586979270189949e-05 3.5742706420077596e-07 0.0000000000000000e+00  9.4535830401126468e-06 5.7439715815472845e-05 0.0000000000000000e+00  -5.3522168252881341e-05 5.0365183409271464e-04 0.0000000000000000e+00  -6.3739965718601177e-06 7.5434731121720968e-05 0.0000000000000000e+00  -2.2947059705080983e-05 2.5716670856498725e-04 0.0000000000000000e+00  -1.0376835343962424e-05 1.3845534396613818e-04 0.0000000000000000e+00  8.3329067835807987e-06 -3.4826368947063049e-06 0.0000000000000000e+00  4.0359302601679241e-06 3.6921772505124730e-05 0.0000000000000000e+00  4.9144452594055083e-04 -6.9955328517798130e-03 0.0000000000000000e+00  -4.3550271563767480e-06 -3.6620056531684151e-05 0.0000000000000000e+00  4.5551690366872935e-06 -5.2057546880144980e-06 0.0000000000000000e+00  4.1117901107854401e-07 -2.8093281615027144e-06 0.0000000000000000e+00  1.9966263639610208e-06 2.6310483910366968e-05 0.0000000000000000e+00  1.9222608976545461e-06 -4.7703232292190988e-06 0.0000000000000000e+00  7.1685281546872881e-04 4.4613152697664813e-03 0.0000000000000000e+00  -3.0819925090702681e-05 -9.1960617405996049e-06 0.0000000000000000e+00  2.7750183301234622e-07 1.6319119558463242e-05 0.0000000000000000e+00  1.9463875448329055e-06 1.1318789129012968e-05 0.0000000000000000e+00  2.4513976808294333e-05 1.3806606628685936e-04 0.0000000000000000e+00  -2.5601869355191216e-05 1.6306797810341130e-05 0.0000000000000000e+00  4.7601720990413884e-05 2.7768005567592788e-04 0.0000000000000000e+00  -6.3375056472889525e-05 1.1504235448491067e-05 0.0000000000000000e+00  7.9707909596245981e-05 5.5801428054869508e-04 0.0000000000000000e+00  -9.1102226576231894e-05 1.6382874547996057e-06 0.0000000000000000e+00  1.4875900371474936e-04 1.2133077416592816e-03 0.0000000000000000e+00  -8.8254379468221195e-05 -5.7066465071177172e-06 0.0000000000000000e+00  2.4597524702745660e-04 2.1008992458038029e-03 0.0000000000000000e+00  -6.6850305956117834e-05 -9.4970934591523594e-06 0.0000000000000000e+00  7.1351700354896136e-05 2.9289884326274473e-03 0.0000000000000000e+00  -1.1464755394383762e-03 -1.9197929882361167e-03 0.0000000000000000e+00  -3.6238677788489154e-06 -1.6981628800249817e-05 0.0000000000000000e+00  8.5394740593897035e-04 1.6341217245715870e-04 0.0000000000000000e+00  -4.7587251287308441e-06 -3.2656807854587703e-05 0.0000000000000000e+00  -5.4685463468186766e-04 2.5211392622705468e-03 0.0000000000000000e+00  -4.3590739847733106e-06 4.4794424960240437e-06 0.0000000000000000e+00  -1.5109000241115696e-04 1.1834941036138642e-03 0.0000000000000000e+00  -4.5048739747505030e-06 3.2361067291663639e-05 0.0000000000000000e+00  6.3403325516769910e-07 -3.8872257388220088e-06 0.0000000000000000e+00  3.3332270478777615e-07 1.9126181723345542e-05 0.0000000000000000e+00  7.4287809784468546e-04 6.2386723371046721e-03 0.0000000000000000e+00  -1.6732157122898597e-05 -9.9719685130696617e-06 0.0000000000000000e+00  1.5689288929840552e-07 -2.0606976145920498e-06 0.0000000000000000e+00  4.5604795846168438e-07 -1.8776535758512515e-06 0.0000000000000000e+00  5.9201091695001789e-04 5.9546597379846865e-03 0.0000000000000000e+00  -5.4234535843255156e-06 -1.7268178210700613e-05 0.0000000000000000e+00  9.5156457054742134e-07 -4.4740791491298702e-06 0.0000000000000000e+00  1.5506546990717730e-06 -3.5707438193717820e-06 0.0000000000000000e+00  2.3644988677329908e-06 -3.6084308732138637e-06 0.0000000000000000e+00  1.8387047285065721e-06 -1.4194702186835351e-06 0.0000000000000000e+00  2.6440707473665646e-06 -1.3099086603337793e-06 0.0000000000000000e+00  1.4911608462776418e-06 -1.2707902993533826e-06 0.0000000000000000e+00  2.0306346163499316e-06 -3.5059215741859689e-06 0.0000000000000000e+00  2.6750173730920890e-06 -2.6244819908866475e-06 0.0000000000000000e+00  1.8912725465044400e-06 -2.9532922696023449e-07 0.0000000000000000e+00  2.9084793330024455e-06 -1.1401124402460797e-06 0.0000000000000000e+00  3.7852759180325550e-06 -1.9233945386571027e-06 0.0000000000000000e+00  3.9046428341105531e-06 -1.6997218665375230e-06 0.0000000000000000e+00  4.2722627421602810e-06 -1.4837784915956559e-06 0.0000000000000000e+00  3.8286066013330235e-06 -1.7291753161868660e-06 0.0000000000000000e+00  4.8197398265792147e-06 -6.9879267895591173e-07 0.0000000000000000e+00  4.9679640212149722e-06 -8.8941953233455740e-07 0.0000000000000000e+00  6.0465965248221382e-06 -1.9137605033683192e-07 0.0000000000000000e+00  6.5699344463028111e-06 -2.9189065198197248e-07 0.0000000000000000e+00  6.9261743080746256e-06 -1.9436683337321978e-07 0.0000000000000000e+00  7.1649711477876319e-06 -9.3351999891763762e-08 0.0000000000000000e+00  7.3471402212552377e-06 -6.3163125537411698e-08 0.0000000000000000e+00  7.5270681758621328e-06 1.8600362188686984e-07 0.0000000000000000e+00  7.4241212114009547e-06 -1.5085458969619851e-07 0.0000000000000000e+00  7.9510531492321812e-06 -2.0836980219185781e-07 0.0000000000000000e+00  7.1333638918154485e-06 -4.2176285724057131e-07 0.0000000000000000e+00  7.6599295445477666e-06 -1.2033512276207739e-06 0.0000000000000000e+00  6.6083196685178265e-06 -1.2749917412108713e-06 0.0000000000000000e+00  7.3026880298492057e-06 -2.7037104330277002e-06 0.0000000000000000e+00  5.8799095045897678e-06 -2.0479730845809667e-06 0.0000000000000000e+00  6.6618963119455577e-06 -4.3599965559501339e-06 0.0000000000000000e+00  4.5231328107969455e-06 -3.3736619092130099e-06 0.0000000000000000e+00  4.8966758672890863e-06 -6.0983530293389840e-06 0.0000000000000000e+00  1.7652447090514318e-06 -5.2023804640824525e-06 0.0000000000000000e+00  2.4110043921388094e-06 -8.7069382051962355e-06 0.0000000000000000e+00  -1.8324112619474206e-06 -7.