<?xml version="1.0"?>
<VTKFile type="UnstructuredGrid"  version="0.1"  >
<UnstructuredGrid>
<Piece  NumberOfPoints="13179" NumberOfCells="25814">
<Points>
<DataArray  type="Float64"  NumberOfComponents="3"  format="ascii">0 0 0  30 0 0  30 -10 0  0 -10 0  0.02360821169319077 0 0  0.04721642338638154 0 0  0.07206717063563725 0 0  0.09691791788489297 0 0  0.1230766011355843 0 0  0.1492352843862757 0 0  0.1767707375239038 0 0  0.204306190661532 0 0  0.2332908770901271 0 0  0.2622755635187223 0 0  0.2927857633803451 0 0  0.323295963241968 0 0  0.3554119623832387 0 0  0.3875279615245094 0 0  0.4213342730081758 0 0  0.4551405844918422 0 0  0.4907261762804851 0 0  0.526311768069128 0 0  0.5637702848355051 0 0  0.6012288016018821 0 0  0.6406588220121138 0 0  0.6800888424223455 0 0  0.721594129780935 0 0  0.7630994171395246 0 0  0.8067891887833475 0 0  0.8504789604271704 0 0  0.8964681941825949 0 0  0.9424574279380195 0 0  0.9908671465681095 0 0  1.039276865198199 0 0  1.090234462786975 0 0  1.141192060375751 0 0  1.194831641933244 0 0  1.248471223490737 0 0  1.304933942963653 0 0  1.361396662436569 0 0  1.420831104471586 0 0  1.480265546506604 0 0  1.542828113436244 0 0  1.605390680365884 0 0  1.671246013469327 0 0  1.73710134657277 0 0  1.806422752814762 0 0  1.875744159056755 0 0  1.948714057431306 0 0  2.021683955805857 0 0  2.098494373901932 0 0  2.175304791998006 0 0  2.256157866653476 0 0  2.337010941308945 0 0  2.422119443935387 0 0  2.50722794656183 0 0  2.596815840700639 0 0  2.686403734839449 0 0  2.780706776094687 0 0  2.875009817349925 0 0  2.974276175689285 0 0  3.073542534028646 0 0  3.178033441002704 0 0  3.282524347976761 0 0  3.392514777963501 0 0  3.502505207950242 0 0  3.618284608533553 0 0  3.734064009116865 0 0  3.855937062816526 0 0  3.977810116516187 0 0  4.106097541496641 0 0  4.234384966477093 0 0  4.369424362562147 0 0  4.5044637586472 0 0  4.646610489729194 0 0  4.788757220811188 0 0  4.938385356669961 0 0  5.088013492528733 0 0  5.24551679218304 0 0  5.403020091837347 0 0  5.568813038399614 0 0  5.73460598496188 0 0  5.909124878408681 0 0  6.083643771855482 0 0  6.267347873338513 0 0  6.451051974821543 0 0  6.644424714363561 0 0  6.83779745390558 0 0  7.041347702348167 0 0  7.244897950790754 0 0  7.459161368238869 0 0  7.673424785686984 0 0  7.898965226038037 0 0  8.124505666389089 0 0  8.361916654054033 0 0  8.599327641718979 0 0  8.849233942517035 0 0  9.099140243315093 0 0  9.362199507946787 0 0  9.625258772578484 0 0  9.902163261537794 0 0  10.1790677504971 0 0  10.47054616023911 0 0  10.76202456998112 0 0  11.06884394887334 0 0  11.37566332776555 0 0  11.69863109504192 0 0  12.02159886231829 0 0  12.3615649378891 0 0  12.7015310134599 0 0  13.05939003847426 0 0  13.41724906348862 0 0  13.79394276982091 0 0  14.1706364761532 0 0  14.5671561683298 0 0  14.96367586050641 0 0  15.38106501332897 0 0  15.79845416615153 0 0  16.23781117165827 0 0  16.677168177165 0 0  17.13964923659526 0 0  17.60213029602552 0 0  18.0889524622663 0 0  18.57577462850707 0 0  19.08821901304263 0 0  19.60066339757818 0 0  20.14007853843172 0 0  20.67949367928525 0 0  21.24729908993883 0 0  21.8151045005924 0 0  22.41279440541421 0 0  23.01048431023601 0 0  23.63963157605829 0 0  24.26877884188056 0 0  24.93103912515648 0 0  25.59329940843241 0 0  26.29041549584691 0 0  26.98753158326142 0 0  27.72133799026916 0 0  28.45514439727691 0 0  29.22757219863846 0 0  30 -0.3571428571428571 0  30 -0.7142857142857142 0  30 -1.071428571428571 0  30 -1.428571428571428 0  30 -1.785714285714286 0  30 -2.142857142857143 0  30 -2.5 0  30 -2.857142857142857 0  30 -3.214285714285714 0  30 -3.571428571428571 0  30 -3.928571428571428 0  30 -4.285714285714286 0  30 -4.642857142857142 0  30 -5 0  30 -5.357142857142857 0  30 -5.714285714285714 0  30 -6.071428571428571 0  30 -6.428571428571428 0  30 -6.785714285714285 0  30 -7.142857142857142 0  30 -7.5 0  30 -7.857142857142857 0  30 -8.214285714285714 0  30 -8.571428571428571 0  30 -8.928571428571427 0  30 -9.285714285714285 0  30 -9.642857142857142 0  29.22757220128658 -10 0  28.45514440257316 -10 0  27.72133799277628 -10 0  26.98753158297939 -10 0  26.29041549304805 -10 0  25.5932994031167 -10 0  24.93103911757599 -10 0  24.26877883203527 -10 0  23.63963156418132 -10 0  23.01048429632737 -10 0  22.41279438968936 -10 0  21.81510448305136 -10 0  21.24729907078059 -10 0  20.67949365850982 -10 0  20.14007851622273 -10 0  19.60066337393564 -10 0  19.08821898813588 -10 0  18.57577460233611 -10 0  18.08895243498708 -10 0  17.60213026763805 -10 0  17.13964920724307 -10 0  16.6771681468481 -10 0  16.2378111405086 -10 0  15.79845413416909 -10 0  15.38106498063496 -10 0  14.96367582710082 -10 0  14.56715613432376 -10 0  14.17063644154669 -10 0  13.79394273471576 -10 0  13.41724902788484 -10 0  13.05939000246495 -10 0  12.70153097704506 -10 0  12.36156490115379 -10 0  12.02159882526251 -10 0  11.69863105774323 -10 0  11.37566329022395 -10 0  11.06884391115945 -10 0  10.76202453209494 -10 0  10.47054612224479 -10 0  10.17906771239465 -10 0  9.902163223385379 -10 0  9.625258734376107 -10 0  9.362199469747061 -10 0  9.099140205118012 -10 0  8.849233904370102 -10 0  8.599327603622193 -10 0  8.361916616050124 -10 0  8.124505628478055 -10 0  7.898965188258209 -10 0  7.673424748038361 -10 0  7.459161330755727 -10 0  7.244897913473093 -10 0  7.041347665226496 -10 0  6.837797416979896 -10 0  6.644424677660922 -10 0  6.451051938341948 -10 0  6.26734783710581 -10 0  6.083643735869675 -10 0  5.90912484269068 -10 0  5.734605949511682 -10 0  5.568813003235423 -10 0  5.403020056959164 -10 0  5.24551675760658 -10 0  5.088013458254 -10 0  4.938385322710374 -10 0  4.788757187166745 -10 0  4.646610456411224 -10 0  4.504463725655707 -10 0  4.369424329906533 -10 0  4.234384934157362 -10 0  4.106097509520442 -10 0  3.977810084883522 -10 0  3.85593703153344 -10 0  3.734063978183357 -10 0  3.618284577954206 -10 0  3.502505177725055 -10 0  3.392514748095728 -10 0  3.282524318466404 -10 0  3.1780334118518 -10 0  3.073542505237196 -10 0  2.97427614725823 -10 0  2.875009789279265 -10 0  2.780706748384375 -10 0  2.686403707489482 -10 0  2.596815813710069 -10 0  2.507227919930656 -10 0  2.422119417661861 -10 0  2.337010915393062 -10 0  2.256157841092762 -10 0  2.175304766792465 -10 0  2.098494349048437 -10 0  2.021683931304413 -10 0  1.948714033278215 -10 0  1.875744135252013 -10 0  1.806422729354161 -10 0  1.737101323456312 -10 0  1.671245990692352 -10 0  1.605390657928396 -10 0  1.542828091333185 -10 0  1.480265524737977 -10 0  1.420831083031992 -10 0  1.36139664132601 -10 0  1.304933922176438 -10 0  1.248471203026863 -10 0  1.194831621786765 -10 0  1.14119204054667 -10 0  1.09023444350921 -10 0  1.039276846471754 -10 0  0.9908671279064798 -10 0  0.942457409341209 -10 0  0.8964681758842019 -10 0  0.8504789424271948 -10 0  0.8067891710751951 -10 0  0.7630993997231954 -10 0  0.7215941126497469 -10 0  0.6800888255762949 -10 0  0.6406588054444597 -10 0  0.6012287853126246 -10 0  0.5637702688178621 -10 0  0.5263117523230996 -10 0  0.4907261607992695 -10 0  0.4551405692754429 -10 0  0.4213342580497894 -10 0  0.3875279468241395 -10 0  0.3554119479341011 -10 0  0.3232959490440663 -10 0  0.2927857494269297 -10 0  0.2622755498097931 -10 0  0.2332908636189828 -10 0  0.2043061774281725 -10 0  0.1767707245216883 -10 0  0.1492352716152006 -10 0  0.1230765885890825 -10 0  0.09691790556296098 -10 0  0.0720671585317838 -10 0  0.04721641150060663 -10 0  0.02360820575030331 -10 0  0 -9.957983193277311 0  0 -9.915966386554622 0  0 -9.873949579831933 0  0 -9.831932773109244 0  0 -9.789915966386555 0  0 -9.747899159663866 0  0 -9.705882352941176 0  0 -9.663865546218487 0  0 -9.621848739495798 0  0 -9.579831932773109 0  0 -9.53781512605042 0  0 -9.495798319327731 0  0 -9.453781512605042 0  0 -9.411764705882353 0  0 -9.369747899159664 0  0 -9.327731092436975 0  0 -9.285714285714286 0  0 -9.243697478991596 0  0 -9.201680672268907 0  0 -9.159663865546218 0  0 -9.117647058823529 0  0 -9.07563025210084 0  0 -9.033613445378151 0  0 -8.991596638655462 0  0 -8.949579831932773 0  0 -8.907563025210084 0  0 -8.865546218487395 0  0 -8.823529411764707 0  0 -8.781512605042018 0  0 -8.739495798319329 0  0 -8.69747899159664 0  0 -8.655462184873949 0  0 -8.61344537815126 0  0 -8.571428571428571 0  0 -8.529411764705882 0  0 -8.487394957983193 0  0 -8.445378151260504 0  0 -8.403361344537815 0  0 -8.361344537815127 0  0 -8.319327731092438 0  0 -8.277310924369749 0  0 -8.235294117647058 0  0 -8.193277310924369 0  0 -8.15126050420168 0  0 -8.109243697478991 0  0 -8.067226890756302 0  0 -8.025210084033613 0  0 -7.983193277310924 0  0 -7.941176470588236 0  0 -7.899159663865547 0  0 -7.857142857142857 0  0 -7.815126050420168 0  0 -7.773109243697479 0  0 -7.73109243697479 0  0 -7.689075630252101 0  0 -7.647058823529411 0  0 -7.605042016806722 0  0 -7.563025210084033 0  0 -7.521008403361344 0  0 -7.478991596638656 0  0 -7.436974789915967 0  0 -7.394957983193278 0  0 -7.352941176470589 0  0 -7.3109243697479 0  0 -7.26890756302521 0  0 -7.226890756302521 0  0 -7.184873949579832 0  0 -7.142857142857143 0  0 -7.100840336134453 0  0 -7.058823529411764 0  0 -7.016806722689076 0  0 -6.974789915966387 0  0 -6.932773109243698 0  0 -6.890756302521009 0  0 -6.84873949579832 0  0 -6.806722689075631 0  0 -6.764705882352941 0  0 -6.722689075630252 0  0 -6.680672268907563 0  0 -6.638655462184874 0  0 -6.596638655462185 0  0 -6.554621848739496 0  0 -6.512605042016807 0  0 -6.470588235294118 0  0 -6.428571428571429 0  0 -6.38655462184874 0  0 -6.344537815126051 0  0 -6.302521008403362 0  0 -6.260504201680672 0  0 -6.218487394957983 0  0 -6.176470588235294 0  0 -6.134453781512605 0  0 -6.092436974789917 0  0 -6.050420168067227 0  0 -6.008403361344538 0  0 -5.966386554621849 0  0 -5.92436974789916 0  0 -5.882352941176471 0  0 -5.840336134453782 0  0 -5.798319327731092 0  0 -5.756302521008403 0  0 -5.714285714285714 0  0 -5.672268907563025 0  0 -5.630252100840336 0  0 -5.588235294117647 0 
[...]
<PointData  Vectors="flow"> 
<DataArray  type="Float64"  Name="flow"  NumberOfComponents="3" format="ascii">-1.2975977830939454e-02 1.3197266952775166e-01 0.0000000000000000e+00  6.5477566602390803e-06 8.8910500083524356e-05 0.0000000000000000e+00  -3.8335666921563215e-06 -1.8289189025478689e-06 0.0000000000000000e+00  -2.0925576950489031e-06 5.8132661470514666e-06 0.0000000000000000e+00  1.0965789164909007e-03 1.2921557494360011e-01 0.0000000000000000e+00  1.7317906377502187e-03 1.2935751537955806e-01 0.0000000000000000e+00  -5.4379033406111584e-04 1.1698341059344838e-01 0.0000000000000000e+00  1.6768738312272632e-03 9.7747633922153285e-02 0.0000000000000000e+00  -9.4052928783464344e-04 8.3736257717416829e-02 0.0000000000000000e+00  -1.9638194455884997e-04 7.3400425127425312e-02 0.0000000000000000e+00  -2.2756574948853251e-04 6.3301665619077740e-02 0.0000000000000000e+00  6.4325082813297620e-04 5.3888999737453668e-02 0.0000000000000000e+00  -9.3678302561824793e-04 4.8177420536985281e-02 0.0000000000000000e+00  5.3653902810857465e-04 4.0794324456284080e-02 0.0000000000000000e+00  -7.0742395985034514e-04 3.7198547102545290e-02 0.0000000000000000e+00  3.9574956176869399e-04 3.0880760071324728e-02 0.0000000000000000e+00  -1.4195444523695455e-04 2.6671659137883046e-02 0.0000000000000000e+00  2.3416756144848809e-05 2.3341753376623538e-02 0.0000000000000000e+00  2.8401281666272127e-04 1.9661944968830159e-02 0.0000000000000000e+00  -2.0637881203981165e-04 1.7413871150545799e-02 0.0000000000000000e+00  -2.4239931556040175e-04 1.5045430325916502e-02 0.0000000000000000e+00  6.8609893758588751e-05 1.2920647766877728e-02 0.0000000000000000e+00  1.3916891949471028e-04 1.1114555302449914e-02 0.0000000000000000e+00  -8.3889725093079135e-05 9.9092083876813775e-03 0.0000000000000000e+00  -5.6062262688017788e-05 8.5826797176097123e-03 0.0000000000000000e+00  1.0602088232106456e-04 7.5105347841998710e-03 0.0000000000000000e+00  -1.4512456022537011e-04 6.7253674815808736e-03 0.0000000000000000e+00  1.4534984138312566e-05 5.8071258645295883e-03 0.0000000000000000e+00  5.1506481087027940e-05 5.0732056480667226e-03 0.0000000000000000e+00  -3.1988376533996290e-05 4.5865192637848089e-03 0.0000000000000000e+00  1.3246535770842286e-05 3.9521762990097830e-03 0.0000000000000000e+00  -1.1134669947305769e-05 3.5131274481285933e-03 0.0000000000000000e+00  2.4821842038685602e-05 3.0877340426514830e-03 0.0000000000000000e+00  -8.6042197528382757e-06 2.7253455912955851e-03 0.0000000000000000e+00  8.8506002913442358e-06 2.4238180159953317e-03 0.0000000000000000e+00  1.7750112528919709e-06 2.1213237617708292e-03 0.0000000000000000e+00  -3.7958987915843235e-06 1.8550087509468965e-03 0.0000000000000000e+00  2.4417402373949308e-06 1.6254856510640977e-03 0.0000000000000000e+00  -3.7352038642957646e-07 1.4252075702902685e-03 0.0000000000000000e+00  8.7817572541907083e-06 1.2417819522163144e-03 0.0000000000000000e+00  -8.5173131006628247e-06 1.0798961440483556e-03 0.0000000000000000e+00  -1.6080717830799263e-05 9.1541713856569068e-04 0.0000000000000000e+00  1.0524598085991815e-05 8.0546002957585774e-04 0.0000000000000000e+00  -1.2120413781785644e-05 6.7800394363462665e-04 0.0000000000000000e+00  8.5955906212882861e-06 5.8930620054169062e-04 0.0000000000000000e+00  -4.5486227624743721e-07 4.6378413890657896e-04 0.0000000000000000e+00  -6.3837082172939990e-07 3.7344820915752568e-04 0.0000000000000000e+00  -6.3588325452347922e-07 2.9791542624437741e-04 0.0000000000000000e+00  -5.6578731763454105e-06 2.2372537555731550e-04 0.0000000000000000e+00  5.7782228503632167e-06 1.6056760970840374e-04 0.0000000000000000e+00  -1.6548651199070207e-05 1.2081850592746883e-04 0.0000000000000000e+00  1.2521505242050814e-05 6.7810134862084001e-05 0.0000000000000000e+00  -1.6010622344255318e-06 2.8077473138984942e-06 0.0000000000000000e+00  6.1187397321206460e-07 -4.5904167660034632e-05 0.0000000000000000e+00  -2.9779339946291720e-06 -7.0815295854449885e-05 0.0000000000000000e+00  -5.4298286025817256e-06 -9.7295310808304477e-05 0.0000000000000000e+00  6.1627854002538143e-06 -1.3620395594019817e-04 0.0000000000000000e+00  -5.6750323460265427e-06 -1.7159286330201116e-04 0.0000000000000000e+00  -1.2436838845421975e-06 -2.0330559248289963e-04 0.0000000000000000e+00  2.7125441639190689e-06 -2.2596049688603705e-04 0.0000000000000000e+00  -3.8468771134564024e-06 -2.3095137578628422e-04 0.0000000000000000e+00  -6.0715255509843666e-06 -2.3245018446259387e-04 0.0000000000000000e+00  -1.0865532683560628e-06 -2.5700700326742888e-04 0.0000000000000000e+00  6.9778912788563694e-06 -2.7614012276628506e-04 0.0000000000000000e+00  -4.1097845435564790e-06 -2.8583244004201338e-04 0.0000000000000000e+00  -8.1005807195885990e-06 -2.9387635324414774e-04 0.0000000000000000e+00  3.8357535464817775e-06 -2.9558632339099597e-04 0.0000000000000000e+00  -5.8329282289756964e-06 -2.9732102237174369e-04 0.0000000000000000e+00  -8.5656652693940847e-06 -2.8880855037179923e-04 0.0000000000000000e+00  8.2206104708340680e-06 -2.8986843468303049e-04 0.0000000000000000e+00  -4.4388731363632000e-06 -2.8665641671873161e-04 0.0000000000000000e+00  -3.9083262646448596e-06 -2.7250007246988774e-04 0.0000000000000000e+00  -3.4944999485254827e-06 -2.7420769478029585e-04 0.0000000000000000e+00  3.6203714941515467e-06 -2.8161109517933877e-04 0.0000000000000000e+00  -3.0190883374867237e-06 -2.7734856805418053e-04 0.0000000000000000e+00  -6.3816021127945932e-07 -2.7247770927242131e-04 0.0000000000000000e+00  -4.6681910635058488e-06 -2.6203863315987731e-04 0.0000000000000000e+00  -9.9260931847637150e-07 -2.5102356706024393e-04 0.0000000000000000e+00  -2.9597069161999679e-06 -2.4098625820955224e-04 0.0000000000000000e+00  1.7803711094269150e-06 -2.3289820519166796e-04 0.0000000000000000e+00  -9.5948300786940323e-08 -2.2415171922091171e-04 0.0000000000000000e+00  -7.3982814484256768e-06 -2.1424188001126969e-04 0.0000000000000000e+00  3.1678627738418149e-05 -2.1970479141110200e-04 0.0000000000000000e+00  -2.8595522388029352e-05 -2.0678133547222371e-04 0.0000000000000000e+00  -2.0446888388772611e-06 -1.7403987690025235e-04 0.0000000000000000e+00  7.2001110023107675e-07 -1.6111121078090979e-04 0.0000000000000000e+00  2.1100467937617049e-06 -1.4960737340652549e-04 0.0000000000000000e+00  -7.9694164950674921e-06 -1.3058427614883800e-04 0.0000000000000000e+00  6.2566194333802797e-06 -1.2355812882867430e-04 0.0000000000000000e+00  2.6876799331267971e-06 -1.2221734492552175e-04 0.0000000000000000e+00  -4.2511468620088631e-06 -1.0859116313824474e-04 0.0000000000000000e+00  -4.3359732135098179e-06 -8.6179809393869937e-05 0.0000000000000000e+00  1.9954498651296146e-06 -7.0906562164364852e-05 0.0000000000000000e+00  -1.0794645351502475e-06 -5.9170835895524284e-05 0.0000000000000000e+00  -1.0254713269680332e-06 -4.4457842886026944e-05 0.0000000000000000e+00  4.0850839544371032e-07 -3.1911093165641495e-05 0.0000000000000000e+00  2.3428848655837352e-07 -1.9909966525861836e-05 0.0000000000000000e+00  -1.2637656746984423e-06 -5.6999979197411405e-06 0.0000000000000000e+00  3.0745259066952538e-07 5.5475574005184414e-06 0.0000000000000000e+00  -5.2723646426206399e-07 1.6857730989545768e-05 0.0000000000000000e+00  1.8423404456826255e-06 2.5416284761943784e-05 0.0000000000000000e+00  -1.2547647517223702e-06 3.6404700129568930e-05 0.0000000000000000e+00  6.4858907592893933e-07 4.8282923473764841e-05 0.0000000000000000e+00  -7.7336501181714148e-07 5.6378704272610724e-05 0.0000000000000000e+00  9.0815456660036179e-07 6.7402126399804038e-05 0.0000000000000000e+00  -4.7108504755721785e-06 7.7580918445851124e-05 0.0000000000000000e+00  -1.8066402370362246e-06 7.0833685362856736e-05 0.0000000000000000e+00  9.9046980561607727e-06 8.9603890799476693e-05 0.0000000000000000e+00  -1.3987032271382567e-05 9.8542117013530477e-05 0.0000000000000000e+00  1.6771802241370959e-05 9.6618585072537837e-05 0.0000000000000000e+00  -1.2227106029555587e-05 9.9554481120518008e-05 0.0000000000000000e+00  -1.9932589843160935e-06 9.0411962629614583e-05 0.0000000000000000e+00  1.2710554957690239e-05 1.1678600264380239e-04 0.0000000000000000e+00  -3.7420836742998556e-06 1.1408136125359764e-04 0.0000000000000000e+00  -4.1316283140286886e-07 1.1621605284300329e-04 0.0000000000000000e+00  1.1256373769492840e-05 1.0157182844930793e-04 0.0000000000000000e+00  -5.4726223591156423e-06 9.9234724995762229e-05 0.0000000000000000e+00  -2.4603922384432250e-06 1.1059543949195576e-04 0.0000000000000000e+00  8.3566158381771055e-07 1.1600716249131846e-04 0.0000000000000000e+00  -1.9956145778701259e-06 1.1531542609222727e-04 0.0000000000000000e+00  1.0468918970706806e-05 1.0061517885618531e-04 0.0000000000000000e+00  -4.5936870923428899e-06 9.7211890001053109e-05 0.0000000000000000e+00  -4.6724154787467856e-07 1.0295629096552898e-04 0.0000000000000000e+00  1.1967332717308973e-06 1.0327883980958170e-04 0.0000000000000000e+00  5.6990998949219852e-07 1.0078086399920323e-04 0.0000000000000000e+00  5.8967233821525444e-07 9.7935300191050528e-05 0.0000000000000000e+00  7.2504134785985555e-07 9.4568584224038701e-05 0.0000000000000000e+00  2.0191092995899036e-06 8.9471770065286342e-05 0.0000000000000000e+00  3.4103668661590295e-07 8.5241483576880517e-05 0.0000000000000000e+00  -1.4126363556916408e-06 8.4988932927697666e-05 0.0000000000000000e+00  6.1092412691828547e-07 8.4607022882279064e-05 0.0000000000000000e+00  5.1545284767113314e-07 8.0902116744583339e-05 0.0000000000000000e+00  2.7527492864101090e-06 7.4615230164307850e-05 0.0000000000000000e+00  -5.8121392654405355e-07 7.1217974475023372e-05 0.0000000000000000e+00  -2.2337983763491725e-06 7.1780673559430176e-05 0.0000000000000000e+00  5.7086962737304791e-06 6.1506366030346295e-05 0.0000000000000000e+00  1.1563094749045290e-06 5.3389125831451819e-05 0.0000000000000000e+00  -3.5592824396013026e-06 5.5191538544259454e-05 0.0000000000000000e+00  7.8174672508703099e-07 6.0230655986722947e-05 0.0000000000000000e+00  -2.0031807786492437e-07 5.8958306591837340e-05 0.0000000000000000e+00  -7.0585022032414873e-06 5.8687525413734732e-05 0.0000000000000000e+00  3.0560322175857456e-05 8.4056116835282527e-06 0.0000000000000000e+00  2.9285821211107256e-05 -2.8810650602661887e-05 0.0000000000000000e+00  -1.5622130030400696e-05 2.5500036840586601e-05 0.0000000000000000e+00  8.8210353342317079e-06 -1.4952876205965336e-05 0.0000000000000000e+00  -4.5337567010781880e-06 5.4799312061796978e-06 0.0000000000000000e+00  1.4743810948766669e-06 -3.7116337757213824e-06 0.0000000000000000e+00  3.8858513928716138e-07 -7.7405259798078411e-08 0.0000000000000000e+00  -7.8292484161207941e-07 -5.9923317132800225e-07 0.0000000000000000e+00  1.0961545748078466e-07 -1.4261976959059509e-06 0.0000000000000000e+00  5.3210408112154937e-07 -4.4978354142757094e-08 0.0000000000000000e+00  2.7970001562863958e-07 -1.5288318385604641e-06 0.0000000000000000e+00  -2.6246192942215628e-08 -1.7079172285638359e-07 0.0000000000000000e+00  1.6397683486607731e-07 -1.7337049940731224e-06 0.0000000000000000e+00  -6.1306979973840342e-08 -2.8099922210289166e-07 0.0000000000000000e+00  3.7570168866313261e-07 -1.6410939356832394e-06 0.0000000000000000e+00  1.8910928436057617e-08 -7.4830602653553938e-07 0.0000000000000000e+00  2.7463068390889304e-07 -9.3084702826118226e-07 0.0000000000000000e+00  6.8357035903060357e-07 -7.9325173519889015e-07 0.0000000000000000e+00  -1.9807430953025968e-07 -1.2853824157708441e-06 0.0000000000000000e+00  -8.8446195872926088e-07 -3.4407579189876609e-07 0.0000000000000000e+00  -1.1741183408810751e-06 -1.2655461474980630e-06 0.0000000000000000e+00  1.9473577098865271e-06 -8.4551173245285038e-07 0.0000000000000000e+00  -1.1215413671591835e-06 -7.7843034668758344e-07 0.0000000000000000e+00  -4.0475828967098878e-08 -4.2374714267634811e-07 0.0000000000000000e+00  -4.5551541608614382e-07 -1.4194413607574516e-06 0.0000000000000000e+00  1.1146619537178355e-07 -2.3177088989286215e-07 0.0000000000000000e+00  -6.3873558961670037e-06 2.8566578124162005e-07 0.0000000000000000e+00  -5.0820050298065629e-07 -6.4361470460747912e-06 0.0000000000000000e+00  -8.4146356673991090e-07 -6.9950641677259169e-06 0.0000000000000000e+00  1.3359759618829289e-06 -8.3265202796698915e-06 0.0000000000000000e+00  -1.0573620968501328e-06 -5.7918590825301808e-06 0.0000000000000000e+00  1.2984883567384083e-07 -5.1428082706226106e-06 0.0000000000000000e+00  1.0810243165919621e-06 -5.3382178804555229e-06 0.0000000000000000e+00  -7.3100226014951403e-07 -7.1322760099670846e-06 0.0000000000000000e+00  5.3601098581573388e-07 -5.8155020743736289e-06 0.0000000000000000e+00  -1.3921575233303927e-07 -6.0769487951591053e-06 0.0000000000000000e+00  -2.6560649478953560e-07 -6.2423212776862165e-06 0.0000000000000000e+00  -4.6393129857897968e-07 -6.5481608233320311e-06 0.0000000000000000e+00  -2.4170926589054518e-07 -7.2067421166236956e-06 0.0000000000000000e+00  -4.1941189056996243e-07 -7.6842527525085027e-06 0.0000000000000000e+00  -2.7944621005277248e-07 -8.3447049854001643e-06 0.0000000000000000e+00  -3.5845966479659276e-07 -9.8084926521202789e-06 0.0000000000000000e+00  -5.0849581117457755e-07 -1.0282532777348701e-05 0.0000000000000000e+00  -1.2180130366806477e-07 -1.1140500107265419e-05 0.0000000000000000e+00  -1.9291399726094281e-07 -1.1531572038006378e-05 0.0000000000000000e+00  -1.4992491823372178e-08 -1.1799057017236634e-05 0.0000000000000000e+00  -3.4552085571685406e-07 -1.2732842977552714e-05 0.0000000000000000e+00  3.5533747765251258e-07 -1.3043936706087120e-05 0.0000000000000000e+00  -3.0911160181883250e-07 -1.4528258089321972e-05 0.0000000000000000e+00  6.3649016767344771e-07 -1.6588769614046382e-05 0.0000000000000000e+00  -3.2897245683249360e-07 -1.6143325130126894e-05 0.0000000000000000e+00  2.5081372003338225e-06 -1.6955844831358841e-05 0.0000000000000000e+00  -5.9626290069904285e-07 -1.6092537317589135e-05 0.0000000000000000e+00  3.7942765752233838e-06 -1.8077706650269573e-05 0.0000000000000000e+00  -1.2224229002702152e-06 -1.7279431358494810e-05 0.0000000000000000e+00  1.0266919574552389e-05 -2.0527882386276363e-05 0.0000000000000000e+00  1.2157558880569657e-06 -2.8260116489812883e-05 0.0000000000000000e+00  -4.4321290700426694e-06 -2.6363748672025482e-05 0.0000000000000000e+00  8.4696294702457384e-06 -1.7556353395712131e-05 0.0000000000000000e+00  3.3593066016263994e-07 -2.3949482810315091e-05 0.0000000000000000e+00  8.1629816477867704e-06 -2.3174380384799348e-05 0.0000000000000000e+00  3.0057930404617751e-06 -2.6097621229382021e-05 0.0000000000000000e+00  1.0784780451929446e-05 -2.8724764380694450e-05 0.0000000000000000e+00  4.6262603419353845e-06 -2.6458830061891359e-05 0.0000000000000000e+00  1.8638467050988291e-05 -3.0856118353905029e-05 0.0000000000000000e+00  1.6368666440932653e-07 -3.8090239840455692e-05 0.0000000000000000e+00  1.3688115253367031e-05 -2.5514528527092280e-05 0.0000000000000000e+00  9.6832131804829289e-06 -2.6172606179089525e-05 0.0000000000000000e+00  1.5488341245720525e-05 -2.2587822801091023e-05 0.0000000000000000e+00  1.1347267152173057e-05 -2.4348735262074669e-05 0.0000000000000000e+00  1.5967062600435369e-05 -2.3087167641471378e-05 0.0000000000000000e+00  1.5698428305777978e-05 -2.2975108453275077e-05 0.0000000000000000e+00  1.7526292854601630e-05 -2.1663223406760467e-05 0.0000000000000000e+00  1.7663688723193778e-05 -2.1393850538540006e-05 0.0000000000000000e+00  1.9469232012132304e-05 -2.0850658488004055e-05 0.0000000000000000e+00  2.0664784725990416e-05 -1.9457006897855646e-05 0.0000000000000000e+00  2.1192679864316448e-05 -1.8560190273530383e-05 0.0000000000000000e+00  2.2268298471178163e-05 -1.7425977578661169e-05 0.0000000000000000e+00  2.3857116035843113e-05 -1.6305142986566324e-05 0.0000000000000000e+00  2.4708198572538747e-05 -1.4532985758519001e-05 0.0000000000000000e+00  2.5306000328028533e-05 -1.3341325100231723e-05 0.0000000000000000e+00  2.6337616978110256e-05 -1.1621125623477400e-05 0.0000000000000000e+00  2.6660311868654018e-05 -1.0287848327828838e-05 0.0000000000000000e+00  2.8208379002191550e-05 -8.8704468612317163e-06 0.0000000000000000e+00  2.7409634703949156e-05 -7.2083675529196765e-06 0.0000000000000000e+00  2.9413850382485855e-05 -6.6245274067860698e-06 0.0000000000000000e+00  3.2666112205266449e-05 -3.5324143746156791e-06 0.0000000000000000e+00  2.7385085713215642e-05 -3.8875754583216069e-06 0.0000000000000000e+00  3.1597255090430003e-05 -5.0047684051439905e-07 0.0000000000000000e+00  3.0417465679282526e-05 -3.0839007089127640e-07 0.0000000000000000e+00  3.1931205868605505e-05 1.2268238355100371e-06 0.0000000000000000e+00  3.1744336930066766e-05 2.6215224462488292e-06 0.0000000000000000e+00  3.2221989883087556e-05 3.6105397168348345e-06 0.0000000000000000e+00  3.2157938088251248e-05 5.1536295339051068e-06 0.0000000000000000e+00  3.2414914787912540e-05 5.6640479121085393e-06 0.0000000000000000e+00  3.1560206104767201e-05 7.0581898949266748e-06 0.0000000000000000e+00  3.2339400071982084e-05 6.8740142911707805e-06 0.0000000000000000e+00  3.1523800868285361e-05 8.2063574135915554e-06 0.0000000000000000e+00  3.2453488823409230e-05 8.0370811742991545e-06 0.0000000000000000e+00  3.1631054421506929e-05 9.1250271934619139e-06 0.0000000000000000e+00  3.1841211239801234e-05 9.1606258730757867e-06 0.0000000000000000e+00  3.1361220022904112e-05 1.0007828338263071e-05 0.0000000000000000e+00  3.1826611878189158e-05 1.0483722114621806e-05 0.0000000000000000e+00  3.0244813239289004e-05 1.1167858981667313e-05 0.0000000000000000e+00  3.0365443743271858e-05 1.0779764022320619e-05 0.0000000000000000e+00  2.9488315445468764e-05 1.1361397093764033e-05 0.0000000000000000e+00  2.8771595626927330e-05 1.0738863937825408e-05 0.0000000000000000e+00  2.9468164544939255e-05 1.1018622385542882e-05 0.0000000000000000e+00  2.8518717455714895e-05 1.1328568810062410e-05 0.0000000000000000e+00  2.8333742811739416e-05 1.1331458130901732e-05 0.0000000000000000e+00  2.8112177080795443e-05 1.1594173690959118e-05 0.0000000000000000e+00  2.6753025645250446e-05 1.1525713018315230e-05 0.0000000000000000e+00  2.6478285412487880e-05 1.1297495533448761e-05 0.0000000000000000e+00  2.5764275719777372e-05 1.1189199961875387e-05 0.0000000000000000e+00  2.4471826249389217e-05 1.1000284734722562e-05 0.0000000000000000e+00  2.4921531290107897e-05 1.0981795072442007e-05 0.0000000000000000e+00  2.2103810390432834e-05 1.1672747762629366e-05 0.0000000000000000e+00  2.4040624199495237e-05 1.1333629052497002e-05 0.0000000000000000e+00  2.5170355602180715e-05 1.2760861843860689e-05 0.0000000000000000e+00  2.0143773466530468e-05 1.4461700217967187e-05 0.0000000000000000e+00  2.0351123814023347e-05 1.2998133845848152e-05 0.0000000000000000e+00  2.1536459782000421e-05 1.2320817687844530e-05 0.0000000000000000e+00  1.8514565048219415e-05 1.2751967250016466e-05 0.0000000000000000e+00  1.9354194481627239e-05 1.1224644435533321e-05 0.0000000000000000e+00  1.8819844688492733e-05 1.1174427511840214e-05 0.0000000000000000e+00  1.6888793720048649e-05 1.0362300655426579e-05 0.0000000000000000e+00  1.8646495335496176e-05 1.0192025938383814e-05 0.0000000000000000e+00  1.7424614067584038e-05 9.8107222539705736e-06 0.0000000000000000e+00  1.6112722895709840e-05 9.6029725211073978e-06 0.0000000000000000e+00  1.5596146331178895e-05 9.2871590611757223e-06 0.0000000000000000e+00  1.4704160796336229e-05 8.8991082587316681e-06 0.0000000000000000e+00  1.4650649949085053e-05 8.7821159150910802e-06 0.0000000000000000e+00  1.4390389357697455e-05 8.7466853585888481e-06 0.0000000000000000e+00  1.3511169637373698e-05 8.7750275461125550e-06 0.0000000000000000e+00  1.2173211313918551e-05 8.3114256458317511e-06 0.0000000000000000e+00  1.1479547630756667e-05 7.6685920576417656e-06 0.0000000000000000e+00  1.1035536016593716e-05 7.3978450971423144e-06 0.0000000000000000e+00  1.1111627991720087e-05 7.3094194249921907e-06 0.0000000000000000e+00  1.0668373319086343e-05 7.1881029393417604e-06 0.0000000000000000e+00  1.0102795347678443e-05 7.0453277661424576e-06 0.