<?xml version="1.0"?>
<VTKFile type="UnstructuredGrid"  version="0.1"  >
<UnstructuredGrid>
<Piece  NumberOfPoints="13179" NumberOfCells="25814">
<Points>
<DataArray  type="Float64"  NumberOfComponents="3"  format="ascii">0 0 0  30 0 0  30 -10 0  0 -10 0  0.02360821169319077 0 0  0.04721642338638154 0 0  0.07206717063563725 0 0  0.09691791788489297 0 0  0.1230766011355843 0 0  0.1492352843862757 0 0  0.1767707375239038 0 0  0.204306190661532 0 0  0.2332908770901271 0 0  0.2622755635187223 0 0  0.2927857633803451 0 0  0.323295963241968 0 0  0.3554119623832387 0 0  0.3875279615245094 0 0  0.4213342730081758 0 0  0.4551405844918422 0 0  0.4907261762804851 0 0  0.526311768069128 0 0  0.5637702848355051 0 0  0.6012288016018821 0 0  0.6406588220121138 0 0  0.6800888424223455 0 0  0.721594129780935 0 0  0.7630994171395246 0 0  0.8067891887833475 0 0  0.8504789604271704 0 0  0.8964681941825949 0 0  0.9424574279380195 0 0  0.9908671465681095 0 0  1.039276865198199 0 0  1.090234462786975 0 0  1.141192060375751 0 0  1.194831641933244 0 0  1.248471223490737 0 0  1.304933942963653 0 0  1.361396662436569 0 0  1.420831104471586 0 0  1.480265546506604 0 0  1.542828113436244 0 0  1.605390680365884 0 0  1.671246013469327 0 0  1.73710134657277 0 0  1.806422752814762 0 0  1.875744159056755 0 0  1.948714057431306 0 0  2.021683955805857 0 0  2.098494373901932 0 0  2.175304791998006 0 0  2.256157866653476 0 0  2.337010941308945 0 0  2.422119443935387 0 0  2.50722794656183 0 0  2.596815840700639 0 0  2.686403734839449 0 0  2.780706776094687 0 0  2.875009817349925 0 0  2.974276175689285 0 0  3.073542534028646 0 0  3.178033441002704 0 0  3.282524347976761 0 0  3.392514777963501 0 0  3.502505207950242 0 0  3.618284608533553 0 0  3.734064009116865 0 0  3.855937062816526 0 0  3.977810116516187 0 0  4.106097541496641 0 0  4.234384966477093 0 0  4.369424362562147 0 0  4.5044637586472 0 0  4.646610489729194 0 0  4.788757220811188 0 0  4.938385356669961 0 0  5.088013492528733 0 0  5.24551679218304 0 0  5.403020091837347 0 0  5.568813038399614 0 0  5.73460598496188 0 0  5.909124878408681 0 0  6.083643771855482 0 0  6.267347873338513 0 0  6.451051974821543 0 0  6.644424714363561 0 0  6.83779745390558 0 0  7.041347702348167 0 0  7.244897950790754 0 0  7.459161368238869 0 0  7.673424785686984 0 0  7.898965226038037 0 0  8.124505666389089 0 0  8.361916654054033 0 0  8.599327641718979 0 0  8.849233942517035 0 0  9.099140243315093 0 0  9.362199507946787 0 0  9.625258772578484 0 0  9.902163261537794 0 0  10.1790677504971 0 0  10.47054616023911 0 0  10.76202456998112 0 0  11.06884394887334 0 0  11.37566332776555 0 0  11.69863109504192 0 0  12.02159886231829 0 0  12.3615649378891 0 0  12.7015310134599 0 0  13.05939003847426 0 0  13.41724906348862 0 0  13.79394276982091 0 0  14.1706364761532 0 0  14.5671561683298 0 0  14.96367586050641 0 0  15.38106501332897 0 0  15.79845416615153 0 0  16.23781117165827 0 0  16.677168177165 0 0  17.13964923659526 0 0  17.60213029602552 0 0  18.0889524622663 0 0  18.57577462850707 0 0  19.08821901304263 0 0  19.60066339757818 0 0  20.14007853843172 0 0  20.67949367928525 0 0  21.24729908993883 0 0  21.8151045005924 0 0  22.41279440541421 0 0  23.01048431023601 0 0  23.63963157605829 0 0  24.26877884188056 0 0  24.93103912515648 0 0  25.59329940843241 0 0  26.29041549584691 0 0  26.98753158326142 0 0  27.72133799026916 0 0  28.45514439727691 0 0  29.22757219863846 0 0  30 -0.3571428571428571 0  30 -0.7142857142857142 0  30 -1.071428571428571 0  30 -1.428571428571428 0  30 -1.785714285714286 0  30 -2.142857142857143 0  30 -2.5 0  30 -2.857142857142857 0  30 -3.214285714285714 0  30 -3.571428571428571 0  30 -3.928571428571428 0  30 -4.285714285714286 0  30 -4.642857142857142 0  30 -5 0  30 -5.357142857142857 0  30 -5.714285714285714 0  30 -6.071428571428571 0  30 -6.428571428571428 0  30 -6.785714285714285 0  30 -7.142857142857142 0  30 -7.5 0  30 -7.857142857142857 0  30 -8.214285714285714 0  30 -8.571428571428571 0  30 -8.928571428571427 0  30 -9.285714285714285 0  30 -9.642857142857142 0  29.22757220128658 -10 0  28.45514440257316 -10 0  27.72133799277628 -10 0  26.98753158297939 -10 0  26.29041549304805 -10 0  25.5932994031167 -10 0  24.93103911757599 -10 0  24.26877883203527 -10 0  23.63963156418132 -10 0  23.01048429632737 -10 0  22.41279438968936 -10 0  21.81510448305136 -10 0  21.24729907078059 -10 0  20.67949365850982 -10 0  20.14007851622273 -10 0  19.60066337393564 -10 0  19.08821898813588 -10 0  18.57577460233611 -10 0  18.08895243498708 -10 0  17.60213026763805 -10 0  17.13964920724307 -10 0  16.6771681468481 -10 0  16.2378111405086 -10 0  15.79845413416909 -10 0  15.38106498063496 -10 0  14.96367582710082 -10 0  14.56715613432376 -10 0  14.17063644154669 -10 0  13.79394273471576 -10 0  13.41724902788484 -10 0  13.05939000246495 -10 0  12.70153097704506 -10 0  12.36156490115379 -10 0  12.02159882526251 -10 0  11.69863105774323 -10 0  11.37566329022395 -10 0  11.06884391115945 -10 0  10.76202453209494 -10 0  10.47054612224479 -10 0  10.17906771239465 -10 0  9.902163223385379 -10 0  9.625258734376107 -10 0  9.362199469747061 -10 0  9.099140205118012 -10 0  8.849233904370102 -10 0  8.599327603622193 -10 0  8.361916616050124 -10 0  8.124505628478055 -10 0  7.898965188258209 -10 0  7.673424748038361 -10 0  7.459161330755727 -10 0  7.244897913473093 -10 0  7.041347665226496 -10 0  6.837797416979896 -10 0  6.644424677660922 -10 0  6.451051938341948 -10 0  6.26734783710581 -10 0  6.083643735869675 -10 0  5.90912484269068 -10 0  5.734605949511682 -10 0  5.568813003235423 -10 0  5.403020056959164 -10 0  5.24551675760658 -10 0  5.088013458254 -10 0  4.938385322710374 -10 0  4.788757187166745 -10 0  4.646610456411224 -10 0  4.504463725655707 -10 0  4.369424329906533 -10 0  4.234384934157362 -10 0  4.106097509520442 -10 0  3.977810084883522 -10 0  3.85593703153344 -10 0  3.734063978183357 -10 0  3.618284577954206 -10 0  3.502505177725055 -10 0  3.392514748095728 -10 0  3.282524318466404 -10 0  3.1780334118518 -10 0  3.073542505237196 -10 0  2.97427614725823 -10 0  2.875009789279265 -10 0  2.780706748384375 -10 0  2.686403707489482 -10 0  2.596815813710069 -10 0  2.507227919930656 -10 0  2.422119417661861 -10 0  2.337010915393062 -10 0  2.256157841092762 -10 0  2.175304766792465 -10 0  2.098494349048437 -10 0  2.021683931304413 -10 0  1.948714033278215 -10 0  1.875744135252013 -10 0  1.806422729354161 -10 0  1.737101323456312 -10 0  1.671245990692352 -10 0  1.605390657928396 -10 0  1.542828091333185 -10 0  1.480265524737977 -10 0  1.420831083031992 -10 0  1.36139664132601 -10 0  1.304933922176438 -10 0  1.248471203026863 -10 0  1.194831621786765 -10 0  1.14119204054667 -10 0  1.09023444350921 -10 0  1.039276846471754 -10 0  0.9908671279064798 -10 0  0.942457409341209 -10 0  0.8964681758842019 -10 0  0.8504789424271948 -10 0  0.8067891710751951 -10 0  0.7630993997231954 -10 0  0.7215941126497469 -10 0  0.6800888255762949 -10 0  0.6406588054444597 -10 0  0.6012287853126246 -10 0  0.5637702688178621 -10 0  0.5263117523230996 -10 0  0.4907261607992695 -10 0  0.4551405692754429 -10 0  0.4213342580497894 -10 0  0.3875279468241395 -10 0  0.3554119479341011 -10 0  0.3232959490440663 -10 0  0.2927857494269297 -10 0  0.2622755498097931 -10 0  0.2332908636189828 -10 0  0.2043061774281725 -10 0  0.1767707245216883 -10 0  0.1492352716152006 -10 0  0.1230765885890825 -10 0  0.09691790556296098 -10 0  0.0720671585317838 -10 0  0.04721641150060663 -10 0  0.02360820575030331 -10 0  0 -9.957983193277311 0  0 -9.915966386554622 0  0 -9.873949579831933 0  0 -9.831932773109244 0  0 -9.789915966386555 0  0 -9.747899159663866 0  0 -9.705882352941176 0  0 -9.663865546218487 0  0 -9.621848739495798 0  0 -9.579831932773109 0  0 -9.53781512605042 0  0 -9.495798319327731 0  0 -9.453781512605042 0  0 -9.411764705882353 0  0 -9.369747899159664 0  0 -9.327731092436975 0  0 -9.285714285714286 0  0 -9.243697478991596 0  0 -9.201680672268907 0  0 -9.159663865546218 0  0 -9.117647058823529 0  0 -9.07563025210084 0  0 -9.033613445378151 0  0 -8.991596638655462 0  0 -8.949579831932773 0  0 -8.907563025210084 0  0 -8.865546218487395 0  0 -8.823529411764707 0  0 -8.781512605042018 0  0 -8.739495798319329 0  0 -8.69747899159664 0  0 -8.655462184873949 0  0 -8.61344537815126 0  0 -8.571428571428571 0  0 -8.529411764705882 0  0 -8.487394957983193 0  0 -8.445378151260504 0  0 -8.403361344537815 0  0 -8.361344537815127 0  0 -8.319327731092438 0  0 -8.277310924369749 0  0 -8.235294117647058 0  0 -8.193277310924369 0  0 -8.15126050420168 0  0 -8.109243697478991 0  0 -8.067226890756302 0  0 -8.025210084033613 0  0 -7.983193277310924 0  0 -7.941176470588236 0  0 -7.899159663865547 0  0 -7.857142857142857 0  0 -7.815126050420168 0  0 -7.773109243697479 0  0 -7.73109243697479 0  0 -7.689075630252101 0  0 -7.647058823529411 0  0 -7.605042016806722 0  0 -7.563025210084033 0  0 -7.521008403361344 0  0 -7.478991596638656 0  0 -7.436974789915967 0  0 -7.394957983193278 0  0 -7.352941176470589 0  0 -7.3109243697479 0  0 -7.26890756302521 0  0 -7.226890756302521 0  0 -7.184873949579832 0  0 -7.142857142857143 0  0 -7.100840336134453 0  0 -7.058823529411764 0  0 -7.016806722689076 0  0 -6.974789915966387 0  0 -6.932773109243698 0  0 -6.890756302521009 0  0 -6.84873949579832 0  0 -6.806722689075631 0  0 -6.764705882352941 0  0 -6.722689075630252 0  0 -6.680672268907563 0  0 -6.638655462184874 0  0 -6.596638655462185 0  0 -6.554621848739496 0  0 -6.512605042016807 0  0 -6.470588235294118 0  0 -6.428571428571429 0  0 -6.38655462184874 0  0 -6.344537815126051 0  0 -6.302521008403362 0  0 -6.260504201680672 0  0 -6.218487394957983 0  0 -6.176470588235294 0  0 -6.134453781512605 0  0 -6.092436974789917 0  0 -6.050420168067227 0  0 -6.008403361344538 0  0 -5.966386554621849 0  0 -5.92436974789916 0  0 -5.882352941176471 0  0 -5.840336134453782 0  0 -5.798319327731092 0  0 -5.756302521008403 0  0 -5.714285714285714 0  0 -5.672268907563025 0  0 -5.630252100840336 0  0 -5.588235294117647 0 
[...]
<PointData  Vectors="flow"> 
<DataArray  type="Float64"  Name="flow"  NumberOfComponents="3" format="ascii">-8.2923042199152461e-03 1.3358336823347428e-01 0.0000000000000000e+00  6.4576264366872440e-06 8.9626580557128832e-05 0.0000000000000000e+00  -3.6208452567665813e-06 -1.8252834298708782e-06 0.0000000000000000e+00  -1.9394608979631766e-06 5.0432256899869236e-06 0.0000000000000000e+00  -1.8846972912378804e-03 1.2318200458354835e-01 0.0000000000000000e+00  2.3551224177078235e-03 1.2265152146608620e-01 0.0000000000000000e+00  -1.1160673439865301e-03 1.1167556752079268e-01 0.0000000000000000e+00  1.7192526444589861e-03 9.7305555862149534e-02 0.0000000000000000e+00  -8.9147120810579455e-04 8.5620893209417209e-02 0.0000000000000000e+00  -1.5362056531582509e-04 7.5934399686643561e-02 0.0000000000000000e+00  -2.5079724509821888e-04 6.5683246545551896e-02 0.0000000000000000e+00  7.0983374274346525e-04 5.6201787099297108e-02 0.0000000000000000e+00  -1.0207084184089259e-03 5.0378101023793455e-02 0.0000000000000000e+00  6.6216838503488753e-04 4.2743576156030749e-02 0.0000000000000000e+00  -8.1335246536470168e-04 3.9083901325305516e-02 0.0000000000000000e+00  4.4403253902832688e-04 3.2559477028119406e-02 0.0000000000000000e+00  -1.2893313185953872e-04 2.8168577715918582e-02 0.0000000000000000e+00  8.9267928496287107e-06 2.4681883033033786e-02 0.0000000000000000e+00  3.5578829700846654e-04 2.0781208922148107e-02 0.0000000000000000e+00  -2.6735933499901079e-04 1.8440391049207593e-02 0.0000000000000000e+00  -2.6765318925838573e-04 1.6017964321004982e-02 0.0000000000000000e+00  8.9655047522525176e-05 1.3767460088305013e-02 0.0000000000000000e+00  1.8900787686977619e-04 1.1818910034589923e-02 0.0000000000000000e+00  -1.2219001473379518e-04 1.0551153141253447e-02 0.0000000000000000e+00  -5.4419864123361152e-05 9.1755843095605964e-03 0.0000000000000000e+00  1.3452292652599783e-04 8.0331934348509253e-03 0.0000000000000000e+00  -1.8383602815230974e-04 7.2096668493800593e-03 0.0000000000000000e+00  2.6180833666166258e-05 6.2686759950655278e-03 0.0000000000000000e+00  8.3931926623354510e-05 5.4561017781292968e-03 0.0000000000000000e+00  -5.5064612671531570e-05 4.9393623358655612e-03 0.0000000000000000e+00  2.0738802319665942e-05 4.2800663536809828e-03 0.0000000000000000e+00  -1.0453006914301498e-05 3.8145922927527204e-03 0.0000000000000000e+00  2.9379978316447562e-05 3.3693546565121395e-03 0.0000000000000000e+00  -6.4169787255034259e-06 2.9820953805685425e-03 0.0000000000000000e+00  1.2587281353015284e-05 2.6618284942509294e-03 0.0000000000000000e+00  -2.7493774651701890e-06 2.3437207238969394e-03 0.0000000000000000e+00  -2.2421064001830426e-06 2.0663692098211732e-03 0.0000000000000000e+00  1.3391059513985863e-06 1.8256108045338773e-03 0.0000000000000000e+00  9.6122045631778314e-07 1.6018566967772303e-03 0.0000000000000000e+00  1.5992550281867269e-05 1.4056683232353806e-03 0.0000000000000000e+00  -2.9910979505364540e-05 1.2396012117225118e-03 0.0000000000000000e+00  7.6064957733946730e-06 1.0560227490078158e-03 0.0000000000000000e+00  -4.0095926832432865e-07 9.3268306778137536e-04 0.0000000000000000e+00  4.0493037434783102e-06 7.8123204914280027e-04 0.0000000000000000e+00  -4.1471932307614141e-06 6.9155660875777365e-04 0.0000000000000000e+00  -9.4853499144211381e-07 5.8046077587614868e-04 0.0000000000000000e+00  4.6720347269830783e-07 4.8085998473452795e-04 0.0000000000000000e+00  -8.9745537737747897e-07 3.9678136807467195e-04 0.0000000000000000e+00  -6.0326248027259740e-07 3.1743670675553218e-04 0.0000000000000000e+00  1.6404794365499151e-06 2.4808896680474345e-04 0.0000000000000000e+00  -8.7747774451905016e-06 1.9238144393324665e-04 0.0000000000000000e+00  7.8094188365243560e-06 1.3876942023503415e-04 0.0000000000000000e+00  -1.2967858953018768e-06 7.7169990819288208e-05 0.0000000000000000e+00  3.7078389307203912e-07 2.6957861091788618e-05 0.0000000000000000e+00  -2.7095279797100931e-06 -5.9536459201917799e-06 0.0000000000000000e+00  -3.7429998131408671e-06 -3.9991948334205445e-05 0.0000000000000000e+00  4.1802132630275054e-06 -7.7983944558086669e-05 0.0000000000000000e+00  -2.2063405430670259e-06 -1.1536858425460735e-04 0.0000000000000000e+00  -9.4737432898643410e-07 -1.5240423216232143e-04 0.0000000000000000e+00  1.1273741163561334e-06 -1.7445454311032588e-04 0.0000000000000000e+00  -3.9654611237793449e-06 -1.7986714290946828e-04 0.0000000000000000e+00  -3.7809580780446912e-06 -1.8904695752830651e-04 0.0000000000000000e+00  1.4897303484243841e-06 -2.1952649450323569e-04 0.0000000000000000e+00  2.0425908056923556e-06 -2.3533120152691427e-04 0.0000000000000000e+00  -1.3152597399588274e-06 -2.4555402221692680e-04 0.0000000000000000e+00  -5.5729617536379025e-06 -2.6151428690893971e-04 0.0000000000000000e+00  1.3558431614493393e-06 -2.6339031626861797e-04 0.0000000000000000e+00  -3.7308589718541091e-06 -2.6641352069072763e-04 0.0000000000000000e+00  -7.0854254870636374e-06 -2.6458367192973964e-04 0.0000000000000000e+00  6.3553002777124259e-06 -2.6552795473498621e-04 0.0000000000000000e+00  -4.4934536797862283e-06 -2.6003615671894788e-04 0.0000000000000000e+00  -3.3435809737113124e-06 -2.4864192862572207e-04 0.0000000000000000e+00  -9.5113861270194539e-07 -2.5565601681630599e-04 0.0000000000000000e+00  2.1293233308659673e-06 -2.6414271888460200e-04 0.0000000000000000e+00  -2.3315635568751995e-06 -2.5931248893542994e-04 0.0000000000000000e+00  -4.9279663810572512e-07 -2.5605744890646150e-04 0.0000000000000000e+00  -3.9866135908208516e-06 -2.4789412374417617e-04 0.0000000000000000e+00  -9.9529480579224657e-07 -2.3837279013697954e-04 0.0000000000000000e+00  -2.5002100181896121e-06 -2.2940082365934694e-04 0.0000000000000000e+00  1.0774962082357475e-06 -2.2124133394447538e-04 0.0000000000000000e+00  4.6820169517066065e-07 -2.1316728811222006e-04 0.0000000000000000e+00  -7.5056840721253988e-06 -2.0547892221885300e-04 0.0000000000000000e+00  2.8681235540591011e-05 -2.0810202478952405e-04 0.0000000000000000e+00  -2.5667426608245688e-05 -1.9520803889911060e-04 0.0000000000000000e+00  -1.1004430217381386e-06 -1.6814794773574752e-04 0.0000000000000000e+00  4.3396997158462766e-07 -1.5631831242103968e-04 0.0000000000000000e+00  1.7078278235862804e-06 -1.4372760048890878e-04 0.0000000000000000e+00  -7.4467599853193446e-06 -1.2564556356986427e-04 0.0000000000000000e+00  6.4902228546827977e-06 -1.2011110812821689e-04 0.0000000000000000e+00  1.9370340889718194e-06 -1.1766858233975723e-04 0.0000000000000000e+00  -3.7733013110507908e-06 -1.0363215044792048e-04 0.0000000000000000e+00  -3.5558488470264179e-06 -8.3864001060187808e-05 0.0000000000000000e+00  1.3530686512945130e-06 -6.8873078287738965e-05 0.0000000000000000e+00  -7.3131673443060712e-07 -5.6737233792102339e-05 0.0000000000000000e+00  -1.0161250930258607e-06 -4.2836851760214377e-05 0.0000000000000000e+00  3.7815267707431169e-07 -3.0334704255490951e-05 0.0000000000000000e+00  2.2397054710937192e-07 -1.8364860368219860e-05 0.0000000000000000e+00  -1.2107597107914833e-06 -4.4908619570466042e-06 0.0000000000000000e+00  3.5240601693158591e-07 6.4718770089601977e-06 0.0000000000000000e+00  -5.7924314785933814e-07 1.7816752850182843e-05 0.0000000000000000e+00  1.8354766510760004e-06 2.6512300321923451e-05 0.0000000000000000e+00  -1.1519262043514783e-06 3.7256733408643377e-05 0.0000000000000000e+00  6.1491487226823202e-07 4.8911048619706276e-05 0.0000000000000000e+00  -7.9928315439912733e-07 5.7120357108367198e-05 0.0000000000000000e+00  9.5038533731188209e-07 6.8092984512147544e-05 0.0000000000000000e+00  -4.7104678829072665e-06 7.8135379877190180e-05 0.0000000000000000e+00  -1.7782548654967586e-06 7.1491094468794912e-05 0.0000000000000000e+00  9.9119874824161806e-06 9.0379743807948295e-05 0.0000000000000000e+00  -1.3870274584208411e-05 9.9025196205786069e-05 0.0000000000000000e+00  1.6634970550704614e-05 9.7294587703465206e-05 0.0000000000000000e+00  -1.2169649881294736e-05 1.0031567278535655e-04 0.0000000000000000e+00  -2.0363274055011980e-06 9.1236098902914550e-05 0.0000000000000000e+00  1.2642100571703882e-05 1.1761213636379756e-04 0.0000000000000000e+00  -3.8340429308931189e-06 1.1538681627897841e-04 0.0000000000000000e+00  -2.6364681411825670e-07 1.1725518543656262e-04 0.0000000000000000e+00  1.1221547504114116e-05 1.0247080476625942e-04 0.0000000000000000e+00  -5.5603275082085363e-06 1.0038952151406704e-04 0.0000000000000000e+00  -2.4278712485819391e-06 1.1176568244485070e-04 0.0000000000000000e+00  7.7968444627882349e-07 1.1730816047954664e-04 0.0000000000000000e+00  -1.9250867575595090e-06 1.1644869533562117e-04 0.0000000000000000e+00  1.0490784745205568e-05 1.0164438690404303e-04 0.0000000000000000e+00  -4.6873868565368528e-06 9.8445130350773548e-05 0.0000000000000000e+00  -4.4704461573856055e-07 1.0421243782199640e-04 0.0000000000000000e+00  1.1979571239801776e-06 1.0451317640363818e-04 0.0000000000000000e+00  5.6896168139754845e-07 1.0201941351506961e-04 0.0000000000000000e+00  5.7152877670332549e-07 9.9224128820750451e-05 0.0000000000000000e+00  7.7414651105605524e-07 9.5751114962646470e-05 0.0000000000000000e+00  2.0072591451090823e-06 9.0561192553217460e-05 0.0000000000000000e+00  3.4099019374082126e-07 8.6388927131835782e-05 0.0000000000000000e+00  -1.4392570814663242e-06 8.6174749629860971e-05 0.0000000000000000e+00  6.4177629628767307e-07 8.5723631748361163e-05 0.0000000000000000e+00  5.0703744234010369e-07 8.1927838812802952e-05 0.0000000000000000e+00  2.7784252658961028e-06 7.5633404470146624e-05 0.0000000000000000e+00  -6.2582862175376389e-07 7.2314863314285456e-05 0.0000000000000000e+00  -2.2079153428842563e-06 7.2788461591290576e-05 0.0000000000000000e+00  5.7594794605448854e-06 6.2305257412061590e-05 0.0000000000000000e+00  1.1662824321869211e-06 5.4175617695036317e-05 0.0000000000000000e+00  -3.6177144547003250e-06 5.6009348512700997e-05 0.0000000000000000e+00  7.6894080398678253e-07 6.1134046238271405e-05 0.0000000000000000e+00  -1.4749294060268104e-07 5.9761845648646227e-05 0.0000000000000000e+00  -7.1055857648268912e-06 5.9488502386658984e-05 0.0000000000000000e+00  3.0161735771504221e-05 9.3675112032343746e-06 0.0000000000000000e+00  2.8734836005787776e-05 -2.9438319389865577e-05 0.0000000000000000e+00  -1.4810268412014620e-05 2.5526887989329172e-05 0.0000000000000000e+00  8.3526903261075558e-06 -1.4848048270873675e-05 0.0000000000000000e+00  -4.0767951807802406e-06 5.3210315648797734e-06 0.0000000000000000e+00  1.1846905456473957e-06 -3.5928637067848436e-06 0.0000000000000000e+00  3.4927081281484954e-07 -9.6472454045206424e-08 0.0000000000000000e+00  -6.1679521227019955e-07 -6.5359395452577343e-07 0.0000000000000000e+00  1.7245297968090762e-07 -1.4048338509824755e-06 0.0000000000000000e+00  5.2474477637294187e-07 -9.5987551470357447e-08 0.0000000000000000e+00  2.4902280794451872e-07 -1.4949427966175934e-06 0.0000000000000000e+00  2.4810164116842035e-08 -2.4081714414264000e-07 0.0000000000000000e+00  1.4373514571978089e-07 -1.7028702760934324e-06 0.0000000000000000e+00  -5.5398827495381131e-08 -3.2960833537712018e-07 0.0000000000000000e+00  3.3233867695882429e-07 -1.6357227552609619e-06 0.0000000000000000e+00  1.0554138214657252e-08 -7.9031729063300934e-07 0.0000000000000000e+00  2.7502100561610485e-07 -9.2536183805833137e-07 0.0000000000000000e+00  6.3656154457252536e-07 -8.2303532040771498e-07 0.0000000000000000e+00  -1.9177783003587098e-07 -1.3181130238373461e-06 0.0000000000000000e+00  -8.4336367360628521e-07 -3.6779940517884837e-07 0.0000000000000000e+00  -1.1493039596577317e-06 -1.2578420076744524e-06 0.0000000000000000e+00  1.5974944130451190e-06 -9.4454572449671015e-07 0.0000000000000000e+00  -9.5669799199082156e-07 -7.8682191751782038e-07 0.0000000000000000e+00  1.4079145538270583e-07 -4.9941793136562439e-07 0.0000000000000000e+00  -3.7580730337049887e-07 -1.3989882417857017e-06 0.0000000000000000e+00  -6.3467425827187443e-08 -2.2805318046073121e-07 0.0000000000000000e+00  -5.6276957263563750e-06 4.3666999975905264e-08 0.0000000000000000e+00  -5.3966655825029572e-07 -6.3877514438111537e-06 0.0000000000000000e+00  -8.2909283063294078e-07 -6.9259627696919321e-06 0.0000000000000000e+00  1.3216893328588510e-06 -8.2221886809030280e-06 0.0000000000000000e+00  -1.0521584312306669e-06 -5.8497993928274747e-06 0.0000000000000000e+00  1.3670400003732898e-07 -5.1596050279656432e-06 0.0000000000000000e+00  1.0553182771664778e-06 -5.3635505536543307e-06 0.0000000000000000e+00  -7.0312749413707289e-07 -7.0600057193158284e-06 0.0000000000000000e+00  5.1772283908093059e-07 -5.7979007604748283e-06 0.0000000000000000e+00  -1.3293515462868193e-07 -6.0159084232284355e-06 0.0000000000000000e+00  -2.6861891939281622e-07 -6.1768620204749085e-06 0.0000000000000000e+00  -4.6121209443094586e-07 -6.4823432978200418e-06 0.0000000000000000e+00  -2.4968513884136937e-07 -7.1146153562678232e-06 0.0000000000000000e+00  -4.0982531475971751e-07 -7.6000075664165892e-06 0.0000000000000000e+00  -2.8199714436702644e-07 -8.2409264471730133e-06 0.0000000000000000e+00  -3.4512858909645740e-07 -9.6138591462345182e-06 0.0000000000000000e+00  -5.1020307884136804e-07 -1.0053509141787001e-05 0.0000000000000000e+00  -1.2576202608733950e-07 -1.0859385563114178e-05 0.0000000000000000e+00  -1.7751674716448286e-07 -1.1233955149947490e-05 0.0000000000000000e+00  -3.0012853398955941e-08 -1.1481273637744622e-05 0.0000000000000000e+00  -3.3158018139514985e-07 -1.2378666783163172e-05 0.0000000000000000e+00  3.4878139814359609e-07 -1.2727412236116310e-05 0.0000000000000000e+00  -2.6710571375278293e-07 -1.4144873155797503e-05 0.0000000000000000e+00  6.0342106860383591e-07 -1.6026361336021480e-05 0.0000000000000000e+00  -2.2818215299078425e-07 -1.5685055135560125e-05 0.0000000000000000e+00  2.3932257285804433e-06 -1.6393599115464610e-05 0.0000000000000000e+00  -4.6724281284710000e-07 -1.5795606949657794e-05 0.0000000000000000e+00  3.6986375497830923e-06 -1.7655218047739454e-05 0.0000000000000000e+00  -9.7691072682772702e-07 -1.6553916347364981e-05 0.0000000000000000e+00  1.0134179970163948e-05 -1.9253581611073112e-05 0.0000000000000000e+00  1.4166495439357448e-06 -2.4293978144840453e-05 0.0000000000000000e+00  -4.2116561406705998e-06 -2.4385443300038345e-05 0.0000000000000000e+00  8.2358934247307218e-06 -1.7241815829332204e-05 0.0000000000000000e+00  7.2955418444135372e-07 -2.3144925495134035e-05 0.0000000000000000e+00  7.9535400090452213e-06 -2.1907621986796017e-05 0.0000000000000000e+00  3.7817186034631995e-06 -2.4473062749911046e-05 0.0000000000000000e+00  1.0499226646345137e-05 -2.5691241727849399e-05 0.0000000000000000e+00  5.6482169367814396e-06 -2.4029124097388063e-05 0.0000000000000000e+00  1.7055042560912323e-05 -2.6203577290327632e-05 0.0000000000000000e+00  2.0989025615876729e-06 -3.1672761239847604e-05 0.0000000000000000e+00  1.2715017325670644e-05 -2.3034929011462658e-05 0.0000000000000000e+00  1.0170011082979873e-05 -2.3889690802365802e-05 0.0000000000000000e+00  1.5567211561662119e-05 -2.0786461139493728e-05 0.0000000000000000e+00  1.1764151835236386e-05 -2.1999700308484025e-05 0.0000000000000000e+00  1.6074095006488071e-05 -2.0740958824228430e-05 0.0000000000000000e+00  1.6045522135639232e-05 -2.0707449378723337e-05 0.0000000000000000e+00  1.7746807750140303e-05 -1.9462907747489150e-05 0.0000000000000000e+00  1.8028284516408020e-05 -1.8931041371263354e-05 0.0000000000000000e+00  1.9745795038160220e-05 -1.8251193871592508e-05 0.0000000000000000e+00  2.1017995721654884e-05 -1.6922013844811089e-05 0.0000000000000000e+00  2.1519906097869097e-05 -1.6029813131326782e-05 0.0000000000000000e+00  2.2619521939421680e-05 -1.4922556264463186e-05 0.0000000000000000e+00  2.4202861703754432e-05 -1.3874502310074226e-05 0.0000000000000000e+00  2.5025266929434304e-05 -1.2293785588954627e-05 0.0000000000000000e+00  2.5722654539659271e-05 -1.1097550253365112e-05 0.0000000000000000e+00  2.6634565765138172e-05 -9.4920099190913135e-06 0.0000000000000000e+00  2.7142789179000546e-05 -8.3323878192448976e-06 0.0000000000000000e+00  2.8531806008633708e-05 -7.1413224560808627e-06 0.0000000000000000e+00  2.7841051891503596e-05 -5.6433837785985595e-06 0.0000000000000000e+00  2.9996857098905001e-05 -5.1815189172864735e-06 0.0000000000000000e+00  3.2664090309885727e-05 -2.6885118746925708e-06 0.0000000000000000e+00  2.8299800746287295e-05 -2.8123075831967503e-06 0.0000000000000000e+00  3.1515937440265028e-05 -4.1981615813396223e-07 0.0000000000000000e+00  3.1322780403476070e-05 1.1834476186047445e-07 0.0000000000000000e+00  3.2057817715817430e-05 1.0627355784458746e-06 0.0000000000000000e+00  3.2447129083381770e-05 2.3597888438733110e-06 0.0000000000000000e+00  3.2534878669121645e-05 3.0855173193227346e-06 0.0000000000000000e+00  3.2780881098007531e-05 4.2721251822310632e-06 0.0000000000000000e+00  3.2774143123693481e-05 4.8137351843689200e-06 0.0000000000000000e+00  3.2258505099903982e-05 5.6602260435627053e-06 0.0000000000000000e+00  3.2687452763621205e-05 5.6871736168282368e-06 0.0000000000000000e+00  3.2221446963373941e-05 6.5338742815571872e-06 0.0000000000000000e+00  3.2805378035050226e-05 6.5433508550560728e-06 0.0000000000000000e+00  3.2313262975987666e-05 7.3046377199555434e-06 0.0000000000000000e+00  3.2230889102322895e-05 7.4969201516768743e-06 0.0000000000000000e+00  3.2025685383093425e-05 8.1819694313359573e-06 0.0000000000000000e+00  3.2096706221312562e-05 8.5363028680936799e-06 0.0000000000000000e+00  3.0977123158362942e-05 9.0345224536527995e-06 0.0000000000000000e+00  3.0765378185816567e-05 8.8670527990493276e-06 0.0000000000000000e+00  3.0026838210237815e-05 9.2339028584772215e-06 0.0000000000000000e+00  2.9390282750078212e-05 8.8707797518679561e-06 0.0000000000000000e+00  2.9787633497648820e-05 9.0269755921374384e-06 0.0000000000000000e+00  2.9126467590345345e-05 9.2744864618569803e-06 0.0000000000000000e+00  2.8788355492728133e-05 9.3547780135637660e-06 0.0000000000000000e+00  2.8491102279171869e-05 9.6627207909933046e-06 0.0000000000000000e+00  2.7370356791147334e-05 9.6093481435496883e-06 0.0000000000000000e+00  2.6883629116136664e-05 9.5414310000338403e-06 0.0000000000000000e+00  2.6168313828656060e-05 9.4191309494297300e-06 0.0000000000000000e+00  2.5092622327497833e-05 9.2954428427197291e-06 0.0000000000000000e+00  2.4852770264619085e-05 9.2879614323472104e-06 0.0000000000000000e+00  2.3075460687576617e-05 9.3683432833401618e-06 0.0000000000000000e+00  2.4101182910335466e-05 9.5149328671127342e-06 0.0000000000000000e+00  2.4842538570419178e-05 1.0138818322538782e-05 0.0000000000000000e+00  2.0830737207670840e-05 1.2058331071445297e-05 0.0000000000000000e+00  2.0935528112478535e-05 1.0550885466908824e-05 0.0000000000000000e+00  2.1418508280373069e-05 9.8565367793064846e-06 0.0000000000000000e+00  1.9274862315697785e-05 9.8250676172131591e-06 0.0000000000000000e+00  1.9754818105167874e-05 9.1791441403088464e-06 0.0000000000000000e+00  1.8939369522550308e-05 8.9147877137485107e-06 0.0000000000000000e+00  1.7820019373748379e-05 8.6356520462074986e-06 0.0000000000000000e+00  1.8548871423584655e-05 8.3115946583686762e-06 0.0000000000000000e+00  1.7829127999953910e-05 8.0969184571960075e-06 0.0000000000000000e+00  1.6451788257462404e-05 7.9162400165122872e-06 0.0000000000000000e+00  1.5895014149553155e-05 7.7305354987292494e-06 0.0000000000000000e+00  1.5049292038229416e-05 7.4535095006598260e-06 0.0000000000000000e+00  1.4937321356670186e-05 7.3720732892147933e-06 0.0000000000000000e+00  1.4488074509994712e-05 7.3661116395775114e-06 0.0000000000000000e+00  1.3672633932983178e-05 7.3956280143119590e-06 0.0000000000000000e+00  1.2545582050043494e-05 6.9956657522217507e-06 0.0000000000000000e+00  1.1751374977942998e-05 6.4514177573628728e-06 0.0000000000000000e+00  1.1266864538830298e-05 6.2490340327870643e-06 0.0000000000000000e+00  1.1281441554627212e-05 6.2037023191007902e-06 0.0000000000000000e+00  1.0784194174711268e-05 6.0908503955377187e-06 0.0000000000000000e+00  1.0293150635787191e-05 5.9377358112045325e-06 0.00000