<?xml version="1.0"?>
<VTKFile type="UnstructuredGrid"  version="0.1"  >
<UnstructuredGrid>
<Piece  NumberOfPoints="1691" NumberOfCells="3204">
<Points>
<DataArray  type="Float64"  NumberOfComponents="3"  format="ascii">0 0 0  30 0 0  30 -10 0  0 -10 0  0.1391574078963744 0 0  0.2856388821882616 0 0  0.4398299073010886 0 0  0.6021362569539473 0 0  0.7729850389704483 0 0  0.9528258543586996 0 0  1.142131984380316 0 0  1.34140159760994 0 0  1.551159074717981 0 0  1.771956417032531 0 0  2.004374674080994 0 0  2.249025475789527 0 0  2.506552636773105 0 0  2.777633857742732 0 0  3.062982518028728 0 0  3.363349525995907 0 0  3.679525322337712 0 0  4.01234195575742 0 0  4.362675247811097 0 0  4.731447135329707 0 0  5.119628065610077 0 0  5.528239565804708 0 0  5.958356943167011 0 0  6.411112081475485 0 0  6.887696441559404 0 0  7.389364184530748 0 0  7.917435485335147 0 0  8.473300005202017 0 0  9.058420557070402 0 0  9.674336929103793 0 0  10.32266995225095 0 0  11.00512576896296 0 0  11.72350030646412 0 0  12.47968402994705 0 0  13.27566689579597 0 0  14.1135435963616 0 0  14.9955190732806 0 0  15.92391430904694 0 0  16.90117245730496 0 0  17.92986524844506 0 0  19.01269976086341 0 0  20.15252556282024 0 0  21.35234220269763 0 0  22.61530708683689 0 0  23.94474379751883 0 0  25.34415086349739 0 0  26.81721093579712 0 0  28.3678004819169 0 0  30 -1.111111111111111 0  30 -2.222222222222222 0  30 -3.333333333333333 0  30 -4.444444444444445 0  30 -5.555555555555555 0  30 -6.666666666666666 0  30 -7.777777777777777 0  30 -8.888888888888889 0  28.36780047917311 -10 0  26.8172109305839 -10 0  25.34415085606858 -10 0  23.94474378810899 -10 0  22.61530707566275 -10 0  21.3523421899591 -10 0  20.15252554870171 -10 0  19.01269974553473 -10 0  17.92986523206254 -10 0  16.90117244001232 -10 0  15.92391429097614 -10 0  14.99551905455266 -10 0  14.11354357708742 -10 0  13.27566687607703 -10 0  12.47968400987599 -10 0  11.72350028612546 -10 0  11.00512574843363 -10 0  10.32266993160086 -10 0  9.674336908396342 -10 0  9.058420536362949 -10 0  8.473299984546333 -10 0  7.917435464777824 -10 0  7.389364164113587 -10 0  6.887696420787165 -10 0  6.411112061446698 -10 0  5.95835692337857 -10 0  5.528239546282652 -10 0  5.119628046377237 -10 0  4.731447115907979 -10 0  4.362675229213632 -10 0  4.012341937260036 -10 0  3.679525304434552 -10 0  3.363349508456405 -10 0  3.062982500861274 -10 0  2.777633840953978 -10 0  2.506552620368097 -10 0  2.249025459771861 -10 0  2.004374658452946 -10 0  1.771956401795187 -10 0  1.551159059871345 -10 0  1.341401583153029 -10 0  1.142131970307521 -10 0  0.9528258406748833 -10 0  0.7729850256685147 -10 0  0.6021362439621285 -10 0  0.4398298947504031 -10 0  0.2856388700059078 -10 0  0.1391573960769001 -10 0  0 -9.855072463768115 0  0 -9.710144927536232 0  0 -9.565217391304348 0  0 -9.420289855072463 0  0 -9.27536231884058 0  0 -9.130434782608695 0  0 -8.985507246376812 0  0 -8.840579710144928 0  0 -8.695652173913043 0  0 -8.55072463768116 0  0 -8.405797101449275 0  0 -8.260869565217391 0  0 -8.115942028985508 0  0 -7.971014492753623 0  0 -7.826086956521739 0  0 -7.681159420289855 0  0 -7.536231884057971 0  0 -7.391304347826087 0  0 -7.246376811594203 0  0 -7.101449275362318 0  0 -6.956521739130435 0  0 -6.811594202898551 0  0 -6.666666666666667 0  0 -6.521739130434783 0  0 -6.376811594202898 0  0 -6.231884057971015 0  0 -6.086956521739131 0  0 -5.942028985507246 0  0 -5.797101449275362 0  0 -5.652173913043478 0  0 -5.507246376811594 0  0 -5.36231884057971 0  0 -5.217391304347826 0  0 -5.072463768115941 0  0 -4.927536231884058 0  0 -4.782608695652174 0  0 -4.637681159420289 0  0 -4.492753623188406 0  0 -4.347826086956522 0  0 -4.202898550724638 0  0 -4.057971014492754 0  0 -3.913043478260869 0  0 -3.768115942028985 0  0 -3.623188405797101 0  0 -3.478260869565217 0  0 -3.333333333333334 0  0 -3.188405797101449 0  0 -3.043478260869565 0  0 -2.898550724637681 0  0 -2.753623188405797 0  0 -2.608695652173912 0  0 -2.463768115942029 0  0 -2.318840579710145 0  0 -2.173913043478261 0  0 -2.028985507246377 0  0 -1.884057971014492 0  0 -1.739130434782609 0  0 -1.594202898550725 0  0 -1.44927536231884 0  0 -1.304347826086957 0  0 -1.159420289855072 0  0 -1.014492753623188 0  0 -0.8695652173913047 0  0 -0.72463768115942 0  0 -0.579710144927537 0  0 -0.4347826086956523 0  0 -0.2898550724637676 0  0 -0.1449275362318829 0  0.1309460514202492 -4.990980414828784 0  0.1171526873513358 -5.869565217391296 0  0.1344252986967795 -6.716855800502001 0  0.1221309018586645 -4.161899358592938 0  0.1166997684017801 -3.25954604704229 0  4.961569127360256 -0.3118894787216622 0  4.923897360678746 -9.687537149351071 0  0.1228405945134021 -2.536958536012416 0  0.1335945686177435 -7.466846676638523 0  3.206461751753455 -0.2806173508164562 0  3.213166004658842 -9.746377676274168 0  0.1155250883680452 -8.186784073011673 0  0.1359204609538445 -1.804202625344072 0  6.662432263484016 -9.600124945047963 0  6.631056521209421 -0.3942868763482545 0  2.126700074935258 -0.2065769621215452 0  2.120437876630353 -9.808537401472012 0  8.761385473272522 -9.4914222957189 0  8.786076048231736 -0.4923064159810888 0  0.1195911345135556 -8.749677128895598 0  0.1117474302775605 -1.230589418769438 0  11.3907841305612 -9.402816705944797 0  11.36435727088349 -0.618365439918426 0  1.211504568109637 -0.1471532661956818 0  1.239596144827807 -9.832618358594059 0  13.75158625181508 -9.315497816134139 0  13.7500399625954 -0.6902569910160397 0  0.131402377539402 -3.696772604078816 0  0.1204853385030979 -6.307560917781178 0  0.1346483804691658 -4.550944754283819 0  0.1255109280847009 -5.434782608695652 0  16.39894095075685 -9.180198571581517 0  16.44068234362399 -0.8166544577416346 0  0.1255109280847009 -0.7971014492753632 0  0.1162877148651766 -9.206770243020259 0  19.56645066956165 -9.043742294716539 0  29.11731382843969 -5.098539983867493 0  19.50527862123305 -0.9323941524176265 0  23.28904960561395 -8.8608997858633 0  0.6875606479622149 -0.1442604037134076 0  0.6875606348153145 -9.855739596611892 0  23.37074358394081 -1.15131614182933 0  10.00852704311311 -9.475417469395781 0  10.01049631493635 -0.5545437343697674 0  7.639131123468924 -9.543000896765111 0  7.693537846067955 -0.4574302764599576 0  5.733194300659633 -9.66079268774309 0  5.731454990332523 -0.3687808037058806 0  3.803630689980224 -9.686555789708486 0  3.834043646352164 -0.2754981925697493 0  2.618022704128803 -9.787800068206256 0  2.634320277618269 -0.2392104743186785 0  1.65952286941916 -9.813294854785646 0  1.665360553377539 -0.1820878093930922 0  0.1365068028365961 -1.543352471920677 0  0.1128108295274224 -8.471115901500411 0  0.1249192863256123 -0.5070564851587012 0  0.1172626025927563 -9.49200175151447 0  0.1255109280847009 -2.101449275362318 0  0.1255109280847009 -7.898550724637682 0  0.1247535864599936 -2.824177050114505 0  0.1155424837078822 -7.17494363557847 0  26.05192393553612 -8.777856070543081 0  26.00031291598836 -1.159065252957426 0  0.3627343947446455 -0.1301950113519217 0  0.3690141220077834 -9.868919517536135 0  28.90574865438674 -7.135369011630129 0  29.02069681040884 -2.861993939893059 0  0.1397555488250113 -0.2163338956475025 0  0.1255109280847009 -9.782608695652172 0  24.67098979274125 -8.799958058548517 0  23.93395881668722 -7.700959994796646 0  22.61396570077244 -7.764517377391733 0  23.2032949615693 -6.630776985250927 0  21.94857473380583 -6.690613342424633 0  24.50398505507967 -6.535933305198952 0  22.51489076809043 -5.580432145971667 0  21.29537841406989 -5.639199768252479 0  21.84985259542567 -4.547213342284197 0  20.65342988351128 -4.619546679988924 0  20.11277906893955 -5.663225279336593 0  19.49454290958806 -4.673886314669294 0  18.97860072994828 -5.624185949902217 0  18.40383886642446 -4.729683279047542 0  17.90575400337286 -5.630456854950327 0  17.35903168001753 -4.836859475002379 0  16.91444903556046 -5.680257663405808 0  16.36114434035519 -4.898890029095359 0  15.89440836794127 -5.835214594829282 0  15.41608945577568 -4.979845093198404 0  14.9809818125648 -5.732909169427192 0  14.51777858619734 -4.988431190461874 0  14.14039496103406 -5.776391085527889 0  13.67321261031888 -5.031745046943032 0  13.26988611760758 -5.891550007816156 0  12.85732927991246 -5.095735823822261 0  12.46423889659403 -5.760519953635332 0  12.07741841933393 -5.116608846746942 0  11.73131647445202 -5.75987862647932 0  11.35222911621012 -5.158061768105265 0  11.01225658271747 -5.784828178519854 0  10.65393216495117 -5.205808407572067 0  10.33042159780337 -5.788944717060055 0  9.98551374198097 -5.24118342090078 0  9.687616112021921 -5.812725728827915 0  9.357518717034999 -5.284717467130579 0  9.08157001076583 -5.820057568121996 0  8.766199932316585 -5.320212662582848 0  8.494748056481422 -5.830095453943056 0  8.194406727465122 -5.347802431655208 0  7.942610344706003 -5.833678024304247 0  7.660825631728443 -5.380025954369014 0  7.416702921751611 -5.83684433397813 0  7.147290851157173 -5.413787279190068 0  6.91632006965034 -5.851605397483334 0  6.658527053286988 -5.437627383845131 0  6.441897327469297 -5.862220684948111 0  6.194860224019926 -5.464520225953867 0  5.988748643021736 -5.866336295550595 0  5.755042825355586 -5.482399938780632 0  5.555770501455733 -5.867908174086599 0  5.334991086231989 -5.504761241472904 0  5.145076642106908 -5.873191062890511 0  4.935013388047023 -5.544035964184449 0  4.754345788811499 -5.880090917794126 0  4.554437025256316 -5.569020251233177 0  4.382470744799432 -5.88665007327689 0  4.192208958329529 -5.585677590398814 0  4.029485566904095 -5.896175760774888 0  4.354949258143058 -5.270074521138358 0  4.004482386201769 -5.289207815434526 0  4.158655721068861 -4.98145486433833 0  3.821444856080801 -5.001169872115685 0  3.97033944278737 -4.700814034221719 0  3.642688047138773 -4.720140385706738 0  3.788830742180677 -4.426816067812119 0  3.467446796449556 -4.450112744784491 0  3.325275354457695 -4.730293981808933 0  3.158439978631689 -4.466074367009679 0  3.294707394527546 -4
[...]
<PointData  Vectors="flow"> 
<DataArray  type="Float64"  Name="flow"  NumberOfComponents="3" format="ascii">1.6478080554640302e-03 -2.7356131022639057e-03 0.0000000000000000e+00  1.5990833339086770e-05 5.7809721391821396e-05 0.0000000000000000e+00  -2.1936675212548803e-06 -1.9675038923988966e-06 0.0000000000000000e+00  1.5155239646009811e-06 -1.1771320912998570e-05 0.0000000000000000e+00  -2.6704331672103060e-04 -1.0274878385436728e-03 0.0000000000000000e+00  -5.6914522223740335e-04 -2.2707645787400788e-04 0.0000000000000000e+00  2.1129941691855317e-04 1.1422318707964849e-03 0.0000000000000000e+00  1.8137914301958595e-05 2.5967227182032821e-03 0.0000000000000000e+00  -3.5634814509078459e-04 6.1198152251551478e-03 0.0000000000000000e+00  1.6378388227201112e-04 8.9073972872660261e-03 0.0000000000000000e+00  -4.3100516258308446e-05 1.0819976818225052e-02 0.0000000000000000e+00  3.8933440465555046e-04 1.0521562056454306e-02 0.0000000000000000e+00  -1.7631758127284339e-04 9.8373442166406252e-03 0.0000000000000000e+00  1.1569633178817443e-04 8.4608456979476665e-03 0.0000000000000000e+00  2.0257358894601984e-05 7.3333795179713248e-03 0.0000000000000000e+00  1.5019641028123723e-06 6.4511074349322033e-03 0.0000000000000000e+00  6.2297608084405139e-05 5.3708083671806500e-03 0.0000000000000000e+00  2.3268939418614464e-04 4.2720252625543815e-03 0.0000000000000000e+00  -1.4351689631382917e-04 3.8068737897016232e-03 0.0000000000000000e+00  4.8167630115599158e-06 3.2945335201216507e-03 0.0000000000000000e+00  1.2136548054765328e-05 2.8508523324893733e-03 0.0000000000000000e+00  -1.2062862081398358e-04 2.4947101392616610e-03 0.0000000000000000e+00  5.6556553922554132e-05 1.9611438701382599e-03 0.0000000000000000e+00  3.2164553305495617e-05 1.7440699326515170e-03 0.0000000000000000e+00  -2.5629725954091132e-06 1.4839694929224317e-03 0.0000000000000000e+00  2.7406090714625561e-05 1.2778106097035716e-03 0.0000000000000000e+00  2.6183381793289580e-06 1.0846040324231387e-03 0.0000000000000000e+00  -1.4018121469223089e-06 9.0370429473101397e-04 0.0000000000000000e+00  4.7254611032259768e-05 7.1961929489319538e-04 0.0000000000000000e+00  -2.4672822999794854e-05 6.2846210788555313e-04 0.0000000000000000e+00  2.2364540493363760e-06 5.5072612100696614e-04 0.0000000000000000e+00  5.9877204246820096e-06 4.6265236987088498e-04 0.0000000000000000e+00  6.3262197252591082e-06 3.8110461684019177e-04 0.0000000000000000e+00  1.4930527136862441e-06 3.1911180537487547e-04 0.0000000000000000e+00  3.3053652739930600e-06 2.6780159089626282e-04 0.0000000000000000e+00  2.2889177772130837e-06 2.2268372346973716e-04 0.0000000000000000e+00  1.1488676769132196e-09 1.8077678143962861e-04 0.0000000000000000e+00  9.6473422566852978e-06 1.4199147443110020e-04 0.0000000000000000e+00  -6.5836958861427308e-06 1.2677081330855303e-04 0.0000000000000000e+00  7.7854427108919799e-07 1.1486599341449608e-04 0.0000000000000000e+00  2.9599256619471385e-07 1.0261720430494209e-04 0.0000000000000000e+00  2.9839278416604464e-06 8.9036436732065232e-05 0.0000000000000000e+00  2.2412506975573771e-06 7.8541307700845969e-05 0.0000000000000000e+00  5.5208572148582957e-07 7.0496486317494993e-05 0.0000000000000000e+00  6.5862670992553865e-07 6.7354661855035004e-05 0.0000000000000000e+00  -6.3249022163941623e-06 6.9386643684220348e-05 0.0000000000000000e+00  2.8848217040600426e-06 4.9331028109441464e-05 0.0000000000000000e+00  2.0099317564844046e-06 5.6259194916757950e-05 0.0000000000000000e+00  -7.1168623432797151e-07 5.3576189960688879e-05 0.0000000000000000e+00  -4.4079367998567278e-07 5.1931775223683622e-05 0.0000000000000000e+00  3.7798204044971941e-06 4.6380432614946389e-05 0.0000000000000000e+00  -1.1102320008152902e-05 5.1946737744342457e-05 0.0000000000000000e+00  1.4200109579835869e-06 -2.9366566541324665e-06 0.0000000000000000e+00  -7.3985851037336987e-06 2.3364142478076801e-06 0.0000000000000000e+00  1.1848664885480113e-06 -4.0553843980333143e-06 0.0000000000000000e+00  -1.0579850725692543e-06 -9.4026953199695199e-07 0.0000000000000000e+00  -2.2615355437761945e-06 -1.5562710076566945e-06 0.0000000000000000e+00  1.3287219400479595e-06 -2.5813751362684273e-06 0.0000000000000000e+00  -1.7305462503634445e-06 -8.0567538725101890e-07 0.0000000000000000e+00  -2.3985279011551539e-06 -3.4101917860547209e-06 0.0000000000000000e+00  -7.8107380822288601e-07 -5.6441274346466640e-06 0.0000000000000000e+00  2.5712809088357478e-07 -7.6530475979213686e-06 0.0000000000000000e+00  -9.3114118314436349e-07 -1.0299495689847100e-05 0.0000000000000000e+00  1.5355136556158646e-06 -1.0520834226128599e-05 0.0000000000000000e+00  1.7682257009345638e-06 -1.1151502179887753e-05 0.0000000000000000e+00  2.5566540062286458e-06 -1.1606795941555094e-05 0.0000000000000000e+00  2.6772464174211148e-06 -1.1001322213939605e-05 0.0000000000000000e+00  5.1966401613213057e-06 -1.0726642371840413e-05 0.0000000000000000e+00  5.8192909622455391e-06 -1.0078536215662556e-05 0.0000000000000000e+00  7.1418524937042229e-06 -8.5070580067450423e-06 0.0000000000000000e+00  8.6006860204181262e-06 -6.6034855488387118e-06 0.0000000000000000e+00  1.0159225961103648e-05 -3.9829310404269024e-06 0.0000000000000000e+00  1.1277241060372517e-05 -6.4742639986558899e-07 0.0000000000000000e+00  1.2221080035372915e-05 3.5477989525793516e-06 0.0000000000000000e+00  1.2319371533843877e-05 8.9603824365194362e-06 0.0000000000000000e+00  1.0958493002971896e-05 1.3176223350174448e-05 0.0000000000000000e+00  1.2748413179588680e-05 1.8089457390984241e-05 0.0000000000000000e+00  3.2289468243443728e-06 2.0196052377885701e-05 0.0000000000000000e+00  2.5382920709955552e-06 2.3401924283213092e-05 0.0000000000000000e+00  -2.1613012709259820e-06 2.5693046252854580e-05 0.0000000000000000e+00  -7.5762049649907196e-06 2.6705124509641129e-05 0.0000000000000000e+00  -1.5540928045446179e-05 2.9613855140565566e-05 0.0000000000000000e+00  -2.3542024722463740e-05 2.9586346133093759e-05 0.0000000000000000e+00  -3.0266345848863353e-05 2.9362839531090040e-05 0.0000000000000000e+00  -4.1125791599885159e-05 2.8030358748553445e-05 0.0000000000000000e+00  -5.3641577432911907e-05 2.6007467882809939e-05 0.0000000000000000e+00  -5.8762199730818416e-05 2.0642803707107888e-05 0.0000000000000000e+00  -6.3279167085536855e-05 1.6135679843098423e-05 0.0000000000000000e+00  -6.9595187915265868e-05 1.2268629448437268e-05 0.0000000000000000e+00  -7.4605240040493702e-05 9.4054286603047777e-06 0.0000000000000000e+00  -8.0072812981401764e-05 5.6123190280161059e-06 0.0000000000000000e+00  -8.2326621838129042e-05 1.8894400301521680e-06 0.0000000000000000e+00  -8.1903355684825538e-05 -3.7133000753371573e-07 0.0000000000000000e+00  -8.1476012907223146e-05 -3.4827441454062087e-06 0.0000000000000000e+00  -8.0707445189402038e-05 -6.0962347125722147e-06 0.0000000000000000e+00  -7.5486670664857622e-05 -8.1995025622066741e-06 0.0000000000000000e+00  -7.1764553932305271e-05 -9.4131212518136343e-06 0.0000000000000000e+00  -6.7901992374014357e-05 -1.0377256787022729e-05 0.0000000000000000e+00  -6.2734392247509253e-05 -1.1634173108445102e-05 0.0000000000000000e+00  -5.6301000414069680e-05 -1.2631272359048717e-05 0.0000000000000000e+00  -4.9768920919184798e-05 -1.2727241445916842e-05 0.0000000000000000e+00  -4.3355025018782721e-05 -1.3320559886556318e-05 0.0000000000000000e+00  -3.8408255887872254e-05 -1.3357849397646786e-05 0.0000000000000000e+00  -2.9196628342797067e-05 -1.3250920571052540e-05 0.0000000000000000e+00  -2.2944482253897185e-05 -1.2564139000787148e-05 0.0000000000000000e+00  -1.7403744981544386e-05 -1.1038558078716942e-05 0.0000000000000000e+00  -1.2622677832166768e-05 -9.9858909904136868e-06 0.0000000000000000e+00  -7.8285702099591485e-06 -9.4262803096554099e-06 0.0000000000000000e+00  7.8077741116962757e-07 -2.8375943022644902e-05 0.0000000000000000e+00  -4.2603435766591553e-07 -3.9638956130483763e-05 0.0000000000000000e+00  -9.3455078092731641e-07 -4.4937177680125475e-05 0.0000000000000000e+00  -1.6375121951772464e-06 -4.4776211638902000e-05 0.0000000000000000e+00  -1.6288327927954308e-06 -4.0145787639204634e-05 0.0000000000000000e+00  -1.5553156693972347e-06 -3.7015366820199247e-05 0.0000000000000000e+00  -1.1606314107002764e-06 -3.1273536083992488e-05 0.0000000000000000e+00  -1.6252887111994908e-06 -2.5623446878862187e-05 0.0000000000000000e+00  -1.0113848449694030e-06 -2.1214244087306184e-05 0.0000000000000000e+00  -1.0754817846585119e-06 -1.7342459896891780e-05 0.0000000000000000e+00  -1.2352994263945112e-06 -1.2768248156288926e-05 0.0000000000000000e+00  -1.3155485846951076e-06 -8.7921964672890266e-06 0.0000000000000000e+00  -1.4271447717655468e-06 -3.5236907527380318e-06 0.0000000000000000e+00  -1.1817775554804835e-06 1.2971943861952494e-06 0.0000000000000000e+00  -1.2996030802692082e-06 4.5348489826038076e-06 0.0000000000000000e+00  -1.3140276516660380e-06 9.1977077772948299e-06 0.0000000000000000e+00  -1.4209937439613713e-06 1.2190238330511932e-05 0.0000000000000000e+00  -1.6990917951956222e-06 1.8127283917872679e-05 0.0000000000000000e+00  -1.4780981236143883e-06 2.2176646215800511e-05 0.0000000000000000e+00  -1.7474464969972401e-06 2.6933229339158762e-05 0.0000000000000000e+00  -1.9627249068359125e-06 3.2674021897254896e-05 0.0000000000000000e+00  -1.3506117219704485e-06 3.8779842797834081e-05 0.0000000000000000e+00  -2.7854557765533390e-06 4.4402694288863352e-05 0.0000000000000000e+00  -1.3926867641089069e-06 4.9156973072258161e-05 0.0000000000000000e+00  -1.7686226622531173e-06 5.6539465365384359e-05 0.0000000000000000e+00  -2.4584062285961534e-06 6.1787165309627569e-05 0.0000000000000000e+00  -2.5530366994822847e-06 6.9843807901814691e-05 0.0000000000000000e+00  -2.7274250632468820e-06 7.6210973171958007e-05 0.0000000000000000e+00  -3.0929273578035688e-06 8.5729866732387269e-05 0.0000000000000000e+00  -3.0042007285035916e-06 9.6047388457792866e-05 0.0000000000000000e+00  -3.8077083871436005e-06 1.0494935617140797e-04 0.0000000000000000e+00  -5.8885872094165661e-06 1.1692499329935880e-04 0.0000000000000000e+00  -5.7947518529375946e-06 1.2511527422058496e-04 0.0000000000000000e+00  -3.9987717869801464e-06 1.4206750528786009e-04 0.0000000000000000e+00  -7.0876376465867856e-06 1.6062762017155104e-04 0.0000000000000000e+00  -5.8062354408673086e-06 1.7197021259138755e-04 0.0000000000000000e+00  -7.2254111594353095e-06 1.9426861223551016e-04 0.0000000000000000e+00  -8.8507415033493309e-06 2.1735936008522534e-04 0.0000000000000000e+00  -8.4329099304356769e-06 2.3687417413756066e-04 0.0000000000000000e+00  -1.1479804872368029e-05 2.6004944822945864e-04 0.0000000000000000e+00  -1.0323064657949091e-05 2.9325546910360630e-04 0.0000000000000000e+00  -1.8650625904815941e-05 3.3430038099518629e-04 0.0000000000000000e+00  -1.3349892084838522e-05 3.6728151678075302e-04 0.0000000000000000e+00  -1.6285644722932584e-05 4.2362292473530598e-04 0.0000000000000000e+00  -1.7226507466893828e-05 4.7638092166892975e-04 0.0000000000000000e+00  -2.1624857604285769e-05 5.4567160685694335e-04 0.0000000000000000e+00  -2.8466100357613406e-05 6.1532765717018853e-04 0.0000000000000000e+00  -3.1372283196897401e-05 7.1441211684539641e-04 0.0000000000000000e+00  -3.6449701145752673e-05 8.4248917658620603e-04 0.0000000000000000e+00  -5.6544090122861342e-05 9.9066436622431459e-04 0.0000000000000000e+00  -7.5023338733649138e-05 1.1535523671810275e-03 0.0000000000000000e+00  -9.1190093549492804e-05 1.3818166004117098e-03 0.0000000000000000e+00  -1.1522891068834428e-04 1.6789507248761754e-03 0.0000000000000000e+00  -1.6281413855451601e-04 2.0614261695645984e-03 0.0000000000000000e+00  -2.3189014336726465e-04 2.5494824683939608e-03 0.0000000000000000e+00  -1.9588447305647633e-04 3.2415165896257287e-03 0.0000000000000000e+00  -4.4546716221575001e-04 4.4244504750518060e-03 0.0000000000000000e+00  -8.1301679508544384e-04 5.9235062715392887e-03 0.0000000000000000e+00  -1.0064096506508359e-03 8.1022561455008028e-03 0.0000000000000000e+00  -2.5955886851378503e-03 1.2878500735288713e-02 0.0000000000000000e+00  -5.5732548078376619e-03 2.2290006813730088e-02 0.0000000000000000e+00  -3.9566257418099295e-03 1.8902338252718177e-02 0.0000000000000000e+00  -7.1331720805380286e-03 -8.3844091176410104e-02 0.0000000000000000e+00  2.0190848505750918e-02 -1.2648842672139987e-01 0.0000000000000000e+00  1.7002834544798225e-02 1.6962950580000160e-02 0.0000000000000000e+00  -4.6356159866036807e-03 6.5385309142540676e-02 0.0000000000000000e+00  1.5809044567408610e-03 2.3290691615208536e-02 0.0000000000000000e+00  -2.0094379067503248e-03 1.1398562591606830e-02 0.0000000000000000e+00  -1.2731060313404084e-05 1.5261164498936439e-04 0.0000000000000000e+00  -6.3551226941347298e-06 8.0490899382169688e-05 0.0000000000000000e+00  -5.7912729584078069e-06 4.2341817483911720e-05 0.0000000000000000e+00  -2.2532576071829430e-05 2.7175654879356230e-04 0.0000000000000000e+00  -6.0637034607258393e-05 5.7971731741814948e-04 0.0000000000000000e+00  1.4487645687535889e-04 8.1829138186539213e-04 0.0000000000000000e+00  -6.3902459746754175e-05 1.7605166036981695e-05 0.0000000000000000e+00  -1.7220568219202185e-04 1.2315200215416773e-03 0.0000000000000000e+00  -3.7832382029724374e-06 1.4733885784179572e-05 0.0000000000000000e+00  4.6309436067977668e-04 1.8075358612714481e-03 0.0000000000000000e+00  -7.8602481327934829e-05 -4.2184119009244929e-06 0.0000000000000000e+00  -2.7494833975030456e-06 -6.2155109109581993e-06 0.0000000000000000e+00  -9.6628911861043880e-04 3.5601261854006552e-03 0.0000000000000000e+00  -3.3741346660457767e-05 2.9616519319823468e-05 0.0000000000000000e+00  9.3020749456942212e-05 3.9734760037044340e-04 0.0000000000000000e+00  8.4687846500070669e-04 4.3068316001100308e-03 0.0000000000000000e+00  -6.8410440924977130e-05 -1.7998017323711533e-05 0.0000000000000000e+00  -6.3617693741832546e-06 2.4120035081018480e-05 0.0000000000000000e+00  4.4511849931376257e-05 1.5006257831687544e-04 0.0000000000000000e+00  -2.8401396344330241e-06 -2.2939134652829433e-05 0.0000000000000000e+00  -4.7138714992816461e-03 1.4352752167798338e-02 0.0000000000000000e+00  8.9777205188567134e-06 9.6392795130864015e-06 0.0000000000000000e+00  2.0333947702318609e-05 5.9457933789507473e-05 0.0000000000000000e+00  9.8984161612730901e-05 8.4399775956477286e-03 0.0000000000000000e+00  -4.5976910675984331e-05 -2.5167671325304284e-05 0.0000000000000000e+00  8.6411366618125571e-06 3.5763808199540384e-07 0.0000000000000000e+00  1.1233119025945716e-05 3.3860612422028039e-05 0.0000000000000000e+00  -4.2753462408142547e-05 3.9232739523707260e-04 0.0000000000000000e+00  -6.0123270671241014e-06 5.9031219364521967e-05 0.0000000000000000e+00  -1.7985894624417876e-05 2.0307040332498793e-04 0.0000000000000000e+00  -8.1313862216276697e-06 1.0884503720328507e-04 0.0000000000000000e+00  6.5604444890301229e-06 -3.9149918044193873e-06 0.0000000000000000e+00  3.8537097935049243e-06 1.8514944681754995e-05 0.0000000000000000e+00  -2.2188914567131319e-03 -1.0065982657845235e-01 0.0000000000000000e+00  -3.6126157173345684e-06 -3.8094486159085440e-05 0.0000000000000000e+00  3.4718046559791409e-06 -4.3613458090257673e-06 0.0000000000000000e+00  -1.6730673802530572e-07 -5.0600787613944183e-07 0.0000000000000000e+00  1.8457346921257363e-06 9.7288855965404968e-06 0.0000000000000000e+00  1.5565743320584638e-06 -3.7325329504105536e-06 0.0000000000000000e+00  -2.0050870095318367e-03 6.1630516629875044e-03 0.0000000000000000e+00  -2.5803951791376928e-05 -2.4844816611639517e-05 0.0000000000000000e+00  8.4727077009585224e-07 4.3599077392927784e-06 0.0000000000000000e+00  4.8059945047851180e-07 1.9109564947164370e-05 0.0000000000000000e+00  3.2302705727067968e-05 9.3677674016344979e-05 0.0000000000000000e+00  -2.1521338530270686e-05 3.1090369953163477e-05 0.0000000000000000e+00  6.3625498892703938e-05 2.1850992551830767e-04 0.0000000000000000e+00  -5.3781606823101918e-05 2.4841220060715162e-05 0.0000000000000000e+00  1.1426848229785951e-04 4.7778374081122526e-04 0.0000000000000000e+00  -7.7713986730798245e-05 3.9187100563684893e-06 0.0000000000000000e+00  2.7120708911363979e-04 1.3990381927870249e-03 0.0000000000000000e+00  -7.6611085285883799e-05 -1.2987988391320166e-05 0.0000000000000000e+00  6.3036588721758523e-04 3.0612187831220070e-03 0.0000000000000000e+00  -5.8365536425448333e-05 -2.3256040068676850e-05 0.0000000000000000e+00  8.4277193269113155e-04 6.0619997923763548e-03 0.0000000000000000e+00  -1.9901600591704532e-03 6.1350473395165419e-03 0.0000000000000000e+00  -2.7021156586786870e-06 -1.5281830169609649e-05 0.0000000000000000e+00  2.6524365785307570e-02 3.9779687032050412e-02 0.0000000000000000e+00  -4.5520549894791878e-06 -4.5392801137485583e-05 0.0000000000000000e+00  -4.1212313932943788e-04 2.2198830047546769e-03 0.0000000000000000e+00  -3.5681010071190375e-06 3.1319140358407918e-06 0.0000000000000000e+00  -1.1962613548235405e-04 9.1016582097532374e-04 0.0000000000000000e+00  -4.0648813704478913e-06 2.4530734410241324e-05 0.0000000000000000e+00  1.1697085394586494e-06 -2.5453467464407976e-06 0.0000000000000000e+00  1.5337097187409699e-06 7.5654071017911786e-06 0.0000000000000000e+00  -6.4293495212685203e-04 9.1799064506620232e-03 0.0000000000000000e+00  -1.5407061019849774e-05 -2.4838256634587586e-05 0.0000000000000000e+00  2.1158326404584558e-07 -1.6308218350072019e-06 0.0000000000000000e+00  -9.2814583155068267e-07 4.6312651599971953e-06 0.0000000000000000e+00  -3.4779936093387422e-03 2.1177729627329358e-02 0.0000000000000000e+00  -4.8457545574522847e-06 -3.6835667681201548e-05 0.0000000000000000e+00  6.1481028321723383e-07 -3.8721439462718388e-06 0.0000000000000000e+00  9.5306320933603711e-07 -9.7391972376490651e-07 0.0000000000000000e+00  2.0813130491529319e-06 -6.9586491562561618e-07 0.0000000000000000e+00  1.3887151085538334e-06 -3.7378316373639293e-06 0.0000000000000000e+00  2.3170234276381660e-06 -2.9327694797379944e-06 0.0000000000000000e+00  1.3633739481007019e-06 -3.3012807944647052e-06 0.0000000000000000e+00  1.2251112863585423e-06 -2.6405267388302488e-08 0.0000000000000000e+00  2.2964778635555162e-06 -2.0747818548221471e-08 0.0000000000000000e+00  1.5609179023513796e-06 -3.9516425083435041e-06 0.0000000000000000e+00  3.0314489266823428e-06 -1.5581464016160064e-06 0.0000000000000000e+00  2.8110622708637777e-06 -1.6455721222435608e-06 0.0000000000000000e+00  3.4037472860900954e-06 6.5833146116505114e-07 0.0000000000000000e+00  3.5190847685999502e-06 -2.4131473595742669e-06 0.0000000000000000e+00  3.3759955406940769e-06 7.8080886953906340e-07 0.0000000000000000e+00  2.7871585680322417e-06 -1.4180672707212921e-06 0.0000000000000000e+00  3.8133857110755915e-06 -3.1357791878030380e-07 0.0000000000000000e+00  5.3304741549954764e-06 -3.5706264117422737e-07 0.0000000000000000e+00  5.4380156122576968e-06 -6.0737699998938911e-07 0.0000000000000000e+00  5.4605836981138910e-06 -9.5446887882210419e-08 0.0000000000000000e+00  5.7273504896989054e-06 -4.6226387289279409e-07 0.0000000000000000e+00  5.1990773140935671e-06 -5.5277726036048273e-07 0.0000000000000000e+00  5.9775988586269289e-06 -9.4568873959415467e-07 0.0000000000000000e+00  7.1675686937186766e-06 -3.3244820561135650e-07 0.0000000000000000e+00  6.2868912973206418e-06 -3.2729017046074441e-07 0.0000000000000000e+00  5.3442496696242210e-06 -2.6553964134579157e-07 0.0000000000000000e+00  5.7222245302549813e-06 -1.8867405129236086e-06 0.0000000000000000e+00  4.7657278086446480e-06 -2.2160589729506668e-07 0.0000000000000000e+00  6.2562445759492943e-06 -4.2864741533889839e-06 0.0000000000000000e+00  5.3763437836092392e-06 -1.7068819539575648e-06 0.0000000000000000e+00  4.8799454710923833e-06 -3.5011270304123164e-06 0.0000000000000000e+00  3.9124003863396792e-06 -2.3142550558438207e-06 0.0000000000000000e+00  5.1430290120612773e-06 -5.1667603605367923e-06 0.0000000000000000e+00  1.6431600627767766e-06 -4.4150670929799942e-06 0.0000000000000000e+00  4.7922807201721402e-07 -6.8757089142755170e-06 0.0000000000000000e+00  -1.2824717207729215e-06 -