<?xml version="1.0"?>
<VTKFile type="UnstructuredGrid"  version="0.1"  >
<UnstructuredGrid>
<Piece  NumberOfPoints="1691" NumberOfCells="3204">
<Points>
<DataArray  type="Float64"  NumberOfComponents="3"  format="ascii">0 0 0  30 0 0  30 -10 0  0 -10 0  0.1391574078963744 0 0  0.2856388821882616 0 0  0.4398299073010886 0 0  0.6021362569539473 0 0  0.7729850389704483 0 0  0.9528258543586996 0 0  1.142131984380316 0 0  1.34140159760994 0 0  1.551159074717981 0 0  1.771956417032531 0 0  2.004374674080994 0 0  2.249025475789527 0 0  2.506552636773105 0 0  2.777633857742732 0 0  3.062982518028728 0 0  3.363349525995907 0 0  3.679525322337712 0 0  4.01234195575742 0 0  4.362675247811097 0 0  4.731447135329707 0 0  5.119628065610077 0 0  5.528239565804708 0 0  5.958356943167011 0 0  6.411112081475485 0 0  6.887696441559404 0 0  7.389364184530748 0 0  7.917435485335147 0 0  8.473300005202017 0 0  9.058420557070402 0 0  9.674336929103793 0 0  10.32266995225095 0 0  11.00512576896296 0 0  11.72350030646412 0 0  12.47968402994705 0 0  13.27566689579597 0 0  14.1135435963616 0 0  14.9955190732806 0 0  15.92391430904694 0 0  16.90117245730496 0 0  17.92986524844506 0 0  19.01269976086341 0 0  20.15252556282024 0 0  21.35234220269763 0 0  22.61530708683689 0 0  23.94474379751883 0 0  25.34415086349739 0 0  26.81721093579712 0 0  28.3678004819169 0 0  30 -1.111111111111111 0  30 -2.222222222222222 0  30 -3.333333333333333 0  30 -4.444444444444445 0  30 -5.555555555555555 0  30 -6.666666666666666 0  30 -7.777777777777777 0  30 -8.888888888888889 0  28.36780047917311 -10 0  26.8172109305839 -10 0  25.34415085606858 -10 0  23.94474378810899 -10 0  22.61530707566275 -10 0  21.3523421899591 -10 0  20.15252554870171 -10 0  19.01269974553473 -10 0  17.92986523206254 -10 0  16.90117244001232 -10 0  15.92391429097614 -10 0  14.99551905455266 -10 0  14.11354357708742 -10 0  13.27566687607703 -10 0  12.47968400987599 -10 0  11.72350028612546 -10 0  11.00512574843363 -10 0  10.32266993160086 -10 0  9.674336908396342 -10 0  9.058420536362949 -10 0  8.473299984546333 -10 0  7.917435464777824 -10 0  7.389364164113587 -10 0  6.887696420787165 -10 0  6.411112061446698 -10 0  5.95835692337857 -10 0  5.528239546282652 -10 0  5.119628046377237 -10 0  4.731447115907979 -10 0  4.362675229213632 -10 0  4.012341937260036 -10 0  3.679525304434552 -10 0  3.363349508456405 -10 0  3.062982500861274 -10 0  2.777633840953978 -10 0  2.506552620368097 -10 0  2.249025459771861 -10 0  2.004374658452946 -10 0  1.771956401795187 -10 0  1.551159059871345 -10 0  1.341401583153029 -10 0  1.142131970307521 -10 0  0.9528258406748833 -10 0  0.7729850256685147 -10 0  0.6021362439621285 -10 0  0.4398298947504031 -10 0  0.2856388700059078 -10 0  0.1391573960769001 -10 0  0 -9.855072463768115 0  0 -9.710144927536232 0  0 -9.565217391304348 0  0 -9.420289855072463 0  0 -9.27536231884058 0  0 -9.130434782608695 0  0 -8.985507246376812 0  0 -8.840579710144928 0  0 -8.695652173913043 0  0 -8.55072463768116 0  0 -8.405797101449275 0  0 -8.260869565217391 0  0 -8.115942028985508 0  0 -7.971014492753623 0  0 -7.826086956521739 0  0 -7.681159420289855 0  0 -7.536231884057971 0  0 -7.391304347826087 0  0 -7.246376811594203 0  0 -7.101449275362318 0  0 -6.956521739130435 0  0 -6.811594202898551 0  0 -6.666666666666667 0  0 -6.521739130434783 0  0 -6.376811594202898 0  0 -6.231884057971015 0  0 -6.086956521739131 0  0 -5.942028985507246 0  0 -5.797101449275362 0  0 -5.652173913043478 0  0 -5.507246376811594 0  0 -5.36231884057971 0  0 -5.217391304347826 0  0 -5.072463768115941 0  0 -4.927536231884058 0  0 -4.782608695652174 0  0 -4.637681159420289 0  0 -4.492753623188406 0  0 -4.347826086956522 0  0 -4.202898550724638 0  0 -4.057971014492754 0  0 -3.913043478260869 0  0 -3.768115942028985 0  0 -3.623188405797101 0  0 -3.478260869565217 0  0 -3.333333333333334 0  0 -3.188405797101449 0  0 -3.043478260869565 0  0 -2.898550724637681 0  0 -2.753623188405797 0  0 -2.608695652173912 0  0 -2.463768115942029 0  0 -2.318840579710145 0  0 -2.173913043478261 0  0 -2.028985507246377 0  0 -1.884057971014492 0  0 -1.739130434782609 0  0 -1.594202898550725 0  0 -1.44927536231884 0  0 -1.304347826086957 0  0 -1.159420289855072 0  0 -1.014492753623188 0  0 -0.8695652173913047 0  0 -0.72463768115942 0  0 -0.579710144927537 0  0 -0.4347826086956523 0  0 -0.2898550724637676 0  0 -0.1449275362318829 0  0.1309460514202492 -4.990980414828784 0  0.1171526873513358 -5.869565217391296 0  0.1344252986967795 -6.716855800502001 0  0.1221309018586645 -4.161899358592938 0  0.1166997684017801 -3.25954604704229 0  4.961569127360256 -0.3118894787216622 0  4.923897360678746 -9.687537149351071 0  0.1228405945134021 -2.536958536012416 0  0.1335945686177435 -7.466846676638523 0  3.206461751753455 -0.2806173508164562 0  3.213166004658842 -9.746377676274168 0  0.1155250883680452 -8.186784073011673 0  0.1359204609538445 -1.804202625344072 0  6.662432263484016 -9.600124945047963 0  6.631056521209421 -0.3942868763482545 0  2.126700074935258 -0.2065769621215452 0  2.120437876630353 -9.808537401472012 0  8.761385473272522 -9.4914222957189 0  8.786076048231736 -0.4923064159810888 0  0.1195911345135556 -8.749677128895598 0  0.1117474302775605 -1.230589418769438 0  11.3907841305612 -9.402816705944797 0  11.36435727088349 -0.618365439918426 0  1.211504568109637 -0.1471532661956818 0  1.239596144827807 -9.832618358594059 0  13.75158625181508 -9.315497816134139 0  13.7500399625954 -0.6902569910160397 0  0.131402377539402 -3.696772604078816 0  0.1204853385030979 -6.307560917781178 0  0.1346483804691658 -4.550944754283819 0  0.1255109280847009 -5.434782608695652 0  16.39894095075685 -9.180198571581517 0  16.44068234362399 -0.8166544577416346 0  0.1255109280847009 -0.7971014492753632 0  0.1162877148651766 -9.206770243020259 0  19.56645066956165 -9.043742294716539 0  29.11731382843969 -5.098539983867493 0  19.50527862123305 -0.9323941524176265 0  23.28904960561395 -8.8608997858633 0  0.6875606479622149 -0.1442604037134076 0  0.6875606348153145 -9.855739596611892 0  23.37074358394081 -1.15131614182933 0  10.00852704311311 -9.475417469395781 0  10.01049631493635 -0.5545437343697674 0  7.639131123468924 -9.543000896765111 0  7.693537846067955 -0.4574302764599576 0  5.733194300659633 -9.66079268774309 0  5.731454990332523 -0.3687808037058806 0  3.803630689980224 -9.686555789708486 0  3.834043646352164 -0.2754981925697493 0  2.618022704128803 -9.787800068206256 0  2.634320277618269 -0.2392104743186785 0  1.65952286941916 -9.813294854785646 0  1.665360553377539 -0.1820878093930922 0  0.1365068028365961 -1.543352471920677 0  0.1128108295274224 -8.471115901500411 0  0.1249192863256123 -0.5070564851587012 0  0.1172626025927563 -9.49200175151447 0  0.1255109280847009 -2.101449275362318 0  0.1255109280847009 -7.898550724637682 0  0.1247535864599936 -2.824177050114505 0  0.1155424837078822 -7.17494363557847 0  26.05192393553612 -8.777856070543081 0  26.00031291598836 -1.159065252957426 0  0.3627343947446455 -0.1301950113519217 0  0.3690141220077834 -9.868919517536135 0  28.90574865438674 -7.135369011630129 0  29.02069681040884 -2.861993939893059 0  0.1397555488250113 -0.2163338956475025 0  0.1255109280847009 -9.782608695652172 0  24.67098979274125 -8.799958058548517 0  23.93395881668722 -7.700959994796646 0  22.61396570077244 -7.764517377391733 0  23.2032949615693 -6.630776985250927 0  21.94857473380583 -6.690613342424633 0  24.50398505507967 -6.535933305198952 0  22.51489076809043 -5.580432145971667 0  21.29537841406989 -5.639199768252479 0  21.84985259542567 -4.547213342284197 0  20.65342988351128 -4.619546679988924 0  20.11277906893955 -5.663225279336593 0  19.49454290958806 -4.673886314669294 0  18.97860072994828 -5.624185949902217 0  18.40383886642446 -4.729683279047542 0  17.90575400337286 -5.630456854950327 0  17.35903168001753 -4.836859475002379 0  16.91444903556046 -5.680257663405808 0  16.36114434035519 -4.898890029095359 0  15.89440836794127 -5.835214594829282 0  15.41608945577568 -4.979845093198404 0  14.9809818125648 -5.732909169427192 0  14.51777858619734 -4.988431190461874 0  14.14039496103406 -5.776391085527889 0  13.67321261031888 -5.031745046943032 0  13.26988611760758 -5.891550007816156 0  12.85732927991246 -5.095735823822261 0  12.46423889659403 -5.760519953635332 0  12.07741841933393 -5.116608846746942 0  11.73131647445202 -5.75987862647932 0  11.35222911621012 -5.158061768105265 0  11.01225658271747 -5.784828178519854 0  10.65393216495117 -5.205808407572067 0  10.33042159780337 -5.788944717060055 0  9.98551374198097 -5.24118342090078 0  9.687616112021921 -5.812725728827915 0  9.357518717034999 -5.284717467130579 0  9.08157001076583 -5.820057568121996 0  8.766199932316585 -5.320212662582848 0  8.494748056481422 -5.830095453943056 0  8.194406727465122 -5.347802431655208 0  7.942610344706003 -5.833678024304247 0  7.660825631728443 -5.380025954369014 0  7.416702921751611 -5.83684433397813 0  7.147290851157173 -5.413787279190068 0  6.91632006965034 -5.851605397483334 0  6.658527053286988 -5.437627383845131 0  6.441897327469297 -5.862220684948111 0  6.194860224019926 -5.464520225953867 0  5.988748643021736 -5.866336295550595 0  5.755042825355586 -5.482399938780632 0  5.555770501455733 -5.867908174086599 0  5.334991086231989 -5.504761241472904 0  5.145076642106908 -5.873191062890511 0  4.935013388047023 -5.544035964184449 0  4.754345788811499 -5.880090917794126 0  4.554437025256316 -5.569020251233177 0  4.382470744799432 -5.88665007327689 0  4.192208958329529 -5.585677590398814 0  4.029485566904095 -5.896175760774888 0  4.354949258143058 -5.270074521138358 0  4.004482386201769 -5.289207815434526 0  4.158655721068861 -4.98145486433833 0  3.821444856080801 -5.001169872115685 0  3.97033944278737 -4.700814034221719 0  3.642688047138773 -4.720140385706738 0  3.788830742180677 -4.426816067812119 0  3.467446796449556 -4.450112744784491 0  3.325275354457695 -4.730293981808933 0  3.158439978631689 -4.466074367009679 0  3.294707394527546 -4
[...]
<PointData  Vectors="flow"> 
<DataArray  type="Float64"  Name="flow"  NumberOfComponents="3" format="ascii">1.6410662659879661e-02 -1.1680020476828088e-02 0.0000000000000000e+00  1.1704050033747589e-05 3.9591937423034089e-05 0.0000000000000000e+00  -1.7311979685641408e-06 -1.3136793257164748e-06 0.0000000000000000e+00  1.6883869635449355e-06 -1.1029515374301538e-05 0.0000000000000000e+00  -4.5834691045111018e-03 -1.1943244185129280e-03 0.0000000000000000e+00  1.3175431198530496e-03 4.4298377428293187e-03 0.0000000000000000e+00  -9.8292109590182933e-04 8.2200711609588598e-03 0.0000000000000000e+00  3.0651591780035876e-04 1.3220796190311159e-02 0.0000000000000000e+00  4.1633360579114275e-05 1.6933966137394035e-02 0.0000000000000000e+00  -4.8871688782256583e-04 1.7804316773530851e-02 0.0000000000000000e+00  1.8063257797977809e-04 1.5753908402664222e-02 0.0000000000000000e+00  7.0182462349746100e-04 1.2537058408757646e-02 0.0000000000000000e+00  -2.8680275031986571e-04 1.0579557079896608e-02 0.0000000000000000e+00  1.3130435369849259e-04 8.2992309954715224e-03 0.0000000000000000e+00  1.4030178792645421e-05 6.7851143769732817e-03 0.0000000000000000e+00  2.5930506660191884e-05 5.6959973067625229e-03 0.0000000000000000e+00  4.3895247125463335e-05 4.5647869355066907e-03 0.0000000000000000e+00  2.2958635412648600e-04 3.4832472081669568e-03 0.0000000000000000e+00  -1.3383107309513484e-04 3.0438719774864903e-03 0.0000000000000000e+00  6.9507062405281598e-06 2.6057740436792060e-03 0.0000000000000000e+00  7.9301972043985649e-06 2.2311755940585438e-03 0.0000000000000000e+00  -1.1086326920163639e-04 1.9501427365115119e-03 0.0000000000000000e+00  5.6126748853880257e-05 1.4785823401739218e-03 0.0000000000000000e+00  2.4615621963950239e-05 1.3190086360263629e-03 0.0000000000000000e+00  -9.0226909814366563e-07 1.1165330140181461e-03 0.0000000000000000e+00  2.5384232010023999e-05 9.5113040331133074e-04 0.0000000000000000e+00  1.1225921409453042e-06 7.9861824237130420e-04 0.0000000000000000e+00  -1.2278713321215578e-06 6.6096231618992685e-04 0.0000000000000000e+00  3.7787165741688131e-05 5.1775905539194896e-04 0.0000000000000000e+00  -1.8998354180451874e-05 4.4864463611005623e-04 0.0000000000000000e+00  1.6988099845262935e-06 3.9555013680292125e-04 0.0000000000000000e+00  4.8191235199787360e-06 3.3099382989097199e-04 0.0000000000000000e+00  5.0453706192277708e-06 2.6986660045154841e-04 0.0000000000000000e+00  1.3849777080898764e-06 2.2354164377158881e-04 0.0000000000000000e+00  2.5630799227445711e-06 1.8623690711640610e-04 0.0000000000000000e+00  1.6661920089446294e-06 1.5405575827528501e-04 0.0000000000000000e+00  3.4269597873331503e-08 1.2415417043145274e-04 0.0000000000000000e+00  6.9229096066193214e-06 9.6108060342453943e-05 0.0000000000000000e+00  -4.5469499353210746e-06 8.5444586946150581e-05 0.0000000000000000e+00  4.4490763737308136e-07 7.8063491916123654e-05 0.0000000000000000e+00  2.7689123172392751e-07 6.9731629532430864e-05 0.0000000000000000e+00  2.2287017555634921e-06 6.0065236711895048e-05 0.0000000000000000e+00  1.6290635012052702e-06 5.2713422603239466e-05 0.0000000000000000e+00  3.8926825777572269e-07 4.7141341460474697e-05 0.0000000000000000e+00  5.9195177555342526e-07 4.4998233729563249e-05 0.0000000000000000e+00  -4.8389464106263757e-06 4.7565206619994527e-05 0.0000000000000000e+00  2.3216277711558871e-06 3.2701697204425267e-05 0.0000000000000000e+00  1.4932181490873552e-06 3.7699609414732727e-05 0.0000000000000000e+00  -5.3556938939320914e-07 3.5707664236369069e-05 0.0000000000000000e+00  -4.0074900716417980e-07 3.5034645290413331e-05 0.0000000000000000e+00  2.7312973070764825e-06 3.1032383129535994e-05 0.0000000000000000e+00  -8.0575498743663085e-06 3.5381181196977831e-05 0.0000000000000000e+00  3.0533711729785684e-07 -3.4930538408176938e-06 0.0000000000000000e+00  -7.1503315327777325e-06 2.8925421065271089e-06 0.0000000000000000e+00  1.6774616037444854e-06 -3.7868174643439777e-06 0.0000000000000000e+00  -1.5191854232874685e-06 3.7192832991864067e-08 0.0000000000000000e+00  -1.8023114265989578e-06 -1.2545213635728339e-06 0.0000000000000000e+00  1.2786801137965713e-06 -1.5333781768230380e-06 0.0000000000000000e+00  -1.8335156281283787e-06 -4.4048327631456931e-07 0.0000000000000000e+00  -2.3645525338998593e-06 -2.1643107573654961e-06 0.0000000000000000e+00  -7.6725151583817598e-07 -4.2545855791627212e-06 0.0000000000000000e+00  2.5904692300441478e-07 -5.7575153845447212e-06 0.0000000000000000e+00  -9.2741803876140438e-07 -8.0897751750640309e-06 0.0000000000000000e+00  1.1717472715539835e-06 -8.2029022952044545e-06 0.0000000000000000e+00  9.4539559891362710e-07 -8.9129109766736722e-06 0.0000000000000000e+00  1.7788565240841145e-06 -9.4921921223050373e-06 0.0000000000000000e+00  1.6672786484348813e-06 -9.2771446203922315e-06 0.0000000000000000e+00  3.4754850602020559e-06 -9.2629968409726586e-06 0.0000000000000000e+00  3.8230186523133395e-06 -8.7088807594093057e-06 0.0000000000000000e+00  4.8418720015412445e-06 -7.2876917141095941e-06 0.0000000000000000e+00  5.7550033967401298e-06 -5.7329654296279486e-06 0.0000000000000000e+00  6.9238275967674240e-06 -3.4984909096780702e-06 0.0000000000000000e+00  7.7337666933568496e-06 -6.2443827297301420e-07 0.0000000000000000e+00  8.4501131559395562e-06 3.1921877439111790e-06 0.0000000000000000e+00  8.8584623438249180e-06 8.0190652657495807e-06 0.0000000000000000e+00  7.0935390409757499e-06 1.2037790389508337e-05 0.0000000000000000e+00  9.9558401175506394e-06 1.5928040384156418e-05 0.0000000000000000e+00  1.5747650733143667e-06 1.7813930240032631e-05 0.0000000000000000e+00  2.7957654130483378e-06 2.1230689248756263e-05 0.0000000000000000e+00  -9.3951386958116188e-07 2.3315209810433092e-05 0.0000000000000000e+00  -4.1581549544662875e-06 2.4142543463877931e-05 0.0000000000000000e+00  -9.5450251789374814e-06 2.7067452027793496e-05 0.0000000000000000e+00  -1.5168228536490860e-05 2.7156244394701900e-05 0.0000000000000000e+00  -1.9486161747156860e-05 2.7558366436133941e-05 0.0000000000000000e+00  -2.6494060054808634e-05 2.6435724377698477e-05 0.0000000000000000e+00  -3.6488294556523019e-05 2.4760187235109375e-05 0.0000000000000000e+00  -3.9097619516498311e-05 1.9903101286179943e-05 0.0000000000000000e+00  -4.1859567245236927e-05 1.5600691970848771e-05 0.0000000000000000e+00  -4.6478987275430914e-05 1.1878583879768187e-05 0.0000000000000000e+00  -4.9606775722170803e-05 9.2706046435993163e-06 0.0000000000000000e+00  -5.3928131815250422e-05 5.4915014363088430e-06 0.0000000000000000e+00  -5.5408252153981935e-05 1.8065876690175023e-06 0.0000000000000000e+00  -5.4826975503272622e-05 -4.7418094525344569e-08 0.0000000000000000e+00  -5.4616465667635393e-05 -3.2675214195802323e-06 0.0000000000000000e+00  -5.4934103212132240e-05 -5.8073081252952969e-06 0.0000000000000000e+00  -5.0396721574876845e-05 -7.7765745562676156e-06 0.0000000000000000e+00  -4.7992255537247806e-05 -8.9752705726052413e-06 0.0000000000000000e+00  -4.5856317250246408e-05 -9.9398672451750715e-06 0.0000000000000000e+00  -4.2528704017470911e-05 -1.1065131648560344e-05 0.0000000000000000e+00  -3.7818829519170695e-05 -1.2017472734857052e-05 0.0000000000000000e+00  -3.3304164181880166e-05 -1.2193561694709003e-05 0.0000000000000000e+00  -2.9147853708651969e-05 -1.2733398903670602e-05 0.0000000000000000e+00  -2.6425402246806171e-05 -1.2738487679648647e-05 0.0000000000000000e+00  -1.9204050860530131e-05 -1.2639332216468445e-05 0.0000000000000000e+00  -1.4720679422555610e-05 -1.1897923826015151e-05 0.0000000000000000e+00  -1.1421673773429832e-05 -1.0570300509936712e-05 0.0000000000000000e+00  -8.9755268575910251e-06 -9.4925254597425763e-06 0.0000000000000000e+00  -5.8754587472161072e-06 -8.9211151363485853e-06 0.0000000000000000e+00  9.7682572674016518e-07 -2.3635731634345766e-05 0.0000000000000000e+00  -1.4457378958309447e-07 -3.0000119046815680e-05 0.0000000000000000e+00  -5.8381121879487897e-07 -3.2496105715673590e-05 0.0000000000000000e+00  -1.2517344719410547e-06 -3.1596823444164255e-05 0.0000000000000000e+00  -1.1732485248482612e-06 -2.7267915385698815e-05 0.0000000000000000e+00  -9.7201505100902899e-07 -2.5557604741594186e-05 0.0000000000000000e+00  -5.5585576304280988e-07 -2.1191228713254943e-05 0.0000000000000000e+00  -1.0779302501307238e-06 -1.7210824382639460e-05 0.0000000000000000e+00  -4.0072962866723219e-07 -1.4267623156425506e-05 0.0000000000000000e+00  -5.8188849459624795e-07 -1.2125723599868866e-05 0.0000000000000000e+00  -7.7171144928482582e-07 -8.9062556425668323e-06 0.0000000000000000e+00  -8.1718605328606113e-07 -6.5679414997388534e-06 0.0000000000000000e+00  -9.7028222703346358e-07 -2.7711666005506009e-06 0.0000000000000000e+00  -6.8431862165690449e-07 7.6660884418768704e-07 0.0000000000000000e+00  -8.0577712758672417e-07 2.3253380771513033e-06 0.0000000000000000e+00  -8.3722594955454189e-07 5.6445021203073713e-06 0.0000000000000000e+00  -9.0226783268193301e-07 6.9914539381633159e-06 0.0000000000000000e+00  -1.2817079652956420e-06 1.1615111597066877e-05 0.0000000000000000e+00  -9.6317477398356493e-07 1.4030367123780289e-05 0.0000000000000000e+00  -1.2156782626434435e-06 1.6807538205679795e-05 0.0000000000000000e+00  -1.3005140985358622e-06 2.0915379151354995e-05 0.0000000000000000e+00  -7.4557824941463807e-07 2.5436905948317340e-05 0.0000000000000000e+00  -2.1284432863315896e-06 2.8720747058792085e-05 0.0000000000000000e+00  -5.6926417963396432e-07 3.1494217067423640e-05 0.0000000000000000e+00  -9.0295678039032591e-07 3.7231529071204683e-05 0.0000000000000000e+00  -1.6591554006883997e-06 3.9559562665068636e-05 0.0000000000000000e+00  -1.6823705552809699e-06 4.5463521485083524e-05 0.0000000000000000e+00  -1.7201594016518076e-06 4.8711989225714691e-05 0.0000000000000000e+00  -2.1594431104033104e-06 5.5351415863840840e-05 0.0000000000000000e+00  -1.9174830558336679e-06 6.3240881125350211e-05 0.0000000000000000e+00  -2.8128575780559409e-06 6.8135667165893153e-05 0.0000000000000000e+00  -5.3791108537003482e-06 7.6215275367144019e-05 0.0000000000000000e+00  -4.0500923317420718e-06 7.9857585182133061e-05 0.0000000000000000e+00  -1.7249506699655825e-06 9.3781590108457693e-05 0.0000000000000000e+00  -5.5505146383122735e-06 1.0592025135557507e-04 0.0000000000000000e+00  -2.4064595161127522e-06 1.1127283389180258e-04 0.0000000000000000e+00  -5.0493933252380583e-06 1.2732169336995242e-04 0.0000000000000000e+00  -6.8196584396341886e-06 1.4448676841474095e-04 0.0000000000000000e+00  -6.4368593977287051e-06 1.5434030587068164e-04 0.0000000000000000e+00  -7.7627188697900886e-06 1.6686645366287593e-04 0.0000000000000000e+00  -6.2297892104932634e-06 1.9301442356541937e-04 0.0000000000000000e+00  -1.5359319062610062e-05 2.1803440989589249e-04 0.0000000000000000e+00  -5.3888277776469081e-06 2.3817892699854126e-04 0.0000000000000000e+00  -1.0782437827529930e-05 2.7695584375171998e-04 0.0000000000000000e+00  -1.1042455730529837e-05 3.1077487555465524e-04 0.0000000000000000e+00  -1.3180751283656067e-05 3.5733612380863032e-04 0.0000000000000000e+00  -1.7873290462812900e-05 3.9410714693951767e-04 0.0000000000000000e+00  -2.1802762438547514e-05 4.5976315935354660e-04 0.0000000000000000e+00  -2.2828589900975051e-05 5.5484689749229793e-04 0.0000000000000000e+00  -3.5364579060824575e-05 6.4510596068175288e-04 0.0000000000000000e+00  -4.6772279828209844e-05 7.3269723447527203e-04 0.0000000000000000e+00  -5.9717682850666918e-05 8.7390102675837260e-04 0.0000000000000000e+00  -6.9004639140485469e-05 1.0636138950938599e-03 0.0000000000000000e+00  -9.4610126321944269e-05 1.2713856893683080e-03 0.0000000000000000e+00  -1.2898173154176498e-04 1.5507734067553940e-03 0.0000000000000000e+00  -1.0733698835535890e-04 1.9373853975210792e-03 0.0000000000000000e+00  -2.4890993576318337e-04 2.5671476239426060e-03 0.0000000000000000e+00  -3.8868549086549945e-04 3.2782987273095028e-03 0.0000000000000000e+00  -3.9821894109695632e-04 4.4024159567552243e-03 0.0000000000000000e+00  -9.3565313265968179e-04 6.1687377216728886e-03 0.0000000000000000e+00  -1.6104458094783230e-03 9.5083316002817671e-03 0.0000000000000000e+00  -2.5062786942109463e-03 1.5934533437979650e-02 0.0000000000000000e+00  -6.7930751140712377e-03 2.0408209023560654e-02 0.0000000000000000e+00  -6.4451427203833641e-03 7.3734376140486236e-03 0.0000000000000000e+00  -7.6858241083932735e-03 -9.1864328312961624e-02 0.0000000000000000e+00  1.6305510328059582e-02 -1.0609672737222486e-01 0.0000000000000000e+00  1.2296951703405019e-02 5.3746372147928011e-02 0.0000000000000000e+00  2.0902806816949209e-03 7.3454805413401977e-02 0.0000000000000000e+00  -8.9683323819663102e-06 1.0161220087646263e-04 0.0000000000000000e+00  -4.0904919337716855e-06 5.1606856582642707e-05 0.0000000000000000e+00  -4.1485108888246796e-06 2.7874179034540476e-05 0.0000000000000000e+00  -1.4744362280995994e-05 1.7620528983477071e-04 0.0000000000000000e+00  -4.0421093798866953e-05 3.7474544820465249e-04 0.0000000000000000e+00  1.1036739879365948e-04 5.2996106694695581e-04 0.0000000000000000e+00  -4.1882217406959375e-05 1.4086994342761649e-05 0.0000000000000000e+00  -1.0960085603503505e-04 7.7890719180498619e-04 0.0000000000000000e+00  -2.4011672040513489e-06 8.9762446959692570e-06 0.0000000000000000e+00  3.9807375684810343e-04 1.2362822899569116e-03 0.0000000000000000e+00  -5.2031851795584090e-05 -3.0332853035276295e-06 0.0000000000000000e+00  -1.6907002997676347e-06 -4.7423763625551294e-06 0.0000000000000000e+00  -5.1075002507983591e-04 2.1398882776679580e-03 0.0000000000000000e+00  -2.1330318473699741e-05 2.2447119937168911e-05 0.0000000000000000e+00  6.9058293251518190e-05 2.4916195852594885e-04 0.0000000000000000e+00  9.3066345875635168e-04 3.3538626716055459e-03 0.0000000000000000e+00  -4.5790509010340090e-05 -1.4726315471798211e-05 0.0000000000000000e+00  -3.8454070393828770e-06 1.7436741380188005e-05 0.0000000000000000e+00  3.1696292324338004e-05 8.5641437408470679e-05 0.0000000000000000e+00  -1.8207634570405950e-06 -1.5334059096242290e-05 0.0000000000000000e+00  -1.6925371938319512e-03 7.1005515792272661e-03 0.0000000000000000e+00  6.3186655997027633e-06 6.7613889205715183e-06 0.0000000000000000e+00  1.3710683746411629e-05 3.2376447120438882e-05 0.0000000000000000e+00  1.6475994072991679e-03 9.3074909095370306e-03 0.0000000000000000e+00  -3.0748528587471846e-05 -2.0835620803319219e-05 0.0000000000000000e+00  5.3704619969220702e-06 1.6994430812292503e-07 0.0000000000000000e+00  7.5351798139875818e-06 1.8449477910475634e-05 0.0000000000000000e+00  -2.7694976020685161e-05 2.5695475981155064e-04 0.0000000000000000e+00  -4.3580866774333993e-06 3.8216011609254453e-05 0.0000000000000000e+00  -1.1537101777835086e-05 1.3316088847893998e-04 0.0000000000000000e+00  -5.2324271613722056e-06 7.0970053939087510e-05 0.0000000000000000e+00  4.2156946939158860e-06 -2.5722655679046406e-06 0.0000000000000000e+00  2.4043723607849564e-06 9.5746427978912768e-06 0.0000000000000000e+00  -1.4843510349205996e-02 1.4305770098551676e-02 0.0000000000000000e+00  -2.4672083396202371e-06 -2.5897555639274869e-05 0.0000000000000000e+00  2.1788504615445598e-06 -2.5010321432602865e-06 0.0000000000000000e+00  -2.4006307896586647e-07 -1.8430957504620446e-07 0.0000000000000000e+00  1.1451665097834926e-06 4.1188895574201857e-06 0.0000000000000000e+00  9.9580949049773982e-07 -2.2609621081494376e-06 0.0000000000000000e+00  -2.2259087646346923e-03 1.1230268672596150e-02 0.0000000000000000e+00  -1.6838422891937845e-05 -2.1261533648026500e-05 0.0000000000000000e+00  6.2071766780539405e-07 1.4875146520531443e-06 0.0000000000000000e+00  1.5382656938384208e-07 1.3923927177449436e-05 0.0000000000000000e+00  2.2389404254254158e-05 5.3278477350570259e-05 0.0000000000000000e+00  -1.4070249711483315e-05 2.3796156555965668e-05 0.0000000000000000e+00  4.4949830171963365e-05 1.2884581829031210e-04 0.0000000000000000e+00  -3.5562306397221813e-05 1.9986883668687674e-05 0.0000000000000000e+00  8.4120636828777836e-05 2.8709215784629611e-04 0.0000000000000000e+00  -5.1665515078260176e-05 3.1417273856271449e-06 0.0000000000000000e+00  2.1790918872955194e-04 9.3158021741351384e-04 0.0000000000000000e+00  -5.1300061545455642e-05 -1.0659611405797832e-05 0.0000000000000000e+00  5.8662049241739185e-04 2.2668546949287357e-03 0.0000000000000000e+00  -3.9133882177254897e-05 -1.9326995342161930e-05 0.0000000000000000e+00  1.3746005666264744e-03 5.2222884628031875e-03 0.0000000000000000e+00  -9.2374569365742990e-04 3.4520213682665631e-03 0.0000000000000000e+00  -1.7016603106744140e-06 -1.0790739272528131e-05 0.0000000000000000e+00  3.4896778110468231e-03 -9.8815710448030197e-02 0.0000000000000000e+00  -3.2711524729480612e-06 -3.2460328982990986e-05 0.0000000000000000e+00  -2.4385863474446061e-04 1.3695330664213218e-03 0.0000000000000000e+00  -2.4076034590074391e-06 1.6985705478846020e-06 0.0000000000000000e+00  -8.1051668813485490e-05 5.9798356138992810e-04 0.0000000000000000e+00  -2.9538532618704640e-06 1.5440461391389956e-05 0.0000000000000000e+00  8.7778094781064156e-07 -1.4903398100107246e-06 0.0000000000000000e+00  1.1494329831848392e-06 3.3638696087925403e-06 0.0000000000000000e+00  9.3239119285322067e-04 1.3762996561948009e-02 0.0000000000000000e+00  -1.0619120387207953e-05 -2.0635801687322103e-05 0.0000000000000000e+00  1.5815979346183375e-07 -1.1068307449617670e-06 0.0000000000000000e+00  -6.9203377096844316e-07 3.5074849489755659e-06 0.0000000000000000e+00  2.2563809140926466e-02 6.3759520037507469e-02 0.0000000000000000e+00  -3.1771207786485120e-06 -2.9263907155808023e-05 0.0000000000000000e+00  3.9953444763692999e-07 -2.4672480162680766e-06 0.0000000000000000e+00  5.4858695878289185e-07 -2.2075069582096219e-07 0.0000000000000000e+00  1.2965032121870439e-06 9.4864587819489458e-09 0.0000000000000000e+00  9.6194045487291896e-07 -3.0171335571857780e-06 0.0000000000000000e+00  1.5320064718929584e-06 -2.3655223313050507e-06 0.0000000000000000e+00  8.9991511020631544e-07 -2.6791607117238951e-06 0.0000000000000000e+00  6.8079549670647225e-07 6.8518385402770539e-07 0.0000000000000000e+00  1.4377347772971386e-06 4.5312943321897675e-07 0.0000000000000000e+00  1.0993410559492672e-06 -3.0923661584916472e-06 0.0000000000000000e+00  2.2040324772227700e-06 -8.7727739889991005e-07 0.0000000000000000e+00  1.6917924674181128e-06 -1.3535682040295935e-06 0.0000000000000000e+00  2.1575462481827903e-06 1.2254947477574451e-06 0.0000000000000000e+00  2.3527147861061840e-06 -2.1169752981861433e-06 0.0000000000000000e+00  2.1809243657704306e-06 1.1096906929816071e-06 0.0000000000000000e+00  1.5500613349929533e-06 -1.1104215732001293e-06 0.0000000000000000e+00  2.4233649602130651e-06 -3.0899254086088312e-07 0.0000000000000000e+00  3.6509912480294885e-06 -2.0523029641963122e-07 0.0000000000000000e+00  3.4162838179879329e-06 -6.4369724268163052e-07 0.0000000000000000e+00  3.5562083134983780e-06 7.4797463453472750e-08 0.0000000000000000e+00  3.7431480083386809e-06 -3.0865071091828497e-07 0.0000000000000000e+00  3.2136449248735598e-06 -2.6376318758266755e-07 0.0000000000000000e+00  3.8911421487180865e-06 -6.1329833362723839e-07 0.0000000000000000e+00  5.0046695011937596e-06 -1.7742848903301466e-07 0.0000000000000000e+00  4.1312689867686973e-06 6.3164473454394693e-08 0.0000000000000000e+00  3.4128620007611974e-06 -6.2682643876037746e-08 0.0000000000000000e+00  3.6958803731364874e-06 -1.1918257071527490e-06 0.0000000000000000e+00  3.0748142800836131e-06 2.3662237386895505e-07 0.0000000000000000e+00  4.3430392996708112e-06 -3.0783569651230774e-06 0.0000000000000000e+00  3.7926630432266093e-06 -1.0348136144068459e-06 0.0000000000000000e+00  3.0795270090718550e-06 -1.9741347182910725e-06 0.0000000000000000e+00  2.6461265876364105e-06 -1.2009363612713683e-06 0.0000000000000000e+00  3.8996576016680455e-06 -3.3007105225487891e-06 0.0000000000000000e+00  1.3147399803160992e-06 -2.7663866700126187e-06 0.0000000000000000e+00  1.2836862704188072e-07 -4.2784690317478308e-06 0.0000000000000000e+00  -4.7528944479025735e-07 -3.424445996