<?xml version="1.0"?>
<VTKFile type="UnstructuredGrid"  version="0.1"  >
<UnstructuredGrid>
<Piece  NumberOfPoints="1691" NumberOfCells="3204">
<Points>
<DataArray  type="Float64"  NumberOfComponents="3"  format="ascii">0 0 0  30 0 0  30 -10 0  0 -10 0  0.1391574078963744 0 0  0.2856388821882616 0 0  0.4398299073010886 0 0  0.6021362569539473 0 0  0.7729850389704483 0 0  0.9528258543586996 0 0  1.142131984380316 0 0  1.34140159760994 0 0  1.551159074717981 0 0  1.771956417032531 0 0  2.004374674080994 0 0  2.249025475789527 0 0  2.506552636773105 0 0  2.777633857742732 0 0  3.062982518028728 0 0  3.363349525995907 0 0  3.679525322337712 0 0  4.01234195575742 0 0  4.362675247811097 0 0  4.731447135329707 0 0  5.119628065610077 0 0  5.528239565804708 0 0  5.958356943167011 0 0  6.411112081475485 0 0  6.887696441559404 0 0  7.389364184530748 0 0  7.917435485335147 0 0  8.473300005202017 0 0  9.058420557070402 0 0  9.674336929103793 0 0  10.32266995225095 0 0  11.00512576896296 0 0  11.72350030646412 0 0  12.47968402994705 0 0  13.27566689579597 0 0  14.1135435963616 0 0  14.9955190732806 0 0  15.92391430904694 0 0  16.90117245730496 0 0  17.92986524844506 0 0  19.01269976086341 0 0  20.15252556282024 0 0  21.35234220269763 0 0  22.61530708683689 0 0  23.94474379751883 0 0  25.34415086349739 0 0  26.81721093579712 0 0  28.3678004819169 0 0  30 -1.111111111111111 0  30 -2.222222222222222 0  30 -3.333333333333333 0  30 -4.444444444444445 0  30 -5.555555555555555 0  30 -6.666666666666666 0  30 -7.777777777777777 0  30 -8.888888888888889 0  28.36780047917311 -10 0  26.8172109305839 -10 0  25.34415085606858 -10 0  23.94474378810899 -10 0  22.61530707566275 -10 0  21.3523421899591 -10 0  20.15252554870171 -10 0  19.01269974553473 -10 0  17.92986523206254 -10 0  16.90117244001232 -10 0  15.92391429097614 -10 0  14.99551905455266 -10 0  14.11354357708742 -10 0  13.27566687607703 -10 0  12.47968400987599 -10 0  11.72350028612546 -10 0  11.00512574843363 -10 0  10.32266993160086 -10 0  9.674336908396342 -10 0  9.058420536362949 -10 0  8.473299984546333 -10 0  7.917435464777824 -10 0  7.389364164113587 -10 0  6.887696420787165 -10 0  6.411112061446698 -10 0  5.95835692337857 -10 0  5.528239546282652 -10 0  5.119628046377237 -10 0  4.731447115907979 -10 0  4.362675229213632 -10 0  4.012341937260036 -10 0  3.679525304434552 -10 0  3.363349508456405 -10 0  3.062982500861274 -10 0  2.777633840953978 -10 0  2.506552620368097 -10 0  2.249025459771861 -10 0  2.004374658452946 -10 0  1.771956401795187 -10 0  1.551159059871345 -10 0  1.341401583153029 -10 0  1.142131970307521 -10 0  0.9528258406748833 -10 0  0.7729850256685147 -10 0  0.6021362439621285 -10 0  0.4398298947504031 -10 0  0.2856388700059078 -10 0  0.1391573960769001 -10 0  0 -9.855072463768115 0  0 -9.710144927536232 0  0 -9.565217391304348 0  0 -9.420289855072463 0  0 -9.27536231884058 0  0 -9.130434782608695 0  0 -8.985507246376812 0  0 -8.840579710144928 0  0 -8.695652173913043 0  0 -8.55072463768116 0  0 -8.405797101449275 0  0 -8.260869565217391 0  0 -8.115942028985508 0  0 -7.971014492753623 0  0 -7.826086956521739 0  0 -7.681159420289855 0  0 -7.536231884057971 0  0 -7.391304347826087 0  0 -7.246376811594203 0  0 -7.101449275362318 0  0 -6.956521739130435 0  0 -6.811594202898551 0  0 -6.666666666666667 0  0 -6.521739130434783 0  0 -6.376811594202898 0  0 -6.231884057971015 0  0 -6.086956521739131 0  0 -5.942028985507246 0  0 -5.797101449275362 0  0 -5.652173913043478 0  0 -5.507246376811594 0  0 -5.36231884057971 0  0 -5.217391304347826 0  0 -5.072463768115941 0  0 -4.927536231884058 0  0 -4.782608695652174 0  0 -4.637681159420289 0  0 -4.492753623188406 0  0 -4.347826086956522 0  0 -4.202898550724638 0  0 -4.057971014492754 0  0 -3.913043478260869 0  0 -3.768115942028985 0  0 -3.623188405797101 0  0 -3.478260869565217 0  0 -3.333333333333334 0  0 -3.188405797101449 0  0 -3.043478260869565 0  0 -2.898550724637681 0  0 -2.753623188405797 0  0 -2.608695652173912 0  0 -2.463768115942029 0  0 -2.318840579710145 0  0 -2.173913043478261 0  0 -2.028985507246377 0  0 -1.884057971014492 0  0 -1.739130434782609 0  0 -1.594202898550725 0  0 -1.44927536231884 0  0 -1.304347826086957 0  0 -1.159420289855072 0  0 -1.014492753623188 0  0 -0.8695652173913047 0  0 -0.72463768115942 0  0 -0.579710144927537 0  0 -0.4347826086956523 0  0 -0.2898550724637676 0  0 -0.1449275362318829 0  0.1309460514202492 -4.990980414828784 0  0.1171526873513358 -5.869565217391296 0  0.1344252986967795 -6.716855800502001 0  0.1221309018586645 -4.161899358592938 0  0.1166997684017801 -3.25954604704229 0  4.961569127360256 -0.3118894787216622 0  4.923897360678746 -9.687537149351071 0  0.1228405945134021 -2.536958536012416 0  0.1335945686177435 -7.466846676638523 0  3.206461751753455 -0.2806173508164562 0  3.213166004658842 -9.746377676274168 0  0.1155250883680452 -8.186784073011673 0  0.1359204609538445 -1.804202625344072 0  6.662432263484016 -9.600124945047963 0  6.631056521209421 -0.3942868763482545 0  2.126700074935258 -0.2065769621215452 0  2.120437876630353 -9.808537401472012 0  8.761385473272522 -9.4914222957189 0  8.786076048231736 -0.4923064159810888 0  0.1195911345135556 -8.749677128895598 0  0.1117474302775605 -1.230589418769438 0  11.3907841305612 -9.402816705944797 0  11.36435727088349 -0.618365439918426 0  1.211504568109637 -0.1471532661956818 0  1.239596144827807 -9.832618358594059 0  13.75158625181508 -9.315497816134139 0  13.7500399625954 -0.6902569910160397 0  0.131402377539402 -3.696772604078816 0  0.1204853385030979 -6.307560917781178 0  0.1346483804691658 -4.550944754283819 0  0.1255109280847009 -5.434782608695652 0  16.39894095075685 -9.180198571581517 0  16.44068234362399 -0.8166544577416346 0  0.1255109280847009 -0.7971014492753632 0  0.1162877148651766 -9.206770243020259 0  19.56645066956165 -9.043742294716539 0  29.11731382843969 -5.098539983867493 0  19.50527862123305 -0.9323941524176265 0  23.28904960561395 -8.8608997858633 0  0.6875606479622149 -0.1442604037134076 0  0.6875606348153145 -9.855739596611892 0  23.37074358394081 -1.15131614182933 0  10.00852704311311 -9.475417469395781 0  10.01049631493635 -0.5545437343697674 0  7.639131123468924 -9.543000896765111 0  7.693537846067955 -0.4574302764599576 0  5.733194300659633 -9.66079268774309 0  5.731454990332523 -0.3687808037058806 0  3.803630689980224 -9.686555789708486 0  3.834043646352164 -0.2754981925697493 0  2.618022704128803 -9.787800068206256 0  2.634320277618269 -0.2392104743186785 0  1.65952286941916 -9.813294854785646 0  1.665360553377539 -0.1820878093930922 0  0.1365068028365961 -1.543352471920677 0  0.1128108295274224 -8.471115901500411 0  0.1249192863256123 -0.5070564851587012 0  0.1172626025927563 -9.49200175151447 0  0.1255109280847009 -2.101449275362318 0  0.1255109280847009 -7.898550724637682 0  0.1247535864599936 -2.824177050114505 0  0.1155424837078822 -7.17494363557847 0  26.05192393553612 -8.777856070543081 0  26.00031291598836 -1.159065252957426 0  0.3627343947446455 -0.1301950113519217 0  0.3690141220077834 -9.868919517536135 0  28.90574865438674 -7.135369011630129 0  29.02069681040884 -2.861993939893059 0  0.1397555488250113 -0.2163338956475025 0  0.1255109280847009 -9.782608695652172 0  24.67098979274125 -8.799958058548517 0  23.93395881668722 -7.700959994796646 0  22.61396570077244 -7.764517377391733 0  23.2032949615693 -6.630776985250927 0  21.94857473380583 -6.690613342424633 0  24.50398505507967 -6.535933305198952 0  22.51489076809043 -5.580432145971667 0  21.29537841406989 -5.639199768252479 0  21.84985259542567 -4.547213342284197 0  20.65342988351128 -4.619546679988924 0  20.11277906893955 -5.663225279336593 0  19.49454290958806 -4.673886314669294 0  18.97860072994828 -5.624185949902217 0  18.40383886642446 -4.729683279047542 0  17.90575400337286 -5.630456854950327 0  17.35903168001753 -4.836859475002379 0  16.91444903556046 -5.680257663405808 0  16.36114434035519 -4.898890029095359 0  15.89440836794127 -5.835214594829282 0  15.41608945577568 -4.979845093198404 0  14.9809818125648 -5.732909169427192 0  14.51777858619734 -4.988431190461874 0  14.14039496103406 -5.776391085527889 0  13.67321261031888 -5.031745046943032 0  13.26988611760758 -5.891550007816156 0  12.85732927991246 -5.095735823822261 0  12.46423889659403 -5.760519953635332 0  12.07741841933393 -5.116608846746942 0  11.73131647445202 -5.75987862647932 0  11.35222911621012 -5.158061768105265 0  11.01225658271747 -5.784828178519854 0  10.65393216495117 -5.205808407572067 0  10.33042159780337 -5.788944717060055 0  9.98551374198097 -5.24118342090078 0  9.687616112021921 -5.812725728827915 0  9.357518717034999 -5.284717467130579 0  9.08157001076583 -5.820057568121996 0  8.766199932316585 -5.320212662582848 0  8.494748056481422 -5.830095453943056 0  8.194406727465122 -5.347802431655208 0  7.942610344706003 -5.833678024304247 0  7.660825631728443 -5.380025954369014 0  7.416702921751611 -5.83684433397813 0  7.147290851157173 -5.413787279190068 0  6.91632006965034 -5.851605397483334 0  6.658527053286988 -5.437627383845131 0  6.441897327469297 -5.862220684948111 0  6.194860224019926 -5.464520225953867 0  5.988748643021736 -5.866336295550595 0  5.755042825355586 -5.482399938780632 0  5.555770501455733 -5.867908174086599 0  5.334991086231989 -5.504761241472904 0  5.145076642106908 -5.873191062890511 0  4.935013388047023 -5.544035964184449 0  4.754345788811499 -5.880090917794126 0  4.554437025256316 -5.569020251233177 0  4.382470744799432 -5.88665007327689 0  4.192208958329529 -5.585677590398814 0  4.029485566904095 -5.896175760774888 0  4.354949258143058 -5.270074521138358 0  4.004482386201769 -5.289207815434526 0  4.158655721068861 -4.98145486433833 0  3.821444856080801 -5.001169872115685 0  3.97033944278737 -4.700814034221719 0  3.642688047138773 -4.720140385706738 0  3.788830742180677 -4.426816067812119 0  3.467446796449556 -4.450112744784491 0  3.325275354457695 -4.730293981808933 0  3.158439978631689 -4.466074367009679 0  3.294707394527546 -4
[...]
<PointData  Vectors="flow"> 
<DataArray  type="Float64"  Name="flow"  NumberOfComponents="3" format="ascii">-9.7095395312644904e-03 3.9222379860486010e-02 0.0000000000000000e+00  4.9920957987994164e-06 1.5656849604720477e-05 0.0000000000000000e+00  -8.9265803673074419e-07 -5.0474420411782298e-07 0.0000000000000000e+00  1.3684145342104855e-06 -8.0855975559606961e-06 0.0000000000000000e+00  2.1526876870154176e-03 3.7088651786040101e-02 0.0000000000000000e+00  1.1083917494271261e-03 3.5199505826330163e-02 0.0000000000000000e+00  -1.1125702253678207e-04 3.2012092874137567e-02 0.0000000000000000e+00  1.3309467758120062e-04 2.7163273265347624e-02 0.0000000000000000e+00  1.0084659141195861e-03 1.9838479896532674e-02 0.0000000000000000e+00  -1.3669903433677496e-03 1.5576560140515672e-02 0.0000000000000000e+00  4.0016772707143544e-04 1.1350875728074274e-02 0.0000000000000000e+00  5.3451463311453783e-04 7.8884052232072368e-03 0.0000000000000000e+00  -2.1967280624719628e-04 6.2585232663243829e-03 0.0000000000000000e+00  8.7271934178162423e-05 4.6405565209577896e-03 0.0000000000000000e+00  -1.8241066648798189e-07 3.6501234325713268e-03 0.0000000000000000e+00  4.9301505072802051e-05 2.9485103907155048e-03 0.0000000000000000e+00  5.6435726288290698e-06 2.2879252496382056e-03 0.0000000000000000e+00  1.4462249198067184e-04 1.6754175034703531e-03 0.0000000000000000e+00  -7.6328372683128639e-05 1.4383642801099974e-03 0.0000000000000000e+00  6.0328237438549971e-06 1.2366432347549283e-03 0.0000000000000000e+00  3.3186637526141479e-06 1.0547737797061236e-03 0.0000000000000000e+00  -7.1006763216418549e-05 9.4128127537276081e-04 0.0000000000000000e+00  3.9306842482696276e-05 6.6594310725261077e-04 0.0000000000000000e+00  1.1681096764812865e-05 6.0740912520287091e-04 0.0000000000000000e+00  1.9555650448585289e-07 5.1110334658427045e-04 0.0000000000000000e+00  1.6679131830415641e-05 4.2607626838260190e-04 0.0000000000000000e+00  -7.2539530942902240e-07 3.5126729536871006e-04 0.0000000000000000e+00  -6.2420539341316803e-07 2.9007852883752139e-04 0.0000000000000000e+00  1.8632051924029933e-05 2.2190710893752944e-04 0.0000000000000000e+00  -8.3584675277350240e-06 1.8930203342729221e-04 0.0000000000000000e+00  6.6562861017345768e-07 1.6898101236791869e-04 0.0000000000000000e+00  2.3553342267705717e-06 1.4135438830416492e-04 0.0000000000000000e+00  2.5522929806967999e-06 1.1376555899390468e-04 0.0000000000000000e+00  1.0056177872045720e-06 9.1994616094710825e-05 0.0000000000000000e+00  1.0671914581842708e-06 7.5623531868184278e-05 0.0000000000000000e+00  7.9077828558348163e-07 6.2380196447627746e-05 0.0000000000000000e+00  1.5090080558821934e-08 4.9895568405868769e-05 0.0000000000000000e+00  2.8992060286167840e-06 3.7921388999340665e-05 0.0000000000000000e+00  -1.6643061598652830e-06 3.3280459112556512e-05 0.0000000000000000e+00  2.5608111727495289e-09 3.0838026671585017e-05 0.0000000000000000e+00  2.3013511400370273e-07 2.7632870210088551e-05 0.0000000000000000e+00  9.7189072507884488e-07 2.3393678923364893e-05 0.0000000000000000e+00  7.0882036124463069e-07 2.0353424159662346e-05 0.0000000000000000e+00  1.5624919177556302e-07 1.8040113490804547e-05 0.0000000000000000e+00  3.2569252249856687e-07 1.7139995446148298e-05 0.0000000000000000e+00  -2.2202610388775131e-06 1.8887510508625435e-05 0.0000000000000000e+00  1.1213704478512362e-06 1.2329897728129320e-05 0.0000000000000000e+00  6.7537189605161833e-07 1.4381864295889732e-05 0.0000000000000000e+00  -2.5020390132436022e-07 1.3467208050135491e-05 0.0000000000000000e+00  -2.0747965870166990e-07 1.3491288610027372e-05 0.0000000000000000e+00  1.1487366505451410e-06 1.1841773599227182e-05 0.0000000000000000e+00  -3.3948848482651785e-06 1.3870797016811635e-05 0.0000000000000000e+00  -4.2306577889509484e-07 -2.0125574654220903e-06 0.0000000000000000e+00  -4.3045491185549181e-06 1.7524070277042752e-06 0.0000000000000000e+00  1.3821818748119649e-06 -2.0538762194446518e-06 0.0000000000000000e+00  -1.3317616454105831e-06 3.9872612985146289e-07 0.0000000000000000e+00  -9.0550340650713072e-07 -6.6352897892713004e-07 0.0000000000000000e+00  9.9789891596115580e-07 -4.4031985620114721e-07 0.0000000000000000e+00  -1.3574938632521729e-06 -9.7547297579320136e-08 0.0000000000000000e+00  -1.6569922457887483e-06 -7.8475666222012926e-07 0.0000000000000000e+00  -4.6517672180081703e-07 -1.9442206680552756e-06 0.0000000000000000e+00  2.4521724612576066e-07 -2.3631179644252976e-06 0.0000000000000000e+00  -6.0359678721014202e-07 -3.7318956289448505e-06 0.0000000000000000e+00  5.8509056473589110e-07 -3.7199977060526477e-06 0.0000000000000000e+00  1.6168723899690886e-07 -4.1967492942284061e-06 0.0000000000000000e+00  7.1350404073814598e-07 -4.7145050081727260e-06 0.0000000000000000e+00  5.2965666159103132e-07 -5.0412247283260882e-06 0.0000000000000000e+00  1.3562589559852288e-06 -5.2062961267315249e-06 0.0000000000000000e+00  1.4424229218272477e-06 -4.7808879355473597e-06 0.0000000000000000e+00  1.9220477145773801e-06 -3.9562768178306206e-06 0.0000000000000000e+00  2.1936631295355644e-06 -3.2769485845364729e-06 0.0000000000000000e+00  2.7281390601564618e-06 -1.9416669495304834e-06 0.0000000000000000e+00  3.1433936858462877e-06 -4.5521190443447706e-07 0.0000000000000000e+00  3.3162504705981539e-06 2.0433056192458781e-06 0.0000000000000000e+00  4.0364035990725493e-06 4.7535562964951877e-06 0.0000000000000000e+00  2.1539117751505396e-06 7.7456614002865622e-06 0.0000000000000000e+00  4.9476043025504880e-06 9.4309744059758940e-06 0.0000000000000000e+00  -2.5261786022487403e-07 1.0613989453214284e-05 0.0000000000000000e+00  2.0960264616444698e-06 1.3491135813110883e-05 0.0000000000000000e+00  -4.2285761268244500e-07 1.4409473893319465e-05 0.0000000000000000e+00  -1.0035590953150907e-06 1.5006541922576617e-05 0.0000000000000000e+00  -3.2818550522737563e-06 1.7243009982057452e-05 0.0000000000000000e+00  -5.4006427179750894e-06 1.7545245555496878e-05 0.0000000000000000e+00  -7.2313182643807844e-06 1.8981417109704638e-05 0.0000000000000000e+00  -9.1369235842440943e-06 1.8422478480490009e-05 0.0000000000000000e+00  -1.4855586797764263e-05 1.7834720243104990e-05 0.0000000000000000e+00  -1.4809846127969581e-05 1.4831766761062267e-05 0.0000000000000000e+00  -1.6023048368525106e-05 1.1392936743423851e-05 0.0000000000000000e+00  -1.7826369855734711e-05 8.9712128529380028e-06 0.0000000000000000e+00  -1.8699262618926075e-05 7.2208322871078454e-06 0.0000000000000000e+00  -2.0941831732528562e-05 4.2557590765816941e-06 0.0000000000000000e+00  -2.1432107918617101e-05 1.2710281040432312e-06 0.0000000000000000e+00  -2.0953968631178282e-05 5.8185547620519749e-07 0.0000000000000000e+00  -2.0705592132780345e-05 -2.3855472923353263e-06 0.0000000000000000e+00  -2.1944360302640989e-05 -4.1652563757853465e-06 0.0000000000000000e+00  -1.8776467856997309e-05 -5.5778218626342109e-06 0.0000000000000000e+00  -1.8271945969669969e-05 -6.7488259962950516e-06 0.0000000000000000e+00  -1.7687412347175846e-05 -7.4271438999094878e-06 0.0000000000000000e+00  -1.6667016562788404e-05 -8.1922890472056656e-06 0.0000000000000000e+00  -1.4302615471695954e-05 -8.9647408788130290e-06 0.0000000000000000e+00  -1.2574111448621057e-05 -9.3005736638432071e-06 0.0000000000000000e+00  -1.1015647221290978e-05 -9.7926345144969768e-06 0.0000000000000000e+00  -1.0873142507294338e-05 -9.6649689614348271e-06 0.0000000000000000e+00  -6.7476176987453678e-06 -9.6314732930934019e-06 0.0000000000000000e+00  -4.8227580748812971e-06 -9.0167321819011340e-06 0.0000000000000000e+00  -3.8941128727269997e-06 -8.2343498270599586e-06 0.0000000000000000e+00  -3.9551422935903706e-06 -7.2612959905099912e-06 0.0000000000000000e+00  -2.7623771264758689e-06 -6.8055411032162738e-06 0.0000000000000000e+00  1.1380151551568792e-06 -1.2501794661345090e-05 0.0000000000000000e+00  3.5841717606118979e-07 -1.2352288289828507e-05 0.0000000000000000e+00  1.6428612432650761e-07 -1.2793503728250509e-05 0.0000000000000000e+00  -6.4010069944864880e-07 -1.2716265679283464e-05 0.0000000000000000e+00  -5.4036782952140122e-07 -9.9273159395011251e-06 0.0000000000000000e+00  -2.3037424573401822e-07 -1.0393521105818498e-05 0.0000000000000000e+00  1.3915222214489964e-07 -7.9762360880667847e-06 0.0000000000000000e+00  -5.3488899055922813e-07 -6.4105501228586426e-06 0.0000000000000000e+00  3.0334044391822779e-07 -5.2472372355308542e-06 0.0000000000000000e+00  -7.2138974809951559e-08 -4.9411178035327214e-06 0.0000000000000000e+00  -2.3677713226714668e-07 -3.2632514041651008e-06 0.0000000000000000e+00  -1.8745178972837160e-07 -2.9515265047740505e-06 0.0000000000000000e+00  -4.6669171500624298e-07 -1.1890969062359421e-06 0.0000000000000000e+00  -5.6324355399234699e-08 6.3937186094032469e-07 0.0000000000000000e+00  -2.0290798043963875e-07 3.0589268710144633e-07 0.0000000000000000e+00  -2.5102962555052913e-07 2.3076356945468324e-06 0.0000000000000000e+00  -2.6391295479110644e-07 1.7214234410286932e-06 0.0000000000000000e+00  -7.7368019764707637e-07 4.6950569617406594e-06 0.0000000000000000e+00  -2.0445744322412236e-07 5.0756152925337080e-06 0.0000000000000000e+00  -5.1688640822736134e-07 5.6423331609052861e-06 0.0000000000000000e+00  -4.3653478708450975e-07 7.5560137709545222e-06 0.0000000000000000e+00  6.5117646767893032e-08 9.7958169404595911e-06 0.0000000000000000e+00  -1.3920675630004012e-06 1.0499623684896653e-05 0.0000000000000000e+00  3.7765151376685332e-07 1.0975837824617686e-05 0.0000000000000000e+00  2.4167120520146017e-07 1.4827390514000328e-05 0.0000000000000000e+00  -5.3672129693860287e-07 1.3788205675691670e-05 0.0000000000000000e+00  -5.2893526130303762e-07 1.7375950123354466e-05 0.0000000000000000e+00  -3.8944550394384932e-07 1.7098137262904234e-05 0.0000000000000000e+00  -1.1462234740029631e-06 1.9968424127709989e-05 0.0000000000000000e+00  -6.3432329265399478e-07 2.4660058943689198e-05 0.0000000000000000e+00  -1.7136400225677743e-06 2.4895090522863637e-05 0.0000000000000000e+00  -5.2041766906856046e-06 2.9054112542273732e-05 0.0000000000000000e+00  -1.9211844032028332e-06 2.7372573023773815e-05 0.0000000000000000e+00  1.4089734465105150e-06 3.6444012077207329e-05 0.0000000000000000e+00  -3.9549590658531675e-06 4.0740510575105401e-05 0.0000000000000000e+00  1.5683665598358606e-06 3.9852119314574636e-05 0.0000000000000000e+00  -2.8468899586284061e-06 4.7894042181731428e-05 0.0000000000000000e+00  -4.2901559076020196e-06 5.7683026195751104e-05 0.0000000000000000e+00  -3.7945799963714738e-06 5.7379699983220164e-05 0.0000000000000000e+00  -3.2008196355200364e-06 5.8165950680211755e-05 0.0000000000000000e+00  -9.7529681390673478e-07 7.5719925537060767e-05 0.0000000000000000e+00  -1.2115689614941217e-05 8.1962427550674388e-05 0.0000000000000000e+00  4.6757900452709078e-06 8.7358748921292169e-05 0.0000000000000000e+00  -5.0215391379718950e-06 1.0516203975311091e-04 0.0000000000000000e+00  -4.7845401049860051e-06 1.1693399637811286e-04 0.0000000000000000e+00  -3.7315608532330033e-06 1.4084321360497429e-04 0.0000000000000000e+00  -5.2085992715407636e-06 1.4255475595260713e-04 0.0000000000000000e+00  -1.1002016099879014e-05 1.6702795285439010e-04 0.0000000000000000e+00  -6.4969367523695375e-06 2.2313254573466833e-04 0.0000000000000000e+00  -1.1888694126809872e-05 2.5507474190508787e-04 0.0000000000000000e+00  -1.6394929106267406e-05 2.6972241346345354e-04 0.0000000000000000e+00  -2.9028200613907892e-05 3.2393623800505044e-04 0.0000000000000000e+00  -2.4563046921135673e-05 4.2142787417321660e-04 0.0000000000000000e+00  -3.3972935297174242e-05 4.7098503372899778e-04 0.0000000000000000e+00  -4.1556314565745278e-05 5.6981643111312622e-04 0.0000000000000000e+00  -3.2104626547684282e-05 7.1768533290671112e-04 0.0000000000000000e+00  -1.6347846665476363e-04 9.6250853907760791e-04 0.0000000000000000e+00  -1.4710862511122094e-04 1.2172372001554035e-03 0.0000000000000000e+00  -1.7344893345906345e-04 1.6621160737483362e-03 0.0000000000000000e+00  -3.6256909469879701e-04 2.3140431123152825e-03 0.0000000000000000e+00  -5.3151704819269952e-04 3.2097951964797601e-03 0.0000000000000000e+00  -7.5827479679889571e-04 4.4981275751033853e-03 0.0000000000000000e+00  -1.9392090892256125e-03 8.4298049056271366e-03 0.0000000000000000e+00  -5.3672040977993307e-03 1.1979722158546389e-02 0.0000000000000000e+00  -4.1571152080385788e-03 2.8775653353154282e-02 0.0000000000000000e+00  -1.6873885691940486e-02 -9.0211229772189146e-03 0.0000000000000000e+00  4.7749510782987907e-04 -6.3063515362026562e-02 0.0000000000000000e+00  -3.5436666224194237e-03 -1.6932200212983427e-02 0.0000000000000000e+00  -4.5157002157762653e-06 4.0734304612803080e-05 0.0000000000000000e+00  -1.3235431726845765e-06 1.8160096331473301e-05 0.0000000000000000e+00  -1.9255024571150473e-06 1.0900312602870746e-05 0.0000000000000000e+00  -5.3035775370553516e-06 6.4262597106984031e-05 0.0000000000000000e+00  -1.8317489459263848e-05 1.4078824935633135e-04 0.0000000000000000e+00  5.1958154762446164e-05 1.6590100702830804e-04 0.0000000000000000e+00  -1.5465961996169975e-05 6.6291864461967041e-06 0.0000000000000000e+00  -4.3666562242060206e-05 2.8260342923672053e-04 0.0000000000000000e+00  -7.5764002651143001e-07 3.0404268557908766e-06 0.0000000000000000e+00  1.9078588964424893e-04 4.1892541688103930e-04 0.0000000000000000e+00  -1.9273099157496707e-05 -1.0698278548601380e-06 0.0000000000000000e+00  -4.6622918286473568e-07 -2.1295235363613158e-06 0.0000000000000000e+00  -1.8752325942729783e-04 8.2934010335070345e-04 0.0000000000000000e+00  -7.3564794140029865e-06 9.4843867248116209e-06 0.0000000000000000e+00  3.0583135324277942e-05 7.6453169515929513e-05 0.0000000000000000e+00  5.0747103919883982e-04 1.3268212458123995e-03 0.0000000000000000e+00  -1.7389198946585482e-05 -7.4127719513524241e-06 0.0000000000000000e+00  -1.4689990872864024e-06 6.8808233699626782e-06 0.0000000000000000e+00  1.3328925358175306e-05 2.0935284077489277e-05 0.0000000000000000e+00  -6.8404037872667991e-07 -5.5351036144093443e-06 0.0000000000000000e+00  -8.0206390927004976e-04 2.6085545849948736e-03 0.0000000000000000e+00  2.6130544358802244e-06 2.4082191515256811e-06 0.0000000000000000e+00  5.1286605808874426e-06 7.7042627490483719e-06 0.0000000000000000e+00  1.6517328877837998e-03 4.9468018645816543e-03 0.0000000000000000e+00  -1.1521135021126331e-05 -1.0667654974712058e-05 0.0000000000000000e+00  1.6762285585165050e-06 -2.3378755132916509e-09 0.0000000000000000e+00  2.8758789641359736e-06 4.6451462818120745e-06 0.0000000000000000e+00  -9.7451746993239013e-06 9.8022260918466037e-05 0.0000000000000000e+00  -2.0490264269208939e-06 1.4109231211500053e-05 0.0000000000000000e+00  -3.6022202884152997e-06 5.0104512953339174e-05 0.0000000000000000e+00  -1.7931516697339349e-06 2.6661419483195681e-05 0.0000000000000000e+00  1.5027880650086843e-06 -8.4962110015252964e-07 0.0000000000000000e+00  8.3529088279479413e-07 2.1579220136804307e-06 0.0000000000000000e+00  -3.9950058734739688e-03 8.7202966762268130e-03 0.0000000000000000e+00  -1.0891213439588128e-06 -9.7229430529659094e-06 0.0000000000000000e+00  7.6200961015087350e-07 -5.5239246601359740e-07 0.0000000000000000e+00  -1.5028337822451677e-07 -7.4094521224198688e-08 0.0000000000000000e+00  4.0445983765076551e-07 3.4994353032913002e-07 0.0000000000000000e+00  3.5826297177993122e-07 -7.2374983184837568e-07 0.0000000000000000e+00  3.6805844739120474e-03 9.7260661432694660e-03 0.0000000000000000e+00  -5.8934765908144099e-06 -1.2123787365627266e-05 0.0000000000000000e+00  2.6654084173755419e-07 -6.3593188497912727e-08 0.0000000000000000e+00  -2.3793634777537630e-07 5.4524447197696249e-06 0.0000000000000000e+00  8.8901861464846870e-06 1.4353806883187565e-05 0.0000000000000000e+00  -5.3278478089403682e-06 1.0255070526667101e-05 0.0000000000000000e+00  1.8484586686379811e-05 3.4977152629404091e-05 0.0000000000000000e+00  -1.3450763720934255e-05 9.6172164266233977e-06 0.0000000000000000e+00  3.6442834332396914e-05 7.8608278442797062e-05 0.0000000000000000e+00  -1.9391683286937571e-05 1.4488539059207591e-06 0.0000000000000000e+00  1.0104895022058479e-04 2.9944435896370311e-04 0.0000000000000000e+00  -1.9553514427623181e-05 -5.4776622426173254e-06 0.0000000000000000e+00  2.9992598066491764e-04 8.7533012734847108e-04 0.0000000000000000e+00  -1.4837776136505026e-05 -1.0078970007593465e-05 0.0000000000000000e+00  9.6124965238531001e-04 2.2597144902632613e-03 0.0000000000000000e+00  -3.3484088562544357e-04 1.2629054354601017e-03 0.0000000000000000e+00  -5.1632678702605157e-07 -4.3811922535594757e-06 0.0000000000000000e+00  -2.4696368279581507e-02 1.4263618977664549e-02 0.0000000000000000e+00  -1.5593424405275525e-06 -1.3042043007248167e-05 0.0000000000000000e+00  -1.0908387265145897e-04 5.1390087425949040e-04 0.0000000000000000e+00  -1.0046851829687058e-06 5.6320510807707445e-07 0.0000000000000000e+00  -3.8351344020410289e-05 2.4045306060839486e-04 0.0000000000000000e+00  -1.5346455917479023e-06 5.4557629565982079e-06 0.0000000000000000e+00  3.9856518334883072e-07 -4.7288365183812030e-07 0.0000000000000000e+00  4.8780282959533902e-07 4.2815319444631672e-07 0.0000000000000000e+00  1.6169299777970235e-03 9.2702361294299471e-03 0.0000000000000000e+00  -4.2945281951635536e-06 -1.0755621481581981e-05 0.0000000000000000e+00  5.6840515626175486e-08 -5.1086365622276367e-07 0.0000000000000000e+00  -2.3222718544438153e-07 1.3872969450101592e-06 0.0000000000000000e+00  -4.3328865494522608e-03 -4.5280681384119927e-02 0.0000000000000000e+00  -8.7279511754314029e-07 -1.3462307860009044e-05 0.0000000000000000e+00  1.6690164624370478e-07 -8.8541171593547013e-07 0.0000000000000000e+00  1.6326896296264447e-07 1.2754441652220645e-07 0.0000000000000000e+00  4.1103786311973640e-07 2.5913483045278677e-07 0.0000000000000000e+00  4.2890327956733062e-07 -1.4524264955002273e-06 0.0000000000000000e+00  5.8287826801149753e-07 -1.1342995420932176e-06 0.0000000000000000e+00  3.3601043018832600e-07 -1.2703214409517844e-06 0.0000000000000000e+00  1.7955920042061823e-07 6.4844881653814709e-07 0.0000000000000000e+00  4.9695946119501279e-07 4.2453094606426444e-07 0.0000000000000000e+00  4.4918679336481495e-07 -1.4115764813775053e-06 0.0000000000000000e+00  9.9831110513577174e-07 -1.9015843414268142e-07 0.0000000000000000e+00  4.9182135077577465e-07 -8.1489413542155912e-07 0.0000000000000000e+00  7.2111974076531163e-07 1.0128157091625270e-06 0.0000000000000000e+00  9.8558847576198041e-07 -1.2214439096278221e-06 0.0000000000000000e+00  7.2270230630316101e-07 7.1690613559725764e-07 0.0000000000000000e+00  3.8351677531802353e-07 -4.8347518170355761e-07 0.0000000000000000e+00  8.6615281159153561e-07 -2.7888869890176416e-07 0.0000000000000000e+00  1.5202533014218567e-06 -3.7449555188133702e-08 0.0000000000000000e+00  1.1494336750880313e-06 -4.7367375515992199e-07 0.0000000000000000e+00  1.2673794924578671e-06 9.5273365888760724e-08 0.0000000000000000e+00  1.4921741254935544e-06 -5.4082649479972205e-08 0.0000000000000000e+00  9.5390992956467452e-07 -1.1583539847400224e-07 0.0000000000000000e+00  1.4525394192158736e-06 -4.7621113828754168e-08 0.0000000000000000e+00  2.1068026594847310e-06 -1.9353970039281571e-07 0.0000000000000000e+00  1.4965339080099863e-06 3.1649969242318380e-07 0.0000000000000000e+00  1.1991125848331473e-06 -5.6736346446659250e-08 0.0000000000000000e+00  1.2576729066526131e-06 -4.8673027102942481e-07 0.0000000000000000e+00  1.0523575757677935e-06 4.4713158853480871e-07 0.0000000000000000e+00  1.7681735756186037e-06 -1.4223218782545818e-06 0.0000000000000000e+00  1.6167561930102317e-06 -4.1166016299182108e-07 0.0000000000000000e+00  1.0085510173965650e-06 -4.6130149672441101e-07 0.0000000000000000e+00  8.7218636930448366e-07 -2.8246129163186924e-07 0.0000000000000000e+00  1.8153569723454759e-06 -1.2610624209049540e-06 0.0000000000000000e+00  6.3098295697537769e-07 -9.9461042360584009e-07 0.0000000000000000e+00  -1.3070102689266901e-07 -1.4232918634869845e-06 0.0000000000000000e+00  -5.2758186597707894e-08 -1.327202214760