<?xml version="1.0"?>
<VTKFile type="UnstructuredGrid"  version="0.1"  >
<UnstructuredGrid>
<Piece  NumberOfPoints="13179" NumberOfCells="25814">
<Points>
<DataArray  type="Float64"  NumberOfComponents="3"  format="ascii">0 0 0  30 0 0  30 -10 0  0 -10 0  0.02360821169319077 0 0  0.04721642338638154 0 0  0.07206717063563725 0 0  0.09691791788489297 0 0  0.1230766011355843 0 0  0.1492352843862757 0 0  0.1767707375239038 0 0  0.204306190661532 0 0  0.2332908770901271 0 0  0.2622755635187223 0 0  0.2927857633803451 0 0  0.323295963241968 0 0  0.3554119623832387 0 0  0.3875279615245094 0 0  0.4213342730081758 0 0  0.4551405844918422 0 0  0.4907261762804851 0 0  0.526311768069128 0 0  0.5637702848355051 0 0  0.6012288016018821 0 0  0.6406588220121138 0 0  0.6800888424223455 0 0  0.721594129780935 0 0  0.7630994171395246 0 0  0.8067891887833475 0 0  0.8504789604271704 0 0  0.8964681941825949 0 0  0.9424574279380195 0 0  0.9908671465681095 0 0  1.039276865198199 0 0  1.090234462786975 0 0  1.141192060375751 0 0  1.194831641933244 0 0  1.248471223490737 0 0  1.304933942963653 0 0  1.361396662436569 0 0  1.420831104471586 0 0  1.480265546506604 0 0  1.542828113436244 0 0  1.605390680365884 0 0  1.671246013469327 0 0  1.73710134657277 0 0  1.806422752814762 0 0  1.875744159056755 0 0  1.948714057431306 0 0  2.021683955805857 0 0  2.098494373901932 0 0  2.175304791998006 0 0  2.256157866653476 0 0  2.337010941308945 0 0  2.422119443935387 0 0  2.50722794656183 0 0  2.596815840700639 0 0  2.686403734839449 0 0  2.780706776094687 0 0  2.875009817349925 0 0  2.974276175689285 0 0  3.073542534028646 0 0  3.178033441002704 0 0  3.282524347976761 0 0  3.392514777963501 0 0  3.502505207950242 0 0  3.618284608533553 0 0  3.734064009116865 0 0  3.855937062816526 0 0  3.977810116516187 0 0  4.106097541496641 0 0  4.234384966477093 0 0  4.369424362562147 0 0  4.5044637586472 0 0  4.646610489729194 0 0  4.788757220811188 0 0  4.938385356669961 0 0  5.088013492528733 0 0  5.24551679218304 0 0  5.403020091837347 0 0  5.568813038399614 0 0  5.73460598496188 0 0  5.909124878408681 0 0  6.083643771855482 0 0  6.267347873338513 0 0  6.451051974821543 0 0  6.644424714363561 0 0  6.83779745390558 0 0  7.041347702348167 0 0  7.244897950790754 0 0  7.459161368238869 0 0  7.673424785686984 0 0  7.898965226038037 0 0  8.124505666389089 0 0  8.361916654054033 0 0  8.599327641718979 0 0  8.849233942517035 0 0  9.099140243315093 0 0  9.362199507946787 0 0  9.625258772578484 0 0  9.902163261537794 0 0  10.1790677504971 0 0  10.47054616023911 0 0  10.76202456998112 0 0  11.06884394887334 0 0  11.37566332776555 0 0  11.69863109504192 0 0  12.02159886231829 0 0  12.3615649378891 0 0  12.7015310134599 0 0  13.05939003847426 0 0  13.41724906348862 0 0  13.79394276982091 0 0  14.1706364761532 0 0  14.5671561683298 0 0  14.96367586050641 0 0  15.38106501332897 0 0  15.79845416615153 0 0  16.23781117165827 0 0  16.677168177165 0 0  17.13964923659526 0 0  17.60213029602552 0 0  18.0889524622663 0 0  18.57577462850707 0 0  19.08821901304263 0 0  19.60066339757818 0 0  20.14007853843172 0 0  20.67949367928525 0 0  21.24729908993883 0 0  21.8151045005924 0 0  22.41279440541421 0 0  23.01048431023601 0 0  23.63963157605829 0 0  24.26877884188056 0 0  24.93103912515648 0 0  25.59329940843241 0 0  26.29041549584691 0 0  26.98753158326142 0 0  27.72133799026916 0 0  28.45514439727691 0 0  29.22757219863846 0 0  30 -0.3571428571428571 0  30 -0.7142857142857142 0  30 -1.071428571428571 0  30 -1.428571428571428 0  30 -1.785714285714286 0  30 -2.142857142857143 0  30 -2.5 0  30 -2.857142857142857 0  30 -3.214285714285714 0  30 -3.571428571428571 0  30 -3.928571428571428 0  30 -4.285714285714286 0  30 -4.642857142857142 0  30 -5 0  30 -5.357142857142857 0  30 -5.714285714285714 0  30 -6.071428571428571 0  30 -6.428571428571428 0  30 -6.785714285714285 0  30 -7.142857142857142 0  30 -7.5 0  30 -7.857142857142857 0  30 -8.214285714285714 0  30 -8.571428571428571 0  30 -8.928571428571427 0  30 -9.285714285714285 0  30 -9.642857142857142 0  29.22757220128658 -10 0  28.45514440257316 -10 0  27.72133799277628 -10 0  26.98753158297939 -10 0  26.29041549304805 -10 0  25.5932994031167 -10 0  24.93103911757599 -10 0  24.26877883203527 -10 0  23.63963156418132 -10 0  23.01048429632737 -10 0  22.41279438968936 -10 0  21.81510448305136 -10 0  21.24729907078059 -10 0  20.67949365850982 -10 0  20.14007851622273 -10 0  19.60066337393564 -10 0  19.08821898813588 -10 0  18.57577460233611 -10 0  18.08895243498708 -10 0  17.60213026763805 -10 0  17.13964920724307 -10 0  16.6771681468481 -10 0  16.2378111405086 -10 0  15.79845413416909 -10 0  15.38106498063496 -10 0  14.96367582710082 -10 0  14.56715613432376 -10 0  14.17063644154669 -10 0  13.79394273471576 -10 0  13.41724902788484 -10 0  13.05939000246495 -10 0  12.70153097704506 -10 0  12.36156490115379 -10 0  12.02159882526251 -10 0  11.69863105774323 -10 0  11.37566329022395 -10 0  11.06884391115945 -10 0  10.76202453209494 -10 0  10.47054612224479 -10 0  10.17906771239465 -10 0  9.902163223385379 -10 0  9.625258734376107 -10 0  9.362199469747061 -10 0  9.099140205118012 -10 0  8.849233904370102 -10 0  8.599327603622193 -10 0  8.361916616050124 -10 0  8.124505628478055 -10 0  7.898965188258209 -10 0  7.673424748038361 -10 0  7.459161330755727 -10 0  7.244897913473093 -10 0  7.041347665226496 -10 0  6.837797416979896 -10 0  6.644424677660922 -10 0  6.451051938341948 -10 0  6.26734783710581 -10 0  6.083643735869675 -10 0  5.90912484269068 -10 0  5.734605949511682 -10 0  5.568813003235423 -10 0  5.403020056959164 -10 0  5.24551675760658 -10 0  5.088013458254 -10 0  4.938385322710374 -10 0  4.788757187166745 -10 0  4.646610456411224 -10 0  4.504463725655707 -10 0  4.369424329906533 -10 0  4.234384934157362 -10 0  4.106097509520442 -10 0  3.977810084883522 -10 0  3.85593703153344 -10 0  3.734063978183357 -10 0  3.618284577954206 -10 0  3.502505177725055 -10 0  3.392514748095728 -10 0  3.282524318466404 -10 0  3.1780334118518 -10 0  3.073542505237196 -10 0  2.97427614725823 -10 0  2.875009789279265 -10 0  2.780706748384375 -10 0  2.686403707489482 -10 0  2.596815813710069 -10 0  2.507227919930656 -10 0  2.422119417661861 -10 0  2.337010915393062 -10 0  2.256157841092762 -10 0  2.175304766792465 -10 0  2.098494349048437 -10 0  2.021683931304413 -10 0  1.948714033278215 -10 0  1.875744135252013 -10 0  1.806422729354161 -10 0  1.737101323456312 -10 0  1.671245990692352 -10 0  1.605390657928396 -10 0  1.542828091333185 -10 0  1.480265524737977 -10 0  1.420831083031992 -10 0  1.36139664132601 -10 0  1.304933922176438 -10 0  1.248471203026863 -10 0  1.194831621786765 -10 0  1.14119204054667 -10 0  1.09023444350921 -10 0  1.039276846471754 -10 0  0.9908671279064798 -10 0  0.942457409341209 -10 0  0.8964681758842019 -10 0  0.8504789424271948 -10 0  0.8067891710751951 -10 0  0.7630993997231954 -10 0  0.7215941126497469 -10 0  0.6800888255762949 -10 0  0.6406588054444597 -10 0  0.6012287853126246 -10 0  0.5637702688178621 -10 0  0.5263117523230996 -10 0  0.4907261607992695 -10 0  0.4551405692754429 -10 0  0.4213342580497894 -10 0  0.3875279468241395 -10 0  0.3554119479341011 -10 0  0.3232959490440663 -10 0  0.2927857494269297 -10 0  0.2622755498097931 -10 0  0.2332908636189828 -10 0  0.2043061774281725 -10 0  0.1767707245216883 -10 0  0.1492352716152006 -10 0  0.1230765885890825 -10 0  0.09691790556296098 -10 0  0.0720671585317838 -10 0  0.04721641150060663 -10 0  0.02360820575030331 -10 0  0 -9.957983193277311 0  0 -9.915966386554622 0  0 -9.873949579831933 0  0 -9.831932773109244 0  0 -9.789915966386555 0  0 -9.747899159663866 0  0 -9.705882352941176 0  0 -9.663865546218487 0  0 -9.621848739495798 0  0 -9.579831932773109 0  0 -9.53781512605042 0  0 -9.495798319327731 0  0 -9.453781512605042 0  0 -9.411764705882353 0  0 -9.369747899159664 0  0 -9.327731092436975 0  0 -9.285714285714286 0  0 -9.243697478991596 0  0 -9.201680672268907 0  0 -9.159663865546218 0  0 -9.117647058823529 0  0 -9.07563025210084 0  0 -9.033613445378151 0  0 -8.991596638655462 0  0 -8.949579831932773 0  0 -8.907563025210084 0  0 -8.865546218487395 0  0 -8.823529411764707 0  0 -8.781512605042018 0  0 -8.739495798319329 0  0 -8.69747899159664 0  0 -8.655462184873949 0  0 -8.61344537815126 0  0 -8.571428571428571 0  0 -8.529411764705882 0  0 -8.487394957983193 0  0 -8.445378151260504 0  0 -8.403361344537815 0  0 -8.361344537815127 0  0 -8.319327731092438 0  0 -8.277310924369749 0  0 -8.235294117647058 0  0 -8.193277310924369 0  0 -8.15126050420168 0  0 -8.109243697478991 0  0 -8.067226890756302 0  0 -8.025210084033613 0  0 -7.983193277310924 0  0 -7.941176470588236 0  0 -7.899159663865547 0  0 -7.857142857142857 0  0 -7.815126050420168 0  0 -7.773109243697479 0  0 -7.73109243697479 0  0 -7.689075630252101 0  0 -7.647058823529411 0  0 -7.605042016806722 0  0 -7.563025210084033 0  0 -7.521008403361344 0  0 -7.478991596638656 0  0 -7.436974789915967 0  0 -7.394957983193278 0  0 -7.352941176470589 0  0 -7.3109243697479 0  0 -7.26890756302521 0  0 -7.226890756302521 0  0 -7.184873949579832 0  0 -7.142857142857143 0  0 -7.100840336134453 0  0 -7.058823529411764 0  0 -7.016806722689076 0  0 -6.974789915966387 0  0 -6.932773109243698 0  0 -6.890756302521009 0  0 -6.84873949579832 0  0 -6.806722689075631 0  0 -6.764705882352941 0  0 -6.722689075630252 0  0 -6.680672268907563 0  0 -6.638655462184874 0  0 -6.596638655462185 0  0 -6.554621848739496 0  0 -6.512605042016807 0  0 -6.470588235294118 0  0 -6.428571428571429 0  0 -6.38655462184874 0  0 -6.344537815126051 0  0 -6.302521008403362 0  0 -6.260504201680672 0  0 -6.218487394957983 0  0 -6.176470588235294 0  0 -6.134453781512605 0  0 -6.092436974789917 0  0 -6.050420168067227 0  0 -6.008403361344538 0  0 -5.966386554621849 0  0 -5.92436974789916 0  0 -5.882352941176471 0  0 -5.840336134453782 0  0 -5.798319327731092 0  0 -5.756302521008403 0  0 -5.714285714285714 0  0 -5.672268907563025 0  0 -5.630252100840336 0  0 -5.588235294117647 0 
[...]
<PointData  Vectors="flow"> 
<DataArray  type="Float64"  Name="flow"  NumberOfComponents="3" format="ascii">-1.0151023877597025e-02 2.0043704860757006e-01 0.0000000000000000e+00  1.9768920560968455e-05 3.6832390578791407e-04 0.0000000000000000e+00  -7.4202419390478289e-06 -7.4288908559375025e-06 0.0000000000000000e+00  -5.8852593006825582e-06 1.4217835482285959e-05 0.0000000000000000e+00  -2.0474307248956187e-04 1.9725483549411657e-01 0.0000000000000000e+00  2.7369527792642841e-03 1.9327393527609588e-01 0.0000000000000000e+00  -1.2543212128079393e-03 1.7985942401711266e-01 0.0000000000000000e+00  1.3402462019240170e-03 1.6403001417657401e-01 0.0000000000000000e+00  -7.4924255825207912e-04 1.5044459157787743e-01 0.0000000000000000e+00  -3.5935071977172712e-04 1.3768970735240849e-01 0.0000000000000000e+00  2.6303563318760251e-04 1.2360845005764738e-01 0.0000000000000000e+00  3.4976939984054348e-04 1.0964968176922869e-01 0.0000000000000000e+00  -1.0192925092837645e-03 1.0109454284726911e-01 0.0000000000000000e+00  1.2616066219791504e-04 8.9713083161370069e-02 0.0000000000000000e+00  -7.5399362085569921e-04 8.3929799436054581e-02 0.0000000000000000e+00  5.4015375009677834e-04 7.3402750768205779e-02 0.0000000000000000e+00  -2.7658872208233547e-04 6.6435911029075187e-02 0.0000000000000000e+00  1.2770104063889943e-05 6.0499418842002280e-02 0.0000000000000000e+00  5.2775282257190570e-04 5.3663487992019455e-02 0.0000000000000000e+00  -4.4867194655941585e-04 4.9276547660254882e-02 0.0000000000000000e+00  -4.6788420785943930e-04 4.4214536448330510e-02 0.0000000000000000e+00  9.3498523354441874e-05 3.9355372877606182e-02 0.0000000000000000e+00  3.5661477008545731e-04 3.4978948555541192e-02 0.0000000000000000e+00  -2.1974830231581637e-04 3.1892712306856259e-02 0.0000000000000000e+00  -1.4355179085474536e-04 2.8370457439102905e-02 0.0000000000000000e+00  2.9900556677205288e-04 2.5297208188872544e-02 0.0000000000000000e+00  -4.2440880056223958e-04 2.3034038072802486e-02 0.0000000000000000e+00  3.0290931076680039e-05 2.0357586730143071e-02 0.0000000000000000e+00  1.8446641259005169e-04 1.8004171812905569e-02 0.0000000000000000e+00  -1.2272616364549722e-04 1.6441305371462069e-02 0.0000000000000000e+00  4.5281373118707571e-05 1.4435468829256769e-02 0.0000000000000000e+00  -1.7744377182545950e-05 1.2990395637975974e-02 0.0000000000000000e+00  7.6323435424305601e-05 1.1591806416638217e-02 0.0000000000000000e+00  -1.5722410210805173e-05 1.0364920946439591e-02 0.0000000000000000e+00  4.2381362095688800e-05 9.3112131803202765e-03 0.0000000000000000e+00  -1.2813614976735852e-05 8.2784102934587798e-03 0.0000000000000000e+00  -5.5048600888822065e-06 7.3865022375572539e-03 0.0000000000000000e+00  5.9577972424614804e-06 6.5869454651714069e-03 0.0000000000000000e+00  1.5913570206136045e-06 5.8254333892679908e-03 0.0000000000000000e+00  5.9503576633200068e-05 5.1594178673519762e-03 0.0000000000000000e+00  -1.1734424826227617e-04 4.6098058371260419e-03 0.0000000000000000e+00  4.1453494413206012e-05 3.9778464152676529e-03 0.0000000000000000e+00  -1.6069963488787785e-05 3.5482365328269117e-03 0.0000000000000000e+00  2.9132770238964614e-05 3.0027755383702872e-03 0.0000000000000000e+00  -3.0197710258301926e-05 2.6922697251908238e-03 0.0000000000000000e+00  -3.7124780174001568e-06 2.3319429457655033e-03 0.0000000000000000e+00  1.4083176675749030e-06 1.9833424125395372e-03 0.0000000000000000e+00  -6.4964390440745462e-07 1.6861884670211866e-03 0.0000000000000000e+00  8.5707099052562679e-06 1.4048049229158474e-03 0.0000000000000000e+00  -6.9045565844445457e-06 1.1530059027155103e-03 0.0000000000000000e+00  -9.0374086641126632e-06 9.1581583678315660e-04 0.0000000000000000e+00  1.0902574408972701e-05 7.3247964528836925e-04 0.0000000000000000e+00  -3.0926018887024985e-06 5.3204234837200576e-04 0.0000000000000000e+00  7.4237959198176609e-07 3.5714317362111415e-04 0.0000000000000000e+00  -7.6084234391631215e-06 2.1543817730265648e-04 0.0000000000000000e+00  -4.2257961358742578e-06 7.2408608705362010e-05 0.0000000000000000e+00  5.5020757788906164e-06 -5.7627567216520954e-05 0.0000000000000000e+00  3.6492367517116984e-06 -1.8527121451624508e-04 0.0000000000000000e+00  -1.2278356252596256e-06 -3.1740339894466800e-04 0.0000000000000000e+00  -2.6247345366904779e-06 -3.9993274464127261e-04 0.0000000000000000e+00  -1.1047330843045276e-05 -4.4100262709421029e-04 0.0000000000000000e+00  -3.3765500124096297e-06 -5.0332475513929201e-04 0.0000000000000000e+00  1.0809350887661377e-05 -6.1006757047520055e-04 0.0000000000000000e+00  -9.2973133546339168e-06 -6.6125061796222181e-04 0.0000000000000000e+00  5.3307675415539322e-06 -7.0421558804728676e-04 0.0000000000000000e+00  -8.9543956057447887e-06 -7.6921460862464769e-04 0.0000000000000000e+00  -3.2680754519878180e-06 -7.8809546313897611e-04 0.0000000000000000e+00  -4.0561384159102802e-06 -8.1343139804732068e-04 0.0000000000000000e+00  -1.3929117365335392e-05 -8.3088171162438746e-04 0.0000000000000000e+00  8.7876321902484479e-06 -8.3698002053711538e-04 0.0000000000000000e+00  -1.2208485552595378e-05 -8.2084159714584362e-04 0.0000000000000000e+00  -8.1310156487109890e-06 -8.0207244871366727e-04 0.0000000000000000e+00  8.0590412564909233e-06 -8.3850296140913294e-04 0.0000000000000000e+00  -1.8399815547733802e-07 -8.6823360799647938e-04 0.0000000000000000e+00  -3.7901206077306848e-06 -8.5393317876024096e-04 0.0000000000000000e+00  -1.1260592377373739e-06 -8.4641706191255562e-04 0.0000000000000000e+00  -8.5215571215157995e-06 -8.2695247082264893e-04 0.0000000000000000e+00  -1.6855672017400513e-06 -8.0422997396001090e-04 0.0000000000000000e+00  -6.6934738813415956e-06 -7.7959566716036027e-04 0.0000000000000000e+00  1.5779644075980232e-06 -7.5291975231516926e-04 0.0000000000000000e+00  1.7697422108629893e-06 -7.2827708094063684e-04 0.0000000000000000e+00  -2.0010808523736101e-05 -7.1737810059403816e-04 0.0000000000000000e+00  6.4476686177694862e-05 -6.9958506481779682e-04 0.0000000000000000e+00  -5.4649986852188893e-05 -6.4807733589976606e-04 0.0000000000000000e+00  1.1360792756394617e-06 -5.9987148078167508e-04 0.0000000000000000e+00  -1.9450230842248058e-06 -5.5715962116945647e-04 0.0000000000000000e+00  3.3656573652734926e-06 -5.0472587848338568e-04 0.0000000000000000e+00  -2.0273714940745254e-05 -4.5288929411311352e-04 0.0000000000000000e+00  2.0508573421173016e-05 -4.3463352286932154e-04 0.0000000000000000e+00  2.6509494666342273e-06 -4.0815704099488487e-04 0.0000000000000000e+00  -9.3377716422438922e-06 -3.5760910513728147e-04 0.0000000000000000e+00  -5.6602919858995853e-06 -3.0420943186632292e-04 0.0000000000000000e+00  -3.1947307613480320e-07 -2.5138218897819255e-04 0.0000000000000000e+00  -7.1217852579998255e-07 -2.0189514951637140e-04 0.0000000000000000e+00  -2.5231279423771816e-06 -1.5462356426290043e-04 0.0000000000000000e+00  5.5532799626474811e-07 -1.0784092074546270e-04 0.0000000000000000e+00  1.1084788481619821e-06 -6.2316220369589606e-05 0.0000000000000000e+00  -4.5260073932253722e-06 -1.2090782119359906e-05 0.0000000000000000e+00  1.9647144955137960e-06 2.8470214491925601e-05 0.0000000000000000e+00  -1.5242631700751833e-06 7.3235322767473541e-05 0.0000000000000000e+00  4.5532837929286994e-06 1.1200366340527934e-04 0.0000000000000000e+00  -2.2795116694099096e-06 1.5133137834916693e-04 0.0000000000000000e+00  1.3613838256165696e-06 1.9337952293166561e-04 0.0000000000000000e+00  -2.1639016383292154e-06 2.2812191060469429e-04 0.0000000000000000e+00  2.0065283581391433e-06 2.7096193217825951e-04 0.0000000000000000e+00  -1.2287195597425414e-05 3.0251976702973433e-04 0.0000000000000000e+00  -7.3696708064221156e-06 2.9412190346455322e-04 0.0000000000000000e+00  3.2092328827566830e-05 3.6342666746432906e-04 0.0000000000000000e+00  -4.1588508209966625e-05 3.9104383955523468e-04 0.0000000000000000e+00  5.1780354011042481e-05 3.9758863414110518e-04 0.0000000000000000e+00  -3.8429020812401987e-05 4.0957789147182838e-04 0.0000000000000000e+00  -8.6231080070978793e-06 3.8441290205898853e-04 0.0000000000000000e+00  3.9591505890222014e-05 4.7600025600572863e-04 0.0000000000000000e+00  -1.2454076717441507e-05 4.8303102484933958e-04 0.0000000000000000e+00  1.4009574759905413e-06 4.8221963085236328e-04 0.0000000000000000e+00  4.0229202557406507e-05 4.3251506705936470e-04 0.0000000000000000e+00  -2.3240063589062629e-05 4.3426068583328427e-04 0.0000000000000000e+00  -7.5602840203299629e-06 4.7394227615348120e-04 0.0000000000000000e+00  1.5405289522338941e-06 4.9594161586140534e-04 0.0000000000000000e+00  -4.6252990061649067e-06 4.8650551827425059e-04 0.0000000000000000e+00  3.8319785917608563e-05 4.3491596306767158e-04 0.0000000000000000e+00  -2.0124311297251718e-05 4.3108096787141851e-04 0.0000000000000000e+00  -7.8804727233445146e-07 4.4957808743440435e-04 0.0000000000000000e+00  3.4821116389667587e-06 4.5189607595491453e-04 0.0000000000000000e+00  2.3627304346436234e-06 4.4369532700541301e-04 0.0000000000000000e+00  1.3735386236977490e-06 4.3344083285508540e-04 0.0000000000000000e+00  4.9149191310560975e-06 4.1607379643523952e-04 0.0000000000000000e+00  6.2044303638277557e-06 3.9565386149917694e-04 0.0000000000000000e+00  1.2091598864783584e-06 3.8394978540758789e-04 0.0000000000000000e+00  -5.7632128156777904e-06 3.8204677757432668e-04 0.0000000000000000e+00  3.4464822172865683e-06 3.7567113067073281e-04 0.0000000000000000e+00  1.4835969576443627e-06 3.5905073895795020e-04 0.0000000000000000e+00  1.0654813042596320e-05 3.3743363699871326e-04 0.0000000000000000e+00  -4.1583492387840888e-06 3.2889925540815617e-04 0.0000000000000000e+00  -6.1869530016045421e-06 3.2364552018541298e-04 0.0000000000000000e+00  2.3018621658195193e-05 2.7636174290602959e-04 0.0000000000000000e+00  4.7835606508803853e-06 2.4731023112072839e-04 0.0000000000000000e+00  -1.6612690444430046e-05 2.5492100328171856e-04 0.0000000000000000e+00  2.4438935611700963e-06 2.7773707227151301e-04 0.0000000000000000e+00  2.6965952828438508e-06 2.6707736971983938e-04 0.0000000000000000e+00  -2.8016658020700300e-05 2.6606626637846217e-04 0.0000000000000000e+00  9.0927113305761724e-05 9.8082864079085058e-05 0.0000000000000000e+00  7.4362003648793118e-05 -1.1796211694564405e-04 0.0000000000000000e+00  -2.7321441514840335e-05 6.7565240714475677e-05 0.0000000000000000e+00  1.0161900832680438e-05 -3.1826545144656545e-05 0.0000000000000000e+00  -4.0289960146607442e-06 3.1857916244982470e-06 0.0000000000000000e+00  -9.0676548514107757e-07 -6.7629836923254826e-06 0.0000000000000000e+00  1.5135545697150333e-06 -3.5383879100255667e-06 0.0000000000000000e+00  -8.4118659327473805e-07 -3.9125023346559207e-06 0.0000000000000000e+00  1.0033559058006435e-06 -5.6452247244743843e-06 0.0000000000000000e+00  1.2125772354681709e-06 -2.3910711580663901e-06 0.0000000000000000e+00  5.0528532675158491e-07 -5.6423445034579597e-06 0.0000000000000000e+00  2.1445229357454189e-07 -3.3416704638920737e-06 0.0000000000000000e+00  3.2278485886998678e-07 -6.4858923638772368e-06 0.0000000000000000e+00  -1.0468296836833552e-07 -3.6141483176399233e-06 0.0000000000000000e+00  4.4867423797927064e-07 -6.6970699890803971e-06 0.0000000000000000e+00  -3.4623772638054738e-08 -4.8926315436384682e-06 0.0000000000000000e+00  5.1816357793765508e-07 -4.0917393261137742e-06 0.0000000000000000e+00  1.3777417048661768e-06 -4.7027962620148208e-06 0.0000000000000000e+00  -6.0335740019930899e-08 -6.6658005866296631e-06 0.0000000000000000e+00  -1.4783534625073400e-06 -3.2074997569810426e-06 0.0000000000000000e+00  -2.4242461861170909e-06 -5.5669100452114710e-06 0.0000000000000000e+00  1.5097389691415910e-06 -6.1235181415404930e-06 0.0000000000000000e+00  -1.1166986385933142e-06 -3.4156215633039539e-06 0.0000000000000000e+00  -2.3737704170833907e-07 -5.5836443696662673e-06 0.0000000000000000e+00  -3.0116006490890156e-07 -4.0728116745306627e-06 0.0000000000000000e+00  -2.1115704590329512e-06 -3.5368142010587700e-06 0.0000000000000000e+00  -9.6118388619678040e-06 -5.7689513515103809e-06 0.0000000000000000e+00  -2.6012390258555111e-06 -1.9540290815844953e-05 0.0000000000000000e+00  -2.2658415534919392e-06 -2.2375327414734307e-05 0.0000000000000000e+00  3.5127432244076655e-06 -2.4936622012676656e-05 0.0000000000000000e+00  -2.9966668623293449e-06 -2.1101054595363061e-05 0.0000000000000000e+00  5.9075131104657433e-07 -1.8230924359774741e-05 0.0000000000000000e+00  2.6575335284744096e-06 -1.8017041434049060e-05 0.0000000000000000e+00  -1.4179122797531969e-06 -2.1030716939552241e-05 0.0000000000000000e+00  6.6349859146657947e-07 -1.8566139775214082e-05 0.0000000000000000e+00  -2.6743754930307635e-07 -1.8094069429404283e-05 0.0000000000000000e+00  -1.3721402453321679e-06 -1.8635624785464217e-05 0.0000000000000000e+00  -1.7857246076069810e-06 -1.9606632522017048e-05 0.0000000000000000e+00  -1.2626377408639521e-06 -2.1356130265964845e-05 0.0000000000000000e+00  -1.5195470368988561e-06 -2.2784103241131739e-05 0.0000000000000000e+00  -1.2926651176944793e-06 -2.4287835842785630e-05 0.0000000000000000e+00  -1.3548793789129362e-06 -2.6910236350165142e-05 0.0000000000000000e+00  -2.5753349477412622e-06 -2.7545816615786376e-05 0.0000000000000000e+00  -6.5749012019125581e-07 -2.9189186209364803e-05 0.0000000000000000e+00  -9.4662494961890436e-07 -3.0214583107657810e-05 0.0000000000000000e+00  -5.2451426699249285e-07 -3.1303876191737459e-05 0.0000000000000000e+00  -9.4773322258946300e-07 -3.4062135425544368e-05 0.0000000000000000e+00  1.0748448635030705e-06 -3.5569207534415696e-05 0.0000000000000000e+00  6.7732868067019258e-08 -3.8818544398767345e-05 0.0000000000000000e+00  1.5137933798733378e-06 -4.2240919212356618e-05 0.0000000000000000e+00  1.7090293606261001e-06 -4.2467077856884532e-05 0.0000000000000000e+00  7.6388226261635114e-06 -4.4216219736579496e-05 0.0000000000000000e+00  2.4358065926115733e-06 -4.5461592952767430e-05 0.0000000000000000e+00  1.1188092402591772e-05 -4.9592917850254597e-05 0.0000000000000000e+00  5.9872514423848241e-06 -4.5995391221119495e-05 0.0000000000000000e+00  3.4178919121644053e-05 -4.6375205478605812e-05 0.0000000000000000e+00  1.2484246309093104e-05 -4.0535369335172171e-05 0.0000000000000000e+00  -3.8702534207446741e-06 -5.4600121800827181e-05 0.0000000000000000e+00  2.8157783660108107e-05 -4.8033041741990804e-05 0.0000000000000000e+00  1.5792828709751582e-05 -6.0812849078286934e-05 0.0000000000000000e+00  3.1164055436167235e-05 -5.9917229815790356e-05 0.0000000000000000e+00  2.9699881757983663e-05 -6.2820744769539292e-05 0.0000000000000000e+00  4.2936182296940540e-05 -5.9526268600448468e-05 0.0000000000000000e+00  4.1682100350504279e-05 -5.6898353791247522e-05 0.0000000000000000e+00  5.7457916196271047e-05 -5.4643449917702173e-05 0.0000000000000000e+00  3.9866493214523985e-05 -5.9556152900655350e-05 0.0000000000000000e+00  5.2511662976886124e-05 -5.4184066065592811e-05 0.0000000000000000e+00  5.7167062789405243e-05 -5.6919431992784421e-05 0.0000000000000000e+00  7.2023801907777579e-05 -5.1795554842211856e-05 0.0000000000000000e+00  6.6134023805201748e-05 -5.2865965618010826e-05 0.0000000000000000e+00  7.7714070164469458e-05 -4.9598158410436957e-05 0.0000000000000000e+00  8.2975317881339277e-05 -4.8523650646565417e-05 0.0000000000000000e+00  8.8613931495158798e-05 -4.5996840902701053e-05 0.0000000000000000e+00  9.2607847320778946e-05 -4.3642073924576794e-05 0.0000000000000000e+00  9.9744283198912779e-05 -4.1329800776565429e-05 0.0000000000000000e+00  1.0603665174236006e-04 -3.8309403113586459e-05 0.0000000000000000e+00  1.0999958209588311e-04 -3.6030994946561248e-05 0.0000000000000000e+00  1.1538654333731333e-04 -3.3345054420235923e-05 0.0000000000000000e+00  1.2210736525288226e-04 -3.0537368981418650e-05 0.0000000000000000e+00  1.2675948887550111e-04 -2.7143709876225081e-05 0.0000000000000000e+00  1.3081114591169976e-04 -2.4029448081971646e-05 0.0000000000000000e+00  1.3506949346453787e-04 -2.0458442027028176e-05 0.0000000000000000e+00  1.3911601205475368e-04 -1.7676174894261604e-05 0.0000000000000000e+00  1.4366257782304573e-04 -1.5069036671440083e-05 0.0000000000000000e+00  1.4518063266027981e-04 -1.1857019044551846e-05 0.0000000000000000e+00  1.5288763125795069e-04 -9.9537342626337959e-06 0.0000000000000000e+00  1.5920298852041420e-04 -5.6892473938250482e-06 0.0000000000000000e+00  1.5261618064704542e-04 -4.5053584165310355e-06 0.0000000000000000e+00  1.5787134503624563e-04 -7.0564246387930485e-07 0.0000000000000000e+00  1.6128435884067089e-04 1.4831807945185142e-06 0.0000000000000000e+00  1.6354611456335645e-04 3.4474527075087709e-06 0.0000000000000000e+00  1.6589592763630907e-04 6.0447291802278716e-06 0.0000000000000000e+00  1.6687833410446309e-04 7.8142211103864971e-06 0.0000000000000000e+00  1.6779699546066047e-04 1.0048843574277812e-05 0.0000000000000000e+00  1.6780479071928234e-04 1.1762035206695473e-05 0.0000000000000000e+00  1.6712386528964636e-04 1.3270058561910629e-05 0.0000000000000000e+00  1.6734417400973142e-04 1.3884736771694647e-05 0.0000000000000000e+00  1.6712620319104236e-04 1.5356739177697837e-05 0.0000000000000000e+00  1.6742463988623913e-04 1.6001331645237715e-05 0.0000000000000000e+00  1.6657063328002811e-04 1.7531803914507360e-05 0.0000000000000000e+00  1.6577529589900081e-04 1.8121487161643357e-05 0.0000000000000000e+00  1.6476232304103367e-04 1.9435214918889000e-05 0.0000000000000000e+00  1.6348795284698431e-04 2.0670049341615609e-05 0.0000000000000000e+00  1.6067914802312587e-04 2.1650992531437695e-05 0.0000000000000000e+00  1.5820190534476697e-04 2.2010061178396971e-05 0.0000000000000000e+00  1.5551975234759166e-04 2.2667708603644300e-05 0.0000000000000000e+00  1.5311506847966551e-04 2.2104958690817427e-05 0.0000000000000000e+00  1.5214766288782158e-04 2.2239094490938086e-05 0.0000000000000000e+00  1.5043701539437968e-04 2.2527063794749952e-05 0.0000000000000000e+00  1.4762261581281833e-04 2.2858269661778222e-05 0.0000000000000000e+00  1.4554670420599970e-04 2.3666804005622408e-05 0.0000000000000000e+00  1.4179660487469110e-04 2.3562807481811151e-05 0.0000000000000000e+00  1.3847628903107217e-04 2.3577928929390066e-05 0.0000000000000000e+00  1.3508392708814427e-04 2.2920293148787533e-05 0.0000000000000000e+00  1.3033279626342153e-04 2.2777664036999533e-05 0.0000000000000000e+00  1.2799220648893736e-04 2.2572873818820091e-05 0.0000000000000000e+00  1.2340610041580499e-04 2.2544962971296670e-05 0.0000000000000000e+00  1.2080785559505835e-04 2.3803333205505141e-05 0.0000000000000000e+00  1.2253126850908316e-04 2.5056156812703947e-05 0.0000000000000000e+00  1.1261790193064094e-04 3.1576689042373876e-05 0.0000000000000000e+00  1.0970754442537075e-04 2.6248470928293919e-05 0.0000000000000000e+00  1.0890813412082628e-04 2.3891786890633808e-05 0.0000000000000000e+00  1.0319774036604968e-04 2.3421169356654976e-05 0.0000000000000000e+00  1.0213657432483083e-04 2.2346571594006670e-05 0.0000000000000000e+00  9.8152915929812130e-05 2.1950744201696360e-05 0.0000000000000000e+00  9.5155987526979467e-05 2.1862491287787618e-05 0.0000000000000000e+00  9.3482375700150024e-05 2.0924921473744129e-05 0.0000000000000000e+00  9.0161330426247730e-05 2.0455916263763338e-05 0.0000000000000000e+00  8.5681536980795938e-05 2.0136732811370469e-05 0.0000000000000000e+00  8.2722974143249110e-05 1.9662217463114982e-05 0.0000000000000000e+00  7.8909529515705452e-05 1.9118463979154494e-05 0.0000000000000000e+00  7.6820481071967093e-05 1.8950967221185610e-05 0.0000000000000000e+00  7.3179110771963432e-05 1.9010229989548706e-05 0.0000000000000000e+00  6.9864820811949341e-05 1.9279712438106041e-05 0.0000000000000000e+00  6.6360989705172127e-05 1.8162028402162871e-05 0.0000000000000000e+00  6.2818666187158207e-05 1.6598039891236059e-05 0.0000000000000000e+00  5.9666371729576267e-05 1.6212271976124026e-05 0.0000000000000000e+00  5.8066063798768266e-05 1.6286514690416781e-05 0.0000000000000000e+00  5.5269882350724442e-05 1.6048225222492057e-05 0.0000000000000000e+00  5.2730276318614736e-05 1.5616233707987263e-05 0.00000000