<?xml version="1.0"?>
<VTKFile type="UnstructuredGrid"  version="0.1"  >
<UnstructuredGrid>
<Piece  NumberOfPoints="13179" NumberOfCells="25814">
<Points>
<DataArray  type="Float64"  NumberOfComponents="3"  format="ascii">0 0 0  30 0 0  30 -10 0  0 -10 0  0.02360821169319077 0 0  0.04721642338638154 0 0  0.07206717063563725 0 0  0.09691791788489297 0 0  0.1230766011355843 0 0  0.1492352843862757 0 0  0.1767707375239038 0 0  0.204306190661532 0 0  0.2332908770901271 0 0  0.2622755635187223 0 0  0.2927857633803451 0 0  0.323295963241968 0 0  0.3554119623832387 0 0  0.3875279615245094 0 0  0.4213342730081758 0 0  0.4551405844918422 0 0  0.4907261762804851 0 0  0.526311768069128 0 0  0.5637702848355051 0 0  0.6012288016018821 0 0  0.6406588220121138 0 0  0.6800888424223455 0 0  0.721594129780935 0 0  0.7630994171395246 0 0  0.8067891887833475 0 0  0.8504789604271704 0 0  0.8964681941825949 0 0  0.9424574279380195 0 0  0.9908671465681095 0 0  1.039276865198199 0 0  1.090234462786975 0 0  1.141192060375751 0 0  1.194831641933244 0 0  1.248471223490737 0 0  1.304933942963653 0 0  1.361396662436569 0 0  1.420831104471586 0 0  1.480265546506604 0 0  1.542828113436244 0 0  1.605390680365884 0 0  1.671246013469327 0 0  1.73710134657277 0 0  1.806422752814762 0 0  1.875744159056755 0 0  1.948714057431306 0 0  2.021683955805857 0 0  2.098494373901932 0 0  2.175304791998006 0 0  2.256157866653476 0 0  2.337010941308945 0 0  2.422119443935387 0 0  2.50722794656183 0 0  2.596815840700639 0 0  2.686403734839449 0 0  2.780706776094687 0 0  2.875009817349925 0 0  2.974276175689285 0 0  3.073542534028646 0 0  3.178033441002704 0 0  3.282524347976761 0 0  3.392514777963501 0 0  3.502505207950242 0 0  3.618284608533553 0 0  3.734064009116865 0 0  3.855937062816526 0 0  3.977810116516187 0 0  4.106097541496641 0 0  4.234384966477093 0 0  4.369424362562147 0 0  4.5044637586472 0 0  4.646610489729194 0 0  4.788757220811188 0 0  4.938385356669961 0 0  5.088013492528733 0 0  5.24551679218304 0 0  5.403020091837347 0 0  5.568813038399614 0 0  5.73460598496188 0 0  5.909124878408681 0 0  6.083643771855482 0 0  6.267347873338513 0 0  6.451051974821543 0 0  6.644424714363561 0 0  6.83779745390558 0 0  7.041347702348167 0 0  7.244897950790754 0 0  7.459161368238869 0 0  7.673424785686984 0 0  7.898965226038037 0 0  8.124505666389089 0 0  8.361916654054033 0 0  8.599327641718979 0 0  8.849233942517035 0 0  9.099140243315093 0 0  9.362199507946787 0 0  9.625258772578484 0 0  9.902163261537794 0 0  10.1790677504971 0 0  10.47054616023911 0 0  10.76202456998112 0 0  11.06884394887334 0 0  11.37566332776555 0 0  11.69863109504192 0 0  12.02159886231829 0 0  12.3615649378891 0 0  12.7015310134599 0 0  13.05939003847426 0 0  13.41724906348862 0 0  13.79394276982091 0 0  14.1706364761532 0 0  14.5671561683298 0 0  14.96367586050641 0 0  15.38106501332897 0 0  15.79845416615153 0 0  16.23781117165827 0 0  16.677168177165 0 0  17.13964923659526 0 0  17.60213029602552 0 0  18.0889524622663 0 0  18.57577462850707 0 0  19.08821901304263 0 0  19.60066339757818 0 0  20.14007853843172 0 0  20.67949367928525 0 0  21.24729908993883 0 0  21.8151045005924 0 0  22.41279440541421 0 0  23.01048431023601 0 0  23.63963157605829 0 0  24.26877884188056 0 0  24.93103912515648 0 0  25.59329940843241 0 0  26.29041549584691 0 0  26.98753158326142 0 0  27.72133799026916 0 0  28.45514439727691 0 0  29.22757219863846 0 0  30 -0.3571428571428571 0  30 -0.7142857142857142 0  30 -1.071428571428571 0  30 -1.428571428571428 0  30 -1.785714285714286 0  30 -2.142857142857143 0  30 -2.5 0  30 -2.857142857142857 0  30 -3.214285714285714 0  30 -3.571428571428571 0  30 -3.928571428571428 0  30 -4.285714285714286 0  30 -4.642857142857142 0  30 -5 0  30 -5.357142857142857 0  30 -5.714285714285714 0  30 -6.071428571428571 0  30 -6.428571428571428 0  30 -6.785714285714285 0  30 -7.142857142857142 0  30 -7.5 0  30 -7.857142857142857 0  30 -8.214285714285714 0  30 -8.571428571428571 0  30 -8.928571428571427 0  30 -9.285714285714285 0  30 -9.642857142857142 0  29.22757220128658 -10 0  28.45514440257316 -10 0  27.72133799277628 -10 0  26.98753158297939 -10 0  26.29041549304805 -10 0  25.5932994031167 -10 0  24.93103911757599 -10 0  24.26877883203527 -10 0  23.63963156418132 -10 0  23.01048429632737 -10 0  22.41279438968936 -10 0  21.81510448305136 -10 0  21.24729907078059 -10 0  20.67949365850982 -10 0  20.14007851622273 -10 0  19.60066337393564 -10 0  19.08821898813588 -10 0  18.57577460233611 -10 0  18.08895243498708 -10 0  17.60213026763805 -10 0  17.13964920724307 -10 0  16.6771681468481 -10 0  16.2378111405086 -10 0  15.79845413416909 -10 0  15.38106498063496 -10 0  14.96367582710082 -10 0  14.56715613432376 -10 0  14.17063644154669 -10 0  13.79394273471576 -10 0  13.41724902788484 -10 0  13.05939000246495 -10 0  12.70153097704506 -10 0  12.36156490115379 -10 0  12.02159882526251 -10 0  11.69863105774323 -10 0  11.37566329022395 -10 0  11.06884391115945 -10 0  10.76202453209494 -10 0  10.47054612224479 -10 0  10.17906771239465 -10 0  9.902163223385379 -10 0  9.625258734376107 -10 0  9.362199469747061 -10 0  9.099140205118012 -10 0  8.849233904370102 -10 0  8.599327603622193 -10 0  8.361916616050124 -10 0  8.124505628478055 -10 0  7.898965188258209 -10 0  7.673424748038361 -10 0  7.459161330755727 -10 0  7.244897913473093 -10 0  7.041347665226496 -10 0  6.837797416979896 -10 0  6.644424677660922 -10 0  6.451051938341948 -10 0  6.26734783710581 -10 0  6.083643735869675 -10 0  5.90912484269068 -10 0  5.734605949511682 -10 0  5.568813003235423 -10 0  5.403020056959164 -10 0  5.24551675760658 -10 0  5.088013458254 -10 0  4.938385322710374 -10 0  4.788757187166745 -10 0  4.646610456411224 -10 0  4.504463725655707 -10 0  4.369424329906533 -10 0  4.234384934157362 -10 0  4.106097509520442 -10 0  3.977810084883522 -10 0  3.85593703153344 -10 0  3.734063978183357 -10 0  3.618284577954206 -10 0  3.502505177725055 -10 0  3.392514748095728 -10 0  3.282524318466404 -10 0  3.1780334118518 -10 0  3.073542505237196 -10 0  2.97427614725823 -10 0  2.875009789279265 -10 0  2.780706748384375 -10 0  2.686403707489482 -10 0  2.596815813710069 -10 0  2.507227919930656 -10 0  2.422119417661861 -10 0  2.337010915393062 -10 0  2.256157841092762 -10 0  2.175304766792465 -10 0  2.098494349048437 -10 0  2.021683931304413 -10 0  1.948714033278215 -10 0  1.875744135252013 -10 0  1.806422729354161 -10 0  1.737101323456312 -10 0  1.671245990692352 -10 0  1.605390657928396 -10 0  1.542828091333185 -10 0  1.480265524737977 -10 0  1.420831083031992 -10 0  1.36139664132601 -10 0  1.304933922176438 -10 0  1.248471203026863 -10 0  1.194831621786765 -10 0  1.14119204054667 -10 0  1.09023444350921 -10 0  1.039276846471754 -10 0  0.9908671279064798 -10 0  0.942457409341209 -10 0  0.8964681758842019 -10 0  0.8504789424271948 -10 0  0.8067891710751951 -10 0  0.7630993997231954 -10 0  0.7215941126497469 -10 0  0.6800888255762949 -10 0  0.6406588054444597 -10 0  0.6012287853126246 -10 0  0.5637702688178621 -10 0  0.5263117523230996 -10 0  0.4907261607992695 -10 0  0.4551405692754429 -10 0  0.4213342580497894 -10 0  0.3875279468241395 -10 0  0.3554119479341011 -10 0  0.3232959490440663 -10 0  0.2927857494269297 -10 0  0.2622755498097931 -10 0  0.2332908636189828 -10 0  0.2043061774281725 -10 0  0.1767707245216883 -10 0  0.1492352716152006 -10 0  0.1230765885890825 -10 0  0.09691790556296098 -10 0  0.0720671585317838 -10 0  0.04721641150060663 -10 0  0.02360820575030331 -10 0  0 -9.957983193277311 0  0 -9.915966386554622 0  0 -9.873949579831933 0  0 -9.831932773109244 0  0 -9.789915966386555 0  0 -9.747899159663866 0  0 -9.705882352941176 0  0 -9.663865546218487 0  0 -9.621848739495798 0  0 -9.579831932773109 0  0 -9.53781512605042 0  0 -9.495798319327731 0  0 -9.453781512605042 0  0 -9.411764705882353 0  0 -9.369747899159664 0  0 -9.327731092436975 0  0 -9.285714285714286 0  0 -9.243697478991596 0  0 -9.201680672268907 0  0 -9.159663865546218 0  0 -9.117647058823529 0  0 -9.07563025210084 0  0 -9.033613445378151 0  0 -8.991596638655462 0  0 -8.949579831932773 0  0 -8.907563025210084 0  0 -8.865546218487395 0  0 -8.823529411764707 0  0 -8.781512605042018 0  0 -8.739495798319329 0  0 -8.69747899159664 0  0 -8.655462184873949 0  0 -8.61344537815126 0  0 -8.571428571428571 0  0 -8.529411764705882 0  0 -8.487394957983193 0  0 -8.445378151260504 0  0 -8.403361344537815 0  0 -8.361344537815127 0  0 -8.319327731092438 0  0 -8.277310924369749 0  0 -8.235294117647058 0  0 -8.193277310924369 0  0 -8.15126050420168 0  0 -8.109243697478991 0  0 -8.067226890756302 0  0 -8.025210084033613 0  0 -7.983193277310924 0  0 -7.941176470588236 0  0 -7.899159663865547 0  0 -7.857142857142857 0  0 -7.815126050420168 0  0 -7.773109243697479 0  0 -7.73109243697479 0  0 -7.689075630252101 0  0 -7.647058823529411 0  0 -7.605042016806722 0  0 -7.563025210084033 0  0 -7.521008403361344 0  0 -7.478991596638656 0  0 -7.436974789915967 0  0 -7.394957983193278 0  0 -7.352941176470589 0  0 -7.3109243697479 0  0 -7.26890756302521 0  0 -7.226890756302521 0  0 -7.184873949579832 0  0 -7.142857142857143 0  0 -7.100840336134453 0  0 -7.058823529411764 0  0 -7.016806722689076 0  0 -6.974789915966387 0  0 -6.932773109243698 0  0 -6.890756302521009 0  0 -6.84873949579832 0  0 -6.806722689075631 0  0 -6.764705882352941 0  0 -6.722689075630252 0  0 -6.680672268907563 0  0 -6.638655462184874 0  0 -6.596638655462185 0  0 -6.554621848739496 0  0 -6.512605042016807 0  0 -6.470588235294118 0  0 -6.428571428571429 0  0 -6.38655462184874 0  0 -6.344537815126051 0  0 -6.302521008403362 0  0 -6.260504201680672 0  0 -6.218487394957983 0  0 -6.176470588235294 0  0 -6.134453781512605 0  0 -6.092436974789917 0  0 -6.050420168067227 0  0 -6.008403361344538 0  0 -5.966386554621849 0  0 -5.92436974789916 0  0 -5.882352941176471 0  0 -5.840336134453782 0  0 -5.798319327731092 0  0 -5.756302521008403 0  0 -5.714285714285714 0  0 -5.672268907563025 0  0 -5.630252100840336 0  0 -5.588235294117647 0 
[...]
<PointData  Vectors="flow"> 
<DataArray  type="Float64"  Name="flow"  NumberOfComponents="3" format="ascii">-8.1464960443021518e-03 1.5951764808981314e-01 0.0000000000000000e+00  9.5432954021073993e-06 1.6207733714328527e-04 0.0000000000000000e+00  -4.0126330154013762e-06 -3.3095225719096703e-06 0.0000000000000000e+00  -2.7564088993780712e-06 6.6113960082340884e-06 0.0000000000000000e+00  -1.3449171478002897e-03 1.5200750753390310e-01 0.0000000000000000e+00  2.6291717862239354e-03 1.4867284810406747e-01 0.0000000000000000e+00  -1.2208114524537295e-03 1.3629147730962968e-01 0.0000000000000000e+00  1.5279456508578988e-03 1.2223692413856614e-01 0.0000000000000000e+00  -9.3945954869421085e-04 1.1099237090173315e-01 0.0000000000000000e+00  -2.5802107803860812e-04 1.0140659560810299e-01 0.0000000000000000e+00  -3.5711321228799661e-05 9.0329066583041642e-02 0.0000000000000000e+00  6.9818907087021670e-04 7.9531798655345057e-02 0.0000000000000000e+00  -1.1693228940245902e-03 7.2775364134992540e-02 0.0000000000000000e+00  7.2655874399612792e-04 6.3693948077117035e-02 0.0000000000000000e+00  -9.9627767097755526e-04 5.9297919220362129e-02 0.0000000000000000e+00  5.6082312062506040e-04 5.1025009389517206e-02 0.0000000000000000e+00  -1.5187206561559838e-04 4.5394609493338560e-02 0.0000000000000000e+00  8.0519763803458686e-06 4.0638549557690390e-02 0.0000000000000000e+00  5.3315425433423682e-04 3.5140642628838911e-02 0.0000000000000000e+00  -4.2890931565862039e-04 3.1755151834387922e-02 0.0000000000000000e+00  -3.8649997716881760e-04 2.8055603780221438e-02 0.0000000000000000e+00  1.1697027742169065e-04 2.4483675055772435e-02 0.0000000000000000e+00  3.2336471218271902e-04 2.1355284205313515e-02 0.0000000000000000e+00  -2.0502386702299418e-04 1.9241727635636918e-02 0.0000000000000000e+00  -9.0805001282673954e-05 1.6892830030635277e-02 0.0000000000000000e+00  2.2768049628831065e-04 1.4930277099934643e-02 0.0000000000000000e+00  -3.1284081148446002e-04 1.3490766759157360e-02 0.0000000000000000e+00  3.1489712145872284e-05 1.1846291648433470e-02 0.0000000000000000e+00  1.6647861595718292e-04 1.0406821302462985e-02 0.0000000000000000e+00  -1.0931652268688959e-04 9.4719065406088220e-03 0.0000000000000000e+00  4.1379350717676192e-05 8.2704520567461731e-03 0.0000000000000000e+00  -1.6268545005121688e-05 7.4295651725752856e-03 0.0000000000000000e+00  5.0340603860567496e-05 6.6308435626110940e-03 0.0000000000000000e+00  -4.6128721787611269e-06 5.9220121571485337e-03 0.0000000000000000e+00  2.1763082993441300e-05 5.3295697469063390e-03 0.0000000000000000e+00  -6.4210511454562996e-06 4.7455728614960932e-03 0.0000000000000000e+00  -3.4192696271807696e-06 4.2383015441229089e-03 0.0000000000000000e+00  1.0869591856094601e-06 3.7943250877090699e-03 0.0000000000000000e+00  7.2468134557599436e-06 3.3593483232247324e-03 0.0000000000000000e+00  3.5059216072958649e-05 2.9996607146861943e-03 0.0000000000000000e+00  -7.7670380558627640e-05 2.6870975838253473e-03 0.0000000000000000e+00  4.3130146885012320e-05 2.3331102235263721e-03 0.0000000000000000e+00  -1.6100158714213835e-05 2.0928610446309059e-03 0.0000000000000000e+00  3.6457939473967669e-05 1.7702751315063910e-03 0.0000000000000000e+00  -3.7284582943174883e-05 1.6195632455154037e-03 0.0000000000000000e+00  7.8997135665907519e-07 1.4361509084737083e-03 0.0000000000000000e+00  2.5333400751699988e-06 1.2354461935345981e-03 0.0000000000000000e+00  1.4632440678219951e-07 1.0721853390701554e-03 0.0000000000000000e+00  5.0303960641382843e-06 9.2504371455986154e-04 0.0000000000000000e+00  -2.7572988211045282e-06 7.8466165029112279e-04 0.0000000000000000e+00  6.0555292136472186e-06 6.4364505000409893e-04 0.0000000000000000e+00  -2.9090772830656701e-06 5.5045438301533800e-04 0.0000000000000000e+00  -4.3102003313196055e-07 4.4368587900298941e-04 0.0000000000000000e+00  1.5117305340619489e-07 3.5021239264305064e-04 0.0000000000000000e+00  -1.4972842404057115e-06 2.6487204911916954e-04 0.0000000000000000e+00  3.0503996647394433e-07 1.8496440836934729e-04 0.0000000000000000e+00  4.0762766389960262e-07 1.1822703329838619e-04 0.0000000000000000e+00  1.8160248986202159e-06 5.2490613717248097e-05 0.0000000000000000e+00  2.1192056433039734e-07 -1.3819490137491568e-05 0.0000000000000000e+00  -1.6033951232679480e-06 -6.2618559811008370e-05 0.0000000000000000e+00  -3.5117765358724982e-06 -9.4732884397504409e-05 0.0000000000000000e+00  -1.1418425695206590e-06 -1.3187897295140205e-04 0.0000000000000000e+00  4.4332112018243854e-06 -1.8279358550477579e-04 0.0000000000000000e+00  -4.0456409842083619e-06 -2.1364282522662572e-04 0.0000000000000000e+00  2.1623965804829576e-06 -2.4025122424079713e-04 0.0000000000000000e+00  -3.2881641714594758e-06 -2.7320302576880611e-04 0.0000000000000000e+00  -1.2748447919247705e-06 -2.8845804042656884e-04 0.0000000000000000e+00  -1.7505429322921007e-06 -3.0544426779524657e-04 0.0000000000000000e+00  -5.3696531441045966e-06 -3.1779258309913469e-04 0.0000000000000000e+00  3.1355913185552099e-06 -3.2418144574162524e-04 0.0000000000000000e+00  -4.8797583113198315e-06 -3.2119716988396454e-04 0.0000000000000000e+00  -3.6970340222960328e-06 -3.1715171744664615e-04 0.0000000000000000e+00  3.7794569067530607e-06 -3.3586102433009519e-04 0.0000000000000000e+00  -1.9021699680510656e-07 -3.5170228302108450e-04 0.0000000000000000e+00  -1.5856401781305233e-06 -3.4815873800871810e-04 0.0000000000000000e+00  -4.7229666078952330e-07 -3.4717776409082745e-04 0.0000000000000000e+00  -3.7574437255117878e-06 -3.4040603805775488e-04 0.0000000000000000e+00  -6.7864494112395705e-07 -3.3219943058331790e-04 0.0000000000000000e+00  -3.0213549754602873e-06 -3.2324404602115470e-04 0.0000000000000000e+00  6.4965068199208547e-07 -3.1316116821710773e-04 0.0000000000000000e+00  9.7044905758241078e-07 -3.0425206566102460e-04 0.0000000000000000e+00  -9.2827502305293426e-06 -3.0044224118981594e-04 0.0000000000000000e+00  2.8829225594596011e-05 -2.9273706431839821e-04 0.0000000000000000e+00  -2.4427884373491097e-05 -2.7171141413841551e-04 0.0000000000000000e+00  5.4668566843724824e-07 -2.5156357475304871e-04 0.0000000000000000e+00  -8.8303247890399202e-07 -2.3331950334463234e-04 0.0000000000000000e+00  1.6534109490265779e-06 -2.1064308621707755e-04 0.0000000000000000e+00  -9.2874117830929664e-06 -1.8832221486926565e-04 0.0000000000000000e+00  9.4058534948341615e-06 -1.8115569155362733e-04 0.0000000000000000e+00  9.3153931803361461e-07 -1.7038468447513468e-04 0.0000000000000000e+00  -4.0083710121954121e-06 -1.4857762583255852e-04 0.0000000000000000e+00  -2.5161687369641846e-06 -1.2588306475810185e-04 0.0000000000000000e+00  -1.7045268668659024e-07 -1.0268921941888884e-04 0.0000000000000000e+00  -1.5771921477744381e-07 -8.1317133403049113e-05 0.0000000000000000e+00  -1.1639144056309418e-06 -6.1026172720441243e-05 0.0000000000000000e+00  2.3745230269916435e-07 -4.0306606289316471e-05 0.0000000000000000e+00  4.5078984394432870e-07 -2.0553747251077667e-05 0.0000000000000000e+00  -1.6669613920813675e-06 7.7152793604906561e-07 0.0000000000000000e+00  5.8629659432417384e-07 1.8453327982829851e-05 0.0000000000000000e+00  -8.9870239447927768e-07 3.8196100235985471e-05 0.0000000000000000e+00  2.5768723150184999e-06 5.4259527262615889e-05 0.0000000000000000e+00  -1.1013022557594364e-06 7.1247348001547193e-05 0.0000000000000000e+00  6.6537862524323703e-07 8.9704442463419060e-05 0.0000000000000000e+00  -1.2005184207509869e-06 1.0466035254314456e-04 0.0000000000000000e+00  1.2779887461721361e-06 1.2355197850732216e-04 0.0000000000000000e+00  -6.7104798675688625e-06 1.3834098365952079e-04 0.0000000000000000e+00  -3.2170472542925812e-06 1.3074376853081007e-04 0.0000000000000000e+00  1.5983015803060787e-05 1.6284684716636304e-04 0.0000000000000000e+00  -2.1071097486866675e-05 1.7526833388652074e-04 0.0000000000000000e+00  2.5657202928635283e-05 1.7581232215471270e-04 0.0000000000000000e+00  -1.9072868706122868e-05 1.8128593357112066e-04 0.0000000000000000e+00  -3.7701885646565115e-06 1.6782394081559226e-04 0.0000000000000000e+00  1.9511043025761465e-05 2.1121455882356055e-04 0.0000000000000000e+00  -6.3539590427454355e-06 2.1251066734721092e-04 0.0000000000000000e+00  5.7216600929638651e-07 2.1261892450304492e-04 0.0000000000000000e+00  1.8676889428364393e-05 1.8804519623368901e-04 0.0000000000000000e+00  -1.0436809752946431e-05 1.8763647035645515e-04 0.0000000000000000e+00  -3.6331002659597108e-06 2.0649338814875668e-04 0.0000000000000000e+00  7.6550654264580855e-07 2.1667131169189499e-04 0.0000000000000000e+00  -2.4088794724131890e-06 2.1305114236077304e-04 0.0000000000000000e+00  1.7756211918986324e-05 1.8813204682547788e-04 0.0000000000000000e+00  -8.9766120465933487e-06 1.8537779859158958e-04 0.0000000000000000e+00  -4.5788142292308215e-07 1.9465390554900135e-04 0.0000000000000000e+00  1.8256011850709203e-06 1.9531557839945916e-04 0.0000000000000000e+00  1.0113005807392283e-06 1.9141603996172728e-04 0.0000000000000000e+00  7.1679167280191852e-07 1.8699332693093552e-04 0.0000000000000000e+00  2.0006273030873905e-06 1.7957808473512168e-04 0.0000000000000000e+00  3.0653473389576581e-06 1.7006820984241704e-04 0.0000000000000000e+00  5.7938347122233427e-07 1.6414411435262458e-04 0.0000000000000000e+00  -2.6845824729207236e-06 1.6380784465656518e-04 0.0000000000000000e+00  1.4857197812769788e-06 1.6172571495709547e-04 0.0000000000000000e+00  7.1471366585963143e-07 1.5431007115573070e-04 0.0000000000000000e+00  4.9279421318347284e-06 1.4401236810338008e-04 0.0000000000000000e+00  -1.6888611378928879e-06 1.3962822536012142e-04 0.0000000000000000e+00  -3.1779772375027787e-06 1.3855916102496518e-04 0.0000000000000000e+00  1.0312232098832821e-05 1.1801600376404989e-04 0.0000000000000000e+00  2.1247468144290010e-06 1.0445371465050668e-04 0.0000000000000000e+00  -7.0512537707161633e-06 1.0789999654908512e-04 0.0000000000000000e+00  1.1282731826602927e-06 1.1780968825939306e-04 0.0000000000000000e+00  7.0561214833026501e-07 1.1382218521482219e-04 0.0000000000000000e+00  -1.2611808340149111e-05 1.1335970417227386e-04 0.0000000000000000e+00  4.4495057195109441e-05 3.3046840678144437e-05 0.0000000000000000e+00  3.8921404742333489e-05 -5.5576809575815082e-05 0.0000000000000000e+00  -1.5550839679074591e-05 3.8333864528046415e-05 0.0000000000000000e+00  7.2690062915392155e-06 -1.9691007809059543e-05 0.0000000000000000e+00  -2.3877225338377557e-06 4.2896357936138957e-06 0.0000000000000000e+00  -4.6691285421050671e-07 -3.6897333289368945e-06 0.0000000000000000e+00  7.1447592412843975e-07 -1.1290096332581062e-06 0.0000000000000000e+00  -3.7787017846517566e-07 -1.4724594176715594e-06 0.0000000000000000e+00  5.6453686855845355e-07 -2.4149582959581287e-06 0.0000000000000000e+00  6.2870473807787340e-07 -7.5545698939524521e-07 0.0000000000000000e+00  2.3278059065193542e-07 -2.4087522453742954e-06 0.0000000000000000e+00  1.5737378189347374e-07 -1.1790712329692739e-06 0.0000000000000000e+00  1.5219075453464489e-07 -2.7811953793866545e-06 0.0000000000000000e+00  -8.0062431660600619e-08 -1.2445498747020308e-06 0.0000000000000000e+00  2.1441514805491803e-07 -2.8442476807094333e-06 0.0000000000000000e+00  -2.2893971548188815e-08 -1.9107673863589735e-06 0.0000000000000000e+00  3.0476151152989943e-07 -1.6655754489102378e-06 0.0000000000000000e+00  7.4982225644510359e-07 -1.8409637894185839e-06 0.0000000000000000e+00  -4.1688235010768980e-08 -2.7467330696311538e-06 0.0000000000000000e+00  -8.3688766976310547e-07 -1.0820677685846210e-06 0.0000000000000000e+00  -1.3536277539299116e-06 -2.2483069510360527e-06 0.0000000000000000e+00  6.0857724207316778e-07 -2.5600716589722983e-06 0.0000000000000000e+00  -4.8437547641501105e-07 -1.2877752442002206e-06 0.0000000000000000e+00  2.1189080348051584e-07 -2.0409336016350943e-06 0.0000000000000000e+00  -2.4944244126911253e-07 -1.9778210567011350e-06 0.0000000000000000e+00  -1.0952669647549492e-06 -9.3545074429290910e-07 0.0000000000000000e+00  -4.7749714956018674e-06 -2.1213557345211094e-06 0.0000000000000000e+00  -1.1551801135370006e-06 -9.6274087040739644e-06 0.0000000000000000e+00  -1.1828603179685005e-06 -1.0775045441900515e-05 0.0000000000000000e+00  1.8744045244867010e-06 -1.2283458696264708e-05 0.0000000000000000e+00  -1.5530046743089553e-06 -1.0064336086005228e-05 0.0000000000000000e+00  2.8437192466181394e-07 -8.6440249678645549e-06 0.0000000000000000e+00  1.4099186386435512e-06 -8.7907799131964304e-06 0.0000000000000000e+00  -8.0009356309550976e-07 -1.0521852222699414e-05 0.0000000000000000e+00  5.2280208201384584e-07 -9.1086606399921964e-06 0.0000000000000000e+00  -1.2380068215607654e-07 -8.9675772980524245e-06 0.0000000000000000e+00  -5.4941479908923586e-07 -9.2178438827991805e-06 0.0000000000000000e+00  -7.6702929365319050e-07 -9.6888206035177673e-06 0.0000000000000000e+00  -5.2263329603223422e-07 -1.0527954377658698e-05 0.0000000000000000e+00  -6.2518821260039048e-07 -1.1296037673840366e-05 0.0000000000000000e+00  -5.3087422474374730e-07 -1.2082986995576632e-05 0.0000000000000000e+00  -5.0482546402989027e-07 -1.3467333383877667e-05 0.0000000000000000e+00  -1.0037736528738296e-06 -1.3810357212068222e-05 0.0000000000000000e+00  -2.3502877385981828e-07 -1.4648403096434550e-05 0.0000000000000000e+00  -2.8927878486974226e-07 -1.5114765804221453e-05 0.0000000000000000e+00  -1.9626864726118601e-07 -1.5519642148952822e-05 0.0000000000000000e+00  -4.3392583279218724e-07 -1.6818216434487842e-05 0.0000000000000000e+00  5.3940487380068073e-07 -1.7580685153766981e-05 0.0000000000000000e+00  -3.6816396382206635e-08 -1.9279739473778231e-05 0.0000000000000000e+00  7.5426226495396655e-07 -2.0974507047370487e-05 0.0000000000000000e+00  5.5019757733422484e-07 -2.1025958149706063e-05 0.0000000000000000e+00  3.3791888824186002e-06 -2.1769307610322327e-05 0.0000000000000000e+00  5.8411235027492811e-07 -2.2419761725012771e-05 0.0000000000000000e+00  5.1725140868362872e-06 -2.4464974372699483e-05 0.0000000000000000e+00  1.3758070394738612e-06 -2.2261740840906724e-05 0.0000000000000000e+00  1.5992776849194255e-05 -2.2779776945446971e-05 0.0000000000000000e+00  4.6207447318321991e-06 -1.8868363587517627e-05 0.0000000000000000e+00  -3.6780567779803938e-06 -2.6990296149849036e-05 0.0000000000000000e+00  1.2541930381348471e-05 -2.3630432474897219e-05 0.0000000000000000e+00  5.2400217963237899e-06 -3.0076465895151154e-05 0.0000000000000000e+00  1.2923582613374403e-05 -2.9108403805671877e-05 0.0000000000000000e+00  1.1847088808134703e-05 -3.0238521360214062e-05 0.0000000000000000e+00  1.7842054838289647e-05 -2.7973726016363220e-05 0.0000000000000000e+00  1.6459485320209075e-05 -2.7031478452376939e-05 0.0000000000000000e+00  2.3890917925223042e-05 -2.5504977227248058e-05 0.0000000000000000e+00  1.5064526123229481e-05 -2.7692355871479212e-05 0.0000000000000000e+00  2.0591503623698378e-05 -2.5615090062920136e-05 0.0000000000000000e+00  2.2577020428011077e-05 -2.7129533495570495e-05 0.0000000000000000e+00  2.9456768094197810e-05 -2.4568401064718900e-05 0.0000000000000000e+00  2.5779938725479150e-05 -2.5034565217024366e-05 0.0000000000000000e+00  3.1185609377873114e-05 -2.3307037396035588e-05 0.0000000000000000e+00  3.3109236489535011e-05 -2.2848537776024306e-05 0.0000000000000000e+00  3.5269640480776790e-05 -2.1646116342695120e-05 0.0000000000000000e+00  3.6761544271519573e-05 -2.0395359006569278e-05 0.0000000000000000e+00  3.9642319842413016e-05 -1.9299483402606358e-05 0.0000000000000000e+00  4.2251830879489545e-05 -1.7798782243315222e-05 0.0000000000000000e+00  4.3568875290296365e-05 -1.6706632081148509e-05 0.0000000000000000e+00  4.5725636769102745e-05 -1.5398747049103592e-05 0.0000000000000000e+00  4.8526731623904556e-05 -1.4018536391469299e-05 0.0000000000000000e+00  5.0293833123350853e-05 -1.2454101986690797e-05 0.0000000000000000e+00  5.1791658867293128e-05 -1.0985172753785490e-05 0.0000000000000000e+00  5.3483130440657281e-05 -9.3148397134970352e-06 0.0000000000000000e+00  5.5094131132192234e-05 -7.9958150160128055e-06 0.0000000000000000e+00  5.6868462127069927e-05 -6.7669035695569107e-06 0.0000000000000000e+00  5.7153478803133744e-05 -5.2874117274092807e-06 0.0000000000000000e+00  6.0614256196898859e-05 -4.3137066496455854e-06 0.0000000000000000e+00  6.3463244131452967e-05 -2.3556339366460208e-06 0.0000000000000000e+00  5.9822790088684531e-05 -1.7494211976963196e-06 0.0000000000000000e+00  6.2170672846277659e-05 3.1423479504858747e-10 0.0000000000000000e+00  6.3836871056393657e-05 1.0302058092412889e-06 0.0000000000000000e+00  6.4550675925714011e-05 1.9618575386903811e-06 0.0000000000000000e+00  6.5420010678657659e-05 3.1392358697733372e-06 0.0000000000000000e+00  6.5885641013059808e-05 4.0056218123611496e-06 0.0000000000000000e+00  6.6138293363731483e-05 4.9963149761336466e-06 0.0000000000000000e+00  6.6169843648705674e-05 5.7753385103931882e-06 0.0000000000000000e+00  6.5762795448521313e-05 6.5157408194705430e-06 0.0000000000000000e+00  6.5883466464909497e-05 6.7632265660351365e-06 0.0000000000000000e+00  6.5744986391817292e-05 7.4737303514764041e-06 0.0000000000000000e+00  6.5976830628795610e-05 7.7568501857764228e-06 0.0000000000000000e+00  6.5527079854888501e-05 8.4839265177872660e-06 0.0000000000000000e+00  6.5262280554260040e-05 8.7501531740036332e-06 0.0000000000000000e+00  6.4846430576649268e-05 9.3289764048993189e-06 0.0000000000000000e+00  6.4439415540717745e-05 9.9225962155394829e-06 0.0000000000000000e+00  6.3153697509442874e-05 1.0394426401895732e-05 0.0000000000000000e+00  6.2177029995336236e-05 1.0593302788976727e-05 0.0000000000000000e+00  6.1019945353975914e-05 1.0864336345245156e-05 0.0000000000000000e+00  6.0069459052128718e-05 1.0616290643473555e-05 0.0000000000000000e+00  5.9796964152014426e-05 1.0656335020889495e-05 0.0000000000000000e+00  5.9170273364816587e-05 1.0781241830870525e-05 0.0000000000000000e+00  5.8073123354328323e-05 1.0916035874863761e-05 0.0000000000000000e+00  5.7249481421755000e-05 1.1289655381127828e-05 0.0000000000000000e+00  5.5728869816495468e-05 1.1235059819289655e-05 0.0000000000000000e+00  5.4369528547953167e-05 1.1241240096385442e-05 0.0000000000000000e+00  5.3050166801408855e-05 1.0900241910626951e-05 0.0000000000000000e+00  5.0973135540141381e-05 1.0842653973981968e-05 0.0000000000000000e+00  5.0217618857292523e-05 1.0704388396761194e-05 0.0000000000000000e+00  4.8387092454030789e-05 1.0796811898413091e-05 0.0000000000000000e+00  4.7320588499498401e-05 1.1345085723090685e-05 0.0000000000000000e+00  4.8400662526873719e-05 1.1893137417270787e-05 0.0000000000000000e+00  4.4030906116660833e-05 1.4801713001163852e-05 0.0000000000000000e+00  4.2711965367309032e-05 1.2446111994860996e-05 0.0000000000000000e+00  4.2811329767299663e-05 1.1358297937095371e-05 0.0000000000000000e+00  4.0145483795226566e-05 1.1072983004646109e-05 0.0000000000000000e+00  4.0033217839805325e-05 1.0528603299531536e-05 0.0000000000000000e+00  3.8422771524182221e-05 1.0390337950016864e-05 0.0000000000000000e+00  3.7315216186951036e-05 1.0343680878173566e-05 0.0000000000000000e+00  3.6810254860021313e-05 9.9248139974396720e-06 0.0000000000000000e+00  3.5466613620501486e-05 9.7146924309373379e-06 0.0000000000000000e+00  3.3629602217819197e-05 9.5496530064531027e-06 0.0000000000000000e+00  3.2435866323752980e-05 9.3278451600385360e-06 0.0000000000000000e+00  3.0915602516080110e-05 9.0777392827171696e-06 0.0000000000000000e+00  3.0189466307271362e-05 8.9974874015698780e-06 0.0000000000000000e+00  2.8751624922978751e-05 9.0058757531365918e-06 0.0000000000000000e+00  2.7395348655651257e-05 9.1213970953135146e-06 0.0000000000000000e+00  2.5925460116183117e-05 8.5983541244697650e-06 0.0000000000000000e+00  2.4503824438611963e-05 7.8723107406532085e-06 0.0000000000000000e+00  2.3253910345803351e-05 7.6830190509467527e-06 0.0000000000000000e+00  2.2736164578906947e-05 7.7051415283954568e-06 0.0000000000000000e+00  2.1691293634182595e-05 7.5967437726438759e-06 0.0000000000000000e+00  2.0711860867034117e-05 7.3945829359421589e-06 0.000000000000000