<?xml version="1.0"?>
<VTKFile type="UnstructuredGrid"  version="0.1"  >
<UnstructuredGrid>
<Piece  NumberOfPoints="1691" NumberOfCells="3204">
<Points>
<DataArray  type="Float64"  NumberOfComponents="3"  format="ascii">0 0 0  30 0 0  30 -10 0  0 -10 0  0.1391574078963744 0 0  0.2856388821882616 0 0  0.4398299073010886 0 0  0.6021362569539473 0 0  0.7729850389704483 0 0  0.9528258543586996 0 0  1.142131984380316 0 0  1.34140159760994 0 0  1.551159074717981 0 0  1.771956417032531 0 0  2.004374674080994 0 0  2.249025475789527 0 0  2.506552636773105 0 0  2.777633857742732 0 0  3.062982518028728 0 0  3.363349525995907 0 0  3.679525322337712 0 0  4.01234195575742 0 0  4.362675247811097 0 0  4.731447135329707 0 0  5.119628065610077 0 0  5.528239565804708 0 0  5.958356943167011 0 0  6.411112081475485 0 0  6.887696441559404 0 0  7.389364184530748 0 0  7.917435485335147 0 0  8.473300005202017 0 0  9.058420557070402 0 0  9.674336929103793 0 0  10.32266995225095 0 0  11.00512576896296 0 0  11.72350030646412 0 0  12.47968402994705 0 0  13.27566689579597 0 0  14.1135435963616 0 0  14.9955190732806 0 0  15.92391430904694 0 0  16.90117245730496 0 0  17.92986524844506 0 0  19.01269976086341 0 0  20.15252556282024 0 0  21.35234220269763 0 0  22.61530708683689 0 0  23.94474379751883 0 0  25.34415086349739 0 0  26.81721093579712 0 0  28.3678004819169 0 0  30 -1.111111111111111 0  30 -2.222222222222222 0  30 -3.333333333333333 0  30 -4.444444444444445 0  30 -5.555555555555555 0  30 -6.666666666666666 0  30 -7.777777777777777 0  30 -8.888888888888889 0  28.36780047917311 -10 0  26.8172109305839 -10 0  25.34415085606858 -10 0  23.94474378810899 -10 0  22.61530707566275 -10 0  21.3523421899591 -10 0  20.15252554870171 -10 0  19.01269974553473 -10 0  17.92986523206254 -10 0  16.90117244001232 -10 0  15.92391429097614 -10 0  14.99551905455266 -10 0  14.11354357708742 -10 0  13.27566687607703 -10 0  12.47968400987599 -10 0  11.72350028612546 -10 0  11.00512574843363 -10 0  10.32266993160086 -10 0  9.674336908396342 -10 0  9.058420536362949 -10 0  8.473299984546333 -10 0  7.917435464777824 -10 0  7.389364164113587 -10 0  6.887696420787165 -10 0  6.411112061446698 -10 0  5.95835692337857 -10 0  5.528239546282652 -10 0  5.119628046377237 -10 0  4.731447115907979 -10 0  4.362675229213632 -10 0  4.012341937260036 -10 0  3.679525304434552 -10 0  3.363349508456405 -10 0  3.062982500861274 -10 0  2.777633840953978 -10 0  2.506552620368097 -10 0  2.249025459771861 -10 0  2.004374658452946 -10 0  1.771956401795187 -10 0  1.551159059871345 -10 0  1.341401583153029 -10 0  1.142131970307521 -10 0  0.9528258406748833 -10 0  0.7729850256685147 -10 0  0.6021362439621285 -10 0  0.4398298947504031 -10 0  0.2856388700059078 -10 0  0.1391573960769001 -10 0  0 -9.855072463768115 0  0 -9.710144927536232 0  0 -9.565217391304348 0  0 -9.420289855072463 0  0 -9.27536231884058 0  0 -9.130434782608695 0  0 -8.985507246376812 0  0 -8.840579710144928 0  0 -8.695652173913043 0  0 -8.55072463768116 0  0 -8.405797101449275 0  0 -8.260869565217391 0  0 -8.115942028985508 0  0 -7.971014492753623 0  0 -7.826086956521739 0  0 -7.681159420289855 0  0 -7.536231884057971 0  0 -7.391304347826087 0  0 -7.246376811594203 0  0 -7.101449275362318 0  0 -6.956521739130435 0  0 -6.811594202898551 0  0 -6.666666666666667 0  0 -6.521739130434783 0  0 -6.376811594202898 0  0 -6.231884057971015 0  0 -6.086956521739131 0  0 -5.942028985507246 0  0 -5.797101449275362 0  0 -5.652173913043478 0  0 -5.507246376811594 0  0 -5.36231884057971 0  0 -5.217391304347826 0  0 -5.072463768115941 0  0 -4.927536231884058 0  0 -4.782608695652174 0  0 -4.637681159420289 0  0 -4.492753623188406 0  0 -4.347826086956522 0  0 -4.202898550724638 0  0 -4.057971014492754 0  0 -3.913043478260869 0  0 -3.768115942028985 0  0 -3.623188405797101 0  0 -3.478260869565217 0  0 -3.333333333333334 0  0 -3.188405797101449 0  0 -3.043478260869565 0  0 -2.898550724637681 0  0 -2.753623188405797 0  0 -2.608695652173912 0  0 -2.463768115942029 0  0 -2.318840579710145 0  0 -2.173913043478261 0  0 -2.028985507246377 0  0 -1.884057971014492 0  0 -1.739130434782609 0  0 -1.594202898550725 0  0 -1.44927536231884 0  0 -1.304347826086957 0  0 -1.159420289855072 0  0 -1.014492753623188 0  0 -0.8695652173913047 0  0 -0.72463768115942 0  0 -0.579710144927537 0  0 -0.4347826086956523 0  0 -0.2898550724637676 0  0 -0.1449275362318829 0  0.1309460514202492 -4.990980414828784 0  0.1171526873513358 -5.869565217391296 0  0.1344252986967795 -6.716855800502001 0  0.1221309018586645 -4.161899358592938 0  0.1166997684017801 -3.25954604704229 0  4.961569127360256 -0.3118894787216622 0  4.923897360678746 -9.687537149351071 0  0.1228405945134021 -2.536958536012416 0  0.1335945686177435 -7.466846676638523 0  3.206461751753455 -0.2806173508164562 0  3.213166004658842 -9.746377676274168 0  0.1155250883680452 -8.186784073011673 0  0.1359204609538445 -1.804202625344072 0  6.662432263484016 -9.600124945047963 0  6.631056521209421 -0.3942868763482545 0  2.126700074935258 -0.2065769621215452 0  2.120437876630353 -9.808537401472012 0  8.761385473272522 -9.4914222957189 0  8.786076048231736 -0.4923064159810888 0  0.1195911345135556 -8.749677128895598 0  0.1117474302775605 -1.230589418769438 0  11.3907841305612 -9.402816705944797 0  11.36435727088349 -0.618365439918426 0  1.211504568109637 -0.1471532661956818 0  1.239596144827807 -9.832618358594059 0  13.75158625181508 -9.315497816134139 0  13.7500399625954 -0.6902569910160397 0  0.131402377539402 -3.696772604078816 0  0.1204853385030979 -6.307560917781178 0  0.1346483804691658 -4.550944754283819 0  0.1255109280847009 -5.434782608695652 0  16.39894095075685 -9.180198571581517 0  16.44068234362399 -0.8166544577416346 0  0.1255109280847009 -0.7971014492753632 0  0.1162877148651766 -9.206770243020259 0  19.56645066956165 -9.043742294716539 0  29.11731382843969 -5.098539983867493 0  19.50527862123305 -0.9323941524176265 0  23.28904960561395 -8.8608997858633 0  0.6875606479622149 -0.1442604037134076 0  0.6875606348153145 -9.855739596611892 0  23.37074358394081 -1.15131614182933 0  10.00852704311311 -9.475417469395781 0  10.01049631493635 -0.5545437343697674 0  7.639131123468924 -9.543000896765111 0  7.693537846067955 -0.4574302764599576 0  5.733194300659633 -9.66079268774309 0  5.731454990332523 -0.3687808037058806 0  3.803630689980224 -9.686555789708486 0  3.834043646352164 -0.2754981925697493 0  2.618022704128803 -9.787800068206256 0  2.634320277618269 -0.2392104743186785 0  1.65952286941916 -9.813294854785646 0  1.665360553377539 -0.1820878093930922 0  0.1365068028365961 -1.543352471920677 0  0.1128108295274224 -8.471115901500411 0  0.1249192863256123 -0.5070564851587012 0  0.1172626025927563 -9.49200175151447 0  0.1255109280847009 -2.101449275362318 0  0.1255109280847009 -7.898550724637682 0  0.1247535864599936 -2.824177050114505 0  0.1155424837078822 -7.17494363557847 0  26.05192393553612 -8.777856070543081 0  26.00031291598836 -1.159065252957426 0  0.3627343947446455 -0.1301950113519217 0  0.3690141220077834 -9.868919517536135 0  28.90574865438674 -7.135369011630129 0  29.02069681040884 -2.861993939893059 0  0.1397555488250113 -0.2163338956475025 0  0.1255109280847009 -9.782608695652172 0  24.67098979274125 -8.799958058548517 0  23.93395881668722 -7.700959994796646 0  22.61396570077244 -7.764517377391733 0  23.2032949615693 -6.630776985250927 0  21.94857473380583 -6.690613342424633 0  24.50398505507967 -6.535933305198952 0  22.51489076809043 -5.580432145971667 0  21.29537841406989 -5.639199768252479 0  21.84985259542567 -4.547213342284197 0  20.65342988351128 -4.619546679988924 0  20.11277906893955 -5.663225279336593 0  19.49454290958806 -4.673886314669294 0  18.97860072994828 -5.624185949902217 0  18.40383886642446 -4.729683279047542 0  17.90575400337286 -5.630456854950327 0  17.35903168001753 -4.836859475002379 0  16.91444903556046 -5.680257663405808 0  16.36114434035519 -4.898890029095359 0  15.89440836794127 -5.835214594829282 0  15.41608945577568 -4.979845093198404 0  14.9809818125648 -5.732909169427192 0  14.51777858619734 -4.988431190461874 0  14.14039496103406 -5.776391085527889 0  13.67321261031888 -5.031745046943032 0  13.26988611760758 -5.891550007816156 0  12.85732927991246 -5.095735823822261 0  12.46423889659403 -5.760519953635332 0  12.07741841933393 -5.116608846746942 0  11.73131647445202 -5.75987862647932 0  11.35222911621012 -5.158061768105265 0  11.01225658271747 -5.784828178519854 0  10.65393216495117 -5.205808407572067 0  10.33042159780337 -5.788944717060055 0  9.98551374198097 -5.24118342090078 0  9.687616112021921 -5.812725728827915 0  9.357518717034999 -5.284717467130579 0  9.08157001076583 -5.820057568121996 0  8.766199932316585 -5.320212662582848 0  8.494748056481422 -5.830095453943056 0  8.194406727465122 -5.347802431655208 0  7.942610344706003 -5.833678024304247 0  7.660825631728443 -5.380025954369014 0  7.416702921751611 -5.83684433397813 0  7.147290851157173 -5.413787279190068 0  6.91632006965034 -5.851605397483334 0  6.658527053286988 -5.437627383845131 0  6.441897327469297 -5.862220684948111 0  6.194860224019926 -5.464520225953867 0  5.988748643021736 -5.866336295550595 0  5.755042825355586 -5.482399938780632 0  5.555770501455733 -5.867908174086599 0  5.334991086231989 -5.504761241472904 0  5.145076642106908 -5.873191062890511 0  4.935013388047023 -5.544035964184449 0  4.754345788811499 -5.880090917794126 0  4.554437025256316 -5.569020251233177 0  4.382470744799432 -5.88665007327689 0  4.192208958329529 -5.585677590398814 0  4.029485566904095 -5.896175760774888 0  4.354949258143058 -5.270074521138358 0  4.004482386201769 -5.289207815434526 0  4.158655721068861 -4.98145486433833 0  3.821444856080801 -5.001169872115685 0  3.97033944278737 -4.700814034221719 0  3.642688047138773 -4.720140385706738 0  3.788830742180677 -4.426816067812119 0  3.467446796449556 -4.450112744784491 0  3.325275354457695 -4.730293981808933 0  3.158439978631689 -4.466074367009679 0  3.294707394527546 -4
[...]
<PointData  Scalars=" mean stress"> 
<DataArray  type="Float64"  Name=" mean stress"  format="ascii">1.4365468528941172e-01  2.9557058700147731e+01  6.0821738615638947e+02  4.0951428559158138e+01  1.3761711439471849e-01  1.2625126291904956e-01  1.2975001767606015e-01  1.4050989069921507e-01  1.5634792420320301e-01  1.8139090966446419e-01  2.0793994077779382e-01  2.3956826721336782e-01  2.9655814310661993e-01  3.4520137031939319e-01  4.1178362670676533e-01  4.9212116087259422e-01  5.6896531311440945e-01  6.5011167828039818e-01  7.9252911818031624e-01  9.2687132124784943e-01  1.0681504000512230e+00  1.2971391873302678e+00  1.4244832969924641e+00  1.6692806992480909e+00  1.9323087627136066e+00  2.2183395625127567e+00  2.5569945651298678e+00  2.9782321727551104e+00  3.2968868386504866e+00  3.9584042505957049e+00  4.7114281108292984e+00  5.4613199312188776e+00  6.3178123124815553e+00  7.5746117697958741e+00  8.9629445805535344e+00  1.0541957877929947e+01  1.2609105120363282e+01  1.3960952744695637e+01  1.6766914352529515e+01  1.9609255678745633e+01  2.1502101697850623e+01  2.3953274758148066e+01  2.4313024786013866e+01  2.5559949135474707e+01  2.6272806673801266e+01  2.8582749750072569e+01  2.5659128481907565e+01  2.7287861977085949e+01  2.7491190934470140e+01  2.7974476289014998e+01  2.7050216595567203e+01  2.8805099520431355e+01  2.5689757405179741e+01  2.9134179523339579e+01  3.1000195730812155e+01  3.5827541099187997e+01  4.1396977551942847e+01  5.1548908086989300e+01  7.7724519233131943e+01  9.7099310380584058e+01  1.6265883965505790e+02  9.1155075142964250e+01  6.2146490226213920e+01  4.6698828741550145e+01  3.6294315086095800e+01  2.9740794625131880e+01  2.5095406552100972e+01  2.1493457221391427e+01  1.9145509562089465e+01  1.7253243365706680e+01  1.5920424179823549e+01  1.5131252602910042e+01  1.4730966295712221e+01  1.4821806037501633e+01  1.5519215626828856e+01  1.6879285506165541e+01  2.0095355516828452e+01  2.4850257417270548e+01  3.7478150713422707e+01  8.1071023534123853e+01  6.0088568844548611e+01  2.5064229999565725e+01  1.6845542095156464e+01  1.2268772764624012e+01  9.3955286757985590e+00  7.9862046867298568e+00  6.9311404513738557e+00  6.1429962042944677e+00  5.6406758887707387e+00  5.3012837824964123e+00  5.0563113465625316e+00  5.0110632637115700e+00  4.9756340891023472e+00  5.0086093815047352e+00  5.1375978506625746e+00  5.3878179387557719e+00  5.6555487920523939e+00  6.0425096961364186e+00  6.5859646737582791e+00  7.2604407433708644e+00  8.0795890274169473e+00  9.2926268665908687e+00  1.0790013484887094e+01  1.3077293602975660e+01  1.5622276876906318e+01  2.0218113699388816e+01  2.7393426839794618e+01  3.8793930651371710e+01  2.0604173771096644e+01  1.4483211248236090e+01  1.0903559890143535e+01  8.8280888368542083e+00  7.5516304326617307e+00  6.6732896494327658e+00  5.9365904363141020e+00  5.4123422156204786e+00  5.0316180997007285e+00  4.7092203859439614e+00  4.4209444404867702e+00  4.1871460776009002e+00  3.9725301054770856e+00  3.8076618029499634e+00  3.6440471494424074e+00  3.4984220562002886e+00  3.3607892154260055e+00  3.2273935368404056e+00  3.1162173342115644e+00  3.0045652989746845e+00  2.8980023547328386e+00  2.7980436384346277e+00  2.6972525870891548e+00  2.6123212516069754e+00  2.5317063698711038e+00  2.4345939681562907e+00  2.3484730093519790e+00  2.2706357058978308e+00  2.1772101907564578e+00  2.1078336269938522e+00  2.0231175623024122e+00  1.9382854811665537e+00  1.8674643690590949e+00  1.7878055844003786e+00  1.7108448271911774e+00  1.6514910340939470e+00  1.5567696523254440e+00  1.4799852405556531e+00  1.4153207672905637e+00  1.3568387425683741e+00  1.2903675455797787e+00  1.2042733385053928e+00  1.1496812056599501e+00  1.0761033111179228e+00  1.0205230030249228e+00  9.6354727183816269e-01  8.9746288944211483e-01  8.2805009050811040e-01  7.7978024433370596e-01  7.3088830483074330e-01  6.7959951159378829e-01  6.1750471138464991e-01  5.7545639300070350e-01  5.3144150544699920e-01  4.9099171543929471e-01  4.4352946053887238e-01  3.9760841248110518e-01  3.7363298326051841e-01  3.3635352029075344e-01  2.9842073306731626e-01  2.7080960319155400e-01  2.4738300592363666e-01  2.3370526374093845e-01  1.4939104485931043e-01  3.9812302438797004e-01  1.3411135000528951e-01  1.1932033178719294e-01  1.2683737100703599e-01  1.7460814775899962e+00  2.2322468395370652e+00  2.7471120891197218e+00  1.3281468614562275e+00  9.2295149504886387e-01  1.6788655064355926e+00  6.3130886144961789e+00  6.5598117142688928e-01  3.3049590729356071e+00  8.0001913250046286e-01  5.3788251382296437e+00  4.0829375299662196e+00  4.3493399325344312e-01  1.1200429933981948e+01  2.8702410751216032e+00  4.2439979369208058e-01  6.1251476331691217e+00  2.3777414335471803e+01  5.1831194897902373e+00  5.1901916284604237e+00  2.9361839010414892e-01  1.7698518869256755e+01  9.6129724396015330e+00  2.2709225679128611e-01  8.7216066035355890e+00  1.5460367375339212e+01  1.5079755978517044e+01  1.1183945473668373e+00  2.4815730161132286e+00  1.5287613742304162e+00  1.9959759037652296e+00  1.7550041918198602e+01  2.0095310316753952e+01  2.6634261239168028e-01  7.0681931842549952e+00  2.4216063616420964e+01  3.8495464751560512e+01  2.3398653133657110e+01  4.1157273114060168e+01  1.5801830194438879e-01  1.3418244179041578e+01  2.5671889672821813e+01  2.4575262527988432e+01  7.0919837899258367e+00  1.8823868742532827e+01  3.8792298997191534e+00  7.7253437368757476e+00  2.1433673300401308e+00  5.5461056838172498e+00  1.0610948726018850e+00  5.6036277411745612e+00  5.9105148627517212e-01  7.1298439958842144e+00  3.1691994403656587e-01  3.6567342148236670e-01  4.5482863543838983e+00  1.7911697439651647e-01  9.6902941937423925e+00  5.1380553204451695e-01  3.7263708473052959e+00  7.5306421881044538e-01  3.0612828206087994e+00  6.8744909831911855e+01  2.6634300242345290e+01  1.3059101781982380e-01  1.8521658273223963e+01  5.7600961818590022e+01  3.0405971063879054e+01  1.1794278192347196e-01  1.6977500282996576e+01  5.1835574469856851e+01  4.1475908594976126e+01  3.5605004212905257e+01  3.4802309472785119e+01  3.1179383047799764e+01  3.8363218835485029e+01  3.0234311283797560e+01  2.8020956777834115e+01  2.7083582934240052e+01  2.5592672087582720e+01  2.5527359979184030e+01  2.4120367790772264e+01  2.3718826524651384e+01  2.2430139008364876e+01  2.2347441330215997e+01  2.0840966141295105e+01  2.0867942036320983e+01  1.9549992975898288e+01  1.9403051009193693e+01  1.7966178090110116e+01  1.7606134467025246e+01  1.6081017702470838e+01  1.5950969468519180e+01  1.4101611621040499e+01  1.4085113322557362e+01  1.2403600055684107e+01  1.2074268725114116e+01  1.0726299936432893e+01  1.0425032202624042e+01  9.2179023105524411e+00  9.0267751127611326e+00  7.9358062784333354e+00  7.8432840927499070e+00  6.9502627191054636e+00  6.9368413903217236e+00  6.1155235128854555e+00  6.1871597463654107e+00  5.4945940237299675e+00  5.6060530165181861e+00  5.0385017333940825e+00  5.1836429653542604e+00  4.6744753580544192e+00  4.8479800803430706e+00  4.4028799231676796e+00  4.6377670652964706e+00  4.2296195419082023e+00  4.5218498550596093e+00  4.1153155095985259e+00  4.4594543430481810e+00  4.0884705190116009e+00  4.4709242953545978e+00  4.0938599042780019e+00  4.5284030209995194e+00  4.1604389765731797e+00  4.6346517574526160e+00  4.2659636356642485e+00  4.8064135856774417e+00  4.4028001559344014e+00  4.8958109367187692e+00  3.8820994997381293e+00  3.9566639113838633e+00  3.5671196810981298e+00  3.5205004773097097e+00  3.2193865031558206e+00  3.1518166724334793e+00  2.8765335417050770e+00  2.8154613783250007e+00  3.0816692266830294e+00  2.7331833754157935e+00  2.5077475211386417e+00  2.9707059807849623e+00  2.4105452525573656e+00  2.2312250509334444e+00  2.1447858965706721e+00  1.9855173692759134e+00  3.7568966653353910e+00  1.8970294581148370e+00  1.7726821970130395e+00  1.8128977411381548e+00  2.0430042755793032e+00  1.6926275239529203e+00  1.5565417826860264e+00  5.3826482498084909e+00  5.4849935641238394e+00  1.4666140057395631e+00  1.3878019481178518e+00  1.3058575912078314e+00  1.2318054488326640e+00  1.3983238936811966e+00  6.0170116480084337e+00  6.0568504250423620e+00  1.3305241661345435e+00  1.1457804055020160e+00  1.0881273972602570e+00  1.0109708162591549e+00  9.4988142336915748e-01  4.2413809497809360e+00  6.6233109416341138e+00  6.5082413123113927e+00  8.8994171904842179e-01  9.5016207117925167e-01  8.3456368352534327e-01  8.8627406350197446e-01  7.1576755465768871e+00  6.7895231562530647e+00  6.1444302793193746e+00  6.3397896176360859e+00  5.6833744644391384e+00  5.6914220503905346e+00  5.1320941836801497e+00  5.1460489973644803e+00  4.6240879179065209e+00  4.6699062103363387e+00  4.2439379566937578e+00  5.1305195337045086e+00  4.6901993598527962e+00  7.1078627552208227e+00  5.1347574747624734e+00  4.7290080032113586e+00  4.8588039374066838e+00  5.1617486537287407e+00  4.7726836750611428e+00  4.3924595329360629e+00  4.1878007540901621e+00  3.8591325456278440e+00  3.8171335926097436e+00  3.5489083217535597e+00  3.4710891976050151e+00  3.2295825151158151e+00  3.1920523923856514e+00  7.8009426452872654e-01  7.3748397240284602e-01  4.4614162012436385e+00  4.8262188417411815e+00  3.2805593152633947e+00  6.9155628914330496e+00  2.9034316132795710e+00  2.9509210245716160e+00  2.9029523619376087e+00  6.9691489743511925e-01  4.5617626364419479e+00  4.9280110880297663e+00  4.1240387154709257e+00  6.3709630731816702e-01  5.4946951189952902e+00  2.7366072445389120e+00  2.6778545843243395e+00  4.6795059371126868e+00  5.9664852565520998e-01  3.7289824846112416e+00  6.4373973692924868e-01  5.0599476767809595e+00  5.3021318301335381e+00  5.5997623968103194e-01  6.2064998869788657e-01  2.5341360483400766e+00  2.4737877540942583e+00  4.8359173028790643e+00  5.1578603646043919e-01  5.1229952126994727e+00  2.5796459263431983e+00  2.3498342539083206e+00  2.2800045606355184e+00  4.8885020706254295e-01  2.4088614124943599e+00  2.2171525311377245e+00  5.2389715086746094e+00  5.0601544019733868e+00  2.1149674071020188e+00  2.0440964521337008e+00  4.4917688745111226e+00  4.6026767892419318e-01  2.1522408313054777e+00  1.9778821270947973e+00  1.8923023544508573e+00  1.8142079810651754e+00  8.1156683228033248e+00  5.4944143254887390e+00  5.3440874527737847e+00  1.7329979513104952e+00  1.6643325268601623e+00  4.2627635886467780e-01  3.9924834958004601e-01  6.3624561150690413e+00  1.7445200530702676e+00  1.5968251820474317e+00  4.2333818728759776e-01  1.5392196420139557e+00  1.4714948817525542e+00  1.6736000719395729e+00  1.4220166944542445e+00  1.3543771891570371e+00  3.7081151573607146e-01  4.0343452161548365e-01  3.4707493163046405e-01  5.8241769929325651e+00  5.9743520357835216e+00  5.6973205225128520e+00  5.6084669616548490e+00  5.2288460931880740e+00  5.4590442393880600e+00  1.4862440319309720e+00  5.6051152300905427e+00  6.1486265676521548e+00  1.0920594337121178e+01  7.8963628607174865e+00  1.7989832695022168e+00  7.6990091315391158e+00  7.5639496261604870e+00  8.0931957377349502e+00  8.0001841382545642e+00  8.3574584134820693e+00  8.1875363267090311e+00  7.6140763153905526e+00  7.9270304813532979e+00  8.3513160486167628e+00  8.3917774013217272e+00  8.2573981329516801e+00  1.6656073274227463e+01  3.2316632956033287e-01  3.0092955489050094e-01  3.2624917030406519e-01  1.4006165956281877e+00  1.2831713616134588e+00  1.2416051337578249e+00  1.1774373535472884e+00  1.2104135947851573e+00  1.1090834739952367e+00  1.0748884538555799e+00  1.0157570636480968e+00  2.0788769471059427e+00  1.1801833535816458e+01  7.2278685359134034e+00  7.6671478626887710e+00  7.0472220544915656e+00  7.4927251492090665e+00  2.3117609454311432e+00  3.3412950322735426e+00  3.1901344827714371e+00  3.5104114293112896e+00  2.8533912078910659e+00  2.2782380114232357e+00  6.8466513971874230e+00  7.4641909322950166e+00  1.1438798141636026e+00  1.2615889123007022e+00  6.8996426650583524e+00  6.3538736881704505e+00  6.4485217374945156e+00  2.2026046647935189e+00  1.3831439549313902e+00  2.8043098717706583e-01  2.6345476546730406e-01  3.0046747267730717e-01  9.9153818258199955e-01  9.3197186190249393e-01  9.5305692470426384e-01  8.7158229291657396e-01  6.0960520312125901e+00  6.7508242472911943e+00  5.1506007306201411e+00  3.6044306387559981e+00  1.4492659795607570e+00  1.0428636642627525e+00  8.3050692333354554e+00  3.3829751964886507e+00  3.7901951181783553e+00  8.1457989156464503e+00  7.9297197348721333e+00  7.8603365732181478e+00  7.6012643643377773e+00  1.7274441543298614e+01  8.5158146961050718e-01  7.9770536248623847e-01  8.1196756905470568e-01  7.4114913156161621e-01  6.6362559641984644e+00  7.4272908670996980e+00  3.8832080153061472e+00  2.1278744108490109e+01  4.8445413914826263e+00  2.8671781468377205e+01  6.7543627699282878e+00  2.8519629417439636e+00  4.7803851468642309e+00  4.5233032953559862e+00  7.4735153849685725e+00  7.2839561926539513e+00  7.2683700140161172e+00  7.0468148611435177e+00  6.8802582993550079e+00  6.8156413742879982e+00  6.6448290963891123e+00  7.4608625914998843e+00  6.8606286851612968e+00  7.8639214702847564e+00  2.4289547211710336e-01  2.2828793672088890e-01  2.4794607616900599e-01  6.8437017501343069e+00  6.8612161079134140e+00  6.5161518218139083e+00  8.0647404171874673e+00  7.2256473451136771e-01  6.7330140479908784e-01  2.4254833600486454e+00  1.1914555849424215e+00  3.5199366853265857e+00  3.9499817115124611e+00  7.6158085294699589e+00  7.5273378284291654e+00  5.6156356072771407e+00  6.0667433773149160e+00  6.8214890493642519e+00  7.6330982417108673e-01  5.0464103521257089e+00  7.1340965512372012e+00  8.3812820550200549e+00  5.0526854765574578e+00  7.6470655259429288e+00  4.0066332964473990e+00  1.3558480507883883e+00  1.4230326561414837e+00  1.5132443817608399e+00  2.1961744105695960e+01  6.8694733718524654e+00  4.4630017563681061e+00  4.2551233710805567e+00  8.3483702238640445e-01  9.7050703485289147e-01  1.0201679103921855e+00  6.5024710742981267e+00  8.2842055486261685e+00  2.5095095433307371e+01  6.9281242475522431e+00  2.3236974488976334e+00  2.1031389149547137e+00  6.5893772783266757e-01  6.0770560874464596e-01  6.2149555495297681e-01  5.6402690529550403e-01  5.7655924257792501e-01  5.2091544752833785e-01  5.0989397720150587e-01  4.6946692447884325e-01  2.1503656968448645e-01  1.3199219917585749e+00  6.5266313997630334e+00  7.0709231093553160e-01  7.4364454452167204e+00  8.9801561458120371e+00  7.9873840783150269e+00  9.7513337271173626e+00  5.3496937167693681e-01  7.8243613206306017e-01  1.9333618542306544e-01  6.0149297890406095e-01  6.5913679984610765e+00  6.7479435938778920e+00  8.9163577685706645e+00  5.9275602669548348e+00  8.5438392640495078e+00  4.0545245776419740e+00  3.8340736351448208e+00  3.9094885973579219e+00  3.6608016957666960e+00  3.7446069950747600e+00  3.5237402777791176e+00  3.4375990472369291e+00  3.3241226685715159e+00  3.2427175360319791e+00  3.6173285543789038e+00  3.1355240038697647e+00  3.0624489871261398e+00  3.2271388475718088e+00  2.9619563682360206e+00  2.8929025768887131e+00  2.9914926056976889e+00  2.8234766098908404e+00  2.7527262131348875e+00  2.6832438016013027e+00  3.3605360450619588e+00  2.7564568574637285e+00  2.6093009016873481e+00  2.5553884274689702e+00  2.4837488510441452e+00  2.4305534329659930e+00  2.3547487895365125e+00  2.4160672247129282e+00  2.2873414466986781e+00  2.2437666219016510e+00  2.1660638224483253e+00  2.2134934544393854e+00  2.0963614855339503e+00  3.8424445152437730e+00  3.7312254505412872e+00  2.0641581808397702e+00  1.9894272723864026e+00  2.0266452962607961e+00  1.9209776697463061e+00  1.8850068362801200e+00  1.8098984868766548e+00  2.5099584478708845e+00  4.7281503239161076e+00  7.0093126281867155e+00  7.1220856079726200e+00  8.4118358131573814e+00  3.9516172766588036e+00  1.9528227656017401e+00  3.1476398532539078e+00  2.3207686633113506e-01  2.2138795907462661e+00  1.9735473426997527e+00  2.3955016217781977e+00  3.5287745159843018e+00  3.6423050063265836e+00  3.4660438862879723e+00  3.5728488123974222e+00  4.2108557900732135e+00  6.2480674899917670e+00  6.6586571372021428e+00  2.6840833754079330e+00  2.8470703321113286e+00  1.2905205793431940e+00  1.2739739785898863e+00  2.6534777614458543e-01  3.7447528665220666e+00  1.4869198530622256e+00  1.5705892101124674e+00  8.7675459020520403e+00  1.0690050908042037e+01  3.2559134079568839e+00  2.4994330756966892e+01  1.2084553342359858e+00  3.7552291276795344e+00  4.3117176693712125e+00  3.7680950388068557e+00  1.0092299409058521e+01  9.7241175907646653e+00  1.1799773195824566e+01  1.0822560390109397e+01  1.2960012909345027e+01  2.6087005255656477e+00  2.6644556343432870e+00  2.3874071282589719e+00  2.4772882990020930e+00  2.2227478823875950e+00  2.3221661343205993e+00  2.0907981916926159e+00  2.2000826950417847e+00  1.9857336105051058e+00  2.1121951266057595e+00  2.3284235269618794e+00  2.2611736469734391e+00  2.4845012749084243e+00  2.4478112998155668e+00  1.9045795418203539e+00  1.7692709386566905e+00  2.6684025454067641e+00  2.6587569706665488e+00  1.7025089054023612e+00  1.5686901233606751e+00  2.9014899605111193e+00  2.8676980403049424e+00  3.1305814642595582e+00  3.1747582636384504e+00  1.5228636113677532e+00  1.3977819928987223e+00  1.6760370340117821e+00  2.3970915338852419e+00  3.4558856833876024e+00  3.5904327900170734e+00  3.8580161218104752e+00  3.9236831660353326e+00  1.4500129019183603e+00  1.2876667650097140e+00  1.2426859953245775e+00  1.1243241535962245e+00  2.5490771263072363e+00  4.2725385983748971e+00  4.4261360322816978e+00  4.7544531414849054e+00  1.5109049804722918e+00  1.6780370073166029e+00  2.9608318657603485e+00  5.0791321376389540e+00  1.1025103175266655e+00  9.8692971878964220e-01  1.0270278165543067e+00  9.0433411744570191e-01  2.7204511342671318e+00  2.9444077589265452e+00  5.4135861501417013e+00  5.7899349160937712e+00  8.7696274383455664e-01  7.8084719531327040e-01  1.9803060376229109e+00  1.3498430482659984e+00  4.1282092033882369e+00  3.6517691723597934e+00  8.1190065824813096e-01  7.0263462166845170e-01  6.2607604607719987e+00  6.6827294511319426e+00  7.1498946096375482e+00  3.4092714764380503e+00  6.7360862256229181e-01  6.0255823379998608e-01  7.6191892994318247e+00  1.5109364841036970e+00  1.6866949768117649e+00  8.3187824362349936e+00  8.8314577226036555e+00  1.8547447588828181e+00  7.3682089702709619e-01  5.3065531358128402e+00  9.6001216610592106e+00  1.0266627739462555e+01  1.1118221369587152e+01  8.4602639998350537e-01  5.8714741065983498e+00  5.8490171903185739e-01  5.2159518876869360e-01  5.4679984538861193e-01  4.6511571684804565e-01  6.6207485598552163e-01  1.8963757934908017e+00  2.0692915359259523e+00  1.5187664025839371e+00  1.4218209231790617e+00  1.6028147664833594e+00  2.1418618873484863e+00  2.3183579591151644e+00  1.2348454168133813e+00  4.9419669974409769e-01  1.5102832414220819e+00  7.2266979874215025e+00  4.2101749565869112e-01  3.9967974957002905e-01  3.5873791858191900e-01  1.3473306521802362e+00  1.3477968832344578e+00  1.1885723518944964e+00  1.2074291620273153e+01  1.2964139237142584e+01  1.3797101412523521e+01  2.6271886335510297e-01  2.9611965899090947e-01  7.2301386967372778e+00  9.8142741755647602e+00  1.0798310079223870e+00  1.1198237228523316e+00  8.2390670528104799e+00  7.7956892210789341e+00  7.9214185483661081e+00  7.2296227019867798e+00  4.5748129234948703e-01  4.2666462210330980e-01  4.2559653991523694e-01  3.9144640567825806e-01  1.8437871887087001e-01  1.6070799599271088e-01  1.1443576899224183e+01  1.6068876908833043e+00  2.4415494254940908e+00  2.6230467875102255e+00  1.4451968735307537e+01  1.5634070685056553e+01  1.6242215298578767e+01  5.0631654083750977e-01  7.0615169108527376e-01  2.0852727723936071e+00  2.8021043055562642e+00  2.4912853992070438e+00  1.3922821605351177e+00  1.4663185287312523e+00  1.6703931787932751e+00  1.6497883957964035e+00  5.7692804238497364e-01  5.8479228617597858e+00  2.5780357879091742e+00  1.0183934446186571e+00  7.4474456551626176e+00  3.9