<?xml version="1.0"?>
<VTKFile type="UnstructuredGrid"  version="0.1"  >
<UnstructuredGrid>
<Piece  NumberOfPoints="1691" NumberOfCells="3204">
<Points>
<DataArray  type="Float64"  NumberOfComponents="3"  format="ascii">0 0 0  30 0 0  30 -10 0  0 -10 0  0.1391574078963744 0 0  0.2856388821882616 0 0  0.4398299073010886 0 0  0.6021362569539473 0 0  0.7729850389704483 0 0  0.9528258543586996 0 0  1.142131984380316 0 0  1.34140159760994 0 0  1.551159074717981 0 0  1.771956417032531 0 0  2.004374674080994 0 0  2.249025475789527 0 0  2.506552636773105 0 0  2.777633857742732 0 0  3.062982518028728 0 0  3.363349525995907 0 0  3.679525322337712 0 0  4.01234195575742 0 0  4.362675247811097 0 0  4.731447135329707 0 0  5.119628065610077 0 0  5.528239565804708 0 0  5.958356943167011 0 0  6.411112081475485 0 0  6.887696441559404 0 0  7.389364184530748 0 0  7.917435485335147 0 0  8.473300005202017 0 0  9.058420557070402 0 0  9.674336929103793 0 0  10.32266995225095 0 0  11.00512576896296 0 0  11.72350030646412 0 0  12.47968402994705 0 0  13.27566689579597 0 0  14.1135435963616 0 0  14.9955190732806 0 0  15.92391430904694 0 0  16.90117245730496 0 0  17.92986524844506 0 0  19.01269976086341 0 0  20.15252556282024 0 0  21.35234220269763 0 0  22.61530708683689 0 0  23.94474379751883 0 0  25.34415086349739 0 0  26.81721093579712 0 0  28.3678004819169 0 0  30 -1.111111111111111 0  30 -2.222222222222222 0  30 -3.333333333333333 0  30 -4.444444444444445 0  30 -5.555555555555555 0  30 -6.666666666666666 0  30 -7.777777777777777 0  30 -8.888888888888889 0  28.36780047917311 -10 0  26.8172109305839 -10 0  25.34415085606858 -10 0  23.94474378810899 -10 0  22.61530707566275 -10 0  21.3523421899591 -10 0  20.15252554870171 -10 0  19.01269974553473 -10 0  17.92986523206254 -10 0  16.90117244001232 -10 0  15.92391429097614 -10 0  14.99551905455266 -10 0  14.11354357708742 -10 0  13.27566687607703 -10 0  12.47968400987599 -10 0  11.72350028612546 -10 0  11.00512574843363 -10 0  10.32266993160086 -10 0  9.674336908396342 -10 0  9.058420536362949 -10 0  8.473299984546333 -10 0  7.917435464777824 -10 0  7.389364164113587 -10 0  6.887696420787165 -10 0  6.411112061446698 -10 0  5.95835692337857 -10 0  5.528239546282652 -10 0  5.119628046377237 -10 0  4.731447115907979 -10 0  4.362675229213632 -10 0  4.012341937260036 -10 0  3.679525304434552 -10 0  3.363349508456405 -10 0  3.062982500861274 -10 0  2.777633840953978 -10 0  2.506552620368097 -10 0  2.249025459771861 -10 0  2.004374658452946 -10 0  1.771956401795187 -10 0  1.551159059871345 -10 0  1.341401583153029 -10 0  1.142131970307521 -10 0  0.9528258406748833 -10 0  0.7729850256685147 -10 0  0.6021362439621285 -10 0  0.4398298947504031 -10 0  0.2856388700059078 -10 0  0.1391573960769001 -10 0  0 -9.855072463768115 0  0 -9.710144927536232 0  0 -9.565217391304348 0  0 -9.420289855072463 0  0 -9.27536231884058 0  0 -9.130434782608695 0  0 -8.985507246376812 0  0 -8.840579710144928 0  0 -8.695652173913043 0  0 -8.55072463768116 0  0 -8.405797101449275 0  0 -8.260869565217391 0  0 -8.115942028985508 0  0 -7.971014492753623 0  0 -7.826086956521739 0  0 -7.681159420289855 0  0 -7.536231884057971 0  0 -7.391304347826087 0  0 -7.246376811594203 0  0 -7.101449275362318 0  0 -6.956521739130435 0  0 -6.811594202898551 0  0 -6.666666666666667 0  0 -6.521739130434783 0  0 -6.376811594202898 0  0 -6.231884057971015 0  0 -6.086956521739131 0  0 -5.942028985507246 0  0 -5.797101449275362 0  0 -5.652173913043478 0  0 -5.507246376811594 0  0 -5.36231884057971 0  0 -5.217391304347826 0  0 -5.072463768115941 0  0 -4.927536231884058 0  0 -4.782608695652174 0  0 -4.637681159420289 0  0 -4.492753623188406 0  0 -4.347826086956522 0  0 -4.202898550724638 0  0 -4.057971014492754 0  0 -3.913043478260869 0  0 -3.768115942028985 0  0 -3.623188405797101 0  0 -3.478260869565217 0  0 -3.333333333333334 0  0 -3.188405797101449 0  0 -3.043478260869565 0  0 -2.898550724637681 0  0 -2.753623188405797 0  0 -2.608695652173912 0  0 -2.463768115942029 0  0 -2.318840579710145 0  0 -2.173913043478261 0  0 -2.028985507246377 0  0 -1.884057971014492 0  0 -1.739130434782609 0  0 -1.594202898550725 0  0 -1.44927536231884 0  0 -1.304347826086957 0  0 -1.159420289855072 0  0 -1.014492753623188 0  0 -0.8695652173913047 0  0 -0.72463768115942 0  0 -0.579710144927537 0  0 -0.4347826086956523 0  0 -0.2898550724637676 0  0 -0.1449275362318829 0  0.1309460514202492 -4.990980414828784 0  0.1171526873513358 -5.869565217391296 0  0.1344252986967795 -6.716855800502001 0  0.1221309018586645 -4.161899358592938 0  0.1166997684017801 -3.25954604704229 0  4.961569127360256 -0.3118894787216622 0  4.923897360678746 -9.687537149351071 0  0.1228405945134021 -2.536958536012416 0  0.1335945686177435 -7.466846676638523 0  3.206461751753455 -0.2806173508164562 0  3.213166004658842 -9.746377676274168 0  0.1155250883680452 -8.186784073011673 0  0.1359204609538445 -1.804202625344072 0  6.662432263484016 -9.600124945047963 0  6.631056521209421 -0.3942868763482545 0  2.126700074935258 -0.2065769621215452 0  2.120437876630353 -9.808537401472012 0  8.761385473272522 -9.4914222957189 0  8.786076048231736 -0.4923064159810888 0  0.1195911345135556 -8.749677128895598 0  0.1117474302775605 -1.230589418769438 0  11.3907841305612 -9.402816705944797 0  11.36435727088349 -0.618365439918426 0  1.211504568109637 -0.1471532661956818 0  1.239596144827807 -9.832618358594059 0  13.75158625181508 -9.315497816134139 0  13.7500399625954 -0.6902569910160397 0  0.131402377539402 -3.696772604078816 0  0.1204853385030979 -6.307560917781178 0  0.1346483804691658 -4.550944754283819 0  0.1255109280847009 -5.434782608695652 0  16.39894095075685 -9.180198571581517 0  16.44068234362399 -0.8166544577416346 0  0.1255109280847009 -0.7971014492753632 0  0.1162877148651766 -9.206770243020259 0  19.56645066956165 -9.043742294716539 0  29.11731382843969 -5.098539983867493 0  19.50527862123305 -0.9323941524176265 0  23.28904960561395 -8.8608997858633 0  0.6875606479622149 -0.1442604037134076 0  0.6875606348153145 -9.855739596611892 0  23.37074358394081 -1.15131614182933 0  10.00852704311311 -9.475417469395781 0  10.01049631493635 -0.5545437343697674 0  7.639131123468924 -9.543000896765111 0  7.693537846067955 -0.4574302764599576 0  5.733194300659633 -9.66079268774309 0  5.731454990332523 -0.3687808037058806 0  3.803630689980224 -9.686555789708486 0  3.834043646352164 -0.2754981925697493 0  2.618022704128803 -9.787800068206256 0  2.634320277618269 -0.2392104743186785 0  1.65952286941916 -9.813294854785646 0  1.665360553377539 -0.1820878093930922 0  0.1365068028365961 -1.543352471920677 0  0.1128108295274224 -8.471115901500411 0  0.1249192863256123 -0.5070564851587012 0  0.1172626025927563 -9.49200175151447 0  0.1255109280847009 -2.101449275362318 0  0.1255109280847009 -7.898550724637682 0  0.1247535864599936 -2.824177050114505 0  0.1155424837078822 -7.17494363557847 0  26.05192393553612 -8.777856070543081 0  26.00031291598836 -1.159065252957426 0  0.3627343947446455 -0.1301950113519217 0  0.3690141220077834 -9.868919517536135 0  28.90574865438674 -7.135369011630129 0  29.02069681040884 -2.861993939893059 0  0.1397555488250113 -0.2163338956475025 0  0.1255109280847009 -9.782608695652172 0  24.67098979274125 -8.799958058548517 0  23.93395881668722 -7.700959994796646 0  22.61396570077244 -7.764517377391733 0  23.2032949615693 -6.630776985250927 0  21.94857473380583 -6.690613342424633 0  24.50398505507967 -6.535933305198952 0  22.51489076809043 -5.580432145971667 0  21.29537841406989 -5.639199768252479 0  21.84985259542567 -4.547213342284197 0  20.65342988351128 -4.619546679988924 0  20.11277906893955 -5.663225279336593 0  19.49454290958806 -4.673886314669294 0  18.97860072994828 -5.624185949902217 0  18.40383886642446 -4.729683279047542 0  17.90575400337286 -5.630456854950327 0  17.35903168001753 -4.836859475002379 0  16.91444903556046 -5.680257663405808 0  16.36114434035519 -4.898890029095359 0  15.89440836794127 -5.835214594829282 0  15.41608945577568 -4.979845093198404 0  14.9809818125648 -5.732909169427192 0  14.51777858619734 -4.988431190461874 0  14.14039496103406 -5.776391085527889 0  13.67321261031888 -5.031745046943032 0  13.26988611760758 -5.891550007816156 0  12.85732927991246 -5.095735823822261 0  12.46423889659403 -5.760519953635332 0  12.07741841933393 -5.116608846746942 0  11.73131647445202 -5.75987862647932 0  11.35222911621012 -5.158061768105265 0  11.01225658271747 -5.784828178519854 0  10.65393216495117 -5.205808407572067 0  10.33042159780337 -5.788944717060055 0  9.98551374198097 -5.24118342090078 0  9.687616112021921 -5.812725728827915 0  9.357518717034999 -5.284717467130579 0  9.08157001076583 -5.820057568121996 0  8.766199932316585 -5.320212662582848 0  8.494748056481422 -5.830095453943056 0  8.194406727465122 -5.347802431655208 0  7.942610344706003 -5.833678024304247 0  7.660825631728443 -5.380025954369014 0  7.416702921751611 -5.83684433397813 0  7.147290851157173 -5.413787279190068 0  6.91632006965034 -5.851605397483334 0  6.658527053286988 -5.437627383845131 0  6.441897327469297 -5.862220684948111 0  6.194860224019926 -5.464520225953867 0  5.988748643021736 -5.866336295550595 0  5.755042825355586 -5.482399938780632 0  5.555770501455733 -5.867908174086599 0  5.334991086231989 -5.504761241472904 0  5.145076642106908 -5.873191062890511 0  4.935013388047023 -5.544035964184449 0  4.754345788811499 -5.880090917794126 0  4.554437025256316 -5.569020251233177 0  4.382470744799432 -5.88665007327689 0  4.192208958329529 -5.585677590398814 0  4.029485566904095 -5.896175760774888 0  4.354949258143058 -5.270074521138358 0  4.004482386201769 -5.289207815434526 0  4.158655721068861 -4.98145486433833 0  3.821444856080801 -5.001169872115685 0  3.97033944278737 -4.700814034221719 0  3.642688047138773 -4.720140385706738 0  3.788830742180677 -4.426816067812119 0  3.467446796449556 -4.450112744784491 0  3.325275354457695 -4.730293981808933 0  3.158439978631689 -4.466074367009679 0  3.294707394527546 -4
[...]
<PointData  Scalars=" mean stress"> 
<DataArray  type="Float64"  Name=" mean stress"  format="ascii">1.1838611611586648e-01  8.5207004736544931e+01  1.7357654152898574e+03  1.2076323917957423e+02  1.0443216725494150e-01  1.2017348886858509e-01  1.4269883729437469e-01  1.7959072342668203e-01  2.2977504235265345e-01  2.9848486481777936e-01  3.8379360338362045e-01  4.7052835691737277e-01  6.3662878906935694e-01  7.8402588766161729e-01  9.7163076875284948e-01  1.2067842784303671e+00  1.4265367280396226e+00  1.6547908359129384e+00  2.0612679555245905e+00  2.4569439761830849e+00  2.8547855444134607e+00  3.5484137619646692e+00  3.8588083392006252e+00  4.5908350943066871e+00  5.3334143165772190e+00  6.1703882072255540e+00  7.1372266030528868e+00  8.3836290650262484e+00  9.2568904668399199e+00  1.1187115342944743e+01  1.3404220093957758e+01  1.5596769200339342e+01  1.8052623360363391e+01  2.1797636526931111e+01  2.5923491417816379e+01  3.0552866184015610e+01  3.6826250359440273e+01  4.0630447862669968e+01  4.9080990301884910e+01  5.7569474077998578e+01  6.2888367283664373e+01  7.0426317861069180e+01  7.1155517578339825e+01  7.4751430012327830e+01  7.6605002418991475e+01  8.3204682635227385e+01  7.4487346200240054e+01  7.9260066681500831e+01  7.9733212794203851e+01  8.1154535582008037e+01  7.8063727180063267e+01  8.3356911499258899e+01  7.5125733788176163e+01  8.5483501443752004e+01  9.0488663336700796e+01  1.0541518320787658e+02  1.2154809784358497e+02  1.5092980408232708e+02  2.2791893827568251e+02  2.8530902063922304e+02  4.7472290605925411e+02  2.6645561615198102e+02  1.8115280792174292e+02  1.3660276285619815e+02  1.0572940340917762e+02  8.6660872724474743e+01  7.3096205455511097e+01  6.2462882856315417e+01  5.5624834589281200e+01  5.0028565521039951e+01  4.6082367323328562e+01  4.3756858081572531e+01  4.2561426620479267e+01  4.2787853509713315e+01  4.4773654726891571e+01  4.8680681189330450e+01  5.8064239457586631e+01  7.2154702183582089e+01  1.1088889113859578e+02  2.4339022106209413e+02  1.6788426235228059e+02  6.9330031219599832e+01  4.6975323688897802e+01  3.4181917031608421e+01  2.6152951147492342e+01  2.2172184286326367e+01  1.9225538502299983e+01  1.7016127413748880e+01  1.5593830097495420e+01  1.4636612242143872e+01  1.3943577623403081e+01  1.3803572342513366e+01  1.3703887789293317e+01  1.3786684610062538e+01  1.4139729364046199e+01  1.4832498819889230e+01  1.5574747446721307e+01  1.6643733406606195e+01  1.8154773223271992e+01  2.0035854317092966e+01  2.2318727787598011e+01  2.5698271919947643e+01  2.9903859752334643e+01  3.6349575332377277e+01  4.3551293520293783e+01  5.6624423440865016e+01  7.7582894859810040e+01  1.1289883953819410e+02  5.7918147572335464e+01  4.0350569628233842e+01  3.0207266157157367e+01  2.4390430045533527e+01  2.0828436807498242e+01  1.8378698727761886e+01  1.6317996517888282e+01  1.4852619466530005e+01  1.3789824162884228e+01  1.2886348502732741e+01  1.2075791897999991e+01  1.1418741770123498e+01  1.0814356931495391e+01  1.0350956888853077e+01  9.8894452140252778e+00  9.4777826324253738e+00  9.0869160226215300e+00  8.7082015100514916e+00  8.3920035032889793e+00  8.0740853491585405e+00  7.7691838388922134e+00  7.4834017062254397e+00  7.1982670451770918e+00  6.9532191615680450e+00  6.7216054971971220e+00  6.4444685305193534e+00  6.1978400728418217e+00  5.9745367924936463e+00  5.7076005556128084e+00  5.5083254643908175e+00  5.2666792506358844e+00  5.0274562569108454e+00  4.8212517330275517e+00  4.5922456176484019e+00  4.3782342323903078e+00  4.2048655423786645e+00  3.9395638489438203e+00  3.7227518667126054e+00  3.5395707912177352e+00  3.3727966419576259e+00  3.1851829594816254e+00  2.9500329218292776e+00  2.7919850937742687e+00  2.5920439512811511e+00  2.4346657337141817e+00  2.2758631001002949e+00  2.0948379705784177e+00  1.9060803539278184e+00  1.7710748706049741e+00  1.6384349011473902e+00  1.4992367268949807e+00  1.3352745154662002e+00  1.2209733494063333e+00  1.1027304422391166e+00  9.9442625896708203e-01  8.7004855660623415e-01  7.5509660064390660e-01  6.8263410236787769e-01  5.8628327569818917e-01  4.9485427945929217e-01  4.2682837094609966e-01  3.5951016551536152e-01  3.0430070924123853e-01  2.4673202324243707e-01  2.2588889743300736e-01  9.4298364124466530e-02  4.1472416328927336e-01  5.9039889485218225e-02  4.4752875903430533e+00  5.8640145611544634e+00  7.3381382353365696e+00  3.2934352949636438e+00  2.1668598267425749e+00  4.5948836025944528e+00  1.7451915195882659e+01  1.4347454231648953e+00  8.9275871831869242e+00  2.0660334798297275e+00  1.4815217974548919e+01  1.1124809060081038e+01  8.3988036568767566e-01  3.1044157624797418e+01  8.0247905711717316e+00  9.8382575651843984e-01  1.6883477868701288e+01  6.5875744694953241e+01  1.4833610739817454e+01  1.4230802028012130e+01  4.7183463679771320e-01  5.1156884290485920e+01  2.8029639448470785e+01  4.1442935126674041e-01  2.4132164533475475e+01  4.4627235468411790e+01  4.4401952044407189e+01  2.7056072782625677e+00  6.5789339765914088e+00  3.8568132718743242e+00  5.1877484966738825e+00  5.0789766301850989e+01  5.9175942010525922e+01  2.9847428935539588e-01  1.9480943510816257e+01  7.0399687467925133e+01  1.1246617633395205e+02  6.8587079220424457e+01  1.2033081276048982e+02  2.1560695929023416e-01  3.7370223977619972e+01  7.5118173672050631e+01  7.0916550064613105e+01  2.0514518720582252e+01  5.2142670082864996e+01  1.1028750168697753e+01  2.1415749362671576e+01  5.9556202763118344e+00  1.5289853695625391e+01  2.8072678755864664e+00  1.5437675396577436e+01  1.4594379527841042e+00  1.9684675266667217e+01  6.7309427076639494e-01  6.5561319054627132e-01  1.2432862427108253e+01  2.3985263630091061e-01  2.6810665843579553e+01  1.0541938845542644e+00  1.0122011547518136e+01  1.6996770507139130e+00  8.2359158175607270e+00  2.0135166400111549e+02  7.7610987971985963e+01  1.5086446589920988e-01  5.2091426425883469e+01  1.6902659537004661e+02  8.8829766011487010e+01  1.6181741876044173e-01  4.7462787751352373e+01  1.5151535676648507e+02  1.2123728771292544e+02  1.0400900841115555e+02  1.0169750618557129e+02  9.1061494674881672e+01  1.1215392840645825e+02  8.8308143418984216e+01  8.1672696978522481e+01  7.9376029467460242e+01  7.4989102028564872e+01  7.4482729530780304e+01  7.0655305157730055e+01  6.9232278578645008e+01  6.5546508752332656e+01  6.5363671642073299e+01  6.0862071933074816e+01  6.1039757826549980e+01  5.7226102006325661e+01  5.6754494237767972e+01  5.2602020837016298e+01  5.1450903289859149e+01  4.7085000766303715e+01  4.6534598473189519e+01  4.1119048426115675e+01  4.0998688661435793e+01  3.6021829929448181e+01  3.5008948440194018e+01  3.1032574460912659e+01  3.0070607180678351e+01  2.6549977356699181e+01  2.5908511591811873e+01  2.2728626703068620e+01  2.2397907262969486e+01  1.9818296915813406e+01  1.9732786905296603e+01  1.7352449127610129e+01  1.7511760176834400e+01  1.5516779050173305e+01  1.5802083700142928e+01  1.4175678597083346e+01  1.4550114345055121e+01  1.3097151215326285e+01  1.3551800790776877e+01  1.2283851364107493e+01  1.2913903688756754e+01  1.1755543947051983e+01  1.2546665301736278e+01  1.1387871950574459e+01  1.2320501036708141e+01  1.1269457748763537e+01  1.2306567730822316e+01  1.1233279116073419e+01  1.2399112710177773e+01  1.1350136125031966e+01  1.2614274044440707e+01  1.1571510960414775e+01  1.3006502314349246e+01  1.1859840085997639e+01  1.3147911238167126e+01  1.0482140083799981e+01  1.0599557109873205e+01  9.5789693957858244e+00  9.3738253864945342e+00  8.5964454450978760e+00  8.3418721559276019e+00  7.6335261136006514e+00  7.4002830121013456e+00  8.0863289402546297e+00  7.1240140614609251e+00  6.5488690434957944e+00  7.7392644405960294e+00  6.2330959655190377e+00  5.7829536402338961e+00  5.4995965548968062e+00  5.0938522036629710e+00  1.0368774543266031e+01  4.8189068568407558e+00  4.5014898051994496e+00  4.6527619086114624e+00  5.2019216965913007e+00  4.2593861994896107e+00  3.9146328338825422e+00  1.4516618101950387e+01  1.4693843574917052e+01  3.6494010442646152e+00  3.4540465884775173e+00  3.2075681809951671e+00  3.0252398318738227e+00  3.4444010064195645e+00  1.6189784538863641e+01  1.6209034612176115e+01  3.3211782810494856e+00  2.7740641219729825e+00  2.6359984832403724e+00  2.4059050473019696e+00  2.2550578511859922e+00  1.1859036552366806e+01  1.7792586049111382e+01  1.7407041108699627e+01  2.0769713834128649e+00  2.2278197699592779e+00  1.9454471447455051e+00  2.1033136759315485e+00  1.9216409782149508e+01  1.8192090200207438e+01  1.6406983198869717e+01  1.6999401439771013e+01  1.5187935288532909e+01  1.5278490277085615e+01  1.3729004702908199e+01  1.3824475521607910e+01  1.2378874175301899e+01  1.2558291565596697e+01  1.1377595527758833e+01  1.3840943297038049e+01  1.2660886813307823e+01  1.9158747438947831e+01  1.3899642353799976e+01  1.2807727993856249e+01  1.3400550872153323e+01  1.4016782794030844e+01  1.2960887080982438e+01  1.1898564242595512e+01  1.1180222586077228e+01  1.0311999529028487e+01  1.0149667023450444e+01  9.4478213088338716e+00  9.2045126953072316e+00  8.5674060574127342e+00  8.4305074097147745e+00  1.7852706265571321e+00  1.6810678790839333e+00  1.2112831322384727e+01  1.3135678585591732e+01  8.7373558876585058e+00  1.8598214962356050e+01  7.7709518126312931e+00  7.7912977851062903e+00  7.6346180564780051e+00  1.5574861312631274e+00  1.2414308019614838e+01  1.3441353639568838e+01  1.1167204824099283e+01  1.4152625953501543e+00  1.5565209449554811e+01  7.1973412733480595e+00  7.0142153645543175e+00  1.2760464002931577e+01  1.2958164881052052e+00  9.8727910302940334e+00  1.4092993633080806e+00  1.3826339654352424e+01  1.4488419583771016e+01  1.2121216186252568e+00  1.3888768169603545e+00  6.6362847915232432e+00  6.4496645564132757e+00  1.3210308980160526e+01  1.0833960432401264e+00  1.4299004918675193e+01  6.7837197912222447e+00  6.1251856212083027e+00  5.9133010180696202e+00  1.0249925811200900e+00  6.2494371707865088e+00  5.7224943214643398e+00  1.4338285486803528e+01  1.3846402802122576e+01  5.4570897054825771e+00  5.2466105223190569e+00  1.2246251384493823e+01  9.3472504546577007e-01  5.5263263770555175e+00  5.0494178914485746e+00  4.8289492806874437e+00  4.6011178926148135e+00  2.3328665749719168e+01  1.5063345050159937e+01  1.4647108327349169e+01  4.3895806484882574e+00  4.1890359864041828e+00  8.5964267448697051e-01  7.7647840205105778e-01  1.7973096103639573e+01  4.3965666163887276e+00  3.9951346090069602e+00  8.3459469595503144e-01  3.8467010044589505e+00  3.6523936435401652e+00  4.1938292217043269e+00  3.5268197994481567e+00  3.3328961504893346e+00  7.1761567596072440e-01  8.2004760761006856e-01  6.4027345891012288e-01  1.5992195849938643e+01  1.6408842098932020e+01  1.5639770939127027e+01  1.5221954188081543e+01  1.4329098416568035e+01  1.4540682387340434e+01  3.7115150645540584e+00  1.5385268593713349e+01  1.6904401792148480e+01  3.1682382582705650e+01  2.2493477692541955e+01  4.5849266552795189e+00  2.0750000538451694e+01  2.0473013610164124e+01  2.1906682339717314e+01  2.1736735730163829e+01  2.2700660224599698e+01  2.2304738349999344e+01  2.0765978595906873e+01  2.1672083281102992e+01  2.2644101351717218e+01  2.2839238356234887e+01  2.2470580122470579e+01  4.8746749146177770e+01  5.9839809683295775e-01  5.2619150401069248e-01  5.7256591167014848e-01  3.4506008909607093e+00  3.1311701854101810e+00  3.0261096286158566e+00  2.8434443988435252e+00  2.9280710760293545e+00  2.6533150868523725e+00  2.5682174602719576e+00  2.4011960590099002e+00  5.3125445417666626e+00  3.4119035266692819e+01  1.9806940341715862e+01  2.1055394903865214e+01  1.9386180360085568e+01  2.0636699531666853e+01  6.0473234539066389e+00  8.7568384659388290e+00  8.3144329280602793e+00  9.4973614370967585e+00  7.4741220502645298e+00  5.8548932949331842e+00  1.8903277426069987e+01  2.0644866763185224e+01  2.7423085405269099e+00  3.0609197287097598e+00  1.8703924305007025e+01  1.7475008873288946e+01  1.7737337252693713e+01  5.6322773859271633e+00  3.4282160299779849e+00  4.9274650670330611e-01  4.3379836317499959e-01  5.6544075490240053e-01  2.3412411082280808e+00  2.1756799131841715e+00  2.2281791753233562e+00  2.0089999813033064e+00  1.6760607318921867e+01  1.8590635005686750e+01  1.4114141439518638e+01  9.4477882338579846e+00  3.6170528235013646e+00  2.4854459397037467e+00  2.2691943087835831e+01  8.8318143352129361e+00  9.9463717074369740e+00  2.2242775934215960e+01  2.1652132923010207e+01  2.1398631066673321e+01  2.0766413966375261e+01  5.0429948519274291e+01  1.9590992534233536e+00  1.8090738468779490e+00  1.8482889408630301e+00  1.6564731603618228e+00  1.8393605974489390e+01  2.0604294327689356e+01  1.0417997840080877e+01  6.2454222081515049e+01  1.3254667081945309e+01  8.3941910448062572e+01  1.8603001874693831e+01  7.3912337712519616e+00  1.3077953024304547e+01  1.2354480700761307e+01  2.0472658111843010e+01  1.9965834364430215e+01  1.9876425172525945e+01  1.9322752193692786e+01  1.8831186996118593e+01  1.8694900295251333e+01  1.8470806600586165e+01  2.0785742711282474e+01  1.9161925728904144e+01  2.1984047688087095e+01  4.1089950222934712e-01  3.5202669615992355e-01  3.7997613549749221e-01  1.8846620172688311e+01  1.8894178087682452e+01  1.7918565965118180e+01  2.2164311693194101e+01  1.6116795210096964e+00  1.4756718299467246e+00  6.2406529564856719e+00  2.8685077175018003e+00  9.2115635603663559e+00  1.0382033823924644e+01  2.1009888663513536e+01  2.0759291675197257e+01  1.5288464315163422e+01  1.6681952671196456e+01  1.8777276238158478e+01  1.7148202584300234e+00  1.3435119337438497e+01  1.9992402782430986e+01  2.3531747368075425e+01  1.3801799344618544e+01  2.1096149868274512e+01  1.0552861505226836e+01  3.3597028134821656e+00  3.5507900087607589e+00  3.8008695248785309e+00  6.4070055437156668e+01  1.8873093423545509e+01  1.2189041804368188e+01  1.1601781191036364e+01  1.9090949562429331e+00  2.2882550588367447e+00  2.4282670587787614e+00  1.7852613386115280e+01  2.2925921868570779e+01  7.3225107763552799e+01  1.8916443232529076e+01  5.9490713311908134e+00  5.3474794851149534e+00  1.4407043450749661e+00  1.3025822352056851e+00  1.3377725837462284e+00  1.1849639595984856e+00  1.2187797492583929e+00  1.0709582402726789e+00  1.0426828196233855e+00  9.3659222131055409e-01  3.0182470738653172e-01  3.2163556026344891e+00  1.7876325945580433e+01  1.5720882332374968e+00  2.0940346783345603e+01  2.5320620128343634e+01  2.2561883814376184e+01  2.7638020864111589e+01  1.1091818321610956e+00  1.7716474866468617e+00  2.8410803569478532e-01  1.2870012586572395e+00  1.8117897294463095e+01  1.8570386048485840e+01  2.4829562576483909e+01  1.6458537058439511e+01  2.3599799612403462e+01  1.0954100809606443e+01  1.0356550190692102e+01  1.0584300562214210e+01  9.8888285952926811e+00  1.0136560998958075e+01  9.5162261797173091e+00  9.2620305306958883e+00  8.9540946857305102e+00  8.7139128949824922e+00  9.7891769838351586e+00  8.4232424647497890e+00  8.2061859908315160e+00  8.6903682697877134e+00  7.9334733024502162e+00  7.7299909812270062e+00  7.9957589389372599e+00  7.5244358106143325e+00  7.3353120035043915e+00  7.1301990087721618e+00  9.0312746938865605e+00  7.3248828698061805e+00  6.9118767375097869e+00  6.7702786654371296e+00  6.5592457847893257e+00  6.4183359866070493e+00  6.1976236492900387e+00  6.3587600886991584e+00  5.9987357014270026e+00  5.8847656379251001e+00  5.6582360891225454e+00  5.7821841999039254e+00  5.4546346583014440e+00  1.0421571442402522e+01  1.0117997361906237e+01  5.3720933944206077e+00  5.1556172874347217e+00  5.2512740903851851e+00  4.9567034276197948e+00  4.8622018983753676e+00  4.6461885705671380e+00  6.6494292237038213e+00  1.2935165966458632e+01  1.9249460404542599e+01  1.9556323766445907e+01  2.3229849684005245e+01  1.0736718106588313e+01  5.0360740952872591e+00  8.1939149004903147e+00  3.5124150955163830e-01  5.6444226520264325e+00  4.9947305683377303e+00  6.3255070624670546e+00  9.5480423285108706e+00  9.8735673948622331e+00  9.3770179550868882e+00  9.6821868291731903e+00  1.1481715211823145e+01  1.7155881321040017e+01  1.8686025768753645e+01  7.1092449729887273e+00  7.5656084698586588e+00  3.1742487611414014e+00  3.1339221766208665e+00  4.3053558102593292e-01  1.0166950022360032e+01  3.7340899527939713e+00  3.9669342305997652e+00  2.4897262166138788e+01  3.0432790341597244e+01  8.5099370907672167e+00  7.2878028132101193e+01  2.9484721924095463e+00  1.0116658310881283e+01  1.1756643016004432e+01  1.0298277816007269e+01  2.8399168653908490e+01  2.7739489617141420e+01  3.3756799208835133e+01  3.1019967541259092e+01  3.7246150911990931e+01  6.9410891188010773e+00  7.1473286653819841e+00  6.3650214935554743e+00  6.6640520126881899e+00  5.9418003857437398e+00  6.2636564314246330e+00  5.6089766506669259e+00  5.9522736619321766e+00  5.3492350316370416e+00  5.7356784438109809e+00  6.3457980891460446e+00  6.1862105174990898e+00  6.8136933006480298e+00  6.7428042625021023e+00  5.1526418730117252e+00  4.7413087356579737e+00  7.3700540297025450e+00  7.3738549250023864e+00  4.5831131979116435e+00  4.1780531872115967e+00  8.0611354341118115e+00  7.9963779049361721e+00  8.7336839898888776e+00  8.8978895521619332e+00  4.0799617584790120e+00  3.7039716510157112e+00  4.5396539291495879e+00  6.6282194824903282e+00  9.6977538998495287e+00  1.0119069331196304e+01  1.0881225730587214e+01  1.1106612135531007e+01  3.8179368764580324e+00  3.3704047120905427e+00  3.2730599047626332e+00  2.9153750670947334e+00  6.9682703144492004e+00  1.2098409125816254e+01  1.2573587305140220e+01  1.3518452662502000e+01  4.0818045696299290e+00  4.5833680001708270e+00  8.3033962831752088e+00  1.4514476577434770e+01  2.8829607359896388e+00  2.5385520481393646e+00  2.6172302421339348e+00  2.2858647666507075e+00  7.3490403041585211e+00  8.1526405624054181e+00  1.5454258464901567e+01  1.6658919790901706e+01  2.2418776126170608e+00  1.9498325369692477e+00  5.2588572642081308e+00  3.5077529896441066e+00  1.1644762672482555e+01  1.0340488908997571e+01  2.0034589224034085e+00  1.7101146759535917e+00  1.7956385124927792e+01  1.9275107094328657e+01  2.0608764229534671e+01  9.5304357816546617e+00  1.6574279840786474e+00  1.4410823971126137e+00  2.2032440855275105e+01  4.1131563102083515e+00  4.6192332640442872e+00  2.4104398146229244e+01  2.5613983475217665e+01  5.1025411744732798e+00  1.7746125991990369e+00  1.5193091844557872e+01  2.7960278019339651e+01  2.9834272211790950e+01  3.2474571610033266e+01  2.0655884219995944e+00  1.6777903600539879e+01  1.4187820319115192e+00  1.2263808784589061e+00  1.2685583609336692e+00  1.0539285142521415e+00  1.6520511605733261e+00  5.2539031743122777e+00  5.7275132410452185e+00  3.9749748037596220e+00  3.6709188329521392e+00  4.1731500506435486e+00  6.0068066032161136e+00  6.4623626403351935e+00  3.1554782561477968e+00  1.1061790621173724e+00  3.8829362323014269e+00  2.0969595598103805e+01  9.1645761233743184e-01  8.8320103064933231e-01  7.5678564092506595e-01  3.6257126554871033e+00  3.6662638740386417e+00  3.1852013566729735e+00  3.5331625245775363e+01  3.8011080263616293e+01  4.0534584334582114e+01  4.1262453788616144e-01  4.9465363018213776e-01  1.9931586972941478e+01  2.7160736459251439e+01  2.5657267734963072e+00  2.6746483319033412e+00  2.2500866224670137e+01  2.1357726078997239e+01  2.1709283035225770e+01  1.9864958673357496e+01  9.0846900650158491e-01  8.2525289813588232e-01  8.2599700278782673e-01  7.3642426756113610e-01  2.5040532788190145e-01  2.3718634465206076e-01  3.3742370267367193e+01  4.0600027431042340e+00  6.9073695426716037e+00  7.3527746360796264e+00  4.2423866340274941e+01  4.6019561218186773e+01  4.7613352252027134e+01  1.2162318618714814e+00  1.5647638690323722e+00  5.4041229973437561e+00  7.4223071852321327e+00  6.4379038671365816e+00  3.4150021049380492e+00  3.6124515740815295e+00  4.2443582585776056e+00  4.1928152097533928e+00  1.3233335966150739e+00  1.5838870295153001e+01  6.6397573016084559e+00  2.3970532976989811e+00  2.0473915354970970e+01  7.4