<?xml version="1.0"?>
<VTKFile type="UnstructuredGrid"  version="0.1"  >
<UnstructuredGrid>
<Piece  NumberOfPoints="13179" NumberOfCells="25814">
<Points>
<DataArray  type="Float64"  NumberOfComponents="3"  format="ascii">0 0 0  30 0 0  30 -10 0  0 -10 0  0.02360821169319077 0 0  0.04721642338638154 0 0  0.07206717063563725 0 0  0.09691791788489297 0 0  0.1230766011355843 0 0  0.1492352843862757 0 0  0.1767707375239038 0 0  0.204306190661532 0 0  0.2332908770901271 0 0  0.2622755635187223 0 0  0.2927857633803451 0 0  0.323295963241968 0 0  0.3554119623832387 0 0  0.3875279615245094 0 0  0.4213342730081758 0 0  0.4551405844918422 0 0  0.4907261762804851 0 0  0.526311768069128 0 0  0.5637702848355051 0 0  0.6012288016018821 0 0  0.6406588220121138 0 0  0.6800888424223455 0 0  0.721594129780935 0 0  0.7630994171395246 0 0  0.8067891887833475 0 0  0.8504789604271704 0 0  0.8964681941825949 0 0  0.9424574279380195 0 0  0.9908671465681095 0 0  1.039276865198199 0 0  1.090234462786975 0 0  1.141192060375751 0 0  1.194831641933244 0 0  1.248471223490737 0 0  1.304933942963653 0 0  1.361396662436569 0 0  1.420831104471586 0 0  1.480265546506604 0 0  1.542828113436244 0 0  1.605390680365884 0 0  1.671246013469327 0 0  1.73710134657277 0 0  1.806422752814762 0 0  1.875744159056755 0 0  1.948714057431306 0 0  2.021683955805857 0 0  2.098494373901932 0 0  2.175304791998006 0 0  2.256157866653476 0 0  2.337010941308945 0 0  2.422119443935387 0 0  2.50722794656183 0 0  2.596815840700639 0 0  2.686403734839449 0 0  2.780706776094687 0 0  2.875009817349925 0 0  2.974276175689285 0 0  3.073542534028646 0 0  3.178033441002704 0 0  3.282524347976761 0 0  3.392514777963501 0 0  3.502505207950242 0 0  3.618284608533553 0 0  3.734064009116865 0 0  3.855937062816526 0 0  3.977810116516187 0 0  4.106097541496641 0 0  4.234384966477093 0 0  4.369424362562147 0 0  4.5044637586472 0 0  4.646610489729194 0 0  4.788757220811188 0 0  4.938385356669961 0 0  5.088013492528733 0 0  5.24551679218304 0 0  5.403020091837347 0 0  5.568813038399614 0 0  5.73460598496188 0 0  5.909124878408681 0 0  6.083643771855482 0 0  6.267347873338513 0 0  6.451051974821543 0 0  6.644424714363561 0 0  6.83779745390558 0 0  7.041347702348167 0 0  7.244897950790754 0 0  7.459161368238869 0 0  7.673424785686984 0 0  7.898965226038037 0 0  8.124505666389089 0 0  8.361916654054033 0 0  8.599327641718979 0 0  8.849233942517035 0 0  9.099140243315093 0 0  9.362199507946787 0 0  9.625258772578484 0 0  9.902163261537794 0 0  10.1790677504971 0 0  10.47054616023911 0 0  10.76202456998112 0 0  11.06884394887334 0 0  11.37566332776555 0 0  11.69863109504192 0 0  12.02159886231829 0 0  12.3615649378891 0 0  12.7015310134599 0 0  13.05939003847426 0 0  13.41724906348862 0 0  13.79394276982091 0 0  14.1706364761532 0 0  14.5671561683298 0 0  14.96367586050641 0 0  15.38106501332897 0 0  15.79845416615153 0 0  16.23781117165827 0 0  16.677168177165 0 0  17.13964923659526 0 0  17.60213029602552 0 0  18.0889524622663 0 0  18.57577462850707 0 0  19.08821901304263 0 0  19.60066339757818 0 0  20.14007853843172 0 0  20.67949367928525 0 0  21.24729908993883 0 0  21.8151045005924 0 0  22.41279440541421 0 0  23.01048431023601 0 0  23.63963157605829 0 0  24.26877884188056 0 0  24.93103912515648 0 0  25.59329940843241 0 0  26.29041549584691 0 0  26.98753158326142 0 0  27.72133799026916 0 0  28.45514439727691 0 0  29.22757219863846 0 0  30 -0.3571428571428571 0  30 -0.7142857142857142 0  30 -1.071428571428571 0  30 -1.428571428571428 0  30 -1.785714285714286 0  30 -2.142857142857143 0  30 -2.5 0  30 -2.857142857142857 0  30 -3.214285714285714 0  30 -3.571428571428571 0  30 -3.928571428571428 0  30 -4.285714285714286 0  30 -4.642857142857142 0  30 -5 0  30 -5.357142857142857 0  30 -5.714285714285714 0  30 -6.071428571428571 0  30 -6.428571428571428 0  30 -6.785714285714285 0  30 -7.142857142857142 0  30 -7.5 0  30 -7.857142857142857 0  30 -8.214285714285714 0  30 -8.571428571428571 0  30 -8.928571428571427 0  30 -9.285714285714285 0  30 -9.642857142857142 0  29.22757220128658 -10 0  28.45514440257316 -10 0  27.72133799277628 -10 0  26.98753158297939 -10 0  26.29041549304805 -10 0  25.5932994031167 -10 0  24.93103911757599 -10 0  24.26877883203527 -10 0  23.63963156418132 -10 0  23.01048429632737 -10 0  22.41279438968936 -10 0  21.81510448305136 -10 0  21.24729907078059 -10 0  20.67949365850982 -10 0  20.14007851622273 -10 0  19.60066337393564 -10 0  19.08821898813588 -10 0  18.57577460233611 -10 0  18.08895243498708 -10 0  17.60213026763805 -10 0  17.13964920724307 -10 0  16.6771681468481 -10 0  16.2378111405086 -10 0  15.79845413416909 -10 0  15.38106498063496 -10 0  14.96367582710082 -10 0  14.56715613432376 -10 0  14.17063644154669 -10 0  13.79394273471576 -10 0  13.41724902788484 -10 0  13.05939000246495 -10 0  12.70153097704506 -10 0  12.36156490115379 -10 0  12.02159882526251 -10 0  11.69863105774323 -10 0  11.37566329022395 -10 0  11.06884391115945 -10 0  10.76202453209494 -10 0  10.47054612224479 -10 0  10.17906771239465 -10 0  9.902163223385379 -10 0  9.625258734376107 -10 0  9.362199469747061 -10 0  9.099140205118012 -10 0  8.849233904370102 -10 0  8.599327603622193 -10 0  8.361916616050124 -10 0  8.124505628478055 -10 0  7.898965188258209 -10 0  7.673424748038361 -10 0  7.459161330755727 -10 0  7.244897913473093 -10 0  7.041347665226496 -10 0  6.837797416979896 -10 0  6.644424677660922 -10 0  6.451051938341948 -10 0  6.26734783710581 -10 0  6.083643735869675 -10 0  5.90912484269068 -10 0  5.734605949511682 -10 0  5.568813003235423 -10 0  5.403020056959164 -10 0  5.24551675760658 -10 0  5.088013458254 -10 0  4.938385322710374 -10 0  4.788757187166745 -10 0  4.646610456411224 -10 0  4.504463725655707 -10 0  4.369424329906533 -10 0  4.234384934157362 -10 0  4.106097509520442 -10 0  3.977810084883522 -10 0  3.85593703153344 -10 0  3.734063978183357 -10 0  3.618284577954206 -10 0  3.502505177725055 -10 0  3.392514748095728 -10 0  3.282524318466404 -10 0  3.1780334118518 -10 0  3.073542505237196 -10 0  2.97427614725823 -10 0  2.875009789279265 -10 0  2.780706748384375 -10 0  2.686403707489482 -10 0  2.596815813710069 -10 0  2.507227919930656 -10 0  2.422119417661861 -10 0  2.337010915393062 -10 0  2.256157841092762 -10 0  2.175304766792465 -10 0  2.098494349048437 -10 0  2.021683931304413 -10 0  1.948714033278215 -10 0  1.875744135252013 -10 0  1.806422729354161 -10 0  1.737101323456312 -10 0  1.671245990692352 -10 0  1.605390657928396 -10 0  1.542828091333185 -10 0  1.480265524737977 -10 0  1.420831083031992 -10 0  1.36139664132601 -10 0  1.304933922176438 -10 0  1.248471203026863 -10 0  1.194831621786765 -10 0  1.14119204054667 -10 0  1.09023444350921 -10 0  1.039276846471754 -10 0  0.9908671279064798 -10 0  0.942457409341209 -10 0  0.8964681758842019 -10 0  0.8504789424271948 -10 0  0.8067891710751951 -10 0  0.7630993997231954 -10 0  0.7215941126497469 -10 0  0.6800888255762949 -10 0  0.6406588054444597 -10 0  0.6012287853126246 -10 0  0.5637702688178621 -10 0  0.5263117523230996 -10 0  0.4907261607992695 -10 0  0.4551405692754429 -10 0  0.4213342580497894 -10 0  0.3875279468241395 -10 0  0.3554119479341011 -10 0  0.3232959490440663 -10 0  0.2927857494269297 -10 0  0.2622755498097931 -10 0  0.2332908636189828 -10 0  0.2043061774281725 -10 0  0.1767707245216883 -10 0  0.1492352716152006 -10 0  0.1230765885890825 -10 0  0.09691790556296098 -10 0  0.0720671585317838 -10 0  0.04721641150060663 -10 0  0.02360820575030331 -10 0  0 -9.957983193277311 0  0 -9.915966386554622 0  0 -9.873949579831933 0  0 -9.831932773109244 0  0 -9.789915966386555 0  0 -9.747899159663866 0  0 -9.705882352941176 0  0 -9.663865546218487 0  0 -9.621848739495798 0  0 -9.579831932773109 0  0 -9.53781512605042 0  0 -9.495798319327731 0  0 -9.453781512605042 0  0 -9.411764705882353 0  0 -9.369747899159664 0  0 -9.327731092436975 0  0 -9.285714285714286 0  0 -9.243697478991596 0  0 -9.201680672268907 0  0 -9.159663865546218 0  0 -9.117647058823529 0  0 -9.07563025210084 0  0 -9.033613445378151 0  0 -8.991596638655462 0  0 -8.949579831932773 0  0 -8.907563025210084 0  0 -8.865546218487395 0  0 -8.823529411764707 0  0 -8.781512605042018 0  0 -8.739495798319329 0  0 -8.69747899159664 0  0 -8.655462184873949 0  0 -8.61344537815126 0  0 -8.571428571428571 0  0 -8.529411764705882 0  0 -8.487394957983193 0  0 -8.445378151260504 0  0 -8.403361344537815 0  0 -8.361344537815127 0  0 -8.319327731092438 0  0 -8.277310924369749 0  0 -8.235294117647058 0  0 -8.193277310924369 0  0 -8.15126050420168 0  0 -8.109243697478991 0  0 -8.067226890756302 0  0 -8.025210084033613 0  0 -7.983193277310924 0  0 -7.941176470588236 0  0 -7.899159663865547 0  0 -7.857142857142857 0  0 -7.815126050420168 0  0 -7.773109243697479 0  0 -7.73109243697479 0  0 -7.689075630252101 0  0 -7.647058823529411 0  0 -7.605042016806722 0  0 -7.563025210084033 0  0 -7.521008403361344 0  0 -7.478991596638656 0  0 -7.436974789915967 0  0 -7.394957983193278 0  0 -7.352941176470589 0  0 -7.3109243697479 0  0 -7.26890756302521 0  0 -7.226890756302521 0  0 -7.184873949579832 0  0 -7.142857142857143 0  0 -7.100840336134453 0  0 -7.058823529411764 0  0 -7.016806722689076 0  0 -6.974789915966387 0  0 -6.932773109243698 0  0 -6.890756302521009 0  0 -6.84873949579832 0  0 -6.806722689075631 0  0 -6.764705882352941 0  0 -6.722689075630252 0  0 -6.680672268907563 0  0 -6.638655462184874 0  0 -6.596638655462185 0  0 -6.554621848739496 0  0 -6.512605042016807 0  0 -6.470588235294118 0  0 -6.428571428571429 0  0 -6.38655462184874 0  0 -6.344537815126051 0  0 -6.302521008403362 0  0 -6.260504201680672 0  0 -6.218487394957983 0  0 -6.176470588235294 0  0 -6.134453781512605 0  0 -6.092436974789917 0  0 -6.050420168067227 0  0 -6.008403361344538 0  0 -5.966386554621849 0  0 -5.92436974789916 0  0 -5.882352941176471 0  0 -5.840336134453782 0  0 -5.798319327731092 0  0 -5.756302521008403 0  0 -5.714285714285714 0  0 -5.672268907563025 0  0 -5.630252100840336 0  0 -5.588235294117647 0 
[...]
<PointData  Scalars=" mean stress"> 
<DataArray  type="Float64"  Name=" mean stress"  format="ascii">9.7977614954649628e-02  9.8344894952188184e+00  6.4477197904975264e+02  1.3534706743147160e+01  9.6712316530833467e-02  1.0166736488902474e-01  1.0454229101899849e-01  1.0797107224974054e-01  1.1221768139212893e-01  1.1673673404377345e-01  1.2290111675117849e-01  1.2788224500960826e-01  1.3798379746139916e-01  1.4344364712266378e-01  1.5884284045185212e-01  1.6651509226341640e-01  1.8202130895962038e-01  1.9782157125430117e-01  2.1368622562415793e-01  2.4138453859624273e-01  2.7193008729199863e-01  2.9120295341371794e-01  3.1194390504333658e-01  3.5249978512947744e-01  3.9857472801069710e-01  4.2654348548123272e-01  5.0057934382407832e-01  5.4298252718475837e-01  5.8081669128680535e-01  6.5752304270493478e-01  7.4058686794058814e-01  8.3229202142257241e-01  9.0687691094443768e-01  1.0214137722749552e+00  1.1379900641734273e+00  1.2986846787104533e+00  1.4910318567208483e+00  1.6848041299669114e+00  1.9512557267765618e+00  2.0720842298976541e+00  2.8121249623643356e+00  3.0645791570345762e+00  3.2742039526592643e+00  3.8215588015333717e+00  4.8340685218965715e+00  6.3538502303581996e+00  8.2369246691732858e+00  1.1059976459036509e+01  1.4139007610577655e+01  2.4564068485379021e+01  3.7495703944233497e+01  7.2503065538256564e+01  4.3013225574666293e+01  2.5034928283109114e+01  1.0596219501496362e+01  6.5276710853878610e+00  6.6933413116470444e+00  5.5475256752497133e+00  5.4986118822280865e+00  5.9250492390365546e+00  6.4507298549164860e+00  6.2346565545139239e+00  6.2484253087619717e+00  5.6505141890733350e+00  5.4870239264361693e+00  5.6130928751884861e+00  5.2731733514193877e+00  5.1808073097667870e+00  5.2254515576473182e+00  5.0740704331206059e+00  5.1316254870233955e+00  5.1835384115596792e+00  5.2139595778466585e+00  5.2212490049855180e+00  5.3475651406010467e+00  5.4082940291997019e+00  5.6303468978609894e+00  6.0504527290135854e+00  6.1357055923830135e+00  5.8564576830440238e+00  5.8754521330927432e+00  6.3905791643212018e+00  6.4238463035510378e+00  6.6677502789634540e+00  7.3027184546567572e+00  7.6295933020813544e+00  8.1553788469076114e+00  8.5270975919231855e+00  9.5615920330024178e+00  1.0192191748373739e+01  1.1392461223945391e+01  1.3074522928865141e+01  1.4522551087236367e+01  1.7070298247308401e+01  2.0707959747654886e+01  2.6457277178910122e+01  3.6534905492166722e+01  9.2405897834286392e+01  1.4459322968603632e+02  1.0238080768844385e+02  5.0781936780486575e+01  3.2451251583919500e+01  2.5218296628474778e+01  2.0246861214812554e+01  1.7020339006011678e+01  1.5351234590584172e+01  1.2251118152617590e+01  1.1977702173995594e+01  1.0786148484064789e+01  1.0134958347545501e+01  9.2899266579168032e+00  8.3890925181610747e+00  8.7783479150695669e+00  8.0451083389347033e+00  7.9116554983215783e+00  7.2955420494627559e+00  7.0571559579171002e+00  7.1834043911263734e+00  7.1364736758230247e+00  7.1044419423321523e+00  6.8093246134258747e+00  6.7457402922496241e+00  6.9524677723665205e+00  6.9946230460503074e+00  7.0200455990187356e+00  7.0977768155898922e+00  7.1559304699926782e+00  7.2156943371052025e+00  7.3886258756182492e+00  7.5235891802293322e+00  7.6746760979226876e+00  7.8302242071411898e+00  8.0014802056359233e+00  8.1986740585134701e+00  8.3970237961096714e+00  8.3026875311982113e+00  8.2477959905401974e+00  8.6476437885520188e+00  8.8673267226898744e+00  8.8000516140790701e+00  8.9027564513718982e+00  8.3347679126058249e+00  7.8741639803365384e+00  8.7190748911523865e+00  8.5494231927143076e+00  8.9517137570242262e+00  9.1883076827314287e+00  9.4985966595508167e+00  9.7813085356039107e+00  1.0198948588031731e+01  1.0590495208988521e+01  1.1113652745525384e+01  1.1669450048969676e+01  1.2329033302938903e+01  1.3117874418157818e+01  1.4001923844896229e+01  1.5148074058690273e+01  1.6478180050321978e+01  1.7936956336961941e+01  1.9943194064483514e+01  2.2524270993643480e+01  2.5612757401170658e+01  3.0281732029394533e+01  3.6445633158610839e+01  4.4838954859244581e+01  6.5542608549683848e+01  7.3774555818321005e+01  1.8671416185098909e+02  1.2267666392399980e+02  7.9084217167627301e+01  5.4240682013337647e+01  4.0915956757131298e+01  3.2075841825864401e+01  2.6733387177494951e+01  2.3058507509659698e+01  2.0227981839836673e+01  1.7949606215906940e+01  1.6092105020010028e+01  1.4548916709583192e+01  1.3227887772116770e+01  1.2081444827854275e+01  1.1085673019950747e+01  1.0229852137459313e+01  9.4628229922265028e+00  8.7202537624108167e+00  8.0761843057551843e+00  7.4668391420917928e+00  6.9458837308235690e+00  6.4648139030247513e+00  6.0049483111748740e+00  5.5823079596947291e+00  5.2155230936532995e+00  4.8426406988606878e+00  4.5149782330259285e+00  4.2044241607244510e+00  3.9463254686416449e+00  3.7635014435705529e+00  3.5042119620294576e+00  3.2730856611659136e+00  3.0946245475235115e+00  2.9218532667679544e+00  2.7713721333316426e+00  2.6557782159660288e+00  2.5253765164495308e+00  2.3862651075721986e+00  2.2907955982589576e+00  2.1875738874532318e+00  2.1010090740051415e+00  2.0243833100011792e+00  1.9423214416911017e+00  1.8762329329889935e+00  1.8146719302784315e+00  1.7568530503127426e+00  1.7059636758392014e+00  1.6598761862627800e+00  1.6181033353564165e+00  1.5799995282886288e+00  1.5464440422682015e+00  1.5168829853345163e+00  1.4900948331851969e+00  1.4657062776561953e+00  1.4445826077410122e+00  1.4261625605099000e+00  1.4106234907452675e+00  1.3978416779811056e+00  1.3867555346007820e+00  1.3789785639043195e+00  1.3708277626848893e+00  1.3665627187220395e+00  1.3648235481787727e+00  1.3638935069498515e+00  1.3652156325333369e+00  1.3682101180314812e+00  1.3730442004016927e+00  1.3801241711468450e+00  1.3881812760160184e+00  1.3984234966104767e+00  1.4096591690611899e+00  1.4237108170446358e+00  1.4381133201677669e+00  1.4563215427229341e+00  1.4734165126447942e+00  1.4948403142725148e+00  1.5177535586955657e+00  1.5426804058967507e+00  1.5677492224418532e+00  1.5963710806579894e+00  1.6241591167428033e+00  1.6541199763542296e+00  1.6848426497007456e+00  1.7221617075584907e+00  1.7606846101551072e+00  1.8013628982454888e+00  1.8433424177129176e+00  1.8890001724104610e+00  1.9388052130317053e+00  1.9891585261731091e+00  2.0452629891605714e+00  2.1089315967561690e+00  2.1668607552953216e+00  2.2312274894176931e+00  2.3027978286995365e+00  2.3668231869615743e+00  2.4417430344250564e+00  2.5105886437996299e+00  2.6022079573066614e+00  2.6860738498906653e+00  2.7776192219367339e+00  2.8809100170872166e+00  2.9865767082390526e+00  3.0966380804547842e+00  3.2166735800751201e+00  3.3392695116413864e+00  3.4747581688829237e+00  3.6183938036682890e+00  3.7638200006058646e+00  3.9257673647343241e+00  4.0995250560894103e+00  4.2717055796935259e+00  4.4649135109362144e+00  4.6779433440792575e+00  4.9041855400639083e+00  5.1417258567749098e+00  5.3993918362484372e+00  5.6711475088228660e+00  5.9583338329450930e+00  6.2751267593940554e+00  6.6079620271543966e+00  6.9778544249950514e+00  7.3708403772230229e+00  7.7809801400317005e+00  8.2591016120909728e+00  8.6951988893847414e+00  9.1971619696522726e+00  9.6547183554066773e+00  1.0196572256817603e+01  1.0726541984467545e+01  1.1340367814652572e+01  1.1834870560889147e+01  1.2400950688180997e+01  1.2897021192762983e+01  1.3549723395942431e+01  1.3497143073694625e+01  1.3705505655661705e+01  1.4906201679906953e+01  1.1271722317968683e+01  9.2436152354173426e+00  7.8430537090511310e+00  6.8588908311427819e+00  6.0152452545404049e+00  5.3835552747066551e+00  4.8929867418900441e+00  4.4995871397312159e+00  4.1751845356642194e+00  3.8869182711537040e+00  3.6347970935891021e+00  3.4289887379073316e+00  3.2536237125460086e+00  3.0796377834768309e+00  2.9272335079614216e+00  2.8104870840102540e+00  2.6850257805532416e+00  2.5816372192976504e+00  2.4888094591705530e+00  2.3939661486362929e+00  2.3135458016479307e+00  2.2392386801529374e+00  2.1741499516751368e+00  2.1066001485539947e+00  2.0468454581554307e+00  1.9943085379671321e+00  1.9437942070759522e+00  1.8948091293345728e+00  1.8497425192102219e+00  1.8070765623280201e+00  1.7657158544720242e+00  1.7281339707754957e+00  1.6906723757363598e+00  1.6576159648838260e+00  1.6253848416307208e+00  1.5933673462089593e+00  1.5649922580480298e+00  1.5364846490928370e+00  1.5121268509049901e+00  1.4867456474899197e+00  1.4606316313686507e+00  1.4374313687853402e+00  1.4149558783653848e+00  1.3926682710531395e+00  1.3727569031554323e+00  1.3529536223108405e+00  1.3345300013227528e+00  1.3156263909160868e+00  1.2976987822691308e+00  1.2809551311658469e+00  1.2636614429139288e+00  1.2479020933480225e+00  1.2318326958533563e+00  1.2169884898760919e+00  1.2036646765740471e+00  1.1887336425001471e+00  1.1743616189011588e+00  1.1617226263960228e+00  1.1484579457545774e+00  1.1351130803593144e+00  1.1232679597611925e+00  1.1109745387181968e+00  1.0997892387308510e+00  1.0889263304025660e+00  1.0770126504923518e+00  1.0653575056940203e+00  1.0559346863633758e+00  1.0448598586104316e+00  1.0346683833595114e+00  1.0255104374081416e+00  1.0144799157336877e+00  1.0060701991491932e+00  9.9664113034059509e-01  9.8733181801476722e-01  9.7893981848450995e-01  9.6939475881472470e-01  9.5990915337377880e-01  9.5234251361364286e-01  9.4384227500959228e-01  9.3475445050131878e-01  9.2771015652521727e-01  9.1979417883566195e-01  9.1166129506472005e-01  9.0405760952512926e-01  8.9595144767618451e-01  8.8856657707048470e-01  8.8154974234933914e-01  8.7371909107472456e-01  8.6676191152011794e-01  8.6015488896561776e-01  8.5336946696163662e-01  8.4574553806999775e-01  8.3821330900509949e-01  8.3190610695133149e-01  8.2623404733713568e-01  8.1906176867250435e-01  8.1253122032587710e-01  8.0581597809157146e-01  7.9964959819932124e-01  7.9332326079943993e-01  7.8701235734785802e-01  7.8060291178576069e-01  7.7443087342715167e-01  7.6856523832741608e-01  7.6238770130187927e-01  7.5624241330850694e-01  7.4992224117548734e-01  7.4495287618537354e-01  7.3849805014644621e-01  7.3334758623444851e-01  7.2763600275833451e-01  7.2115333504612311e-01  7.1533443306917910e-01  7.0977943943515753e-01  7.0457442102061563e-01  6.9928654900806919e-01  6.9278041500591103e-01  6.8791017543977251e-01  6.8253176891236300e-01  6.7692060752083916e-01  6.7107992456676246e-01  6.6648417738479948e-01  6.6081231037115018e-01  6.5640545924106497e-01  6.5053216204588649e-01  6.4465409377703242e-01  6.3964258934427520e-01  6.3450765323741132e-01  6.2930742182736621e-01  6.2449530869450187e-01  6.1926093922742487e-01  6.1418291127251134e-01  6.0882190838579830e-01  6.0355291034159209e-01  5.9862995365917626e-01  5.9355590823435067e-01  5.8889010679719755e-01  5.8415318522259474e-01  5.7901885887580495e-01  5.7309680114055361e-01  5.6906718005445422e-01  5.6415046188804707e-01  5.5928397448419420e-01  5.5432775932490097e-01  5.4886018616803389e-01  5.4428852330085187e-01  5.3931557539507236e-01  5.3472311606285816e-01  5.2993316688602854e-01  5.2500704961461475e-01  5.1946708141914577e-01  5.1559030855493260e-01  5.1043839109921219e-01  5.0587119838752970e-01  5.0105269544316811e-01  4.9621980887975803e-01  4.9132175235993775e-01  4.8675734012660921e-01  4.8223479806355346e-01  4.7733112388268045e-01  4.7268065200254233e-01  4.6765874230798099e-01  4.6313092505362624e-01  4.5813846274953879e-01  4.5400578674661052e-01  4.4956571261414990e-01  4.4412422689553205e-01  4.4021099827715954e-01  4.3513421983673894e-01  4.3016556635320874e-01  4.2591174417407140e-01  4.2103656276106638e-01  4.1684153793314399e-01  4.1150054140588754e-01  4.0821938123929830e-01  4.0290977133657319e-01  3.9791171245317941e-01  3.9352113917266679e-01  3.8866999311343392e-01  3.8394400786717947e-01  3.7948725029952785e-01  3.7570320451996503e-01  3.7043055593222340e-01  3.6596804016124790e-01  3.6166752198909541e-01  3.5691473266317741e-01  3.5207206968272453e-01  3.4787582012955948e-01  3.4272660306581931e-01  3.3824256873871156e-01  3.3379728872745856e-01  3.2971651331360957e-01  3.2520818114207978e-01  3.2043900287295746e-01  3.1558202725893580e-01  3.1109952898121379e-01  3.0677899531561797e-01  3.0172416732988133e-01  2.9744980731557513e-01  2.9299958957764249e-01  2.8837999696446515e-01  2.8394043568577171e-01  2.7929249312807786e-01  2.7396749272752929e-01  2.6934107926478468e-01  2.6507934022351615e-01  2.6101056679510015e-01  2.5534417786529390e-01  2.5179842626491472e-01  2.4716509742103979e-01  2.4163720575774450e-01  2.3671873498835888e-01  2.3299859170143358e-01  2.2818582133206922e-01  2.2341961415026651e-01  2.1871418119660105e-01  2.1374470018686909e-01  2.0821940902891933e-01  2.0363704586209330e-01  1.9851261376101612e-01  1.9322764537257944e-01  1.8816463190068791e-01  1.8322176941918145e-01  1.7724542585289155e-01  1.7124711102011553e-01  1.6540967840327908e-01  1.5921369225305762e-01  1.5253948012751875e-01  1.4531693335664211e-01  1.3828611460366849e-01  1.2846499184887086e-01  1.2048448586344453e-01  1.0608349698422315e-01  1.0450021030104228e-01  1.0482386229610449e-01  1.0461367223066981e-01  1.0179004201822005e-01  7.0195060223676708e-01  7.7804494772261135e-01  6.3185009452026453e-01  8.5648787338391341e-01  5.7150734906424960e-01  5.1276893802486101e-01  9.3886697902727689e-01  4.6084865458781488e-01  4.1447108618303424e-01  1.0294849255749421e+00  1.1409949251047669e+00  1.2726792074155173e+00  3.7331476820956278e-01  5.7562790180085548e+00  1.4009631762900285e+00  6.5926275058877399e+00  1.4918303416650984e+00  3.2813073212598126e-01  8.7082912673333084e+00  2.9110012276827396e-01  1.4263649679175574e+00  1.7008410069067930e+00  3.2313442259286148e+01  1.9932141722489443e+00  1.6412786113333435e+00  1.4175198713231243e+00  4.0543153751531538e+00  2.4212343912042602e+00  2.5843731656754332e-01  7.8300788237504895e+00  1.5182377922066643e+00  1.9188527285699817e+00  3.0383418747862394e+00  1.5420501841375223e+00  1.4431080623216195e+01  2.2570891677103688e-01  8.1291637200005173e-01  3.8142166965027653e+00  1.7755138125650647e+00  8.1611364765587446e-01  7.4147648125374721e-01  6.0102555892012488e-01  6.6378881394273759e-01  5.4187257708697789e-01  2.2734279706467473e+00  6.2673950919499283e+01  4.6476907227208913e-01  2.2009789417754320e+00  4.9216984520607046e+00  1.5689607960591008e+01  1.9653098624873550e-01  2.9119996185426738e+00  2.8616610545831973e+00  3.5011007822441326e-01  1.0833295183863001e+00  4.8481674492295063e-01  4.3821376645639903e-01  9.8342259131495546e-01  9.0067161089991421e-01  8.9605152839276840e+00  2.9074878554536210e-01  6.2598582483352052e+00  7.1681164235456416e+00  3.8631446749465184e+00  1.6828854224436612e-01  5.4231460856872378e+00  6.4400827551962099e+00  1.9361779462513332e-01  1.2726022443202256e+01  3.7618893281245751e+00  6.3933605309690380e+00  6.2557062286130298e+00  6.8459770648992055e+00  7.1983609289090644e+00  1.4321469086343013e+00  1.5807742344162750e+00  8.0594631503630492e+00  9.7647611701933670e+00  3.0880547327941665e-01  1.5263786842272922e+00  1.3437191337247731e+00  1.2103318911600609e+00  3.9083335825945353e-01  1.7225471003014103e+01  6.6508959930223810e+00  1.3792382695914281e+01  1.4182230707393742e-01  7.1419266203339378e+00  2.4077093981333920e+01  7.7725740367084981e+00  1.4525090781546734e-01  9.8170257391053664e+00  1.0363937809914951e+01  5.1050851062761744e+00  7.1150380287396322e+00  1.8531303661147014e+00  4.8913489932275924e+00  9.8406850333148892e+00  1.4534596685855279e+00  2.6556950745002762e+01  2.6471142217420336e+01  1.9557756920903291e+00  1.6392071172582963e+00  2.7431798869108825e+00  2.5009340277654224e+00  3.3921737663194622e+00  4.3133001845098615e+00  1.3952390079440109e+00  1.9776484799874957e+01  2.2009023982773641e+00  2.3535919893551975e+00  1.1381886315298089e+00  6.3754462507789655e-01  1.1032085707508722e-01  2.5332362025683097e+00  2.3967953768366412e-01  2.1097544143764349e-01  2.0737625518914484e+00  1.7850425117761468e+00  2.7180794079849624e-01  8.7820342766483339e-01  8.3467696770197897e-01  4.9886548310395062e-01  5.2756633704050293e-01  7.9620485064980384e-01  7.5921030100675457e-01  6.1679219849524214e-01  6.4843273876981000e-01  5.8623905552092981e-01  5.5700746311723426e-01  7.2479569606226424e-01  6.8041676127884210e-01  1.2345638280320236e-01  1.1012719734982980e+01  9.3386080945731873e+00  2.4057511447066290e+01  4.2603535644745747e+01  8.2253317453746995e+00  1.1064419862035241e-01  7.3103357318389000e+00  4.0254506965591034e+01  1.1863681713487205e+01  6.0955828106616146e+00  6.0571531340591305e+00  6.7123323450179839e+00  7.9031979609191954e+00  7.4976364267743003e+00  6.9341010319229666e+00  1.2395123721443387e+01  4.4115363341124842e+00  6.8388966401422318e+00  6.4784443498728468e+00  1.1982107908117145e+01  1.8734810748637354e+01  7.0948851654742278e+00  1.4834857244127242e+01  1.4024405907183495e+00  1.4923197543322670e+00  6.2394351497429641e+00  6.4014874870728242e+00  8.0669095815473337e+00  2.0978285830674319e+00  1.1521402048847598e+01  3.2783160495451220e+00  2.7378360095591101e+00  1.7726692736576535e+00  1.0335204035601686e+01  2.5643172584843494e+00  8.3538448140968740e+00  1.4141647476278778e+00  7.2487395180267162e+00  1.4580772337129075e+00  1.5328833401405035e+00  1.6372047289435359e+00  3.6065750433470728e-01  5.6798024485885010e+00  2.3253895279077733e-01  8.8096557947757095e+00  1.0661833145536316e-01  1.6422218424615953e-01  8.6265809591939853e+00  4.3195457767737233e+00  3.3400175622119135e+00  1.7977300984239075e-01  1.5526055423584520e-01  2.4982007966368855e-01  1.7098589108904314e+00  1.5769635424876549e+00  2.9994275383368724e-01  2.8210435723317012e-01  1.3819178310956175e+00  1.4744601478850374e+00  3.1847447051901823e-01  3.3546208876346506e-01  3.5901862446981275e-01  1.3067428217016932e+00  1.2402716556629922e+00  3.8100200162665121e-01  1.1813330263390753e+00  4.0112704922912912e-01  1.1172728540917127e+00  1.0603479521266732e+00  4.2342560840010707e-01  1.0106324359511347e+00  4.4675865309395957e-01  9.6506360907673794e-01  4.7087415157499041e-01  9.2440819931607421e-01  7.1251487848384454e-01  6.9095390083117136e-01  1.1389702610187678e+01  1.4535474444828665e+01  1.0427412883088182e-01  6.4270948363547035e+01  1.0018243320779913e+01  8.3671983311995124e+00  8.1728535142005896e+01  1.0463367851777160e-01  1.2329752751781594e+01  8.3731471197311222e+00  8.3209098459709381e+00  8.0675290052217932e+00  8.1160268399880824e+00  8.8591060525565020e+00  8.6891242170733367e+00  8.9368003497929571e+00  8.8475384067599947e+00  9.3809334868398260e+00  9.3081087925814519e+00  9.7526660746961724e+00  9.6775462999668012e+00  1.0216720547928514e+01  1.0135043747790489e+01  1.0772151996835214e+01  1.0674464144468796e+01  1.1491860938829108e+01  1.1275058575220031e+01  1.0483958058814810e+01  1.1042595684338522e+01  1.0276671459990874e+01  1.0781606417301751e+01  1.0048121107495103e+01  1.0484882084366475e+01  9.8083633050288856e+00  1.0164156584917183e+01  9.5495933339370129e+00  9.8327890156282454e+00  9.2641361488431802e+00  9.4815697241766124e+00  8.9433550843451943e+00  9.1442378084253679e+00  8.6375912261281922e+00  8.7925929345569358e+00  8.3447229667299325e+00  8.4384016933214490e+00  8.0549834561735683e+00  8.1096488992525835e+00  7.7535287476723429e+00  7.7444976267395109e+00  7.4409920956989666e+00  7.4169827965477744e+00  7.1265769056528416e+00  7.1078008654466220e+00  6.8846118788398831e+00  6.7944005078218721e+00  6.6043328952567162e+00  6.4946988892518425e+00  6.3091192495444766e+00  6.1978096182385132e+00  6.0402496648113981e+00  5.9056258751643309e+00  5.7764838160320213e+00  5.6433853322395819e+00  5.5361379939462632e+00  5.3886305555389988e+00  5.2878089154458783e+00  5.1480054820849395e+00  5.0784801116791733e+00  4.9543839089788300e+00  4.8611264108865893e+00  4.7348895075492097e+00  4.6520348684335753e+00  4.5279577700374052e+00  4.4770483321563033e+00  4.3580385322344304e+00  4.3115194625729565e+00  4.1891857359035907e+00  4.1