<?xml version="1.0"?>
<VTKFile type="UnstructuredGrid"  version="0.1"  >
<UnstructuredGrid>
<Piece  NumberOfPoints="1691" NumberOfCells="3204">
<Points>
<DataArray  type="Float64"  NumberOfComponents="3"  format="ascii">0 0 0  30 0 0  30 -10 0  0 -10 0  0.1391574078963744 0 0  0.2856388821882616 0 0  0.4398299073010886 0 0  0.6021362569539473 0 0  0.7729850389704483 0 0  0.9528258543586996 0 0  1.142131984380316 0 0  1.34140159760994 0 0  1.551159074717981 0 0  1.771956417032531 0 0  2.004374674080994 0 0  2.249025475789527 0 0  2.506552636773105 0 0  2.777633857742732 0 0  3.062982518028728 0 0  3.363349525995907 0 0  3.679525322337712 0 0  4.01234195575742 0 0  4.362675247811097 0 0  4.731447135329707 0 0  5.119628065610077 0 0  5.528239565804708 0 0  5.958356943167011 0 0  6.411112081475485 0 0  6.887696441559404 0 0  7.389364184530748 0 0  7.917435485335147 0 0  8.473300005202017 0 0  9.058420557070402 0 0  9.674336929103793 0 0  10.32266995225095 0 0  11.00512576896296 0 0  11.72350030646412 0 0  12.47968402994705 0 0  13.27566689579597 0 0  14.1135435963616 0 0  14.9955190732806 0 0  15.92391430904694 0 0  16.90117245730496 0 0  17.92986524844506 0 0  19.01269976086341 0 0  20.15252556282024 0 0  21.35234220269763 0 0  22.61530708683689 0 0  23.94474379751883 0 0  25.34415086349739 0 0  26.81721093579712 0 0  28.3678004819169 0 0  30 -1.111111111111111 0  30 -2.222222222222222 0  30 -3.333333333333333 0  30 -4.444444444444445 0  30 -5.555555555555555 0  30 -6.666666666666666 0  30 -7.777777777777777 0  30 -8.888888888888889 0  28.36780047917311 -10 0  26.8172109305839 -10 0  25.34415085606858 -10 0  23.94474378810899 -10 0  22.61530707566275 -10 0  21.3523421899591 -10 0  20.15252554870171 -10 0  19.01269974553473 -10 0  17.92986523206254 -10 0  16.90117244001232 -10 0  15.92391429097614 -10 0  14.99551905455266 -10 0  14.11354357708742 -10 0  13.27566687607703 -10 0  12.47968400987599 -10 0  11.72350028612546 -10 0  11.00512574843363 -10 0  10.32266993160086 -10 0  9.674336908396342 -10 0  9.058420536362949 -10 0  8.473299984546333 -10 0  7.917435464777824 -10 0  7.389364164113587 -10 0  6.887696420787165 -10 0  6.411112061446698 -10 0  5.95835692337857 -10 0  5.528239546282652 -10 0  5.119628046377237 -10 0  4.731447115907979 -10 0  4.362675229213632 -10 0  4.012341937260036 -10 0  3.679525304434552 -10 0  3.363349508456405 -10 0  3.062982500861274 -10 0  2.777633840953978 -10 0  2.506552620368097 -10 0  2.249025459771861 -10 0  2.004374658452946 -10 0  1.771956401795187 -10 0  1.551159059871345 -10 0  1.341401583153029 -10 0  1.142131970307521 -10 0  0.9528258406748833 -10 0  0.7729850256685147 -10 0  0.6021362439621285 -10 0  0.4398298947504031 -10 0  0.2856388700059078 -10 0  0.1391573960769001 -10 0  0 -9.855072463768115 0  0 -9.710144927536232 0  0 -9.565217391304348 0  0 -9.420289855072463 0  0 -9.27536231884058 0  0 -9.130434782608695 0  0 -8.985507246376812 0  0 -8.840579710144928 0  0 -8.695652173913043 0  0 -8.55072463768116 0  0 -8.405797101449275 0  0 -8.260869565217391 0  0 -8.115942028985508 0  0 -7.971014492753623 0  0 -7.826086956521739 0  0 -7.681159420289855 0  0 -7.536231884057971 0  0 -7.391304347826087 0  0 -7.246376811594203 0  0 -7.101449275362318 0  0 -6.956521739130435 0  0 -6.811594202898551 0  0 -6.666666666666667 0  0 -6.521739130434783 0  0 -6.376811594202898 0  0 -6.231884057971015 0  0 -6.086956521739131 0  0 -5.942028985507246 0  0 -5.797101449275362 0  0 -5.652173913043478 0  0 -5.507246376811594 0  0 -5.36231884057971 0  0 -5.217391304347826 0  0 -5.072463768115941 0  0 -4.927536231884058 0  0 -4.782608695652174 0  0 -4.637681159420289 0  0 -4.492753623188406 0  0 -4.347826086956522 0  0 -4.202898550724638 0  0 -4.057971014492754 0  0 -3.913043478260869 0  0 -3.768115942028985 0  0 -3.623188405797101 0  0 -3.478260869565217 0  0 -3.333333333333334 0  0 -3.188405797101449 0  0 -3.043478260869565 0  0 -2.898550724637681 0  0 -2.753623188405797 0  0 -2.608695652173912 0  0 -2.463768115942029 0  0 -2.318840579710145 0  0 -2.173913043478261 0  0 -2.028985507246377 0  0 -1.884057971014492 0  0 -1.739130434782609 0  0 -1.594202898550725 0  0 -1.44927536231884 0  0 -1.304347826086957 0  0 -1.159420289855072 0  0 -1.014492753623188 0  0 -0.8695652173913047 0  0 -0.72463768115942 0  0 -0.579710144927537 0  0 -0.4347826086956523 0  0 -0.2898550724637676 0  0 -0.1449275362318829 0  0.1309460514202492 -4.990980414828784 0  0.1171526873513358 -5.869565217391296 0  0.1344252986967795 -6.716855800502001 0  0.1221309018586645 -4.161899358592938 0  0.1166997684017801 -3.25954604704229 0  4.961569127360256 -0.3118894787216622 0  4.923897360678746 -9.687537149351071 0  0.1228405945134021 -2.536958536012416 0  0.1335945686177435 -7.466846676638523 0  3.206461751753455 -0.2806173508164562 0  3.213166004658842 -9.746377676274168 0  0.1155250883680452 -8.186784073011673 0  0.1359204609538445 -1.804202625344072 0  6.662432263484016 -9.600124945047963 0  6.631056521209421 -0.3942868763482545 0  2.126700074935258 -0.2065769621215452 0  2.120437876630353 -9.808537401472012 0  8.761385473272522 -9.4914222957189 0  8.786076048231736 -0.4923064159810888 0  0.1195911345135556 -8.749677128895598 0  0.1117474302775605 -1.230589418769438 0  11.3907841305612 -9.402816705944797 0  11.36435727088349 -0.618365439918426 0  1.211504568109637 -0.1471532661956818 0  1.239596144827807 -9.832618358594059 0  13.75158625181508 -9.315497816134139 0  13.7500399625954 -0.6902569910160397 0  0.131402377539402 -3.696772604078816 0  0.1204853385030979 -6.307560917781178 0  0.1346483804691658 -4.550944754283819 0  0.1255109280847009 -5.434782608695652 0  16.39894095075685 -9.180198571581517 0  16.44068234362399 -0.8166544577416346 0  0.1255109280847009 -0.7971014492753632 0  0.1162877148651766 -9.206770243020259 0  19.56645066956165 -9.043742294716539 0  29.11731382843969 -5.098539983867493 0  19.50527862123305 -0.9323941524176265 0  23.28904960561395 -8.8608997858633 0  0.6875606479622149 -0.1442604037134076 0  0.6875606348153145 -9.855739596611892 0  23.37074358394081 -1.15131614182933 0  10.00852704311311 -9.475417469395781 0  10.01049631493635 -0.5545437343697674 0  7.639131123468924 -9.543000896765111 0  7.693537846067955 -0.4574302764599576 0  5.733194300659633 -9.66079268774309 0  5.731454990332523 -0.3687808037058806 0  3.803630689980224 -9.686555789708486 0  3.834043646352164 -0.2754981925697493 0  2.618022704128803 -9.787800068206256 0  2.634320277618269 -0.2392104743186785 0  1.65952286941916 -9.813294854785646 0  1.665360553377539 -0.1820878093930922 0  0.1365068028365961 -1.543352471920677 0  0.1128108295274224 -8.471115901500411 0  0.1249192863256123 -0.5070564851587012 0  0.1172626025927563 -9.49200175151447 0  0.1255109280847009 -2.101449275362318 0  0.1255109280847009 -7.898550724637682 0  0.1247535864599936 -2.824177050114505 0  0.1155424837078822 -7.17494363557847 0  26.05192393553612 -8.777856070543081 0  26.00031291598836 -1.159065252957426 0  0.3627343947446455 -0.1301950113519217 0  0.3690141220077834 -9.868919517536135 0  28.90574865438674 -7.135369011630129 0  29.02069681040884 -2.861993939893059 0  0.1397555488250113 -0.2163338956475025 0  0.1255109280847009 -9.782608695652172 0  24.67098979274125 -8.799958058548517 0  23.93395881668722 -7.700959994796646 0  22.61396570077244 -7.764517377391733 0  23.2032949615693 -6.630776985250927 0  21.94857473380583 -6.690613342424633 0  24.50398505507967 -6.535933305198952 0  22.51489076809043 -5.580432145971667 0  21.29537841406989 -5.639199768252479 0  21.84985259542567 -4.547213342284197 0  20.65342988351128 -4.619546679988924 0  20.11277906893955 -5.663225279336593 0  19.49454290958806 -4.673886314669294 0  18.97860072994828 -5.624185949902217 0  18.40383886642446 -4.729683279047542 0  17.90575400337286 -5.630456854950327 0  17.35903168001753 -4.836859475002379 0  16.91444903556046 -5.680257663405808 0  16.36114434035519 -4.898890029095359 0  15.89440836794127 -5.835214594829282 0  15.41608945577568 -4.979845093198404 0  14.9809818125648 -5.732909169427192 0  14.51777858619734 -4.988431190461874 0  14.14039496103406 -5.776391085527889 0  13.67321261031888 -5.031745046943032 0  13.26988611760758 -5.891550007816156 0  12.85732927991246 -5.095735823822261 0  12.46423889659403 -5.760519953635332 0  12.07741841933393 -5.116608846746942 0  11.73131647445202 -5.75987862647932 0  11.35222911621012 -5.158061768105265 0  11.01225658271747 -5.784828178519854 0  10.65393216495117 -5.205808407572067 0  10.33042159780337 -5.788944717060055 0  9.98551374198097 -5.24118342090078 0  9.687616112021921 -5.812725728827915 0  9.357518717034999 -5.284717467130579 0  9.08157001076583 -5.820057568121996 0  8.766199932316585 -5.320212662582848 0  8.494748056481422 -5.830095453943056 0  8.194406727465122 -5.347802431655208 0  7.942610344706003 -5.833678024304247 0  7.660825631728443 -5.380025954369014 0  7.416702921751611 -5.83684433397813 0  7.147290851157173 -5.413787279190068 0  6.91632006965034 -5.851605397483334 0  6.658527053286988 -5.437627383845131 0  6.441897327469297 -5.862220684948111 0  6.194860224019926 -5.464520225953867 0  5.988748643021736 -5.866336295550595 0  5.755042825355586 -5.482399938780632 0  5.555770501455733 -5.867908174086599 0  5.334991086231989 -5.504761241472904 0  5.145076642106908 -5.873191062890511 0  4.935013388047023 -5.544035964184449 0  4.754345788811499 -5.880090917794126 0  4.554437025256316 -5.569020251233177 0  4.382470744799432 -5.88665007327689 0  4.192208958329529 -5.585677590398814 0  4.029485566904095 -5.896175760774888 0  4.354949258143058 -5.270074521138358 0  4.004482386201769 -5.289207815434526 0  4.158655721068861 -4.98145486433833 0  3.821444856080801 -5.001169872115685 0  3.97033944278737 -4.700814034221719 0  3.642688047138773 -4.720140385706738 0  3.788830742180677 -4.426816067812119 0  3.467446796449556 -4.450112744784491 0  3.325275354457695 -4.730293981808933 0  3.158439978631689 -4.466074367009679 0  3.294707394527546 -4
[...]
<PointData  Scalars="pressure"> 
<DataArray  type="Float64"  Name="pressure"  format="ascii">5.3194042244972674e-12  1.4947689113535732e-13  5.9344793269237675e+02  -1.5558451377384399e+04  2.0011306826425902e-12  -2.3870536421497075e-12  -3.6154731115870017e-12  -7.5860229940192820e-12  6.2772540091553994e-12  -3.1927139986361443e-12  5.9684720993680800e-12  -4.6547927292378011e-12  -1.8507541042514978e-12  8.3646656235032781e-12  2.2442150835518850e-12  0.0000000000000000e+00  3.7246194968942079e-12  5.1925250004464520e-12  3.8564407654154418e-12  -1.0074922885000122e-11  -1.0599436368668192e-11  -9.7746708686009280e-13  9.3197429271482867e-13  -4.0840696518280657e-12  1.9997491035391489e-12  -2.0837808328422727e-12  -1.0327161528875268e-12  1.2378797728670999e-12  -7.1269074464580741e-13  -4.4480547730321900e-13  -3.0486824844442435e-13  9.7547151563398473e-13  1.6560186659638377e-12  -1.3250029769878463e-13  -7.5364188289128717e-13  7.7054718181065061e-13  1.4231985124751981e-13  3.7865494843330592e-13  0.0000000000000000e+00  7.5902456034901682e-13  3.8003568329093437e-13  4.0666891995162893e-13  1.3192909373889580e-13  3.5498741475430881e-13  3.7720936138138660e-13  -1.2019095437632884e-13  1.5044182942399809e-14  -5.5440845253178879e-13  3.7305154406685752e-13  -7.0005699957791070e-14  -9.1502986627557537e-14  -2.1374306340551946e-13  1.4850287480599541e+03  1.3039574989823425e+03  1.2516676167842331e+03  1.1754052707187695e+03  1.0621452374789881e+03  9.6172524038990366e+02  8.5573813793670433e+02  7.2537008182919840e+02  5.9446883589312915e+02  6.0142512554101711e+02  6.1892721403438452e+02  6.5156802663771737e+02  7.5202517415544105e+02  8.8157842144106326e+02  1.0151072046485879e+03  1.2239614503161331e+03  1.4994091739433684e+03  1.8067309331294650e+03  2.1540409751140296e+03  2.5404039948091445e+03  2.9522717494240128e+03  3.3720071717141946e+03  3.7755535908319866e+03  4.1522179643510244e+03  4.4657789205894396e+03  4.6669817822019486e+03  4.7406858722037687e+03  4.6844107580416048e+03  4.4833776033558388e+03  4.1133039284591359e+03  3.5822682325861228e+03  2.8934420104214387e+03  2.0480436352335651e+03  1.0538086380313084e+03  -5.2142828817409629e+01  -1.2297142604973249e+03  -2.4526428884393031e+03  -3.7026059902218594e+03  -4.9559154936663426e+03  -6.1868711929930023e+03  -7.3782333883957217e+03  -8.5056587047373978e+03  -9.5558295266430232e+03  -1.0520474181888098e+04  -1.1395903798212579e+04  -1.2177021090319371e+04  -1.2863752345975197e+04  -1.3458720232994590e+04  -1.3966097770187445e+04  -1.4390681707880402e+04  -1.4736868516605517e+04  -1.5011888116789778e+04  -1.5224284004749987e+04  -1.5379240243442864e+04  -1.5481799255265765e+04  -1.5537800837129893e+04  -1.5522295894640321e+04  -1.5422698109894534e+04  -1.5267957879199330e+04  -1.5075144869917676e+04  -1.4862667663871925e+04  -1.4647450553213177e+04  -1.4443607700401126e+04  -1.4258705517023387e+04  -1.4099029696746858e+04  -1.3969407100517959e+04  -1.3870353148805556e+04  -1.3801987616940271e+04  -1.3765237733540833e+04  -1.3759216248839977e+04  -1.3784067913915947e+04  -1.3840303185699446e+04  -1.3927998467612982e+04  -1.4048285443961146e+04  -1.4201307205096215e+04  -1.4389181411682739e+04  -1.4614408799736879e+04  -1.4878742650409707e+04  -1.5180117847889331e+04  -1.5526091676708307e+04  -1.5916002486502612e+04  -1.6353333524354364e+04  -1.6841866240516883e+04  -1.7385777461080394e+04  -1.7989998658987235e+04  -1.8658038684474592e+04  -1.9396371212192822e+04  -2.0210749952667669e+04  -2.1116460927745215e+04  -2.2108970659336937e+04  -2.3209714823837880e+04  -2.4430805028342580e+04  -2.5782151929199714e+04  -2.7275640280430616e+04  -2.8932428607951020e+04  -3.0783979061296581e+04  -3.2867275037190215e+04  -3.5181065628971257e+04  -3.7787381411718197e+04  -4.0737284019752253e+04  -4.4081941206985080e+04  -4.7899513777421467e+04  -5.2289087224608549e+04  -5.7376095652411248e+04  -6.3290204283280327e+04  -7.0199702909407948e+04  -7.8433853750957962e+04  -8.8321329881856960e+04  -1.0014480005039067e+05  -1.1402345983808419e+05  -1.2948026481761990e+05  -1.4470132203572817e+05  -1.5573887173532273e+05  -1.5790720306888781e+05  -1.4578326435639081e+05  -1.1567158405010117e+05  -6.8893324730341425e+04  -1.2314579557154162e+04  4.3092568319535741e+04  8.5918079904419370e+04  1.0785352885133597e+05  1.0640285653218091e+05  8.4197461965987837e+04  4.6831389632910927e+04  -2.2670623581235155e+04  -1.7658963550886940e+04  -1.5053114515903459e+04  -3.1268547668063602e+04  -4.9859289822888830e+04  1.0795350076668683e+04  -1.8930464156906926e+03  -8.2448493595118096e+04  -1.3967362581121637e+04  1.9852290418523469e+04  -7.9286390371943089e+03  -1.3769327723117794e+04  -1.4887538264810332e+05  2.3676474550119060e+03  7.6217210776003776e+03  2.3862413877551477e+04  -1.1780604665499799e+04  4.4138452809972778e+03  5.0210146033475003e+03  -1.4144145871315606e+04  -9.2100558002462247e+04  4.2037531160687558e+03  3.2368005068364096e+03  1.9816766079797551e+04  -1.4153110659201468e+04  3.1286408832611110e+03  2.2465734313503822e+03  -3.9041910207630906e+04  -1.6101468973259147e+04  -2.6584694697936127e+04  -1.9764561318715609e+04  2.0578848766976339e+03  1.8656737085061561e+03  6.5157267575270460e+04  -1.4748993931111698e+04  1.2524185695407605e+03  1.1117167198641168e+03  1.7123163304010977e+03  8.5602454616155637e+02  2.7363896306258881e+04  -1.5092652856745426e+04  1.7108110353190373e+03  4.5692465935010650e+03  4.0654751485146439e+03  3.6721298446098472e+03  6.3886080070862672e+03  3.9573458093992241e+02  9.7123965419470460e+03  -5.7353355109651229e+03  1.4996129845434567e+04  -1.0101046311042655e+04  2.1992608888503997e+04  -1.3134604349949115e+04  2.3626658704413039e+04  -1.5246426628291002e+05  -1.3902223418419229e+04  1.0757173463917481e+05  -1.5161913465805159e+04  -1.2004925412808135e+05  -1.3756018254733284e+04  -6.6283453808864244e+04  -1.4277981924502568e+04  7.5344580447030842e+02  1.6047325210757506e+03  3.5469180276554005e+04  -1.5404927561067414e+04  9.1997713900112842e+02  1.2381227099463345e+03  6.5131248472733918e+04  -1.5465479298129421e+04  7.9357534704829084e+02  1.0440561364224795e+03  1.1347423814221163e+03  1.1727861093158920e+03  1.2789926187432441e+03  1.0933814837803732e+03  1.3298380763994307e+03  1.4330294665893528e+03  1.4934344336394124e+03  1.5941812086369819e+03  1.5852600443718136e+03  1.7552401368688265e+03  1.7731827110913534e+03  1.9180502647833337e+03  1.9655978948260076e+03  2.0891949670055515e+03  2.1820329574518410e+03  2.3204870742494631e+03  2.4466448422556000e+03  2.5841392372192927e+03  2.7077791345897713e+03  2.8481213393626699e+03  2.9588582425277868e+03  3.1098176635345976e+03  3.2124058462156822e+03  3.3647851830616055e+03  3.4384764530739503e+03  3.5960677082010097e+03  3.6215173670676354e+03  3.7943538764533537e+03  3.7722411400029837e+03  3.9495787697447140e+03  3.8605933607003813e+03  4.0380201314977576e+03  3.8539092173003037e+03  4.0410601731187076e+03  3.7605718240867122e+03  3.9613693545400602e+03  3.5741406177896088e+03  3.7889019295321104e+03  3.2953982299778968e+03  3.5051761966771287e+03  2.9025364063763063e+03  3.0898815846296961e+03  2.3757016892301758e+03  2.5494545201272349e+03  1.7323569413409457e+03  1.8689526161724650e+03  9.7782659419013021e+02  1.0764311593497644e+03  1.1583581259838026e+02  1.5197839336359786e+02  -8.5280337388126839e+02  -9.2830715126837856e+02  -1.9256730732566425e+03  -2.1049819682677789e+03  -3.0884604913272083e+03  -3.3681069124591545e+03  -4.3159356306930567e+03  -2.2791745966594954e+03  -3.6396626275774670e+03  -2.4303433335494574e+03  -3.8994921035454004e+03  -2.5424237583116555e+03  -4.1523591558279195e+03  -2.6063318282488740e+03  -4.4248515472426043e+03  -5.8965826803471809e+03  -6.3990126936835086e+03  -4.7544273576259802e+03  -7.7429500930805461e+03  -7.0002599805336995e+03  -5.1567039416367143e+03  -7.6688115363575043e+03  -5.5546813771434126e+03  2.1223389671363557e+03  -8.5158646259153338e+03  -6.0994066943608041e+03  -3.3524673297378590e+03  -1.0389755948428525e+04  -9.2252426668619555e+03  -6.5957149235308480e+03  -3.9572202813274612e+03  -5.1348193917330482e+03  -9.9752631838493380e+03  -6.9754476839819254e+03  -1.1215305053680540e+04  -7.4255429481491337e+03  -1.3898506108501035e+04  -4.7236827774708909e+03  -5.8451949471622092e+03  -3.2462026076953862e+03  -1.2466888525269489e+04  -6.9925632440088884e+03  -1.3795000877973547e+04  -8.3100219177230483e+03  3.8169436466507673e+03  -5.3918341881977403e+03  -6.4572347783231162e+03  -1.5227776193838157e+04  -2.0942880526622521e+04  -8.4647523925231671e+03  -2.4304338423399972e+03  -5.9801246124935751e+03  -6.9966327032346780e+03  -7.5071554443362475e+03  -7.9847301841815261e+03  -8.5300705585471624e+03  -8.9299747372125821e+03  -9.4652088777848476e+03  -9.8090198235719636e+03  -1.0338478675808732e+04  -1.0594585089500200e+04  -1.1129183155485031e+04  -1.0126991319997021e+04  -1.0836337863029741e+04  -4.9593865185351133e+03  -1.0415552071557830e+04  -1.1070570689337901e+04  1.5430623028141656e+02  -1.0702863168301508e+04  -1.1312888825764929e+04  -1.1657012080625173e+04  -1.0941010676354739e+04  -1.1690397269461009e+04  -1.1581852481279506e+04  -1.2335255143712417e+04  -1.2274329839196802e+04  -1.3088053784861857e+04  -1.3055609134735085e+04  -1.6691410755438072e+04  -8.6991697705465995e+03  -1.1855560273657742e+04  -1.1572672886961855e+04  -1.3101948195407576e+04  -7.4918401560235397e+03  -1.0037560628036803e+03  -1.3891060446006908e+04  -1.3916353788117976e+04  -1.8601224338462816e+04  -1.2066378281096078e+04  -1.1845827816337729e+04  -1.2168231728464929e+04  -8.2511573844396480e+03  4.3296976607980323e+03  -1.4752156781336507e+04  -1.4862439284356116e+04  -1.2293659799844212e+04  -1.9742340595419195e+04  -1.1388477016300707e+04  -2.9974794927942919e+04  -1.2137644426686569e+04  -1.1676974329374634e+04  -6.3606519072132069e+03  3.8096060103708905e+03  -1.5709633396534988e+04  -1.5914357068982530e+04  -1.2546262310812774e+04  -2.0247164331595752e+04  2.3189856147785913e+03  -1.5504229823276664e+04  -1.6764091123188107e+04  -1.7079045210562566e+04  -3.2593043347503417e+03  -1.6089753567636659e+04  -1.7352375695623057e+04  -1.2443152875543747e+04  -1.2816835784370673e+04  -1.8419675422043943e+04  -1.8801019835645580e+04  -1.2696162808490288e+04  -1.9894558954639793e+04  -1.7550373980372846e+04  -1.9132157952835249e+04  -2.0427185972203584e+04  -2.0913165657946509e+04  4.0212744852813134e+03  -1.2760815663980395e+04  -1.3112358199073396e+04  -2.2367013968950389e+04  -2.2971715887080692e+04  1.9079368524756401e+03  -1.5886245452422734e+04  3.4799244011214878e+03  -2.1313781569381190e+04  -2.3504559313976704e+04  -3.8868951976899887e+04  -2.5247347866045333e+04  -2.6007426559048672e+04  -2.1569146582774687e+04  -2.7777207911836143e+04  -2.8833058708570385e+04  1.0156512134983455e+04  2.3525507824297787e+04  -6.0760356911849467e+03  -1.3105449493799437e+04  -1.2719814112015951e+04  -1.3432155962511973e+04  -1.0031595239348755e+04  -1.3409507440128864e+04  -6.3365655337304297e+03  -2.6666906954538095e+04  -1.3698877892931063e+04  -1.3765458086263185e+04  3.5365444143850077e+03  3.7613203689887914e+03  -2.1558618027724395e+04  -5.5363057069361284e+03  -4.5223194052997051e+03  -5.0765310530428142e+03  -4.0600412708095027e+03  -4.5802244370783555e+03  -3.5651764815136553e+03  -3.0563990938720763e+03  -2.5456957792355929e+03  -5.6031512236719600e+03  -5.0888441156245481e+03  -6.1028620540151733e+03  2.6898893461772295e+03  2.2075484571194578e+04  1.0843667325696249e+04  -2.2562617262035492e+04  -2.6673614357170562e+04  -2.9795710549915635e+04  -3.2057084944047725e+04  -3.3470554016599286e+04  -3.0549646739810869e+04  -3.4599275822343508e+04  -3.7715619854691613e+04  -3.9344508589339472e+04  -1.7665975078224496e+04  3.5191099687971150e+03  -2.0612283916280753e+03  -1.5585340917872315e+03  -1.1032871447636435e+03  -6.1383217240335023e+02  -2.8774827601999596e+03  -7.1143975058635751e+03  -8.8146766464083539e+03  -8.9103033878245003e+02  -1.3933250133180041e+04  -1.6143056701496507e+04  -1.9726432254496225e+02  2.7132645147507435e+02  -3.1011908703431669e+04  -2.7223447425136608e+04  -3.9632862251535862e+03  -1.3106570789576061e+04  -1.2684831225991626e+04  -1.6024179059392991e+04  -2.9172270641239356e+04  3.7207137293855019e+04  3.3891031220673802e+04  4.4127734035869449e+04  -4.2508471129437574e+04  -4.4766184351942356e+04  -4.0726925644099807e+04  -4.6864085659842662e+04  -1.4003523943539836e+04  -1.4104238633439329e+04  -1.3649647605289232e+04  -8.0963900888735734e+03  -2.7847458738909445e+04  -4.0346119669730717e+04  -3.0332506016887719e+03  -9.6313401603635157e+03  -8.8780399480683354e+03  -5.5907160885128524e+03  -6.6124529311808292e+03  -7.0580552120970024e+03  -7.5887194773929405e+03  2.8307246070229098e+03  -5.1247702966511948e+04  -5.4324041826586938e+04  -4.8325494356248411e+04  -5.6620806685174415e+04  6.2789506691370025e+02  1.0781850950654571e+03  -1.1898239134105726e+04  2.0370226469121403e+03  -1.3413868045662568e+04  1.4151111676937292e+03  -1.4318702561066080e+04  -9.5758105043827200e+03  -1.3617381390454468e+04  -1.3436524801069847e+04  -7.1401531470084738e+03  -8.1147194269822221e+03  -8.5116120185261279e+03  -9.0196790653239041e+03  -9.3342126194412558e+03  -9.8515011375096910e+03  1.3896752963104941e+03  1.8126956557831970e+03  2.0603850498019610e+03  2.4413698651083973e+03  5.1409166516779587e+04  5.6328170322717226e+04  3.3985995981677159e+04  -1.3099575524672502e+04  -1.2640516608993255e+04  -1.2177095991815095e+04  -1.0220913580828760e+03  -6.3284446213417825e+04  -6.6811544713917887e+04  -1.4620114032691701e+04  -2.6976447058521429e+04  -1.0254582849344686e+04  -9.4715574419011064e+03  -1.4437959692723747e+04  -1.4194781015569495e+04  -1.0368620426849600e+04  -1.4191143572467192e+04  -1.2084633658204550e+04  -4.8846588180965460e+04  -9.1117975482267993e+03  2.6228215050120311e+03  2.9596709808204637e+03  -1.7583016602339210e+03  -1.4627076283929669e+04  -7.5145600627960966e+03  -3.0220293396797639e+04  -2.8661932016854935e+04  -2.6611902279770980e+04  2.0028319526261403e+03  -9.5826081586806522e+03  -1.3606229767731309e+04  -1.3472441302175752e+04  -4.1508324601815002e+04  -4.4965658767274144e+04  -4.2231237417803874e+04  -1.5129174010182244e+03  8.0690092850989186e+02  1.5169599916242400e+03  -8.8928485292096684e+03  -1.4265181904203411e+04  -1.5786990550589755e+04  -7.4106014482017534e+04  -7.9415030925630141e+04  -6.9473737605957853e+04  -8.3699570270455646e+04  -7.0127322449597588e+04  -8.5201540644906476e+04  -1.0092850768205225e+05  -1.0273743433217400e+05  6.4294810446614545e+04  -2.3609078400406313e+04  -1.0065461760191980e+04  -6.8351936179178985e+04  3.0642688044936922e+03  3.3510259859420380e+03  3.3950975097028745e+03  3.6327767314443240e+03  -6.7516161172090520e+04  -4.0021304786113767e+04  7.2293414734124875e+04  -8.7694352647413674e+04  -1.1599360560286641e+04  -1.1461498147025128e+04  2.2170742041047497e+03  1.0381423169075113e+03  -1.4537159328941707e+04  -1.2035282266945365e+04  -1.2515190385533342e+04  -1.2605871433288685e+04  -1.2921264517041154e+04  -1.2974832487016500e+04  -1.3257962344103355e+04  -1.3265481588312015e+04  -1.3573166369764927e+04  -1.3636631363705328e+04  -1.3271073760286034e+04  -1.3912331212294679e+04  -1.4033248220207661e+04  -1.3833033998226383e+04  -1.4350579971573252e+04  -1.4467801982305458e+04  -1.4172572858864656e+04  -1.4663898837757579e+04  -1.4953087184918157e+04  -1.5209531159553737e+04  -1.3300650690665232e+04  -1.4886021310096867e+04  -1.5492251696345293e+04  -1.5787670720289461e+04  -1.6143270467701412e+04  -1.6395670151116457e+04  -1.6830208693700035e+04  -1.6527438338699387e+04  -1.7306440431399780e+04  -1.7578282203846866e+04  -1.8156232554732847e+04  -1.7815271168219275e+04  -1.8755277000843213e+04  -1.3048407293834640e+04  -1.3307804049673097e+04  -1.9066505142690774e+04  -1.9770051679946242e+04  -1.9404863755768874e+04  -2.0528505076155750e+04  -2.0832382188163840e+04  -2.1741002161849781e+04  -1.6003601141991592e+04  -1.3764433350949426e+04  -7.7006833512222520e+03  -6.6709261569975652e+03  -1.4258803817195838e+04  -1.3129611801384772e+04  -2.0101939889243098e+04  -1.1127817673214669e+04  3.5686937803237975e+04  -1.3699935151058673e+04  -1.5183762858988148e+04  -1.6559813975440895e+04  -1.3501539027439110e+04  -1.3508465440954842e+04  -1.3673364472542426e+04  -1.3658149984268093e+04  -1.3618057801615738e+04  -1.1728628895161466e+04  2.8175336025398783e+03  -1.5123487285533440e+04  -1.4479664967189932e+04  -3.1875838728186558e+04  -3.2820185336089540e+04  -3.2941450611644987e+03  -1.3544921545158317e+04  -2.7234229374682058e+04  -2.5433099273179596e+04  3.6268798722370766e+03  3.8056474347813673e+03  -1.1596604575923930e+04  1.6487652270735819e+03  -3.4763704280413614e+04  -1.2447832318737555e+04  -1.3290098185748982e+04  1.7974655051096065e+02  3.3598183489187072e+03  3.7486508270533659e+03  3.8636832404792672e+03  3.7720797838179728e+03  3.8256543645682009e+03  -8.0866551576244296e+02  7.3340561918159005e+02  1.2485394844634309e+03  2.6447007430866392e+03  3.5167650141256049e+03  4.6925301994580950e+03  5.9864329708155137e+03  6.8342725531263877e+03  8.5220050143599601e+03  9.0007105697813276e+03  7.3423494360419681e+03  9.2024849003829549e+03  7.5995355772066650e+03  9.1991638738566326e+03  1.1002411613925362e+04  1.0657522793069556e+04  7.6760130714515799e+03  9.0141119888256417e+03  1.3470547567715226e+04  1.3406417041690995e+04  7.6174286552215253e+03  8.6845611464009598e+03  7.4276889169787510e+03  8.2474047612302893e+03  1.6510121833209396e+04  1.6669946124275371e+04  1.5989338166575053e+04  1.0661806144474482e+04  7.1062531042913770e+03  7.7519152492950097e+03  6.7371340043480741e+03  7.1977771736552831e+03  1.2912806196304009e+04  1.6415395872188492e+04  2.0979705067643492e+04  2.0944277578828784e+04  6.0321311508417466e+03  6.3444581477755955e+03  6.6880157472518640e+03  5.9473448334047080e+03  1.9408317361682657e+04  1.8214157844700076e+04  9.4458955770442317e+03  6.1053587003995981e+03  2.5824367031710834e+04  2.6064497452524996e+04  2.0669576726964191e+04  2.6596544956559766e+04  1.9784283292349494e+03  6.4622701674096807e+03  5.4990282903511834e+03  5.5344733458184965e+03  3.2561127052594140e+04  3.3557949221665629e+04  4.5502546219099868e+03  1.1852917607022184e+04  5.8718195828354128e+03  8.2383313386708651e+03  2.5852441582696894e+04  3.3406849598694287e+04  5.0488853793642611e+03  4.9872134080253827e+03  4.6104580417791403e+03  6.4131541390662369e+03  4.0890020791677780e+04  4.1717582063804926e+04  4.4808953594936229e+03  2.1755814522551958e+04  1.9924365797347044e+04  4.2017675657895143e+03  4.0150989297714095e+03  1.6866429846127321e+04  2.3482121004792334e+04  6.2055348299193274e+03  3.8047812171758164e+03  3.6025657591323088e+03  3.4453588034421259e+03  1.7460549152850999e+04  4.9291209965766957e+03  4.6789159858726343e+04  4.8992553401667748e+04  4.1124636206058611e+04  4.9395520021058539e+04  4.3574106723222518e+04  1.8289448890581858e+04  1.5395184153478123e+04  9.1238508421307433e+03  7.3303409112382324e+03  5.3551948909583025e+03  1.6488053126090635e+04  1.4014217028365541e+04  9.9306275993963754e+03  3.8485461731145100e+04  3.0893613114099030e+03  5.0048679294336243e+03  4.7271458926756692e+04  5.3750389695281905e+04  5.2893176552829005e+04  2.3614003331361728e+04  2.4906532695572816e+04  2.7640418253891974e+04  3.2461364747695397e+03  3.1119637436242588e+03  2.8884547722546431e+03  -9.0907320913397489e+03  -4.7064880240238817e+04  -1.3062670374731786e+04  -1.4638495350892195e+04  -3.1077375310658790e+04  -2.6145961574951070e+04  -4.5625749106475023e+03  -5.0542451808169208e+03  -3.9843653460829591e+03  -4.4589111845499228e+03  -1.1981341271017946e+05  -1.2010073922199284e+05  -9.7455545908154454e+04  -1.0946991618437723e+05  8.5466228052087550e+04  7.7341737805082608e+04  3.5840241271882874e+03  -2.