<?xml version="1.0"?>
<VTKFile type="UnstructuredGrid"  version="0.1"  >
<UnstructuredGrid>
<Piece  NumberOfPoints="13179" NumberOfCells="25814">
<Points>
<DataArray  type="Float64"  NumberOfComponents="3"  format="ascii">0 0 0  30 0 0  30 -10 0  0 -10 0  0.02360821169319077 0 0  0.04721642338638154 0 0  0.07206717063563725 0 0  0.09691791788489297 0 0  0.1230766011355843 0 0  0.1492352843862757 0 0  0.1767707375239038 0 0  0.204306190661532 0 0  0.2332908770901271 0 0  0.2622755635187223 0 0  0.2927857633803451 0 0  0.323295963241968 0 0  0.3554119623832387 0 0  0.3875279615245094 0 0  0.4213342730081758 0 0  0.4551405844918422 0 0  0.4907261762804851 0 0  0.526311768069128 0 0  0.5637702848355051 0 0  0.6012288016018821 0 0  0.6406588220121138 0 0  0.6800888424223455 0 0  0.721594129780935 0 0  0.7630994171395246 0 0  0.8067891887833475 0 0  0.8504789604271704 0 0  0.8964681941825949 0 0  0.9424574279380195 0 0  0.9908671465681095 0 0  1.039276865198199 0 0  1.090234462786975 0 0  1.141192060375751 0 0  1.194831641933244 0 0  1.248471223490737 0 0  1.304933942963653 0 0  1.361396662436569 0 0  1.420831104471586 0 0  1.480265546506604 0 0  1.542828113436244 0 0  1.605390680365884 0 0  1.671246013469327 0 0  1.73710134657277 0 0  1.806422752814762 0 0  1.875744159056755 0 0  1.948714057431306 0 0  2.021683955805857 0 0  2.098494373901932 0 0  2.175304791998006 0 0  2.256157866653476 0 0  2.337010941308945 0 0  2.422119443935387 0 0  2.50722794656183 0 0  2.596815840700639 0 0  2.686403734839449 0 0  2.780706776094687 0 0  2.875009817349925 0 0  2.974276175689285 0 0  3.073542534028646 0 0  3.178033441002704 0 0  3.282524347976761 0 0  3.392514777963501 0 0  3.502505207950242 0 0  3.618284608533553 0 0  3.734064009116865 0 0  3.855937062816526 0 0  3.977810116516187 0 0  4.106097541496641 0 0  4.234384966477093 0 0  4.369424362562147 0 0  4.5044637586472 0 0  4.646610489729194 0 0  4.788757220811188 0 0  4.938385356669961 0 0  5.088013492528733 0 0  5.24551679218304 0 0  5.403020091837347 0 0  5.568813038399614 0 0  5.73460598496188 0 0  5.909124878408681 0 0  6.083643771855482 0 0  6.267347873338513 0 0  6.451051974821543 0 0  6.644424714363561 0 0  6.83779745390558 0 0  7.041347702348167 0 0  7.244897950790754 0 0  7.459161368238869 0 0  7.673424785686984 0 0  7.898965226038037 0 0  8.124505666389089 0 0  8.361916654054033 0 0  8.599327641718979 0 0  8.849233942517035 0 0  9.099140243315093 0 0  9.362199507946787 0 0  9.625258772578484 0 0  9.902163261537794 0 0  10.1790677504971 0 0  10.47054616023911 0 0  10.76202456998112 0 0  11.06884394887334 0 0  11.37566332776555 0 0  11.69863109504192 0 0  12.02159886231829 0 0  12.3615649378891 0 0  12.7015310134599 0 0  13.05939003847426 0 0  13.41724906348862 0 0  13.79394276982091 0 0  14.1706364761532 0 0  14.5671561683298 0 0  14.96367586050641 0 0  15.38106501332897 0 0  15.79845416615153 0 0  16.23781117165827 0 0  16.677168177165 0 0  17.13964923659526 0 0  17.60213029602552 0 0  18.0889524622663 0 0  18.57577462850707 0 0  19.08821901304263 0 0  19.60066339757818 0 0  20.14007853843172 0 0  20.67949367928525 0 0  21.24729908993883 0 0  21.8151045005924 0 0  22.41279440541421 0 0  23.01048431023601 0 0  23.63963157605829 0 0  24.26877884188056 0 0  24.93103912515648 0 0  25.59329940843241 0 0  26.29041549584691 0 0  26.98753158326142 0 0  27.72133799026916 0 0  28.45514439727691 0 0  29.22757219863846 0 0  30 -0.3571428571428571 0  30 -0.7142857142857142 0  30 -1.071428571428571 0  30 -1.428571428571428 0  30 -1.785714285714286 0  30 -2.142857142857143 0  30 -2.5 0  30 -2.857142857142857 0  30 -3.214285714285714 0  30 -3.571428571428571 0  30 -3.928571428571428 0  30 -4.285714285714286 0  30 -4.642857142857142 0  30 -5 0  30 -5.357142857142857 0  30 -5.714285714285714 0  30 -6.071428571428571 0  30 -6.428571428571428 0  30 -6.785714285714285 0  30 -7.142857142857142 0  30 -7.5 0  30 -7.857142857142857 0  30 -8.214285714285714 0  30 -8.571428571428571 0  30 -8.928571428571427 0  30 -9.285714285714285 0  30 -9.642857142857142 0  29.22757220128658 -10 0  28.45514440257316 -10 0  27.72133799277628 -10 0  26.98753158297939 -10 0  26.29041549304805 -10 0  25.5932994031167 -10 0  24.93103911757599 -10 0  24.26877883203527 -10 0  23.63963156418132 -10 0  23.01048429632737 -10 0  22.41279438968936 -10 0  21.81510448305136 -10 0  21.24729907078059 -10 0  20.67949365850982 -10 0  20.14007851622273 -10 0  19.60066337393564 -10 0  19.08821898813588 -10 0  18.57577460233611 -10 0  18.08895243498708 -10 0  17.60213026763805 -10 0  17.13964920724307 -10 0  16.6771681468481 -10 0  16.2378111405086 -10 0  15.79845413416909 -10 0  15.38106498063496 -10 0  14.96367582710082 -10 0  14.56715613432376 -10 0  14.17063644154669 -10 0  13.79394273471576 -10 0  13.41724902788484 -10 0  13.05939000246495 -10 0  12.70153097704506 -10 0  12.36156490115379 -10 0  12.02159882526251 -10 0  11.69863105774323 -10 0  11.37566329022395 -10 0  11.06884391115945 -10 0  10.76202453209494 -10 0  10.47054612224479 -10 0  10.17906771239465 -10 0  9.902163223385379 -10 0  9.625258734376107 -10 0  9.362199469747061 -10 0  9.099140205118012 -10 0  8.849233904370102 -10 0  8.599327603622193 -10 0  8.361916616050124 -10 0  8.124505628478055 -10 0  7.898965188258209 -10 0  7.673424748038361 -10 0  7.459161330755727 -10 0  7.244897913473093 -10 0  7.041347665226496 -10 0  6.837797416979896 -10 0  6.644424677660922 -10 0  6.451051938341948 -10 0  6.26734783710581 -10 0  6.083643735869675 -10 0  5.90912484269068 -10 0  5.734605949511682 -10 0  5.568813003235423 -10 0  5.403020056959164 -10 0  5.24551675760658 -10 0  5.088013458254 -10 0  4.938385322710374 -10 0  4.788757187166745 -10 0  4.646610456411224 -10 0  4.504463725655707 -10 0  4.369424329906533 -10 0  4.234384934157362 -10 0  4.106097509520442 -10 0  3.977810084883522 -10 0  3.85593703153344 -10 0  3.734063978183357 -10 0  3.618284577954206 -10 0  3.502505177725055 -10 0  3.392514748095728 -10 0  3.282524318466404 -10 0  3.1780334118518 -10 0  3.073542505237196 -10 0  2.97427614725823 -10 0  2.875009789279265 -10 0  2.780706748384375 -10 0  2.686403707489482 -10 0  2.596815813710069 -10 0  2.507227919930656 -10 0  2.422119417661861 -10 0  2.337010915393062 -10 0  2.256157841092762 -10 0  2.175304766792465 -10 0  2.098494349048437 -10 0  2.021683931304413 -10 0  1.948714033278215 -10 0  1.875744135252013 -10 0  1.806422729354161 -10 0  1.737101323456312 -10 0  1.671245990692352 -10 0  1.605390657928396 -10 0  1.542828091333185 -10 0  1.480265524737977 -10 0  1.420831083031992 -10 0  1.36139664132601 -10 0  1.304933922176438 -10 0  1.248471203026863 -10 0  1.194831621786765 -10 0  1.14119204054667 -10 0  1.09023444350921 -10 0  1.039276846471754 -10 0  0.9908671279064798 -10 0  0.942457409341209 -10 0  0.8964681758842019 -10 0  0.8504789424271948 -10 0  0.8067891710751951 -10 0  0.7630993997231954 -10 0  0.7215941126497469 -10 0  0.6800888255762949 -10 0  0.6406588054444597 -10 0  0.6012287853126246 -10 0  0.5637702688178621 -10 0  0.5263117523230996 -10 0  0.4907261607992695 -10 0  0.4551405692754429 -10 0  0.4213342580497894 -10 0  0.3875279468241395 -10 0  0.3554119479341011 -10 0  0.3232959490440663 -10 0  0.2927857494269297 -10 0  0.2622755498097931 -10 0  0.2332908636189828 -10 0  0.2043061774281725 -10 0  0.1767707245216883 -10 0  0.1492352716152006 -10 0  0.1230765885890825 -10 0  0.09691790556296098 -10 0  0.0720671585317838 -10 0  0.04721641150060663 -10 0  0.02360820575030331 -10 0  0 -9.957983193277311 0  0 -9.915966386554622 0  0 -9.873949579831933 0  0 -9.831932773109244 0  0 -9.789915966386555 0  0 -9.747899159663866 0  0 -9.705882352941176 0  0 -9.663865546218487 0  0 -9.621848739495798 0  0 -9.579831932773109 0  0 -9.53781512605042 0  0 -9.495798319327731 0  0 -9.453781512605042 0  0 -9.411764705882353 0  0 -9.369747899159664 0  0 -9.327731092436975 0  0 -9.285714285714286 0  0 -9.243697478991596 0  0 -9.201680672268907 0  0 -9.159663865546218 0  0 -9.117647058823529 0  0 -9.07563025210084 0  0 -9.033613445378151 0  0 -8.991596638655462 0  0 -8.949579831932773 0  0 -8.907563025210084 0  0 -8.865546218487395 0  0 -8.823529411764707 0  0 -8.781512605042018 0  0 -8.739495798319329 0  0 -8.69747899159664 0  0 -8.655462184873949 0  0 -8.61344537815126 0  0 -8.571428571428571 0  0 -8.529411764705882 0  0 -8.487394957983193 0  0 -8.445378151260504 0  0 -8.403361344537815 0  0 -8.361344537815127 0  0 -8.319327731092438 0  0 -8.277310924369749 0  0 -8.235294117647058 0  0 -8.193277310924369 0  0 -8.15126050420168 0  0 -8.109243697478991 0  0 -8.067226890756302 0  0 -8.025210084033613 0  0 -7.983193277310924 0  0 -7.941176470588236 0  0 -7.899159663865547 0  0 -7.857142857142857 0  0 -7.815126050420168 0  0 -7.773109243697479 0  0 -7.73109243697479 0  0 -7.689075630252101 0  0 -7.647058823529411 0  0 -7.605042016806722 0  0 -7.563025210084033 0  0 -7.521008403361344 0  0 -7.478991596638656 0  0 -7.436974789915967 0  0 -7.394957983193278 0  0 -7.352941176470589 0  0 -7.3109243697479 0  0 -7.26890756302521 0  0 -7.226890756302521 0  0 -7.184873949579832 0  0 -7.142857142857143 0  0 -7.100840336134453 0  0 -7.058823529411764 0  0 -7.016806722689076 0  0 -6.974789915966387 0  0 -6.932773109243698 0  0 -6.890756302521009 0  0 -6.84873949579832 0  0 -6.806722689075631 0  0 -6.764705882352941 0  0 -6.722689075630252 0  0 -6.680672268907563 0  0 -6.638655462184874 0  0 -6.596638655462185 0  0 -6.554621848739496 0  0 -6.512605042016807 0  0 -6.470588235294118 0  0 -6.428571428571429 0  0 -6.38655462184874 0  0 -6.344537815126051 0  0 -6.302521008403362 0  0 -6.260504201680672 0  0 -6.218487394957983 0  0 -6.176470588235294 0  0 -6.134453781512605 0  0 -6.092436974789917 0  0 -6.050420168067227 0  0 -6.008403361344538 0  0 -5.966386554621849 0  0 -5.92436974789916 0  0 -5.882352941176471 0  0 -5.840336134453782 0  0 -5.798319327731092 0  0 -5.756302521008403 0  0 -5.714285714285714 0  0 -5.672268907563025 0  0 -5.630252100840336 0  0 -5.588235294117647 0 
[...]
<PointData  Scalars="pressure"> 
<DataArray  type="Float64"  Name="pressure"  format="ascii">5.6031119390135037e-11  1.0639655818669092e-13  1.3225842889017142e+02  4.9083069383621405e+03  -9.1105843618333060e-12  1.3649544866274329e-11  1.6817195320717435e-12  -2.4999986781279066e-12  -2.7649349407575463e-12  -7.1922068696394802e-12  7.3757379923319144e-12  -4.6474174203264753e-13  2.4300344282353013e-12  5.1104447483234775e-12  -4.4250256423815968e-12  0.0000000000000000e+00  -2.7937958069429531e-12  9.5823120070361822e-13  -5.4182582852150022e-12  3.0953388995476301e-12  -4.5169412270212157e-13  -4.9647245907572108e-13  4.9551511114178589e-13  3.2893448176075753e-13  9.7482539785540175e-13  -1.5570893841211207e-12  -7.1867472332126119e-13  3.5547093785753477e-13  -6.5588711233688951e-13  -9.4370401883239152e-13  2.5293500192833413e-13  7.1128729672174495e-13  6.8875324451030525e-15  6.0290214434030092e-13  6.3109596609517736e-13  -1.0904139161191594e-12  -3.6793153561280405e-13  5.3233265758039181e-13  1.1124582239688420e-13  -7.5553494227951787e-13  -8.2562882174851300e-14  1.5642778338512505e-13  -2.2291932024489127e-13  2.1845333907599180e-13  -3.7457636249025304e-13  3.3734657088717385e-13  2.8689910803979414e-13  1.0495086223910394e-13  9.3035644129075872e-14  0.0000000000000000e+00  2.0166398893789156e-13  5.4800497856038731e-14  9.8597448024764682e-15  -1.9069292923656230e-14  -2.2618375687432615e-15  3.2848912313623997e-14  1.9742378737878339e-15  -4.7563386653710053e-14  5.3735754825259781e-14  1.9644182074410476e-14  -8.4219516027191412e-15  0.0000000000000000e+00  -1.0432005417198638e-14  2.8967742665083964e-14  -2.1226513291821284e-14  -7.2839191814498262e-14  -3.0550801826978356e-14  0.0000000000000000e+00  1.2659070952570419e-14  -1.6481726612328739e-14  -8.3539838165899096e-14  -4.3493921762883748e-14  -3.1133731492076267e-14  5.2765945499147809e-14  -7.9176226254842936e-14  -2.4555832997521453e-14  7.5262132210933360e-14  -6.4957517023973162e-14  -6.0500517510528774e-14  -3.9460486610889320e-14  1.7101961763838112e-14  -1.7676529170205431e-14  -3.7697248562520199e-14  4.1240260224397789e-14  1.3659971396903960e-14  0.0000000000000000e+00  -1.7858117503093118e-14  -6.3602781984555662e-14  4.4470877496221481e-15  0.0000000000000000e+00  8.0250715368861189e-15  -3.3281137535138854e-14  6.9799416849605223e-15  1.9677837355875853e-14  -1.6247581278173143e-14  1.1150657116145009e-14  -4.4903095706675699e-15  1.1165642154025570e-14  -8.2404247643293892e-15  7.6397652747041109e-15  2.2303247448827403e-14  0.0000000000000000e+00  1.8353410501127825e-14  2.4399401004226688e-14  2.8753737028273305e-14  0.0000000000000000e+00  3.0606757329785648e-14  -1.5516514130955785e-14  -4.0213329116267811e-14  1.9120197435187934e-13  -3.3477788539728238e-14  7.3403729161828175e-14  2.1971482098292799e-14  -5.8699304822016026e-14  -1.8758499400859640e-13  1.7516336811353481e-13  2.4933853133512819e-14  -2.2166098573288583e-14  4.1451839907994837e-14  0.0000000000000000e+00  -3.1412997323631321e-14  9.5411426576528153e-14  4.3142208957932345e-14  0.0000000000000000e+00  1.1543330618602071e-13  3.0372009488779623e-14  -1.7642186586149940e-13  -5.2792722911438793e-14  5.6903382209246781e-14  -9.9545657304810422e-14  1.3811745089551433e-13  -2.3022880270533563e-14  -2.1651055584517993e-14  8.1514060624658131e-14  1.7166075238759501e-14  -6.7684389519226260e-14  1.0356731996513095e-14  6.0030807240597651e-14  2.6245008574610298e-14  9.1955420028830340e-14  4.6903963405015835e-15  3.8513847891902230e+02  1.9526043895815855e+02  3.4505503271103782e+02  2.7403425751927927e+02  2.9059414395928241e+02  2.8335614127620005e+02  2.7094077104579571e+02  2.7236919855748403e+02  2.6004769075703052e+02  2.5662893297624765e+02  2.5135478071276751e+02  2.4536909261607070e+02  2.3849909961992611e+02  2.3209057985850370e+02  2.2510984351467297e+02  2.1646060657151077e+02  2.1103827580510193e+02  2.0439483613535540e+02  1.9772364202570549e+02  1.8984830424034664e+02  1.8887462973606949e+02  1.7229675827855010e+02  1.7183402873156396e+02  1.6007454155829956e+02  1.5943838735116387e+02  1.4661937389338763e+02  1.5656490681816814e+02  1.0924971817265514e+02  1.0179630577776192e+02  1.0004208237588216e+02  1.0530530105955502e+02  1.1140370807156467e+02  1.0716548692556090e+02  1.0744211933888211e+02  1.0766651374038176e+02  1.0898231894187887e+02  1.0577412278128328e+02  1.0218311962520387e+02  9.7687006266876864e+01  9.3972210960181428e+01  9.0830435218085967e+01  8.5681694836904498e+01  8.2170518971717925e+01  7.7140395096980470e+01  7.5942631950296246e+01  7.6058398983103359e+01  7.1866888702242349e+01  7.3651013781186776e+01  7.2907333971882323e+01  7.2374107719617314e+01  7.5523299341992384e+01  8.3239399981511411e+01  9.3988079530429019e+01  9.7226358311208259e+01  1.1857300720753685e+02  1.3230718037001478e+02  2.0883436224178479e+02  1.6653924181759101e+02  2.0884450637461390e+02  2.2338790566117737e+02  2.5841700878572107e+02  2.9181406451009178e+02  3.4282846714448607e+02  3.9031589841474448e+02  4.5191870643216907e+02  5.0419612800929821e+02  5.5686315228924013e+02  6.0561599707441144e+02  6.8412318817512403e+02  7.4896142861188662e+02  8.2042417520674076e+02  8.9758774598185346e+02  9.7881433569386400e+02  1.0605082575972135e+03  1.1454825628238973e+03  1.2347248831689558e+03  1.3262390575765028e+03  1.4166391080204291e+03  1.5124940319386872e+03  1.6086917396048334e+03  1.7067970287922374e+03  1.8036975103940456e+03  1.9027227182052775e+03  2.0004594408257483e+03  2.0998597046612040e+03  2.1940324392933503e+03  2.3011056113212071e+03  2.3958993378394330e+03  2.4901580760330849e+03  2.5846871159961424e+03  2.6799047446079130e+03  2.7717862298618143e+03  2.8642002543793847e+03  2.9528089202114643e+03  3.0412530240270999e+03  3.1252463719191237e+03  3.2081138178747083e+03  3.2878617648728086e+03  3.3667068962009498e+03  3.4426568791711875e+03  3.5169670445338179e+03  3.5878823428216560e+03  3.6582803792589302e+03  3.7244591051806974e+03  3.7887216809774623e+03  3.8492948409722803e+03  3.9080146477343201e+03  3.9637084973262190e+03  4.0191877306391748e+03  4.0708430439090794e+03  4.1221749699810880e+03  4.1694922302168134e+03  4.2156340808157802e+03  4.2583356330689376e+03  4.2995843847208216e+03  4.3376342871476854e+03  4.3747332162388630e+03  4.4090638655252169e+03  4.4439108032801532e+03  4.4751667788133291e+03  4.5045303879900239e+03  4.5319490968803411e+03  4.5585757709248319e+03  4.5825641582972949e+03  4.6068695607480158e+03  4.6286958466982260e+03  4.6504700095201288e+03  4.6708260306891380e+03  4.6900401828266376e+03  4.7073937974419605e+03  4.7239208490441524e+03  4.7392104981381981e+03  4.7540850293237545e+03  4.7676395223076479e+03  4.7801724716315812e+03  4.7912526996692986e+03  4.8018241267124195e+03  4.8116532704828987e+03  4.8211918148097775e+03  4.8298673358458373e+03  4.8381050828881289e+03  4.8454110325689280e+03  4.8521868921783407e+03  4.8582111540103633e+03  4.8639240091937536e+03  4.8690323439302674e+03  4.8738623747322481e+03  4.8781504369843651e+03  4.8821521879769562e+03  4.8856760695607309e+03  4.8888137293642203e+03  4.8915043507717928e+03  4.8942402769379669e+03  4.8965393918172595e+03  4.8985533999950367e+03  4.9003254328565517e+03  4.9018465784505934e+03  4.9031135854200174e+03  4.9042260735797008e+03  4.9050748756268549e+03  4.9059773846170201e+03  4.9067815892714716e+03  4.9073370832154333e+03  4.9076252333714756e+03  4.9014511949027938e+03  4.8856977290272980e+03  4.8650617701528563e+03  4.8423455843058809e+03  4.8191334897409206e+03  4.7963818993394061e+03  4.7739232606115565e+03  4.7519741827787429e+03  4.7304107231638891e+03  4.7088747008194086e+03  4.6875259112051099e+03  4.6670377298281255e+03  4.6463583143378637e+03  4.6264966308654812e+03  4.6070143609219449e+03  4.5880683574898812e+03  4.5691541918513267e+03  4.5508220639107258e+03  4.5326506631154680e+03  4.5145168249907192e+03  4.4972588731040505e+03  4.4804564099894296e+03  4.4642295123002787e+03  4.4480237786170919e+03  4.4320117636998566e+03  4.4159308792921029e+03  4.4006145911211279e+03  4.3859536775470897e+03  4.3710369759537271e+03  4.3569611828439874e+03  4.3431399190886714e+03  4.3294741069077509e+03  4.3160016715004685e+03  4.3031038173469005e+03  4.2903950997107086e+03  4.2778219782790811e+03  4.2657703806941818e+03  4.2535840223129489e+03  4.2422969093054217e+03  4.2312486594681268e+03  4.2202041655452431e+03  4.2096939866247794e+03  4.1988056382246186e+03  4.1888971486998998e+03  4.1793013552962093e+03  4.1702033486488908e+03  4.1615207131410034e+03  4.1527584648528218e+03  4.1442021044755684e+03  4.1358894592690913e+03  4.1277190430524597e+03  4.1202149676829831e+03  4.1124324174975627e+03  4.1056507719336287e+03  4.0989515539334761e+03  4.0923867978764515e+03  4.0862715609913380e+03  4.0799856317909371e+03  4.0744988736725986e+03  4.0691813497109324e+03  4.0641389220529545e+03  4.0594124519154043e+03  4.0552592975168000e+03  4.0512518938808444e+03  4.0473762406732781e+03  4.0436448111755390e+03  4.0404795581288076e+03  4.0371056332555618e+03  4.0341974418700361e+03  4.0319773805112955e+03  4.0298658713284412e+03  4.0284217324371962e+03  4.0267608447967696e+03  4.0254732034145231e+03  4.0247690591442233e+03  4.0242118906378873e+03  4.0241826266713078e+03  4.0241138783948677e+03  4.0241992671027965e+03  4.0246951549117116e+03  4.0251390403107985e+03  4.0263124142705406e+03  4.0281286183260790e+03  4.0296251796291740e+03  4.0319756276185890e+03  4.0346970893783018e+03  4.0373407093276055e+03  4.0408354197905987e+03  4.0441132701941560e+03  4.0479968582814649e+03  4.0523679745859004e+03  4.0566753753373337e+03  4.0616827608678168e+03  4.0670606567241775e+03  4.0724259218067305e+03  4.0786211668183487e+03  4.0849216114262545e+03  4.0915047901432245e+03  4.0984105284551943e+03  4.1055867231172351e+03  4.1130997867701171e+03  4.1212562692471292e+03  4.1300359051936284e+03  4.1385026466907457e+03  4.1476395015239823e+03  4.1578346073927578e+03  4.1688774575624948e+03  4.1792836102825058e+03  4.1902345983878695e+03  4.2008999296229895e+03  4.2125233411219042e+03  4.2249778634404311e+03  4.2378031027829902e+03  4.2514095071111287e+03  4.2653761971559497e+03  4.2793367596102107e+03  4.2943644998128584e+03  4.3088692822709718e+03  4.3245326943737782e+03  4.3408431725858818e+03  4.3580450825423268e+03  4.3752342427544627e+03  4.3938346414204707e+03  4.4117059836529515e+03  4.4301210867850923e+03  4.4495454843033122e+03  4.4692745793854419e+03  4.4902535240378229e+03  4.5119507996549364e+03  4.5331733795488435e+03  4.5554107425930360e+03  4.5788669703302985e+03  4.6029920065740480e+03  4.6281315093093099e+03  4.6539546613686634e+03  4.6794003226541527e+03  4.7062335921301637e+03  4.7346160123942527e+03  4.7631273458717833e+03  4.7924991997832049e+03  4.8216423083003101e+03  4.8526881464218422e+03  4.8843008353681662e+03  4.9168571361198947e+03  4.9511531374785336e+03  4.9849092585194412e+03  5.0197845668515210e+03  5.0561382920169917e+03  5.0936461098174796e+03  5.1323526510406264e+03  5.1730286525733400e+03  5.2136569686504563e+03  5.2566210779771372e+03  5.2987240719195133e+03  5.3428817701388971e+03  5.3882075379641055e+03  5.4350770884846825e+03  5.4835433235208457e+03  5.5330755742925085e+03  5.5837673875115825e+03  5.6362676777304241e+03  5.6908027136955379e+03  5.7460732632201880e+03  5.8036077370096655e+03  5.8617037134442135e+03  5.9228344863143539e+03  5.9865065719552558e+03  6.0493580688792272e+03  6.1158083963550398e+03  6.1846719810474033e+03  6.2539193630446944e+03  6.3283117746612461e+03  6.4027096206940550e+03  6.4817042439736015e+03  6.5600133929739632e+03  6.6416764526283996e+03  6.7262234139211077e+03  6.8128784925520222e+03  6.9030612775890959e+03  6.9967038439830858e+03  7.0938896273246737e+03  7.1923948358798143e+03  7.2969970067653721e+03  7.4041914684168614e+03  7.5143625720747978e+03  7.6272878730525244e+03  7.7445856948857900e+03  7.8665739385631423e+03  7.9930489207579394e+03  8.1238789862269668e+03  8.2613571201687264e+03  8.3998692502729809e+03  8.5466153776300180e+03  8.6993937446088494e+03  8.8570520166375536e+03  9.0218695375363623e+03  9.1919844201577034e+03  9.3669456402791493e+03  9.5490241263475982e+03  9.7385287261670292e+03  9.9340692231731500e+03  1.0136979177978814e+04  1.0346879606678454e+04  1.0568777472231250e+04  1.0798192966509125e+04  1.1038133465439345e+04  1.1282970397505673e+04  1.1541369679550906e+04  1.1805322977219150e+04  1.2083916003207110e+04  1.2375405427704276e+04  1.2669679079922733e+04  1.2966586780939457e+04  1.3274066793500000e+04  1.3589409045246330e+04  1.3903733763152970e+04  1.4215904686270296e+04  1.4524346090479832e+04  1.4819348957854203e+04  1.5090038074508922e+04  1.5324662135058041e+04  1.5489602282402542e+04  1.5572330997350926e+04  1.5502799396763889e+04  1.5244246191360013e+04  1.4680278028309975e+04  1.3663471526822967e+04  1.1911366937726207e+04  9.0312702078840193e+03  4.5502155931625421e+03  -2.2339071431010775e+03  -1.1496400906474672e+04  -2.2771616418367452e+04  -3.3800775979207283e+04  -3.6806349629329023e+04  1.6228670656793753e+04  1.2874371957287061e+05  4.2721997209556093e+03  4.1251266450107578e+03  4.5006211074766252e+03  4.0502021299041207e+03  4.8071083350424396e+03  5.2351856343562222e+03  4.0242508906641683e+03  5.7744893470265915e+03  6.4407690752176377e+03  4.0330911075904228e+03  4.0713218078679070e+03  4.1318447444147696e+03  7.2381329433215988e+03  -3.7091133288611576e+02  2.8110054070755418e+03  -2.9315221815143042e+02  3.4742891855074877e+03  8.4485261089425367e+03  -4.8459649830321347e+01  9.8078889756300596e+03  4.2043657345156189e+03  3.9754855260355357e+03  2.9657425998797402e+02  4.3041334364848562e+03  4.2966404837173013e+03  2.1574717554719223e+03  8.2482645544286095e+02  4.5354407625022550e+03  1.1404533106445024e+04  -3.2878975973915345e+02  1.7561635554652198e+03  4.3934312374530509e+03  4.6894723182470216e+03  1.5001484683031583e+03  -1.8848865734266909e+02  1.3410638435509127e+04  3.1583546450174531e+03  4.7786357286753173e+03  9.9827280271246821e+02  4.0813973134514226e+03  4.1846530674287014e+03  4.6403622088360462e+03  4.3828419430681570e+03  5.0017086540264072e+03  4.4880630538530268e+03  -2.0399314052090078e+00  4.8438799744444741e+03  5.9681073358232459e+02  4.8364227345131412e+03  2.0573437056974845e+02  1.5226290266847906e+04  3.3337733426330931e+02  4.5967688376519773e+03  7.8033018487178333e+03  4.0492755718999192e+03  5.5028775034470618e+03  6.0788001352953315e+03  4.0251235658840951e+03  4.0306772507845012e+03  3.8567588994281743e+02  1.0038660640580780e+04  4.8675608197366819e+03  5.0676097335835783e+02  2.0121995979647394e+02  1.5099441139194003e+04  1.5882513762813736e+02  5.7932052289903811e+02  1.5562837736664513e+04  2.3322948665118756e+02  4.6986257482911187e+03  6.0539663381532171e+02  -3.5044613975848404e+02  -1.8648358150131861e+02  1.4468916622319887e+02  3.1652952849660865e+03  3.7476495823804503e+03  4.8871734689320383e+03  1.4748009492884347e+02  9.0958914539453071e+03  4.2489981857083349e+03  4.1657224487933818e+03  4.1023189903026123e+03  6.8647409705786176e+03  2.0874422449306374e+02  5.8490042924252930e+02  1.4840527368948679e+02  7.8346949928114409e+03  5.4342980174236573e+02  1.6446069014228686e+02  5.0600823902835322e+02  3.0306781861726344e+04  4.8965183594826822e+03  2.6010587534426412e+02  4.7836711598567072e+03  -3.6639252471705367e+02  4.1770051520215839e+03  5.8812766809157313e+02  -2.7063700607475982e+02  1.8733362865441275e+03  1.0141221184562362e+02  -1.0116874415265363e+02  7.9073779702830620e+02  1.2378928674022479e+03  4.6298350780669361e+03  4.5605957396468557e+02  4.7382176831820343e+03  4.8098093238017627e+03  2.5366136248654830e+03  1.2843917757624351e+02  4.4426013030377526e+03  1.2822820620447694e+03  2.2659958553483002e+03  3.8251912201299201e+03  -1.2277106855680211e+04  4.5416779475991179e+03  1.2524037272665768e+04  1.4391882636778440e+04  4.4385606775873403e+03  4.3497953495983147e+03  1.0702092822650820e+04  4.0387451797384242e+03  4.0645408068562069e+03  5.3624142086261663e+03  5.1122029507993175e+03  4.1017117686094107e+03  4.1525219327257928e+03  4.5667248560212174e+03  4.4385726369211416e+03  4.7219306866305214e+03  4.8973305498772716e+03  4.2181705532260103e+03  4.3309895843267577e+03  3.3072654651486162e+04  4.9014344365521520e+03  2.7555516834622182e+02  1.8499579750177944e+02  1.7294948789713837e+02  4.9363864922960192e+02  6.1088491302646726e+04  4.8548197293901467e+03  1.6580275518651877e+02  4.9041075436130131e+03  -3.6272054020659056e+02  -3.1652769606137991e+02  -2.3942964499468252e+02  -1.2565552685462858e+02  5.2755793707424607e+02  5.6167433471175809e+02  2.6187575361871961e+02  1.7901971761515378e+02  5.3076068344652958e+02  5.9243146762483070e+02  -2.2782923813860151e+02  1.5331863494778153e+02  -3.5248895349566288e+02  2.9978940265794208e+01  2.3537254034772336e+03  1.6852915084525910e+03  1.4911962121822128e+02  5.9233542556757118e+02  4.3694961288524274e+02  4.3781124479987775e+03  1.4670378162681226e+02  2.6359577650908670e+02  1.0868576765275250e+03  4.0805407727302513e+03  4.4755383265441026e+02  4.5849510184933688e+03  1.4392200968497855e+02  2.9879098286480421e+03  4.8807157490909431e+03  3.3238714076294973e+03  3.6157963770109654e+03  3.8689713498315614e+03  6.4818575164697841e+03  4.8566388872225561e+03  1.1563302416481376e+04  4.8919302510274356e+03  -2.0895813381764809e+04  2.0845333197494154e+04  3.2160295871661089e+02  4.7402572636148816e+03  4.6572113537789064e+03  1.5635146409966103e+04  1.3236938426003984e+04  1.1913330110164999e+04  4.3225903469035175e+03  4.2703600591672712e+03  9.4542585950359517e+03  1.0231252151016184e+04  4.1835686293539202e+03  4.2260800593802678e+03  8.7702696868331113e+03  8.2056013250727246e+03  7.5694283888851824e+03  4.1484025005369012e+03  4.1163115157855855e+03  7.0600132530680330e+03  4.0890280910574429e+03  6.6815469328585750e+03  4.0616323304718644e+03  4.0417779884385773e+03  6.2876751839617582e+03  4.0289032604313402e+03  5.9534666781927772e+03  4.0239596033718844e+03  5.6607340702686843e+03  4.0255358136874211e+03  4.2455782912663690e+03  4.3013375730442813e+03  2.4686322501635630e+02  2.2030480875862395e+02  6.7673815791228830e+04  1.5207940969036349e+02  4.8943911237998364e+03  5.1407057737490220e+02  1.6842349468012853e+02  7.3887201636007012e+04  4.9054719144795890e+03  5.0801847752471878e+02  4.8505938564542333e+02  2.0008380331025595e+02  1.8302232414645516e+02  3.5921607064343061e+02  3.2470018821718566e+02  2.6257113943849890e+02  2.6373797523102780e+02  2.8852629222550382e+02  2.8739493623267651e+02  2.6568955393048896e+02  2.6975911326503444e+02  2.6246986123776634e+02  2.6231997237903170e+02  2.4964584289574864e+02  2.5499599356425787e+02  2.4618578184463692e+02  2.4400968762983544e+02  2.5479231945508974e+02  2.4640306258576302e+02  2.5767502501444585e+02  2.4608779684332660e+02  2.5863160866821323e+02  2.4788802088618178e+02  2.6222718163428704e+02  2.4835193192393589e+02  2.6389825658739210e+02  2.5044234136797931e+02  2.6570550239961216e+02  2.5250487567201029e+02  2.6808791223729867e+02  2.5654626666440629e+02  2.7035372940693208e+02  2.5959309908408301e+02  2.7296368832988639e+02  2.6375415270364886e+02  2.7731162360352249e+02  2.6696028618730304e+02  2.8121899073210898e+02  2.7281480540369017e+02  2.8520846413948004e+02  2.7613270272225054e+02  2.9105671819554112e+02  2.8544509035730971e+02  2.9724050418533312e+02  2.8652487863631654e+02  2.9810997350346287e+02  2.9746351408313558e+02  3.1275955965866126e+02  3.0436422650750416e+02  3.2103753251645259e+02  3.1448233905918482e+02  3.3002144558719289e+02  3.2589369498123449e+02  3.4963625411646387e+02  3.4822959210562618e+02  3.5166267792046960e+02  3.4754793361495302e+02  3.6985358923958751e+02  3.7541769750330081e+02  3.9458651482476262e+02  3.8924489159377003e+02  3.9908489109345987e+02  4.1068094007841631e+02  4.2603032760436463e+02  4