<?xml version="1.0"?>
<VTKFile type="UnstructuredGrid"  version="0.1"  >
<UnstructuredGrid>
<Piece  NumberOfPoints="18082" NumberOfCells="35500">
<Points>
<DataArray  type="Float64"  NumberOfComponents="3"  format="ascii">0 0 0  30 0 0  30 -10 0  0 -10 0  0.02360821169319077 0 0  0.04721642338638154 0 0  0.07206717063563725 0 0  0.09691791788489297 0 0  0.1230766011355843 0 0  0.1492352843862757 0 0  0.1767707375239038 0 0  0.204306190661532 0 0  0.2332908770901271 0 0  0.2622755635187223 0 0  0.2927857633803451 0 0  0.323295963241968 0 0  0.3554119623832387 0 0  0.3875279615245094 0 0  0.4213342730081758 0 0  0.4551405844918422 0 0  0.4907261762804851 0 0  0.526311768069128 0 0  0.5637702848355051 0 0  0.6012288016018821 0 0  0.6406588220121138 0 0  0.6800888424223455 0 0  0.721594129780935 0 0  0.7630994171395246 0 0  0.8067891887833475 0 0  0.8504789604271704 0 0  0.8964681941825949 0 0  0.9424574279380195 0 0  0.9908671465681095 0 0  1.039276865198199 0 0  1.090234462786975 0 0  1.141192060375751 0 0  1.194831641933244 0 0  1.248471223490737 0 0  1.304933942963653 0 0  1.361396662436569 0 0  1.420831104471586 0 0  1.480265546506604 0 0  1.542828113436244 0 0  1.605390680365884 0 0  1.671246013469327 0 0  1.73710134657277 0 0  1.806422752814762 0 0  1.875744159056755 0 0  1.948714057431306 0 0  2.021683955805857 0 0  2.098494373901932 0 0  2.175304791998006 0 0  2.256157866653476 0 0  2.337010941308945 0 0  2.422119443935387 0 0  2.50722794656183 0 0  2.596815840700639 0 0  2.686403734839449 0 0  2.780706776094687 0 0  2.875009817349925 0 0  2.974276175689285 0 0  3.073542534028646 0 0  3.178033441002704 0 0  3.282524347976761 0 0  3.392514777963501 0 0  3.502505207950242 0 0  3.618284608533553 0 0  3.734064009116865 0 0  3.855937062816526 0 0  3.977810116516187 0 0  4.106097541496641 0 0  4.234384966477093 0 0  4.369424362562147 0 0  4.5044637586472 0 0  4.646610489729194 0 0  4.788757220811188 0 0  4.938385356669961 0 0  5.088013492528733 0 0  5.24551679218304 0 0  5.403020091837347 0 0  5.568813038399614 0 0  5.73460598496188 0 0  5.909124878408681 0 0  6.083643771855482 0 0  6.267347873338513 0 0  6.451051974821543 0 0  6.644424714363561 0 0  6.83779745390558 0 0  7.041347702348167 0 0  7.244897950790754 0 0  7.459161368238869 0 0  7.673424785686984 0 0  7.898965226038037 0 0  8.124505666389089 0 0  8.361916654054033 0 0  8.599327641718979 0 0  8.849233942517035 0 0  9.099140243315093 0 0  9.362199507946787 0 0  9.625258772578484 0 0  9.902163261537794 0 0  10.1790677504971 0 0  10.47054616023911 0 0  10.76202456998112 0 0  11.06884394887334 0 0  11.37566332776555 0 0  11.69863109504192 0 0  12.02159886231829 0 0  12.3615649378891 0 0  12.7015310134599 0 0  13.05939003847426 0 0  13.41724906348862 0 0  13.79394276982091 0 0  14.1706364761532 0 0  14.5671561683298 0 0  14.96367586050641 0 0  15.38106501332897 0 0  15.79845416615153 0 0  16.23781117165827 0 0  16.677168177165 0 0  17.13964923659526 0 0  17.60213029602552 0 0  18.0889524622663 0 0  18.57577462850707 0 0  19.08821901304263 0 0  19.60066339757818 0 0  20.14007853843172 0 0  20.67949367928525 0 0  21.24729908993883 0 0  21.8151045005924 0 0  22.41279440541421 0 0  23.01048431023601 0 0  23.63963157605829 0 0  24.26877884188056 0 0  24.93103912515648 0 0  25.59329940843241 0 0  26.29041549584691 0 0  26.98753158326142 0 0  27.72133799026916 0 0  28.45514439727691 0 0  29.22757219863846 0 0  30 -0.3571428571428571 0  30 -0.7142857142857142 0  30 -1.071428571428571 0  30 -1.428571428571428 0  30 -1.785714285714286 0  30 -2.142857142857143 0  30 -2.5 0  30 -2.857142857142857 0  30 -3.214285714285714 0  30 -3.571428571428571 0  30 -3.928571428571428 0  30 -4.285714285714286 0  30 -4.642857142857142 0  30 -5 0  30 -5.357142857142857 0  30 -5.714285714285714 0  30 -6.071428571428571 0  30 -6.428571428571428 0  30 -6.785714285714285 0  30 -7.142857142857142 0  30 -7.5 0  30 -7.857142857142857 0  30 -8.214285714285714 0  30 -8.571428571428571 0  30 -8.928571428571427 0  30 -9.285714285714285 0  30 -9.642857142857142 0  29.22757220128658 -10 0  28.45514440257316 -10 0  27.72133799277628 -10 0  26.98753158297939 -10 0  26.29041549304805 -10 0  25.5932994031167 -10 0  24.93103911757599 -10 0  24.26877883203527 -10 0  23.63963156418132 -10 0  23.01048429632737 -10 0  22.41279438968936 -10 0  21.81510448305136 -10 0  21.24729907078059 -10 0  20.67949365850982 -10 0  20.14007851622273 -10 0  19.60066337393564 -10 0  19.08821898813588 -10 0  18.57577460233611 -10 0  18.08895243498708 -10 0  17.60213026763805 -10 0  17.13964920724307 -10 0  16.6771681468481 -10 0  16.2378111405086 -10 0  15.79845413416909 -10 0  15.38106498063496 -10 0  14.96367582710082 -10 0  14.56715613432376 -10 0  14.17063644154669 -10 0  13.79394273471576 -10 0  13.41724902788484 -10 0  13.05939000246495 -10 0  12.70153097704506 -10 0  12.36156490115379 -10 0  12.02159882526251 -10 0  11.69863105774323 -10 0  11.37566329022395 -10 0  11.06884391115945 -10 0  10.76202453209494 -10 0  10.47054612224479 -10 0  10.17906771239465 -10 0  9.902163223385379 -10 0  9.625258734376107 -10 0  9.362199469747061 -10 0  9.099140205118012 -10 0  8.849233904370102 -10 0  8.599327603622193 -10 0  8.361916616050124 -10 0  8.124505628478055 -10 0  7.898965188258209 -10 0  7.673424748038361 -10 0  7.459161330755727 -10 0  7.244897913473093 -10 0  7.041347665226496 -10 0  6.837797416979896 -10 0  6.644424677660922 -10 0  6.451051938341948 -10 0  6.26734783710581 -10 0  6.083643735869675 -10 0  5.90912484269068 -10 0  5.734605949511682 -10 0  5.568813003235423 -10 0  5.403020056959164 -10 0  5.24551675760658 -10 0  5.088013458254 -10 0  4.938385322710374 -10 0  4.788757187166745 -10 0  4.646610456411224 -10 0  4.504463725655707 -10 0  4.369424329906533 -10 0  4.234384934157362 -10 0  4.106097509520442 -10 0  3.977810084883522 -10 0  3.85593703153344 -10 0  3.734063978183357 -10 0  3.618284577954206 -10 0  3.502505177725055 -10 0  3.392514748095728 -10 0  3.282524318466404 -10 0  3.1780334118518 -10 0  3.073542505237196 -10 0  2.97427614725823 -10 0  2.875009789279265 -10 0  2.780706748384375 -10 0  2.686403707489482 -10 0  2.596815813710069 -10 0  2.507227919930656 -10 0  2.422119417661861 -10 0  2.337010915393062 -10 0  2.256157841092762 -10 0  2.175304766792465 -10 0  2.098494349048437 -10 0  2.021683931304413 -10 0  1.948714033278215 -10 0  1.875744135252013 -10 0  1.806422729354161 -10 0  1.737101323456312 -10 0  1.671245990692352 -10 0  1.605390657928396 -10 0  1.542828091333185 -10 0  1.480265524737977 -10 0  1.420831083031992 -10 0  1.36139664132601 -10 0  1.304933922176438 -10 0  1.248471203026863 -10 0  1.194831621786765 -10 0  1.14119204054667 -10 0  1.09023444350921 -10 0  1.039276846471754 -10 0  0.9908671279064798 -10 0  0.942457409341209 -10 0  0.8964681758842019 -10 0  0.8504789424271948 -10 0  0.8067891710751951 -10 0  0.7630993997231954 -10 0  0.7215941126497469 -10 0  0.6800888255762949 -10 0  0.6406588054444597 -10 0  0.6012287853126246 -10 0  0.5637702688178621 -10 0  0.5263117523230996 -10 0  0.4907261607992695 -10 0  0.4551405692754429 -10 0  0.4213342580497894 -10 0  0.3875279468241395 -10 0  0.3554119479341011 -10 0  0.3232959490440663 -10 0  0.2927857494269297 -10 0  0.2622755498097931 -10 0  0.2332908636189828 -10 0  0.2043061774281725 -10 0  0.1767707245216883 -10 0  0.1492352716152006 -10 0  0.1230765885890825 -10 0  0.09691790556296098 -10 0  0.0720671585317838 -10 0  0.04721641150060663 -10 0  0.02360820575030331 -10 0  0 -9.972067039106145 0  0 -9.94413407821229 0  0 -9.916201117318435 0  0 -9.888268156424582 0  0 -9.860335195530727 0  0 -9.832402234636872 0  0 -9.804469273743017 0  0 -9.776536312849162 0  0 -9.748603351955307 0  0 -9.720670391061452 0  0 -9.692737430167599 0  0 -9.664804469273744 0  0 -9.636871508379889 0  0 -9.608938547486034 0  0 -9.581005586592179 0  0 -9.553072625698324 0  0 -9.525139664804469 0  0 -9.497206703910614 0  0 -9.46927374301676 0  0 -9.441340782122905 0  0 -9.41340782122905 0  0 -9.385474860335195 0  0 -9.35754189944134 0  0 -9.329608938547485 0  0 -9.30167597765363 0  0 -9.273743016759777 0  0 -9.245810055865922 0  0 -9.217877094972067 0  0 -9.189944134078212 0  0 -9.162011173184357 0  0 -9.134078212290502 0  0 -9.106145251396647 0  0 -9.078212290502794 0  0 -9.050279329608939 0  0 -9.022346368715084 0  0 -8.994413407821229 0  0 -8.966480446927374 0  0 -8.938547486033519 0  0 -8.910614525139664 0  0 -8.882681564245811 0  0 -8.854748603351956 0  0 -8.826815642458101 0  0 -8.798882681564246 0  0 -8.770949720670391 0  0 -8.743016759776536 0  0 -8.715083798882681 0  0 -8.687150837988828 0  0 -8.659217877094973 0  0 -8.631284916201118 0  0 -8.603351955307263 0  0 -8.575418994413408 0  0 -8.547486033519553 0  0 -8.519553072625698 0  0 -8.491620111731844 0  0 -8.463687150837989 0  0 -8.435754189944134 0  0 -8.407821229050279 0  0 -8.379888268156424 0  0 -8.351955307262569 0  0 -8.324022346368714 0  0 -8.296089385474861 0  0 -8.268156424581006 0  0 -8.240223463687151 0  0 -8.212290502793296 0  0 -8.184357541899441 0  0 -8.156424581005586 0  0 -8.128491620111731 0  0 -8.100558659217878 0  0 -8.072625698324023 0  0 -8.044692737430168 0  0 -8.016759776536313 0  0 -7.988826815642458 0  0 -7.960893854748603 0  0 -7.932960893854748 0  0 -7.905027932960894 0  0 -7.877094972067039 0  0 -7.849162011173184 0  0 -7.82122905027933 0  0 -7.793296089385475 0  0 -7.76536312849162 0  0 -7.737430167597765 0  0 -7.709497206703911 0  0 -7.681564245810056 0  0 -7.653631284916202 0  0 -7.625698324022347 0  0 -7.597765363128492 0  0 -7.569832402234637 0  0 -7.541899441340782 0  0 -7.513966480446927 0  0 -7.486033519553073 0  0 -7.458100558659218 0  0 -7.430167597765363 0  0 -7.402234636871508 0  0 -7.374301675977653 0  0 -7.346368715083798 0  0 -7.318435754189944 0  0 -7.290502793296089 0  0 -7.262569832402235 0  0 -7.23463687150838 0  0 -7.206703910614525 0  0 -7.17877094972067 0  0 -7.150837988826815 0  0 -7.12290502793296 0  0 -7.094972067039106 0  0 -7.067039106145251 
[...]
<PointData  Scalars="pressure"> 
<DataArray  type="Float64"  Name="pressure"  format="ascii">-4.6349316036955063e-14  2.2240039938067626e-14  2.0409589363223341e+02  -5.6378030360394641e+03  -3.4525705098158121e-13  -1.6549763978791859e-13  6.2957579110880766e-14  3.8436366303999000e-14  4.2867039509008575e-14  -1.7168272756760855e-13  -2.5182593236770583e-15  -7.9578058005226370e-14  9.9482859695711571e-14  2.9195921108264056e-13  -6.2619612462221795e-13  4.1229803228443817e-13  2.1781359615972655e-13  -3.0247523365333850e-13  3.2861572219282499e-13  -6.1058172045108531e-13  -4.6307807542053792e-13  7.2591557981759005e-14  -1.6409294262843184e-13  -5.6909719499110339e-13  -1.3600505564176047e-13  2.3876208137401179e-13  -5.4845663443728642e-14  1.0424522237329625e-14  -7.3316384308772393e-14  1.4712238310167681e-13  -2.0458428678196558e-13  -8.0179720215865279e-14  1.7071039748065165e-13  -4.0267362791798822e-13  -6.0124290931687303e-13  7.0265722010910699e-13  1.0637524910262340e-12  1.0940811177872890e-12  7.9247991477755288e-13  -1.2974503953082457e-13  2.2132526730061458e-12  -6.5898988292430038e-14  -8.8756245618288569e-13  1.0279295621677099e-12  8.0688273261618284e-13  -2.5084215451584699e-12  -4.7725519920764355e-13  3.9961258956289084e-13  5.7875234127018701e-13  2.9835430232433899e-13  -7.4501127279084426e-14  -3.6555114978615079e-13  -9.1048517761838826e-13  -1.9709141195412787e-13  0.0000000000000000e+00  1.0893703670674919e-12  2.9636165355062159e-13  -2.0248422241991631e-13  -2.0806439946921676e-12  5.3178802286136943e-13  9.4396103185511265e-13  -1.5314922086397334e-13  1.2862855921790607e-12  8.8454091795314326e-13  -1.8841371744372298e-13  1.7405649451145554e-12  -1.5470641658959761e-13  -4.3567301809021319e-15  2.8224491630178622e-12  1.4468376387114520e-12  4.5970794800720325e-13  -4.2765811962262020e-13  7.9599702040789425e-13  1.7218845066972530e-12  4.0138844107109024e-13  1.2835669876011427e-12  1.4144005265644099e-13  7.7767339827444238e-13  6.6525175394130541e-13  1.4825724995336678e-13  4.9349353209862306e-13  -7.7314354906909812e-14  -7.2541699636326978e-13  -5.0457098856481925e-13  1.5755826142766260e-12  -3.7602907426074159e-13  6.6641100714571610e-13  -1.2674038476927318e-13  1.1099374843837290e-13  -5.4722435475142889e-13  3.5308591045922311e-14  2.4765721999152670e-13  1.3207571757221266e-12  -2.6879346899392058e-13  -4.1494286035643761e-13  6.1570540542144632e-13  1.3130021266889083e-13  2.2886075156880304e-13  -6.3175050864753562e-14  1.1344971317636868e-13  -2.6163601793687521e-13  1.1828012963264602e-13  2.2431315860303114e-14  7.4619386280004183e-14  2.2173290320182729e-13  -4.2948770969220020e-14  -1.7343823928203349e-13  -3.8033080561656066e-13  1.8726976484920095e-13  1.0491288323025681e-13  -1.9421109941573550e-14  6.0409186774969425e-13  3.1643603595511732e-13  -1.5067214809902448e-13  -7.8521631655310205e-14  -1.7584938404420990e-13  5.1397455372602468e-14  -1.3253534819140498e-13  -4.6949518759748274e-14  9.8960184164920643e-14  -4.5368319741655008e-14  0.0000000000000000e+00  -7.1927006505218127e-14  2.7039332387755551e-14  5.2828372392233680e-14  6.7270953044112500e-13  2.1651038796469963e-13  3.1715040868996526e-14  2.0556871682491233e-13  1.6051419270550766e-13  6.0564817850740385e-14  5.9076155435279580e-14  -1.9217379694850464e-13  -2.7700459487408297e-13  1.5349262854421302e-13  1.2155372485493873e-13  0.0000000000000000e+00  2.2309671341237019e-13  -1.0425105793263910e-13  7.0910887971039039e-15  -6.4333083383358022e-14  4.0178759794165501e+02  4.8946184267763545e+02  4.8933332403063594e+02  4.7582036084557342e+02  4.6883823755728076e+02  4.6102719019610930e+02  4.5176506174501253e+02  4.4239121167870667e+02  4.3395821049958215e+02  4.2522338521888241e+02  4.1537780991157035e+02  4.0550510907983994e+02  3.9567855091580884e+02  3.8507956775566367e+02  3.7498470970921898e+02  3.6440550311613418e+02  3.5206103201967278e+02  3.3992019200252679e+02  3.2838421344902576e+02  3.1706912357618438e+02  3.0295891726552270e+02  2.8719854668340093e+02  2.7314261593178213e+02  2.5979506417913876e+02  2.5003179944108496e+02  2.3965626023610895e+02  2.2157019958617212e+02  2.0389165152092065e+02  2.0008542111104111e+02  1.9887959347957494e+02  2.0663830670274339e+02  2.0970375711376198e+02  2.1334495414647739e+02  2.2097507267787344e+02  2.2660791397086467e+02  2.3636316656915474e+02  2.4950461341884144e+02  2.6062420637054964e+02  2.8205445327047414e+02  3.0720978407964816e+02  3.3338432459406295e+02  3.6071790997559600e+02  3.9219629972870149e+02  4.2602753382424385e+02  4.6414908838969615e+02  5.0337662427871078e+02  5.4987349563970804e+02  5.9955254586140677e+02  6.5297895831518053e+02  7.0635145986002055e+02  7.6138675589716195e+02  8.2006223173238709e+02  8.8450941552045572e+02  9.4654780976643281e+02  1.0122816238097972e+03  1.0768946212967849e+03  1.1430072181394519e+03  1.2051657318529215e+03  1.2681167203412292e+03  1.3271529718523796e+03  1.3851391002250330e+03  1.4382945675341862e+03  1.4886775820681867e+03  1.5330182131486979e+03  1.5735608879268284e+03  1.6062005513650320e+03  1.6283768274373542e+03  1.6404492510766170e+03  1.6462049977635702e+03  1.6444306422257787e+03  1.6334431987383525e+03  1.6138305763988772e+03  1.5844416042224057e+03  1.5462154652362560e+03  1.4977758039723226e+03  1.4417095185746491e+03  1.3758652802824706e+03  1.2995977815422975e+03  1.2076134233391822e+03  1.1103134492444426e+03  1.0046972974214895e+03  8.9130459560878910e+02  7.6363525716827758e+02  6.3175888601068732e+02  4.9058184614389501e+02  3.4831761401539598e+02  1.9724026467723232e+02  4.5785441325445063e+01  -1.1405697598033153e+02  -2.7315876241388071e+02  -4.3975270988698895e+02  -6.0402335411021102e+02  -7.7456973228353024e+02  -9.4167297382945765e+02  -1.1139145105218709e+03  -1.2816574135190388e+03  -1.4533802483890911e+03  -1.6193778602894433e+03  -1.7883151215197486e+03  -1.9507108858685594e+03  -2.1149542361692183e+03  -2.2719882713556140e+03  -2.4299512410711891e+03  -2.5805661579882808e+03  -2.7313871721748847e+03  -2.8744921330087923e+03  -3.0173652529616625e+03  -3.1516402113997219e+03  -3.2855182697639980e+03  -3.4119414495403730e+03  -3.5370907674534674e+03  -3.6543539195803428e+03  -3.7702026568398710e+03  -3.8788700383854357e+03  -3.9857691189012885e+03  -4.0853631563594872e+03  -4.1830126031557320e+03  -4.2736306725084360e+03  -4.3625862653534350e+03  -4.4453282008651167e+03  -4.5260986250809447e+03  -4.6008830261571857e+03  -4.6737461520900497e+03  -4.7411003922941263e+03  -4.8065373764196493e+03  -4.8668570184231703e+03  -4.9252611733336262e+03  -4.9788028759539948e+03  -5.0303903381138707e+03  -5.0774212512440472e+03  -5.1229651855915172e+03  -5.1646728087031661e+03  -5.2049988942835280e+03  -5.2418894083887917e+03  -5.2772301928311790e+03  -5.3092650562942890e+03  -5.3399236416818703e+03  -5.3677144588594265e+03  -5.3942274572046408e+03  -5.4181965566833060e+03  -5.4409946274505546e+03  -5.4615623812437480e+03  -5.4810331594233339e+03  -5.4984811946635436e+03  -5.5149268369330966e+03  -5.5296063668500774e+03  -5.5433662149245092e+03  -5.5555783459603090e+03  -5.5669751860577571e+03  -5.5770445534399896e+03  -5.5863634748877676e+03  -5.5945167042495432e+03  -5.6019955656303073e+03  -5.6083738332309840e+03  -5.6140963018076391e+03  -5.6189274358386238e+03  -5.6232372409490044e+03  -5.6268525271433527e+03  -5.6299447985034085e+03  -5.6324051583514774e+03  -5.6343953864877049e+03  -5.6358487633765681e+03  -5.6368723821845142e+03  -5.6374935203644918e+03  -5.6363136865088209e+03  -5.6324585946604666e+03  -5.6262974712994437e+03  -5.6181301926107162e+03  -5.6081194552056331e+03  -5.5964514971765211e+03  -5.5833642275537077e+03  -5.5689849823446184e+03  -5.5534827679238533e+03  -5.5370382905468441e+03  -5.5198047168274816e+03  -5.5019094423189626e+03  -5.4834682125999443e+03  -5.4645915352495304e+03  -5.4453859710198631e+03  -5.4259451335843569e+03  -5.4063554592749797e+03  -5.3866820506118329e+03  -5.3669900169454822e+03  -5.3473381042093461e+03  -5.3277864623450469e+03  -5.3083918657110353e+03  -5.2892019022094692e+03  -5.2702432552072778e+03  -5.2515409054736601e+03  -5.2331333366942808e+03  -5.2150415461983857e+03  -5.1972927429358588e+03  -5.1799030500141907e+03  -5.1628803640962869e+03  -5.1462177623780372e+03  -5.1299422608938785e+03  -5.1140637698913524e+03  -5.0985798108612489e+03  -5.0835020761254573e+03  -5.0688287915280334e+03  -5.0545739935580114e+03  -5.0407313663850300e+03  -5.0272942828011201e+03  -5.0142722503261411e+03  -5.0016571093500424e+03  -4.9894532617650621e+03  -4.9776663831243732e+03  -4.9662909155943707e+03  -4.9553577977061359e+03  -4.9448388377596530e+03  -4.9346644188610580e+03  -4.9249199885365351e+03  -4.9156134180809286e+03  -4.9067006661891864e+03  -4.8981948134256963e+03  -4.8900940338486480e+03  -4.8823978007787573e+03  -4.8751065888228932e+03  -4.8682161129805199e+03  -4.8617302666361029e+03  -4.8556434403403155e+03  -4.8499572980247149e+03  -4.8446688928277717e+03  -4.8397745676387385e+03  -4.8352736846066273e+03  -4.8311682657547735e+03  -4.8274720619813988e+03  -4.8241730778909914e+03  -4.8212625269409691e+03  -4.8187514922547925e+03  -4.8166333340795909e+03  -4.8149113155689838e+03  -4.8135821535889982e+03  -4.8126497877641341e+03  -4.8121149047828494e+03  -4.8119817238071555e+03  -4.8122506438896780e+03  -4.8129173046974702e+03  -4.8139858445039727e+03  -4.8154573567152829e+03  -4.8173394427894091e+03  -4.8196216210315024e+03  -4.8222947188150310e+03  -4.8253710313239590e+03  -4.8288538105319840e+03  -4.8327424950404811e+03  -4.8370475664729256e+03  -4.8417622616189255e+03  -4.8468486793191705e+03  -4.8523572525747650e+03  -4.8582763801309393e+03  -4.8646156817855435e+03  -4.8713797681559545e+03  -4.8785628468405876e+03  -4.8861654143984442e+03  -4.8941853375659339e+03  -4.9026304185392701e+03  -4.9115020358221782e+03  -4.9208040232521325e+03  -4.9305354751795558e+03  -4.9406940840472753e+03  -4.9512853219560366e+03  -4.9623159906649616e+03  -4.9737913713220050e+03  -4.9857256971222851e+03  -4.9981129127562199e+03  -5.0109503787549720e+03  -5.0242489252463529e+03  -5.0380091944913611e+03  -5.0522322432958408e+03  -5.0669154318258579e+03  -5.0820648116698458e+03  -5.0976901515199179e+03  -5.1137969019142820e+03  -5.1304042806046928e+03  -5.1475004673349513e+03  -5.1650795366712437e+03  -5.1831599124497779e+03  -5.2017404989756669e+03  -5.2208309154941753e+03  -5.2404421317546075e+03  -5.2605675143751541e+03  -5.2812114120979086e+03  -5.3023887317375456e+03  -5.3240966326771459e+03  -5.3463556752969507e+03  -5.3691559092406769e+03  -5.3925146084625767e+03  -5.4164361752909135e+03  -5.4409205510037300e+03  -5.4659838357472536e+03  -5.4916276564511491e+03  -5.5178707581616536e+03  -5.5447086282790870e+03  -5.5721328893713635e+03  -5.6001714810782069e+03  -5.6288244997764996e+03  -5.6581006680648497e+03  -5.6880158012660449e+03  -5.7185785142527238e+03  -5.7498055348113312e+03  -5.7817034879776693e+03  -5.8142415844053530e+03  -5.8474746273240116e+03  -5.8814004665000693e+03  -5.9160021447902018e+03  -5.9513650851748534e+03  -5.9874548898798012e+03  -6.0242289819993075e+03  -6.0617668133246598e+03  -6.1000640707620414e+03  -6.1391362898747720e+03  -6.1789957006076502e+03  -6.2196502895961057e+03  -6.2610901301453159e+03  -6.3033582508429399e+03  -6.3464405084668124e+03  -6.3903817259299340e+03  -6.4351927488019692e+03  -6.4808825134234639e+03  -6.5275194414802463e+03  -6.5750584711669089e+03  -6.6234439122652602e+03  -6.6727947350981267e+03  -6.7230917745986226e+03  -6.7743677512333143e+03  -6.8266398357759845e+03  -6.8799407374231523e+03  -6.9342555364501259e+03  -6.9896123665777768e+03  -7.0460343086943803e+03  -7.1035182230650516e+03  -7.1621773656177656e+03  -7.2219833378693556e+03  -7.2828642030965411e+03  -7.3449235212421991e+03  -7.4082524504541107e+03  -7.4728227156092880e+03  -7.5385779930301769e+03  -7.6056720138283636e+03  -7.6740235831891105e+03  -7.7436994330450816e+03  -7.8147376219184134e+03  -7.8871323056724814e+03  -7.9609934366711814e+03  -8.0363304501095281e+03  -8.1130006257095483e+03  -8.1912316862131120e+03  -8.2710606427659059e+03  -8.3524227134600151e+03  -8.4354628652160263e+03  -8.5201530079522672e+03  -8.6064790557852029e+03  -8.6945669768166390e+03  -8.7844319635754764e+03  -8.8760907900042876e+03  -8.9695720530282888e+03  -9.0649457661065098e+03  -9.1622547090600074e+03  -9.2615498642800030e+03  -9.3628807111134829e+03  -9.4662749740634208e+03  -9.5717812338452768e+03  -9.6794831824402117e+03  -9.7894107385860625e+03  -9.9016244739569811e+03  -1.0016177505674312e+04  -1.0133150287878098e+04  -1.0252601631014206e+04  -1.0374573583565469e+04  -1.0499174074439701e+04  -1.0626460635739068e+04  -1.0756547205637646e+04  -1.0889475414184672e+04  -1.1025316716059710e+04  -1.1164158781556947e+04  -1.1305966557394244e+04  -1.1450960726315911e+04  -1.1599182444653954e+04  -1.1750783924580872e+04  -1.1905729887058262e+04  -1.2064223463226168e+04  -1.2226252446712324e+04  -1.2391970817497378e+04  -1.2561731348031604e+04  -1.2735382122097782e+04  -1.2913050729716670e+04  -1.3094895974378491e+04  -1.3281050607696236e+04  -1.3471690675598793e+04  -1.3666927380158066e+04  -1.3866898374391301e+04  -1.4071766675818237e+04  -1.4281737573263863e+04  -1.4496899357140124e+04  -1.4717446303054579e+04  -1.4943557882723131e+04  -1.5175461726728143e+04  -1.5413283116939401e+04  -1.5657202653202081e+04  -1.5907531090478329e+04  -1.6164417264379526e+04  -1.6428445568690386e+04  -1.6699473728587316e+04  -1.6977000373447008e+04  -1.7262346069861251e+04  -1.7556112398054007e+04  -1.7857845845952106e+04  -1.8167944477834822e+04  -1.8486826048986637e+04  -1.8814874144020028e+04  -1.9152366692029915e+04  -1.9499609175097692e+04  -1.9857102853728964e+04  -2.0225306274092785e+04  -2.0604591495732057e+04  -2.0995209206228123e+04  -2.1397857466777928e+04  -2.1812977078620916e+04  -2.2241085358805958e+04  -2.2682872014101042e+04  -2.3138811197149957e+04  -2.3609825972341401e+04  -2.4096259950196520e+04  -2.4598785100476340e+04  -2.5118164597519837e+04  -2.5655161967090022e+04  -2.6210849841413026e+04  -2.6786097591419089e+04  -2.7381722664248740e+04  -2.7998753452508252e+04  -2.8638422832269251e+04  -2.9302058015325823e+04  -2.9990640760551101e+04  -3.0705225237593339e+04  -3.1447678009176670e+04  -3.2219580963397857e+04  -3.3022338736571422e+04  -3.3858100739098896e+04  -3.4728550595239511e+04  -3.5635182958137368e+04  -3.6580997839977557e+04  -3.7567206384149380e+04  -3.8598081482444330e+04  -3.9674280789548706e+04  -4.0801105758297963e+04  -4.1979722463961851e+04  -4.3215820113115966e+04  -4.4512527976024801e+04  -4.5874259337706768e+04  -4.7304677569054533e+04  -4.8809743631033751e+04  -5.0397929178534345e+04  -5.2073352327653716e+04  -5.3839735822958704e+04  -5.5709630853373252e+04  -5.7684602057115728e+04  -5.9779346959204689e+04  -6.2004694264602222e+04  -6.4372059573760584e+04  -6.6898264522081372e+04  -6.9596767285527094e+04  -7.2460746458988171e+04  -7.5531991549007187e+04  -7.8830579153824059e+04  -8.2370694098052845e+04  -8.6182895282405094e+04  -9.0288104067678447e+04  -9.4709609472850294e+04  -9.9484848279105994e+04  -1.0463850212067293e+05  -1.1020246653934894e+05  -1.1622521002013025e+05  -1.2272390710417478e+05  -1.2971152882694737e+05  -1.3721629042279642e+05  -1.4521245538423193e+05  -1.5368164467958885e+05  -1.6251620154901384e+05  -1.7156241355554946e+05  -1.8050884697483401e+05  -1.8885947233622987e+05  -1.9570790411958919e+05  -1.9978154965723466e+05  -1.9914419129390045e+05  -1.9120785419818477e+05  -1.7068240332001087e+05  -1.2136975752066076e+05  9.5067260359462725e+03  2.5103445019896550e+05  4.2298835898928705e+05  5.1435294304182392e+05  4.9833298539868754e+05  3.4551634059778898e+05  2.5668326525078501e+05  2.1353783083003000e+05  1.8304798812557795e+05  1.5773998546744679e+05  1.3622208021706404e+05  1.1795684526657448e+05  1.0233535862001451e+05  8.8693506685248663e+04  7.6536224557661917e+04  6.5584329544547363e+04  5.5652638550624601e+04  4.6617078650025695e+04  3.8394301790517966e+04  3.0931610081475799e+04  2.4206443380319379e+04  1.8207560243348747e+04  1.2934175667034351e+04  8.3916871919846653e+03  4.5955870845120453e+03  1.5445301658538749e+03  -7.7262811297672670e+02  -2.3649124450192444e+03  -3.2704500370038818e+03  -3.5377167523527933e+03  -3.2422819062369454e+03  -2.4775125747924867e+03  -1.3415145896766137e+03  -7.5442474984130095e+03  -6.3589448120700299e+03  -9.3600340920307335e+03  -5.6280038861795274e+03  -1.1931495401656863e+04  -1.5870404976052894e+04  -2.1839106962261594e+04  -5.1999618746011993e+03  -4.9400721335746166e+03  -4.8282204629343296e+03  -3.0666909083025213e+04  -4.8160531001528907e+03  -4.4468620466775501e+04  -7.3063666693081876e+04  5.5757838567166527e+03  -9.7331992345317997e+02  -1.2819015569071728e+05  -4.8679102268116594e+03  -4.9779855747725114e+03  -2.5764992557930041e+03  8.4669009201369445e+03  -3.8589623628557674e+03  1.0640514599141668e+04  -4.7262796745885289e+03  1.3948865175196763e+04  5.5476515287904033e+02  -5.1134652542236945e+03  -1.8647975163284043e+05  -1.3640483833812008e+04  -5.9382109690466377e+03  -1.0499483482539092e+04  -6.8294000366759947e+03  -8.4199922196657735e+03  3.5254809135065648e+03  -5.2230969610911543e+03  6.6038045579908649e+03  1.4602509991391794e+03  1.9514017534886717e+05  2.5584005291183689e+03  -5.2900052862443808e+03  -4.8710726829614841e+03  -2.5627186898505497e+04  -5.0369353405933161e+03  -1.8800652889391040e+04  -5.3698061484852897e+03  -5.4541611717264132e+03  -1.7568067929323371e+02  1.5085747259586947e+03  1.5434061794099512e+03  5.7362691822677531e+04  1.1865571883006030e+03  -5.4438960454986400e+03  9.9570904091378441e+02  -2.2130783481825770e+03  8.3584811013199999e+02  7.3566121136086440e+02  7.4175325927377053e+03  -5.5715665429175015e+03  3.4397167740570445e+05  -4.9152297510677181e+03  -9.4192745015070323e+04  -4.8346756557594726e+03  -5.7987725576243407e+04  -4.8117144748447363e+03  -3.7483338101579888e+04  -7.1493578239961880e+03  -7.9537279446261255e+03  5.4895916814068687e+02  3.9910652223908278e+02  6.2464531805113927e+02  1.4077055552886735e+04  3.7390672509796042e+02  -5.5502883253839100e+03  5.6148332192322846e+02  2.8242742494360937e+02  5.1671874162973597e+02  -1.9314432018544339e+03  -5.6164940588899035e+03  3.2633785059358746e+02  1.3885733407278074e+03  1.2556553013736204e+03  1.5579883487032862e+03  2.0142091180520158e+03  3.0281031954437194e+03  1.0270382534882413e+03  4.5734741091426922e+03  -3.2065130041350869e+02  -1.9367958822672833e+03  9.6564772057294413e+03  -3.3899447203893046e+03  1.1678102545342719e+04  -4.4333155630781303e+03  -5.0695724074458976e+03  9.7259399016394946e+03  2.6172987160279945e+03  -5.3591301662583564e+03  -2.0787933444399669e+03  -5.5241353451408422e+03  4.5161833812026964e+02  -5.3672860318492139e+03  -4.9029015837994069e+02  -5.2127540904145126e+03  1.0682596547625601e+05  -5.0553451964511150e+03  -1.7394425880867793e+05  -4.9970199472322252e+04  -4.8166023979042293e+03  -3.3762274624285528e+04  -4.8467768513990595e+03  -4.9019856693146839e+03  -2.3569528141024362e+04  -2.7964891441999644e+04  -4.9845165355470890e+03  -5.0965367926926547e+03  -1.7545851738082252e+04  -2.0213656711139040e+04  -1.4922074285015329e+04  -5.2779409643069012e+03  -5.4651116217049221e+03  -1.2884893977714964e+04  -5.7488168313156484e+03  -6.0989079117375422e+03  -1.1333985329193207e+04  -1.0024418483583786e+04  -6.5149420672969518e+03  -8.9671007643385419e+03  -5.6096365523902432e+03  -2.0851787068422418e+03  2.7600996310510720e+02  -5.6288671285366136e+03  4.9832595711639152e+02  2.5854040792811571e+02  -3.1315908692044659e+03  5.1198449776527622e+02  2.6748640222523369e+02  3.1784405152228373e+02  3.3684913396479806e+02  3.6185273749485202e+02  3.8512648062134161e+02  4.0418192966565670e+02  4.2992243431808328e+02  3.8380257414564363e+02  4.2069781488179552e+02  4.0501722983187597e+02  3.7125