<?xml version="1.0"?>
<VTKFile type="UnstructuredGrid"  version="0.1"  >
<UnstructuredGrid>
<Piece  NumberOfPoints="1691" NumberOfCells="3204">
<Points>
<DataArray  type="Float64"  NumberOfComponents="3"  format="ascii">0 0 0  30 0 0  30 -10 0  0 -10 0  0.1391574078963744 0 0  0.2856388821882616 0 0  0.4398299073010886 0 0  0.6021362569539473 0 0  0.7729850389704483 0 0  0.9528258543586996 0 0  1.142131984380316 0 0  1.34140159760994 0 0  1.551159074717981 0 0  1.771956417032531 0 0  2.004374674080994 0 0  2.249025475789527 0 0  2.506552636773105 0 0  2.777633857742732 0 0  3.062982518028728 0 0  3.363349525995907 0 0  3.679525322337712 0 0  4.01234195575742 0 0  4.362675247811097 0 0  4.731447135329707 0 0  5.119628065610077 0 0  5.528239565804708 0 0  5.958356943167011 0 0  6.411112081475485 0 0  6.887696441559404 0 0  7.389364184530748 0 0  7.917435485335147 0 0  8.473300005202017 0 0  9.058420557070402 0 0  9.674336929103793 0 0  10.32266995225095 0 0  11.00512576896296 0 0  11.72350030646412 0 0  12.47968402994705 0 0  13.27566689579597 0 0  14.1135435963616 0 0  14.9955190732806 0 0  15.92391430904694 0 0  16.90117245730496 0 0  17.92986524844506 0 0  19.01269976086341 0 0  20.15252556282024 0 0  21.35234220269763 0 0  22.61530708683689 0 0  23.94474379751883 0 0  25.34415086349739 0 0  26.81721093579712 0 0  28.3678004819169 0 0  30 -1.111111111111111 0  30 -2.222222222222222 0  30 -3.333333333333333 0  30 -4.444444444444445 0  30 -5.555555555555555 0  30 -6.666666666666666 0  30 -7.777777777777777 0  30 -8.888888888888889 0  28.36780047917311 -10 0  26.8172109305839 -10 0  25.34415085606858 -10 0  23.94474378810899 -10 0  22.61530707566275 -10 0  21.3523421899591 -10 0  20.15252554870171 -10 0  19.01269974553473 -10 0  17.92986523206254 -10 0  16.90117244001232 -10 0  15.92391429097614 -10 0  14.99551905455266 -10 0  14.11354357708742 -10 0  13.27566687607703 -10 0  12.47968400987599 -10 0  11.72350028612546 -10 0  11.00512574843363 -10 0  10.32266993160086 -10 0  9.674336908396342 -10 0  9.058420536362949 -10 0  8.473299984546333 -10 0  7.917435464777824 -10 0  7.389364164113587 -10 0  6.887696420787165 -10 0  6.411112061446698 -10 0  5.95835692337857 -10 0  5.528239546282652 -10 0  5.119628046377237 -10 0  4.731447115907979 -10 0  4.362675229213632 -10 0  4.012341937260036 -10 0  3.679525304434552 -10 0  3.363349508456405 -10 0  3.062982500861274 -10 0  2.777633840953978 -10 0  2.506552620368097 -10 0  2.249025459771861 -10 0  2.004374658452946 -10 0  1.771956401795187 -10 0  1.551159059871345 -10 0  1.341401583153029 -10 0  1.142131970307521 -10 0  0.9528258406748833 -10 0  0.7729850256685147 -10 0  0.6021362439621285 -10 0  0.4398298947504031 -10 0  0.2856388700059078 -10 0  0.1391573960769001 -10 0  0 -9.855072463768115 0  0 -9.710144927536232 0  0 -9.565217391304348 0  0 -9.420289855072463 0  0 -9.27536231884058 0  0 -9.130434782608695 0  0 -8.985507246376812 0  0 -8.840579710144928 0  0 -8.695652173913043 0  0 -8.55072463768116 0  0 -8.405797101449275 0  0 -8.260869565217391 0  0 -8.115942028985508 0  0 -7.971014492753623 0  0 -7.826086956521739 0  0 -7.681159420289855 0  0 -7.536231884057971 0  0 -7.391304347826087 0  0 -7.246376811594203 0  0 -7.101449275362318 0  0 -6.956521739130435 0  0 -6.811594202898551 0  0 -6.666666666666667 0  0 -6.521739130434783 0  0 -6.376811594202898 0  0 -6.231884057971015 0  0 -6.086956521739131 0  0 -5.942028985507246 0  0 -5.797101449275362 0  0 -5.652173913043478 0  0 -5.507246376811594 0  0 -5.36231884057971 0  0 -5.217391304347826 0  0 -5.072463768115941 0  0 -4.927536231884058 0  0 -4.782608695652174 0  0 -4.637681159420289 0  0 -4.492753623188406 0  0 -4.347826086956522 0  0 -4.202898550724638 0  0 -4.057971014492754 0  0 -3.913043478260869 0  0 -3.768115942028985 0  0 -3.623188405797101 0  0 -3.478260869565217 0  0 -3.333333333333334 0  0 -3.188405797101449 0  0 -3.043478260869565 0  0 -2.898550724637681 0  0 -2.753623188405797 0  0 -2.608695652173912 0  0 -2.463768115942029 0  0 -2.318840579710145 0  0 -2.173913043478261 0  0 -2.028985507246377 0  0 -1.884057971014492 0  0 -1.739130434782609 0  0 -1.594202898550725 0  0 -1.44927536231884 0  0 -1.304347826086957 0  0 -1.159420289855072 0  0 -1.014492753623188 0  0 -0.8695652173913047 0  0 -0.72463768115942 0  0 -0.579710144927537 0  0 -0.4347826086956523 0  0 -0.2898550724637676 0  0 -0.1449275362318829 0  0.1309460514202492 -4.990980414828784 0  0.1171526873513358 -5.869565217391296 0  0.1344252986967795 -6.716855800502001 0  0.1221309018586645 -4.161899358592938 0  0.1166997684017801 -3.25954604704229 0  4.961569127360256 -0.3118894787216622 0  4.923897360678746 -9.687537149351071 0  0.1228405945134021 -2.536958536012416 0  0.1335945686177435 -7.466846676638523 0  3.206461751753455 -0.2806173508164562 0  3.213166004658842 -9.746377676274168 0  0.1155250883680452 -8.186784073011673 0  0.1359204609538445 -1.804202625344072 0  6.662432263484016 -9.600124945047963 0  6.631056521209421 -0.3942868763482545 0  2.126700074935258 -0.2065769621215452 0  2.120437876630353 -9.808537401472012 0  8.761385473272522 -9.4914222957189 0  8.786076048231736 -0.4923064159810888 0  0.1195911345135556 -8.749677128895598 0  0.1117474302775605 -1.230589418769438 0  11.3907841305612 -9.402816705944797 0  11.36435727088349 -0.618365439918426 0  1.211504568109637 -0.1471532661956818 0  1.239596144827807 -9.832618358594059 0  13.75158625181508 -9.315497816134139 0  13.7500399625954 -0.6902569910160397 0  0.131402377539402 -3.696772604078816 0  0.1204853385030979 -6.307560917781178 0  0.1346483804691658 -4.550944754283819 0  0.1255109280847009 -5.434782608695652 0  16.39894095075685 -9.180198571581517 0  16.44068234362399 -0.8166544577416346 0  0.1255109280847009 -0.7971014492753632 0  0.1162877148651766 -9.206770243020259 0  19.56645066956165 -9.043742294716539 0  29.11731382843969 -5.098539983867493 0  19.50527862123305 -0.9323941524176265 0  23.28904960561395 -8.8608997858633 0  0.6875606479622149 -0.1442604037134076 0  0.6875606348153145 -9.855739596611892 0  23.37074358394081 -1.15131614182933 0  10.00852704311311 -9.475417469395781 0  10.01049631493635 -0.5545437343697674 0  7.639131123468924 -9.543000896765111 0  7.693537846067955 -0.4574302764599576 0  5.733194300659633 -9.66079268774309 0  5.731454990332523 -0.3687808037058806 0  3.803630689980224 -9.686555789708486 0  3.834043646352164 -0.2754981925697493 0  2.618022704128803 -9.787800068206256 0  2.634320277618269 -0.2392104743186785 0  1.65952286941916 -9.813294854785646 0  1.665360553377539 -0.1820878093930922 0  0.1365068028365961 -1.543352471920677 0  0.1128108295274224 -8.471115901500411 0  0.1249192863256123 -0.5070564851587012 0  0.1172626025927563 -9.49200175151447 0  0.1255109280847009 -2.101449275362318 0  0.1255109280847009 -7.898550724637682 0  0.1247535864599936 -2.824177050114505 0  0.1155424837078822 -7.17494363557847 0  26.05192393553612 -8.777856070543081 0  26.00031291598836 -1.159065252957426 0  0.3627343947446455 -0.1301950113519217 0  0.3690141220077834 -9.868919517536135 0  28.90574865438674 -7.135369011630129 0  29.02069681040884 -2.861993939893059 0  0.1397555488250113 -0.2163338956475025 0  0.1255109280847009 -9.782608695652172 0  24.67098979274125 -8.799958058548517 0  23.93395881668722 -7.700959994796646 0  22.61396570077244 -7.764517377391733 0  23.2032949615693 -6.630776985250927 0  21.94857473380583 -6.690613342424633 0  24.50398505507967 -6.535933305198952 0  22.51489076809043 -5.580432145971667 0  21.29537841406989 -5.639199768252479 0  21.84985259542567 -4.547213342284197 0  20.65342988351128 -4.619546679988924 0  20.11277906893955 -5.663225279336593 0  19.49454290958806 -4.673886314669294 0  18.97860072994828 -5.624185949902217 0  18.40383886642446 -4.729683279047542 0  17.90575400337286 -5.630456854950327 0  17.35903168001753 -4.836859475002379 0  16.91444903556046 -5.680257663405808 0  16.36114434035519 -4.898890029095359 0  15.89440836794127 -5.835214594829282 0  15.41608945577568 -4.979845093198404 0  14.9809818125648 -5.732909169427192 0  14.51777858619734 -4.988431190461874 0  14.14039496103406 -5.776391085527889 0  13.67321261031888 -5.031745046943032 0  13.26988611760758 -5.891550007816156 0  12.85732927991246 -5.095735823822261 0  12.46423889659403 -5.760519953635332 0  12.07741841933393 -5.116608846746942 0  11.73131647445202 -5.75987862647932 0  11.35222911621012 -5.158061768105265 0  11.01225658271747 -5.784828178519854 0  10.65393216495117 -5.205808407572067 0  10.33042159780337 -5.788944717060055 0  9.98551374198097 -5.24118342090078 0  9.687616112021921 -5.812725728827915 0  9.357518717034999 -5.284717467130579 0  9.08157001076583 -5.820057568121996 0  8.766199932316585 -5.320212662582848 0  8.494748056481422 -5.830095453943056 0  8.194406727465122 -5.347802431655208 0  7.942610344706003 -5.833678024304247 0  7.660825631728443 -5.380025954369014 0  7.416702921751611 -5.83684433397813 0  7.147290851157173 -5.413787279190068 0  6.91632006965034 -5.851605397483334 0  6.658527053286988 -5.437627383845131 0  6.441897327469297 -5.862220684948111 0  6.194860224019926 -5.464520225953867 0  5.988748643021736 -5.866336295550595 0  5.755042825355586 -5.482399938780632 0  5.555770501455733 -5.867908174086599 0  5.334991086231989 -5.504761241472904 0  5.145076642106908 -5.873191062890511 0  4.935013388047023 -5.544035964184449 0  4.754345788811499 -5.880090917794126 0  4.554437025256316 -5.569020251233177 0  4.382470744799432 -5.88665007327689 0  4.192208958329529 -5.585677590398814 0  4.029485566904095 -5.896175760774888 0  4.354949258143058 -5.270074521138358 0  4.004482386201769 -5.289207815434526 0  4.158655721068861 -4.98145486433833 0  3.821444856080801 -5.001169872115685 0  3.97033944278737 -4.700814034221719 0  3.642688047138773 -4.720140385706738 0  3.788830742180677 -4.426816067812119 0  3.467446796449556 -4.450112744784491 0  3.325275354457695 -4.730293981808933 0  3.158439978631689 -4.466074367009679 0  3.294707394527546 -4
[...]
<PointData  Scalars="pressure"> 
<DataArray  type="Float64"  Name="pressure"  format="ascii">5.8133389322297885e-12  5.9790756454142928e-13  5.9269622136232510e+02  -1.5710127589439711e+04  0.0000000000000000e+00  -7.9568454738323584e-12  -2.0064689388240163e-12  -1.1624856556552866e-11  4.1848360061035996e-12  2.9796005173379842e-12  -2.9482813984830271e-12  -3.8789939410315007e-12  8.0721701044282371e-12  1.1469688121234015e-11  -2.1875906051738729e-12  2.1625272169219618e-12  8.4941376843611592e-13  3.8182022151677117e-12  -5.1419210205539221e-12  -2.3078035969052633e-12  -4.8277093173743474e-12  4.6615134511142696e-13  6.8498051047660490e-12  -4.6615465684420742e-12  2.7244868445954782e-12  5.4802841296031907e-13  -1.0327161528875268e-12  -3.0092504007625460e-12  1.8853730225394630e-12  1.7792219092128760e-12  1.0212607673165678e-12  2.7119732885171166e-13  2.0373664182843567e-12  -2.1191865653070736e-13  3.0145675315651486e-13  -2.3523845502398977e-13  -4.7100980739614661e-13  -4.9738866760958289e-13  -1.8019876878725839e-13  6.6414649030538976e-13  7.4198255543286157e-13  -1.4432679777463936e-13  1.3192909373889580e-13  1.1832913825143628e-13  7.3596232957416455e-13  1.2019095437632884e-13  2.7559358773066499e-13  -3.1680483001816503e-13  8.2222338538534348e-14  -2.1001709987337320e-13  4.6674549757828692e-13  1.1378523329882925e-13  1.5241319015083754e+03  1.2929933570093826e+03  1.2717101290813512e+03  1.1747685853273592e+03  1.0720972319761520e+03  9.6674067399599869e+02  8.5960198574084279e+02  7.3137918007231599e+02  5.8961619647824307e+02  5.9624367728592722e+02  6.1244537887237811e+02  6.4255284115827476e+02  7.4579914246281953e+02  8.7680001144445680e+02  1.0099362622908134e+03  1.2210375515082753e+03  1.4998721183066546e+03  1.8086858120483364e+03  2.1587845950331280e+03  2.5497110641139116e+03  2.9663676193698047e+03  3.3923187928696311e+03  3.8003783549983036e+03  4.1841701405672757e+03  4.5082634954350633e+03  4.7155998540068485e+03  4.7913891136109232e+03  4.7391610655776267e+03  4.5435719922316166e+03  4.1742451543246862e+03  3.6422514916379041e+03  2.9532589038055858e+03  2.1039979759373887e+03  1.0996196620055869e+03  -1.8234248172886858e+01  -1.2064368187698678e+03  -2.4395744821477592e+03  -3.7014636883735029e+03  -4.9686147607819221e+03  -6.2142359917379190e+03  -7.4204762158572439e+03  -8.5620918973959888e+03  -9.6256008631062068e+03  -1.0602676954928134e+04  -1.1489703297211357e+04  -1.2281190484308614e+04  -1.2977149657075761e+04  -1.3580314205067798e+04  -1.4094791813659827e+04  -1.4525386397492101e+04  -1.4876384335887851e+04  -1.5155165268319000e+04  -1.5370675499677769e+04  -1.5528035079307767e+04  -1.5632186930992950e+04  -1.5688933217885457e+04  -1.5669961350052847e+04  -1.5559699161403925e+04  -1.5390199049670608e+04  -1.5181700253759538e+04  -1.4955170379538607e+04  -1.4728928564756028e+04  -1.4517322225896647e+04  -1.4327374006605223e+04  -1.4164569014389923e+04  -1.4033051783729306e+04  -1.3932837887315749e+04  -1.3863765453971399e+04  -1.3826613299777098e+04  -1.3820372489458699e+04  -1.3845104934340729e+04  -1.3901246107577987e+04  -1.3988847357834393e+04  -1.4109062465434879e+04  -1.4262098480956789e+04  -1.4450157133967690e+04  -1.4675780202893795e+04  -1.4940709321236529e+04  -1.5242807210981920e+04  -1.5589629911094442e+04  -1.5980448523570927e+04  -1.6418766829787412e+04  -1.6908404977768994e+04  -1.7453569494985335e+04  -1.8059202603114471e+04  -1.8728765595812562e+04  -1.9468711876980964e+04  -2.0284805040336949e+04  -2.1192475103582696e+04  -2.2187254688492754e+04  -2.3290702948073576e+04  -2.4514986661822622e+04  -2.5869849169694440e+04  -2.7366979231546480e+04  -2.9027394002814486e+04  -3.0882584522797864e+04  -3.2969655447054727e+04  -3.5287383000055306e+04  -3.7898068544659181e+04  -4.0852703565335323e+04  -4.4202290943118802e+04  -4.8024806454856596e+04  -5.2419367419718896e+04  -5.7511610342775508e+04  -6.3430871791361424e+04  -7.0344045658781135e+04  -7.8584599056241830e+04  -8.8518457931267578e+04  -1.0056049570307083e+05  -1.1515588677226051e+05  -1.3236366345481444e+05  -1.5091599947695539e+05  -1.6678239905880706e+05  -1.7426924966935659e+05  -1.6563526977404833e+05  -1.3446600537431025e+05  -8.0725985451046974e+04  -1.2638541114218040e+04  5.4901805911101059e+04  1.0605270651298227e+05  1.2994768044666700e+05  1.2476755824899104e+05  9.6100039475308382e+04  5.2365881211004300e+04  -2.2750180310787800e+04  -1.7727321682718291e+04  -1.5115414826572594e+04  -3.1367785862997291e+04  -4.9986673228593405e+04  1.1522820338787624e+04  -1.8814208467989502e+03  -8.2613425797218821e+04  -1.4028114035098853e+04  2.1314774304941911e+04  -7.9765698649931155e+03  -1.3830846199126774e+04  -1.5718729348565024e+05  2.4091741332441256e+03  8.0946766508380815e+03  2.6124840856877407e+04  -1.1876381387763053e+04  4.4518316163923828e+03  5.3022657659819788e+03  -1.4210639193026549e+04  -1.0764898612087127e+05  4.2301172111896085e+03  3.3952806322884185e+03  2.1787414566116968e+04  -1.4280772236219762e+04  3.1449276680152107e+03  2.3486090979200731e+03  -3.9154231428474086e+04  -1.6166235297379706e+04  -2.6674205912042289e+04  -1.9837624225081490e+04  2.0691343192374957e+03  1.9456063439860866e+03  8.1008936355963771e+04  -1.4835792573055767e+04  1.2594296290029331e+03  1.1150351589528252e+03  1.7824012136745291e+03  8.6442223297978558e+02  2.9246502892505279e+04  -1.5233987917588009e+04  1.7742942157981786e+03  4.6025335556552263e+03  4.2807395140552953e+03  3.7115168246189951e+03  6.7629506383621292e+03  4.2459204444958851e+02  1.0331663524193178e+04  -5.7589523012200889e+03  1.6067989256737681e+04  -1.0175300376437306e+04  2.3768089059959795e+04  -1.3247853347590240e+04  2.6269049494693711e+04  -1.6968873458840945e+05  -1.3965149252518044e+04  1.2746725906025145e+05  -1.5276024676803492e+04  -1.2181358545275658e+05  -1.3817068474480171e+04  -6.6426860072681098e+04  -1.4338784561658407e+04  7.6241078083274977e+02  1.6623580384083562e+03  3.8918571982713554e+04  -1.5551451722271564e+04  9.2298486060765310e+02  1.2403081192037109e+03  7.3246166766160139e+04  -1.5608220514351124e+04  8.0348590909900838e+02  1.0503750529903805e+03  1.1418593368149664e+03  1.1802859072382496e+03  1.2857374193892535e+03  1.1022562601576285e+03  1.3349494817567247e+03  1.4404600013625038e+03  1.5051196986491764e+03  1.6003651422585551e+03  1.5962336503390584e+03  1.7610882666356856e+03  1.7853839987493798e+03  1.9257209473698251e+03  1.9783465723168031e+03  2.0980266446731498e+03  2.1948173241430309e+03  2.3324542005975422e+03  2.4601867813087379e+03  2.6005588009082589e+03  2.7199588145283778e+03  2.8663609665615954e+03  2.9722952099671243e+03  3.1287637735232393e+03  3.2271296536566238e+03  3.3828964668189838e+03  3.4531992105343647e+03  3.6127258211818298e+03  3.6360736136159676e+03  3.8109751039269231e+03  3.7883571571751431e+03  3.9670907044907249e+03  3.8777455551274679e+03  4.0546583321057128e+03  3.8694335138285996e+03  4.0555466764416656e+03  3.7734508355412859e+03  3.9743980974941246e+03  3.5848764378375104e+03  3.7998322368056606e+03  3.3047899383795880e+03  3.5133713665757809e+03  2.9098106979425334e+03  3.0956642830918258e+03  2.3790757900324134e+03  2.5520352328048725e+03  1.7310867608273898e+03  1.8660871976634621e+03  9.7169238942722552e+02  1.0682908370787247e+03  1.0566220570464031e+02  1.4103932680279459e+02  -8.6577671652556398e+02  -9.4225254921648764e+02  -1.9426323795326641e+03  -2.1249808102770303e+03  -3.1114826458538691e+03  -3.3952646954198999e+03  -4.3448559960302700e+03  -2.3039283438237021e+03  -3.6708102288270193e+03  -2.4585841240410145e+03  -3.9328550620392639e+03  -2.5713318974484469e+03  -4.1864701436741861e+03  -2.6347842975859344e+03  -4.4600432320295222e+03  -5.9366901101180420e+03  -6.4419638413772600e+03  -4.7926836995765852e+03  -7.7888352350865553e+03  -7.0477883226536642e+03  -5.2002360891056160e+03  -7.7222185817890486e+03  -5.6038012997972810e+03  2.1180696869174794e+03  -8.5753123933083789e+03  -6.1531315405683017e+03  -3.3980470291967467e+03  -1.0451924213448381e+04  -9.2890787673020750e+03  -6.6525784723086927e+03  -3.9827267378569336e+03  -5.1653195316709744e+03  -1.0042716849334260e+04  -7.0351850053360167e+03  -1.1287941341056379e+04  -7.4895469546636295e+03  -1.3977911409992590e+04  -4.7513208880532902e+03  -5.8773619614217114e+03  -3.2984968797468359e+03  -1.2545044559850190e+04  -7.0600192350192056e+03  -1.3877837605212182e+04  -8.3838742959889460e+03  3.8258888818171640e+03  -5.4218872941025338e+03  -6.4912784231974820e+03  -1.5313000506313378e+04  -2.1041821188780337e+04  -8.5436479014413617e+03  -2.5017649863953652e+03  -6.0126915004750726e+03  -7.0325950174070049e+03  -7.5448337587903679e+03  -8.0239309314975171e+03  -8.5712068125064907e+03  -8.9723946346237535e+03  -9.5097234043342560e+03  -9.8546914720074856e+03  -1.0386404464383690e+04  -1.0643286904003176e+04  -1.1180162967062464e+04  -1.0173824776222569e+04  -1.0885727367823982e+04  -4.9881754443723148e+03  -1.0463454186804336e+04  -1.1120795764113398e+04  1.4650749853152575e+02  -1.0751996712529477e+04  -1.1364275068149216e+04  -1.1709468088477826e+04  -1.0991411512177379e+04  -1.1743335280694655e+04  -1.1634245457352326e+04  -1.2389688123637856e+04  -1.2328135727345007e+04  -1.3143740835735443e+04  -1.3110854316183822e+04  -1.6779004827053079e+04  -8.7888738500214458e+03  -1.1909109370404783e+04  -1.1625443400838889e+04  -1.3158344917027023e+04  -7.5295932497790091e+03  -1.0272444265734650e+03  -1.3948199194236682e+04  -1.3973562391205467e+04  -1.8694197493168194e+04  -1.2121133367542119e+04  -1.1900013042558903e+04  -1.2222684998587671e+04  -8.3528910090402878e+03  4.3463233420908846e+03  -1.4811332386070402e+04  -1.4922342395314459e+04  -1.2349614486249475e+04  -1.9844021068293056e+04  -1.1440236682010023e+04  -3.0071154325348580e+04  -1.2193258434881513e+04  -1.1730775623440806e+04  -6.4445838499853089e+03  3.7180033690558521e+03  -1.5771436682740044e+04  -1.5977459713160400e+04  -1.2603499240825355e+04  -2.0381171604787538e+04  2.3234807715890811e+03  -1.5565391140964553e+04  -1.6828821432439454e+04  -1.7145475404863202e+04  -3.2451429814440630e+03  -1.6154622148947507e+04  -1.7420909959352844e+04  -1.2500388398567815e+04  -1.2875641881192309e+04  -1.8489458738840782e+04  -1.8873014269045158e+04  -1.2753695177797379e+04  -2.0191795989373328e+04  -1.7621045468346547e+04  -1.9206437697614838e+04  -2.0502366955432044e+04  -2.0990694011947093e+04  4.0413319927665102e+03  -1.2820312247738253e+04  -1.3173464560739480e+04  -2.2445585159791153e+04  -2.3052614548558118e+04  2.1163554883928837e+03  -1.6479540646486435e+04  3.4920001795651410e+03  -2.1393820593278437e+04  -2.3588228135445308e+04  -4.0032355139215972e+04  -2.5331842007147083e+04  -2.6094966799529531e+04  -2.1651890345378946e+04  -2.7865704485381142e+04  -2.8924870319609283e+04  1.0727154693212462e+04  2.4654556441555855e+04  -6.7520116668273349e+03  -1.3168607861900158e+04  -1.2781090179998433e+04  -1.3496929878912657e+04  -1.0078480890164097e+04  -1.3472031672676707e+04  -6.3716169831868328e+03  -2.6752864362091281e+04  -1.3764960875885114e+04  -1.3835951664551485e+04  3.5569106085613466e+03  3.7775328192256097e+03  -2.1634809396022109e+04  -5.5676163001376408e+03  -4.5497478430520114e+03  -5.1057251252789947e+03  -4.0849257725107077e+03  -4.6063121162278849e+03  -3.5865502104308871e+03  -3.0768372435334954e+03  -2.5621525310876882e+03  -5.6334872781062832e+03  -5.1164452485408792e+03  -6.1346509034531200e+03  2.7016687504605652e+03  2.3371410883566969e+04  1.1081428325909414e+04  -2.5237219568974597e+04  -2.6764871086927327e+04  -2.9891818584860666e+04  -3.2153985974996143e+04  -3.3572901752716207e+04  -3.0651118732732943e+04  -3.4708681762821878e+04  -3.7825955017058543e+04  -3.9463963679114786e+04  -1.7738536338228467e+04  3.5357178618829444e+03  -2.0773775710435357e+03  -1.5700493599142346e+03  -1.1146990745681637e+03  -6.2070513814407673e+02  -2.9109552599512049e+03  -7.1572602696364065e+03  -8.8617048066404677e+03  -9.1135214054658707e+02  -1.3991109544239454e+04  -1.6211155012314222e+04  -2.0401368938048898e+02  2.6807142439034959e+02  -3.1119837910252856e+04  -2.7323404819231320e+04  -3.9879941208196865e+03  -1.3173755116098844e+04  -1.2749865255231920e+04  -1.6093282036187591e+04  -2.9262682104112559e+04  3.9835004417043812e+04  3.6639762850078499e+04  4.7400163548740544e+04  -4.2627944208478853e+04  -4.4896744621021848e+04  -4.0857785219976562e+04  -4.7008313035802086e+04  -1.4075244062671332e+04  -1.4183366708332338e+04  -1.3713305627058138e+04  -8.1406460096818164e+03  -2.7935908007891361e+04  -4.0458211457265068e+04  -3.0513566716753007e+03  -9.6790905023719752e+03  -8.9237615511671356e+03  -5.6203223093990755e+03  -6.6461484684690950e+03  -7.0938632897127627e+03  -7.6265830018900197e+03  2.8463017955105256e+03  -5.1390170476998755e+04  -5.4481388164637574e+04  -4.8480838304855533e+04  -5.6785442462148836e+04  6.2440710771410761e+02  1.0784628327226444e+03  -1.1951847802309550e+04  2.0514489646803440e+03  -1.3475336773612353e+04  1.4299017535511418e+03  -1.4399122224237544e+04  -9.6260552556062212e+03  -1.3679697296606771e+04  -1.3497470191767839e+04  -7.1760267501279950e+03  -8.1548276239514762e+03  -8.5535217713317979e+03  -9.0637861484232144e+03  -9.3794521218838872e+03  -9.8991141368836579e+03  1.3888963733980722e+03  1.8183685705045941e+03  2.0637418648172361e+03  2.4521776165347833e+03  5.5652912458108302e+04  6.2305880041008524e+04  3.8038129408890556e+04  -1.3173913085737877e+04  -1.2712277455675689e+04  -1.2239245767818184e+04  -1.0305470639391488e+03  -6.3449915626219037e+04  -6.6979601522289842e+04  -1.4684006044024234e+04  -2.7081070393195685e+04  -1.0303613438491513e+04  -9.5189068333478990e+03  -1.4529286642007111e+04  -1.4284414675694141e+04  -1.0416993284727059e+04  -1.4263925455913117e+04  -1.2153016624336577e+04  -4.9002402419937971e+04  -9.1556963002872162e+03  2.6303680177964870e+03  2.9717264686615981e+03  -1.7740475076834427e+03  -1.4719755786765094e+04  -7.5564112807773918e+03  -3.0313463630799892e+04  -2.8753147395473999e+04  -2.6698583230198885e+04  2.0137284756814915e+03  -9.6308081452929000e+03  -1.3667793388518385e+04  -1.3533103025674056e+04  -4.1654301865017689e+04  -4.5085775276475171e+04  -4.2345568356960066e+04  -1.5281232396608568e+03  8.0512754398506775e+02  1.5312804074233031e+03  -8.9365137073238675e+03  -1.4329224771986943e+04  -1.5856853974614751e+04  -7.4279390020265229e+04  -7.9638135041355315e+04  -6.9653268184348490e+04  -8.4114006726967127e+04  -7.0388756183754580e+04  -8.6077990718635017e+04  -1.0228877392699401e+05  -1.0543725195311703e+05  7.3803919947345756e+04  -2.3706045217125549e+04  -1.0113485971505022e+04  -6.8512594290105684e+04  3.0739847244312582e+03  3.3642015108414275e+03  3.4065729702864960e+03  3.6498328516668471e+03  -6.8001422310881389e+04  -4.0160372737682635e+04  8.0864979722555538e+04  -8.7967947240288995e+04  -1.1658337280196594e+04  -1.1526029536699371e+04  2.2258377773814723e+03  1.0350029707604072e+03  -1.4642223419861424e+04  -1.2089018977883699e+04  -1.2570606054468466e+04  -1.2661955342120264e+04  -1.2977995977968598e+04  -1.3032183064458839e+04  -1.3315724237287421e+04  -1.3322817916866648e+04  -1.3631363925256925e+04  -1.3694601310916272e+04  -1.3329418184250873e+04  -1.3971051148521698e+04  -1.4091965417426063e+04  -1.3892083800887645e+04  -1.4410174909233705e+04  -1.4527432963669617e+04  -1.4231497265468166e+04  -1.4723878875820705e+04  -1.5013842981937878e+04  -1.5270758397989432e+04  -1.3357827072301947e+04  -1.4946452207111102e+04  -1.5554046633660721e+04  -1.5850314618876677e+04  -1.6206653941087081e+04  -1.6459920361808556e+04  -1.6895388660805529e+04  -1.6591645256627391e+04  -1.7372649544422635e+04  -1.7645498925659995e+04  -1.8224660205739343e+04  -1.7882549609666723e+04  -1.8824866140693128e+04  -1.3106453869929835e+04  -1.3366781162703284e+04  -1.9137222862652259e+04  -1.9842067169358899e+04  -1.9475728727115631e+04  -2.0601961914232252e+04  -2.0906915415335552e+04  -2.1817357758405964e+04  -1.6067096240845822e+04  -1.3827244079098620e+04  -7.7397152213052450e+03  -6.7050274417431965e+03  -1.4362237819350023e+04  -1.3188321294678944e+04  -2.0174285863507168e+04  -1.1179048858460495e+04  4.1999820127633247e+04  -1.3764148600668874e+04  -1.5254362312734835e+04  -1.6624874908031179e+04  -1.3560718849563767e+04  -1.3568186996464658e+04  -1.3733227940878976e+04  -1.3718443212722950e+04  -1.3679225491001111e+04  -1.1784882269294809e+04  2.8250966845502567e+03  -1.5184333967003822e+04  -1.4539157441404031e+04  -3.1971196544167000e+04  -3.2918567226797881e+04  -4.1462719574424236e+03  -1.3605129386807324e+04  -2.7323382044590639e+04  -2.5517838871765685e+04  3.6407995403604054e+03  3.8246086778369649e+03  -1.1648917317903970e+04  1.6588182896614928e+03  -3.4864621840693617e+04  -1.2502872792546730e+04  -1.3350069252445986e+04  1.6824591410900985e+02  3.3697899502634468e+03  3.7643149852013007e+03  3.8811982381329249e+03  3.7886028294654693e+03  3.8438759914324223e+03  -8.3189113985093388e+02  7.1410383609739745e+02  1.2290351443690183e+03  2.6282486780640174e+03  3.5013830805625694e+03  4.6807541975910926e+03  5.9785722578112054e+03  6.8320090993157055e+03  8.5243046162189439e+03  9.0095126429607863e+03  7.3464228684400623e+03  9.2151218177398605e+03  7.6074871417009163e+03  9.2145557560125362e+03  1.1014447512186949e+04  1.0661200787638962e+04  7.6872702982280034e+03  9.0370241865019088e+03  1.3483242005128284e+04  1.3409330019697334e+04  7.6346701083569769e+03  8.7142188379366216e+03  7.4479670645373071e+03  8.2778238728626002e+03  1.6512959537068498e+04  1.6662541313616388e+04  1.5995645514860258e+04  1.0694259724175527e+04  7.1255794608817841e+03  7.7856272891659837e+03  6.7564842611325903e+03  7.2340938698620566e+03  1.2902147654869750e+04  1.6395556519157391e+04  2.0951191773476978e+04  2.0908411227841916e+04  6.0339258484354332e+03  6.3637729342800740e+03  6.7246296916387146e+03  5.9695377698379862e+03  1.9401374090354817e+04  1.8207301602358006e+04  9.4815163508464575e+03  6.1451089494804173e+03  2.5829555712320263e+04  2.6056046380387019e+04  2.0628741085727015e+04  2.6582569550039039e+04  1.9640060736759551e+03  6.4724031390298333e+03  5.5240613844530681e+03  5.5741345070540146e+03  3.2767592599140906e+04  3.3752918353166438e+04  4.5359568036676756e+03  1.1829501024944666e+04  5.8882738282834634e+03  8.2782904598232199e+03  2.5824799147429188e+04  3.3588743017879977e+04  5.0733787733481231e+03  5.0162172404569419e+03  4.6375367580331349e+03  6.4289645543765964e+03  4.1651374883375560e+04  4.2506731874451056e+04  4.5051807638391556e+03  2.1862904013472242e+04  2.0045613998300531e+04  4.2321132958842854e+03  4.0332242501985320e+03  1.6858859685612872e+04  2.3433861300441564e+04  6.2139480588603519e+03  3.8310127042987388e+03  3.6101608111214478e+03  3.4732708101817552e+03  1.7391425120247099e+04  4.9470537802064246e+03  4.8510923642852918e+04  5.0889644434150199e+04  4.2000871581311651e+04  5.1512162409035322e+04  4.5126688435221688e+04  1.8463757862799510e+04  1.5390509624807284e+04  9.1040594564308467e+03  7.2990538333360955e+03  5.3278838610455186e+03  1.6690041492960496e+04  1.4013471839202444e+04  9.8974654097439561e+03  3.9504015897860998e+04  3.0517203279012679e+03  4.9939765886538789e+03  4.9602150810056963e+04  5.7291482386276482e+04  5.6707098686174511e+04  2.3702078877905526e+04  2.5390350791611745e+04  2.8109827279819601e+04  3.2470749162069210e+03  3.1402586598689963e+03  2.8829345874855408e+03  -1.0103089954768875e+04  -5.4237240554560965e+04  -1.3146654299755544e+04  -1.4761531465093185e+04  -3.1192379214386263e+04  -2.6253997428246195e+04  -4.5879390079853183e+03  -5.0817264446459349e+03  -4.0071879482625445e+03  -4.4817556264772156e+03  -1.2350218791586938e+05  -1.2636691601130196e+05  -1.0169894894047483e+05  -1.1766679873675457e+05  9.8575086641600981e+04  8.6531918628135885e+04  3.5985741715017875e+03  -2.48