<?xml version="1.0"?>
<VTKFile type="UnstructuredGrid"  version="0.1"  >
<UnstructuredGrid>
<Piece  NumberOfPoints="1691" NumberOfCells="3204">
<Points>
<DataArray  type="Float64"  NumberOfComponents="3"  format="ascii">0 0 0  30 0 0  30 -10 0  0 -10 0  0.1391574078963744 0 0  0.2856388821882616 0 0  0.4398299073010886 0 0  0.6021362569539473 0 0  0.7729850389704483 0 0  0.9528258543586996 0 0  1.142131984380316 0 0  1.34140159760994 0 0  1.551159074717981 0 0  1.771956417032531 0 0  2.004374674080994 0 0  2.249025475789527 0 0  2.506552636773105 0 0  2.777633857742732 0 0  3.062982518028728 0 0  3.363349525995907 0 0  3.679525322337712 0 0  4.01234195575742 0 0  4.362675247811097 0 0  4.731447135329707 0 0  5.119628065610077 0 0  5.528239565804708 0 0  5.958356943167011 0 0  6.411112081475485 0 0  6.887696441559404 0 0  7.389364184530748 0 0  7.917435485335147 0 0  8.473300005202017 0 0  9.058420557070402 0 0  9.674336929103793 0 0  10.32266995225095 0 0  11.00512576896296 0 0  11.72350030646412 0 0  12.47968402994705 0 0  13.27566689579597 0 0  14.1135435963616 0 0  14.9955190732806 0 0  15.92391430904694 0 0  16.90117245730496 0 0  17.92986524844506 0 0  19.01269976086341 0 0  20.15252556282024 0 0  21.35234220269763 0 0  22.61530708683689 0 0  23.94474379751883 0 0  25.34415086349739 0 0  26.81721093579712 0 0  28.3678004819169 0 0  30 -1.111111111111111 0  30 -2.222222222222222 0  30 -3.333333333333333 0  30 -4.444444444444445 0  30 -5.555555555555555 0  30 -6.666666666666666 0  30 -7.777777777777777 0  30 -8.888888888888889 0  28.36780047917311 -10 0  26.8172109305839 -10 0  25.34415085606858 -10 0  23.94474378810899 -10 0  22.61530707566275 -10 0  21.3523421899591 -10 0  20.15252554870171 -10 0  19.01269974553473 -10 0  17.92986523206254 -10 0  16.90117244001232 -10 0  15.92391429097614 -10 0  14.99551905455266 -10 0  14.11354357708742 -10 0  13.27566687607703 -10 0  12.47968400987599 -10 0  11.72350028612546 -10 0  11.00512574843363 -10 0  10.32266993160086 -10 0  9.674336908396342 -10 0  9.058420536362949 -10 0  8.473299984546333 -10 0  7.917435464777824 -10 0  7.389364164113587 -10 0  6.887696420787165 -10 0  6.411112061446698 -10 0  5.95835692337857 -10 0  5.528239546282652 -10 0  5.119628046377237 -10 0  4.731447115907979 -10 0  4.362675229213632 -10 0  4.012341937260036 -10 0  3.679525304434552 -10 0  3.363349508456405 -10 0  3.062982500861274 -10 0  2.777633840953978 -10 0  2.506552620368097 -10 0  2.249025459771861 -10 0  2.004374658452946 -10 0  1.771956401795187 -10 0  1.551159059871345 -10 0  1.341401583153029 -10 0  1.142131970307521 -10 0  0.9528258406748833 -10 0  0.7729850256685147 -10 0  0.6021362439621285 -10 0  0.4398298947504031 -10 0  0.2856388700059078 -10 0  0.1391573960769001 -10 0  0 -9.855072463768115 0  0 -9.710144927536232 0  0 -9.565217391304348 0  0 -9.420289855072463 0  0 -9.27536231884058 0  0 -9.130434782608695 0  0 -8.985507246376812 0  0 -8.840579710144928 0  0 -8.695652173913043 0  0 -8.55072463768116 0  0 -8.405797101449275 0  0 -8.260869565217391 0  0 -8.115942028985508 0  0 -7.971014492753623 0  0 -7.826086956521739 0  0 -7.681159420289855 0  0 -7.536231884057971 0  0 -7.391304347826087 0  0 -7.246376811594203 0  0 -7.101449275362318 0  0 -6.956521739130435 0  0 -6.811594202898551 0  0 -6.666666666666667 0  0 -6.521739130434783 0  0 -6.376811594202898 0  0 -6.231884057971015 0  0 -6.086956521739131 0  0 -5.942028985507246 0  0 -5.797101449275362 0  0 -5.652173913043478 0  0 -5.507246376811594 0  0 -5.36231884057971 0  0 -5.217391304347826 0  0 -5.072463768115941 0  0 -4.927536231884058 0  0 -4.782608695652174 0  0 -4.637681159420289 0  0 -4.492753623188406 0  0 -4.347826086956522 0  0 -4.202898550724638 0  0 -4.057971014492754 0  0 -3.913043478260869 0  0 -3.768115942028985 0  0 -3.623188405797101 0  0 -3.478260869565217 0  0 -3.333333333333334 0  0 -3.188405797101449 0  0 -3.043478260869565 0  0 -2.898550724637681 0  0 -2.753623188405797 0  0 -2.608695652173912 0  0 -2.463768115942029 0  0 -2.318840579710145 0  0 -2.173913043478261 0  0 -2.028985507246377 0  0 -1.884057971014492 0  0 -1.739130434782609 0  0 -1.594202898550725 0  0 -1.44927536231884 0  0 -1.304347826086957 0  0 -1.159420289855072 0  0 -1.014492753623188 0  0 -0.8695652173913047 0  0 -0.72463768115942 0  0 -0.579710144927537 0  0 -0.4347826086956523 0  0 -0.2898550724637676 0  0 -0.1449275362318829 0  0.1309460514202492 -4.990980414828784 0  0.1171526873513358 -5.869565217391296 0  0.1344252986967795 -6.716855800502001 0  0.1221309018586645 -4.161899358592938 0  0.1166997684017801 -3.25954604704229 0  4.961569127360256 -0.3118894787216622 0  4.923897360678746 -9.687537149351071 0  0.1228405945134021 -2.536958536012416 0  0.1335945686177435 -7.466846676638523 0  3.206461751753455 -0.2806173508164562 0  3.213166004658842 -9.746377676274168 0  0.1155250883680452 -8.186784073011673 0  0.1359204609538445 -1.804202625344072 0  6.662432263484016 -9.600124945047963 0  6.631056521209421 -0.3942868763482545 0  2.126700074935258 -0.2065769621215452 0  2.120437876630353 -9.808537401472012 0  8.761385473272522 -9.4914222957189 0  8.786076048231736 -0.4923064159810888 0  0.1195911345135556 -8.749677128895598 0  0.1117474302775605 -1.230589418769438 0  11.3907841305612 -9.402816705944797 0  11.36435727088349 -0.618365439918426 0  1.211504568109637 -0.1471532661956818 0  1.239596144827807 -9.832618358594059 0  13.75158625181508 -9.315497816134139 0  13.7500399625954 -0.6902569910160397 0  0.131402377539402 -3.696772604078816 0  0.1204853385030979 -6.307560917781178 0  0.1346483804691658 -4.550944754283819 0  0.1255109280847009 -5.434782608695652 0  16.39894095075685 -9.180198571581517 0  16.44068234362399 -0.8166544577416346 0  0.1255109280847009 -0.7971014492753632 0  0.1162877148651766 -9.206770243020259 0  19.56645066956165 -9.043742294716539 0  29.11731382843969 -5.098539983867493 0  19.50527862123305 -0.9323941524176265 0  23.28904960561395 -8.8608997858633 0  0.6875606479622149 -0.1442604037134076 0  0.6875606348153145 -9.855739596611892 0  23.37074358394081 -1.15131614182933 0  10.00852704311311 -9.475417469395781 0  10.01049631493635 -0.5545437343697674 0  7.639131123468924 -9.543000896765111 0  7.693537846067955 -0.4574302764599576 0  5.733194300659633 -9.66079268774309 0  5.731454990332523 -0.3687808037058806 0  3.803630689980224 -9.686555789708486 0  3.834043646352164 -0.2754981925697493 0  2.618022704128803 -9.787800068206256 0  2.634320277618269 -0.2392104743186785 0  1.65952286941916 -9.813294854785646 0  1.665360553377539 -0.1820878093930922 0  0.1365068028365961 -1.543352471920677 0  0.1128108295274224 -8.471115901500411 0  0.1249192863256123 -0.5070564851587012 0  0.1172626025927563 -9.49200175151447 0  0.1255109280847009 -2.101449275362318 0  0.1255109280847009 -7.898550724637682 0  0.1247535864599936 -2.824177050114505 0  0.1155424837078822 -7.17494363557847 0  26.05192393553612 -8.777856070543081 0  26.00031291598836 -1.159065252957426 0  0.3627343947446455 -0.1301950113519217 0  0.3690141220077834 -9.868919517536135 0  28.90574865438674 -7.135369011630129 0  29.02069681040884 -2.861993939893059 0  0.1397555488250113 -0.2163338956475025 0  0.1255109280847009 -9.782608695652172 0  24.67098979274125 -8.799958058548517 0  23.93395881668722 -7.700959994796646 0  22.61396570077244 -7.764517377391733 0  23.2032949615693 -6.630776985250927 0  21.94857473380583 -6.690613342424633 0  24.50398505507967 -6.535933305198952 0  22.51489076809043 -5.580432145971667 0  21.29537841406989 -5.639199768252479 0  21.84985259542567 -4.547213342284197 0  20.65342988351128 -4.619546679988924 0  20.11277906893955 -5.663225279336593 0  19.49454290958806 -4.673886314669294 0  18.97860072994828 -5.624185949902217 0  18.40383886642446 -4.729683279047542 0  17.90575400337286 -5.630456854950327 0  17.35903168001753 -4.836859475002379 0  16.91444903556046 -5.680257663405808 0  16.36114434035519 -4.898890029095359 0  15.89440836794127 -5.835214594829282 0  15.41608945577568 -4.979845093198404 0  14.9809818125648 -5.732909169427192 0  14.51777858619734 -4.988431190461874 0  14.14039496103406 -5.776391085527889 0  13.67321261031888 -5.031745046943032 0  13.26988611760758 -5.891550007816156 0  12.85732927991246 -5.095735823822261 0  12.46423889659403 -5.760519953635332 0  12.07741841933393 -5.116608846746942 0  11.73131647445202 -5.75987862647932 0  11.35222911621012 -5.158061768105265 0  11.01225658271747 -5.784828178519854 0  10.65393216495117 -5.205808407572067 0  10.33042159780337 -5.788944717060055 0  9.98551374198097 -5.24118342090078 0  9.687616112021921 -5.812725728827915 0  9.357518717034999 -5.284717467130579 0  9.08157001076583 -5.820057568121996 0  8.766199932316585 -5.320212662582848 0  8.494748056481422 -5.830095453943056 0  8.194406727465122 -5.347802431655208 0  7.942610344706003 -5.833678024304247 0  7.660825631728443 -5.380025954369014 0  7.416702921751611 -5.83684433397813 0  7.147290851157173 -5.413787279190068 0  6.91632006965034 -5.851605397483334 0  6.658527053286988 -5.437627383845131 0  6.441897327469297 -5.862220684948111 0  6.194860224019926 -5.464520225953867 0  5.988748643021736 -5.866336295550595 0  5.755042825355586 -5.482399938780632 0  5.555770501455733 -5.867908174086599 0  5.334991086231989 -5.504761241472904 0  5.145076642106908 -5.873191062890511 0  4.935013388047023 -5.544035964184449 0  4.754345788811499 -5.880090917794126 0  4.554437025256316 -5.569020251233177 0  4.382470744799432 -5.88665007327689 0  4.192208958329529 -5.585677590398814 0  4.029485566904095 -5.896175760774888 0  4.354949258143058 -5.270074521138358 0  4.004482386201769 -5.289207815434526 0  4.158655721068861 -4.98145486433833 0  3.821444856080801 -5.001169872115685 0  3.97033944278737 -4.700814034221719 0  3.642688047138773 -4.720140385706738 0  3.788830742180677 -4.426816067812119 0  3.467446796449556 -4.450112744784491 0  3.325275354457695 -4.730293981808933 0  3.158439978631689 -4.466074367009679 0  3.294707394527546 -4
[...]
<PointData  Scalars="pressure"> 
<DataArray  type="Float64"  Name="pressure"  format="ascii">4.7304552299717324e-12  1.8684611391919665e-13  4.8802438640054692e+02  -1.3718510066909743e+04  -1.5008480119819427e-12  -1.9892113684580896e-13  2.5764945216792158e-12  -2.9544595912503925e-12  3.1386270045776997e-12  2.7220147556449082e-12  7.9100232642227556e-12  6.2063903056504012e-12  1.2484404309699351e-11  -2.1765324548965881e-12  6.6110279483508062e-12  4.8656862380744138e-12  -2.0322982016246670e-12  7.2683849397168495e-12  -7.7128815308308836e-12  7.5313388429904160e-12  9.8126631992651944e-12  -8.6386170941083578e-12  2.1043362764849441e-12  -1.6205161540191230e-12  7.0700778320102152e-12  7.6502523782483062e-12  -6.8847743525835119e-13  -2.4297521634785517e-12  5.8239271376873462e-14  0.0000000000000000e+00  1.1549734426534245e-13  1.3606871716329214e-12  1.8726010389322141e-12  -1.9955906784108658e-14  3.0145675315651486e-13  3.7831102227128228e-13  2.1900051947194243e-12  1.6477671870491065e-12  1.8019876878725839e-13  4.7439035021813553e-13  4.4530898767296508e-13  6.3661771179404897e-13  -2.6385818747779160e-13  0.0000000000000000e+00  2.7291435845167493e-13  4.8076381750531537e-13  -9.9942933196691735e-14  -7.9201207504541258e-14  4.4436677237463361e-13  -2.1001709987337320e-13  1.0096288186160953e-13  -1.8304363350118241e-13  1.4028331905293023e+03  1.1177947694640261e+03  1.0714992837006707e+03  9.5415378811533662e+02  9.4842340087669686e+02  7.6438659586915935e+02  7.4373819781652321e+02  6.3762069862140982e+02  4.0677416231393096e+02  3.9868817166518340e+02  3.5623259129691610e+02  3.8177514685150464e+02  4.7234665166893842e+02  5.7507155023898486e+02  7.0306065491157733e+02  8.7614117473365536e+02  1.1308567990642894e+03  1.4021938174805618e+03  1.7199261249766507e+03  2.0831893299181866e+03  2.4778112293714444e+03  2.8826152920919626e+03  3.3014431674166826e+03  3.6535403519487131e+03  4.0385084289805977e+03  4.2544198005328499e+03  4.3218841114535362e+03  4.3428645739709500e+03  4.2075013852281872e+03  3.9558326340791232e+03  3.5033621350720864e+03  2.9453999495934486e+03  2.2362252781923175e+03  1.3389495690293968e+03  3.1114856065524503e+02  -7.1848727622220179e+02  -1.8013623549017998e+03  -2.9075547546780094e+03  -4.0414230298115526e+03  -5.1738730663155038e+03  -6.2457590017306720e+03  -7.2729532653217693e+03  -8.2358961476060958e+03  -9.1227868757860815e+03  -9.9094394235039981e+03  -1.0622428392760206e+04  -1.1255698811059727e+04  -1.1803473611135527e+04  -1.2264267818785967e+04  -1.2651095372687929e+04  -1.2972640453134594e+04  -1.3225507877585624e+04  -1.3407816750324439e+04  -1.3543017954699688e+04  -1.3638860289509545e+04  -1.3697035007297276e+04  -1.3610861655864115e+04  -1.3402715511980301e+04  -1.3148429307969238e+04  -1.2876914101411809e+04  -1.2620964920393804e+04  -1.2389754675739026e+04  -1.2183023010842911e+04  -1.2013035512727647e+04  -1.1869313441416916e+04  -1.1753879802825017e+04  -1.1662898375360077e+04  -1.1598729565356922e+04  -1.1561563429757531e+04  -1.1555846577639815e+04  -1.1574213851730636e+04  -1.1616935261759603e+04  -1.1681863431311329e+04  -1.1774889219928416e+04  -1.1897497593816373e+04  -1.2046631874886461e+04  -1.2227698768839258e+04  -1.2445926456643974e+04  -1.2699618383357867e+04  -1.2979340062207659e+04  -1.3302738448805474e+04  -1.3662209545436115e+04  -1.4061006179772538e+04  -1.4505774188144320e+04  -1.4995731659729496e+04  -1.5548169781998246e+04  -1.6156815629027136e+04  -1.6830685763747504e+04  -1.7560768484123906e+04  -1.8367214930802322e+04  -1.9295614113864085e+04  -2.0293786371912382e+04  -2.1410077487811966e+04  -2.2649889444939850e+04  -2.4022875610453302e+04  -2.5522899679740836e+04  -2.7212510689855404e+04  -2.9126138233832309e+04  -3.1219985941433544e+04  -3.3634898151226225e+04  -3.6337847488290194e+04  -3.9446502953639487e+04  -4.2977721096384419e+04  -4.7003200646073274e+04  -5.1720039194252116e+04  -5.7304868813725268e+04  -6.3825675245168182e+04  -7.1516415305353250e+04  -8.0821413587185787e+04  -9.2248084852417349e+04  -1.0634039764031270e+05  -1.2417211060532473e+05  -1.4728681520690175e+05  -1.7854347442708144e+05  -2.2190397034656405e+05  -2.8724866526969516e+05  -3.9345566117687646e+05  -5.0518744871248171e+05  -3.2309402634244727e+05  4.7944960762574594e+05  7.5613116684590443e+05  2.9443390968778316e+05  7.5278345673068747e+04  3.4315925788892682e+03  -1.8838918884457969e+04  -1.4725888394611129e+04  -1.2590983794456330e+04  -2.5912764636019700e+04  -4.1031079868329274e+04  1.7122237307248266e+04  -1.4475459523758936e+03  -6.6934834216076633e+04  -1.1709782853533919e+04  3.3968092886142542e+04  -6.7337132411211296e+03  -1.1568028691934480e+04  -1.3340170665197092e+05  2.1582719920660161e+03  1.1012053920868517e+04  5.0170129135479729e+04  -1.0190524524240664e+04  3.7611234571798018e+03  6.7450133177777407e+03  -1.1911279488103335e+04  -3.1666573720924760e+05  3.4873041833734346e+03  3.9880995709900958e+03  5.6714229317388097e+04  -1.2351459401486760e+04  2.6250144329460427e+03  2.6518479043113011e+03  -3.2253612580154560e+04  -1.3455329211839442e+04  -2.2070321809809040e+04  -1.6455364554598342e+04  1.7733460483711888e+03  2.1246049011654345e+03  2.2663976758069250e+04  -1.2499714852010511e+04  1.1122332437226187e+03  8.9390327983058046e+02  1.8888994304484722e+03  8.2318325126700552e+02  2.3302665039582327e+04  -1.3220496243209813e+04  1.8150356645438160e+03  3.8367290771951575e+03  5.2304638783116307e+03  3.1725844489709498e+03  8.7975615292943730e+03  4.7899766250766976e+02  1.4399104219802399e+04  -4.7932096123677366e+03  2.5307725826016129e+04  -8.6853508783437319e+03  4.0917166273117924e+04  -1.1420006906773555e+04  5.8584517154894565e+04  -1.8591124548905343e+05  -1.1693145569267868e+04  4.8260638559359446e+05  -1.2999886102777335e+04  -9.7632461445091583e+04  -1.1553520502384663e+04  -5.4138753323225945e+04  -1.1957171487202786e+04  7.4575871792713292e+02  1.7260835559997788e+03  1.5705908983112226e+04  -1.3508474864774786e+04  7.5242504559123859e+02  1.0887000916345635e+03  5.2062524341307319e+04  -1.3503023196535909e+04  7.5624081707564835e+02  8.1711500534714924e+02  8.8395386733019586e+02  9.9544317268213729e+02  1.0830133392147723e+03  9.4476465233497800e+02  1.1254365902322977e+03  1.1896088323493943e+03  1.2002971194383581e+03  1.2953865587869152e+03  1.3520044027085432e+03  1.4561057041700160e+03  1.4918830799387331e+03  1.6114118549576776e+03  1.6413904062616598e+03  1.7650790037229210e+03  1.7907263146170671e+03  1.9583080449490767e+03  2.0377218603868309e+03  2.1827569776299674e+03  2.2436324748417633e+03  2.3958511582355745e+03  2.4527988049802152e+03  2.6248698500389251e+03  2.6970313445331944e+03  2.8104295316742896e+03  2.8467378288778618e+03  3.0211137236734421e+03  3.0115927794802355e+03  3.1766601741497211e+03  3.1525060484199007e+03  3.3160768143068622e+03  3.2272002629956596e+03  3.3980697711263379e+03  3.2307155725272223e+03  3.3638635632916062e+03  3.1477949913963344e+03  3.3075665080958574e+03  2.9701931240181116e+03  3.1672882827405497e+03  2.7595139903460558e+03  2.9103086677105948e+03  2.4337200802976604e+03  2.5762213321574754e+03  1.9825753779541988e+03  2.1296203702136545e+03  1.4366876473097759e+03  1.5506290631386144e+03  7.9693782068601070e+02  8.6181424913940180e+02  7.4335779035751756e+01  1.0327126118794827e+02  -7.2130067906357590e+02  -7.5170718461303750e+02  -1.6149961596028272e+03  -1.7763026993777585e+03  -2.6023532628865100e+03  -2.8524566635523402e+03  -3.6373352367999400e+03  -1.9686226597697287e+03  -3.0967523762189730e+03  -2.1113707698185144e+03  -3.3165614602475412e+03  -2.1776189666854011e+03  -3.5140618906678314e+03  -2.2087001666599795e+03  -3.7308398031307215e+03  -4.9787586153110415e+03  -5.4040994771010546e+03  -4.0153645989550396e+03  -6.5364716663695472e+03  -5.9214372407789497e+03  -4.3835362784346235e+03  -6.4777001873789859e+03  -4.7380698221998127e+03  1.7567777777886529e+03  -7.2745386641539208e+03  -5.2088858894606064e+03  -2.8877867105606970e+03  -8.8357810975266657e+03  -7.8841085231887955e+03  -5.5919338951329792e+03  -3.3294148740125188e+03  -4.3221410746869224e+03  -8.5385734454931553e+03  -5.9334525489018188e+03  -9.6227047058210901e+03  -6.4016177302247743e+03  -1.1877263083751768e+04  -3.9651895161294738e+03  -4.9066412273204141e+03  -2.8439338062278753e+03  -1.0755879818470565e+04  -6.1671047478134960e+03  -1.1978374881500522e+04  -7.3489545624857610e+03  3.1716917438581795e+03  -4.5219962989735886e+03  -5.4169650905061462e+03  -1.3261173153493828e+04  -1.8042490899255979e+04  -7.6242287533236231e+03  -2.4347180654040380e+03  -5.0238836884301872e+03  -5.8776679941140401e+03  -6.2985264521309446e+03  -6.6981602858657234e+03  -7.1441829163958391e+03  -7.4900026621271700e+03  -7.9233024380924653e+03  -8.2248157545261765e+03  -8.6655354922565457e+03  -8.8820674837525166e+03  -9.3328539633741711e+03  -8.4926051553214547e+03  -9.0841004421757771e+03  -4.1693814216823084e+03  -8.7362992568558620e+03  -9.2812716806153312e+03  1.3016568787701294e+02  -8.9810164112240745e+03  -9.4911888043565468e+03  -9.7761478604297754e+03  -9.1856307403675091e+03  -9.8073815644380375e+03  -9.7030692890249102e+03  -1.0319932326861859e+04  -1.0274099245190737e+04  -1.0938117991366038e+04  -1.0890865694408069e+04  -1.4721125571413661e+04  -8.0101791642256467e+03  -9.9505879883835059e+03  -9.7195307688490648e+03  -1.0964342339056569e+04  -6.2872558316912628e+03  -8.6167285413534046e+02  -1.1582740690530969e+04  -1.1607446543910539e+04  -1.6613397349116087e+04  -1.0134515003049097e+04  -9.9559308566231612e+03  -1.0209710792681497e+04  -8.1133163343335664e+03  3.6213947228854190e+03  -1.2300584598561067e+04  -1.2398022359813269e+04  -1.0331343847702929e+04  -1.8188945179891878e+04  -9.5262033743359261e+03  -2.6476600675638612e+04  -1.0203884652580376e+04  -9.8165371751097009e+03  -7.2374564134370139e+03  1.9304436765974108e+03  -1.3101862374981140e+04  -1.3272141470010376e+04  -1.0548271404657749e+04  -1.9775129395195840e+04  1.9527479789987478e+03  -1.2930024659076515e+04  -1.3971065525994376e+04  -1.4236153790917582e+04  -5.5501969697173790e+03  -1.3425295694816921e+04  -1.4472592980185063e+04  -1.0464256473088955e+04  -1.0779281747079218e+04  -1.5345351773252494e+04  -1.5669893810487656e+04  -1.0672217335560481e+04  -2.1180790816379438e+04  -1.4648857487850119e+04  -1.5955050056867605e+04  -1.7008883400241037e+04  -1.7413387164888900e+04  3.3438018343040703e+03  -1.0737782206725402e+04  -1.1036750148146080e+04  -1.8590738659956711e+04  -1.9092795972730873e+04  -2.2985664438842005e+03  -2.1686597035858893e+04  2.9308031094304310e+03  -1.7754321340695577e+04  -1.9545859031979388e+04  -3.9945553800853450e+04  -2.0954576029867028e+04  -2.1601389316640958e+04  -1.7977871667005151e+04  -2.3030116143381078e+04  -2.3919886274127446e+04  3.8527391064719850e+03  1.9644973254818320e+04  -1.9184050694271540e+04  -1.1041419274930924e+04  -1.0714275815194220e+04  -1.1319973249644347e+04  -8.4225472120011655e+03  -1.1290940897818757e+04  -5.3185882547587817e+03  -2.2112590058067828e+04  -1.1547070960509100e+04  -1.1619448899062476e+04  2.9936081340609226e+03  3.1559914517788525e+03  -1.7929812284127478e+04  -4.6605392094031222e+03  -3.8211561886706622e+03  -4.2724081367345643e+03  -3.4172076124107989e+03  -3.8485188943183916e+03  -2.9856790001707409e+03  -2.5627124004677876e+03  -2.1317380581756843e+03  -4.7170286360788368e+03  -4.2772704356247605e+03  -5.1237516648734627e+03  2.2591301811366684e+03  1.5552946354463644e+04  -1.1472922775875701e+04  -5.0703755906218321e+04  -2.2190350992642117e+04  -2.4748517877406695e+04  -2.6556990129959206e+04  -2.7744765695469927e+04  -2.5408788524617736e+04  -2.8737184208721650e+04  -3.1232090740702992e+04  -3.2641774958192491e+04  -1.4759092363407615e+04  2.9510231289580311e+03  -1.7390777570610448e+03  -1.2998001693674769e+03  -9.2537456762042927e+02  -4.8380691976240536e+02  -2.4254995158941588e+03  -6.0057765324949314e+03  -7.4032466416659536e+03  -8.0739010586439929e+02  -1.1629697086279253e+04  -1.3496651440952817e+04  -1.5893992167765703e+02  2.4698857968273660e+02  -2.5854117250337877e+04  -2.2735677158664279e+04  -3.3407710543630051e+03  -1.1059538165301306e+04  -1.0699612179838408e+04  -1.3417590048023261e+04  -2.4168326652168795e+04  3.7040992941237491e+04  1.1150851983951008e+04  5.6304548008793805e+04  -3.5117332374718360e+04  -3.7062920991747240e+04  -3.3931125754521556e+04  -3.8961578596310574e+04  -1.1821091284583841e+04  -1.1933973938599425e+04  -1.1494477576689011e+04  -6.8039982767520623e+03  -2.3087099930241566e+04  -3.3317615239942505e+04  -2.5378037575515964e+03  -8.0652409595390700e+03  -7.4437911982448331e+03  -4.6988042647599514e+03  -5.5544068102886595e+03  -5.9278543327545904e+03  -6.3830126935405924e+03  2.3733666353090857e+03  -4.2295578287113873e+04  -4.4963036522992508e+04  -4.0400178541869427e+04  -4.7148272927389917e+04  5.2777831434336258e+02  9.1759846623557746e+02  -9.9687597113072334e+03  1.6554626960219009e+03  -1.1287330436931394e+04  1.1291037687921375e+03  -1.2114672457849261e+04  -8.0362895991903497e+03  -1.1458179855431708e+04  -1.1299780168188196e+04  -6.0031085762504708e+03  -6.8271665038095362e+03  -7.1628784775287204e+03  -7.5927318154421819e+03  -7.8561336072622307e+03  -8.2922550164960885e+03  1.1636730145909867e+03  1.5199092275365265e+03  1.7246412386580712e+03  2.0963845961135312e+03  6.5870946127239004e+04  5.1863693414061396e+04  -2.5608082879365109e+04  -1.1084252611546479e+04  -1.0689538649958264e+04  -1.0268633814445619e+04  -8.3309609510703353e+02  -5.2193259455469168e+04  -5.5374673674599762e+04  -1.2238274548308240e+04  -2.2592396469505155e+04  -8.5869743800057113e+03  -7.9611235665676786e+03  -1.2262292794246463e+04  -1.2058269389562540e+04  -8.7102473201748780e+03  -1.1979299981510143e+04  -1.0218885031536542e+04  -4.1177899334950278e+04  -7.6180213195216602e+03  2.2333390833061057e+03  2.4880926354569410e+03  -1.4848606837394434e+03  -1.2425236800842758e+04  -6.2919906998814822e+03  -2.5036350968729224e+04  -2.3767146003329904e+04  -2.2080889538906053e+04  1.6625943649166456e+03  -8.0739512748628576e+03  -1.1442268631623816e+04  -1.1324100129034752e+04  -3.5053080706925430e+04  -3.7060996740304778e+04  -3.4843049712908716e+04  -1.3140284738332450e+03  6.7776307106459569e+02  1.3413621770425941e+03  -7.4868193728209435e+03  -1.1961878763057839e+04  -1.3243955512347997e+04  -6.0749044267654092e+04  -6.5381864703334679e+04  -5.8025752432991430e+04  -6.9735053435720605e+04  -5.9379126515375261e+04  -7.2643619000090854e+04  -8.4568973081590622e+04  -8.9855551958287411e+04  3.8878914055525958e+04  -1.9812333362838912e+04  -8.4658991612716836e+03  -5.5971250648300098e+04  2.5764324910817259e+03  2.8149335171240514e+03  2.8623245060027248e+03  3.0810555429970709e+03  -5.8486525306943571e+04  -3.4057145725562681e+04  9.6465757574662945e+04  -7.1374364186978084e+04  -9.7789021056232232e+03  -9.6906782489609304e+03  1.9334294074346844e+03  8.7069554442748552e+02  -1.2422313033854478e+04  -1.0091298761817116e+04  -1.0496224305315433e+04  -1.0575844467392310e+04  -1.0833788790936536e+04  -1.0882753786262463e+04  -1.1112183166118301e+04  -1.1111662457555887e+04  -1.1364709501502959e+04  -1.1411223608170145e+04  -1.1129340794371812e+04  -1.1642816970711117e+04  -1.1733489891289339e+04  -1.1581398086057392e+04  -1.1999070541162151e+04  -1.2094843416556847e+04  -1.1846456612535301e+04  -1.2255688023521940e+04  -1.2489245541792634e+04  -1.2699000733046698e+04  -1.1133642028430051e+04  -1.2438590889905061e+04  -1.2933251650651404e+04  -1.3169388349019297e+04  -1.3459475145462264e+04  -1.3669533382870763e+04  -1.4027767373188983e+04  -1.3778032446554746e+04  -1.4425927535391893e+04  -1.4651553637597775e+04  -1.5126380690561049e+04  -1.4840877059786853e+04  -1.5621970441521673e+04  -1.0949881321979135e+04  -1.1168700521897712e+04  -1.5882565548531511e+04  -1.6457088746614238e+04  -1.6146574080882385e+04  -1.7069680280962541e+04  -1.7328335983315668e+04  -1.8063085916002143e+04  -1.3350786892872067e+04  -1.1582294065398330e+04  -6.4747212285920459e+03  -5.6106988523503742e+03  -1.2191204941973801e+04  -1.1027248176215175e+04  -1.6716768824105500e+04  -9.2934886537254552e+03  -7.6095912130193989e+04  -1.1474741605272131e+04  -1.2717850128640042e+04  -1.3811388137135673e+04  -1.1323089364235022e+04  -1.1337864614469150e+04  -1.1470870244442405e+04  -1.1465814445845970e+04  -1.1444077282095457e+04  -9.8778569755828576e+03  2.3821569300356800e+03  -1.2634153519221327e+04  -1.2101326313591151e+04  -2.6382338607967715e+04  -2.7153651921599703e+04  -1.0468067588100613e+05  -1.1376567587055190e+04  -2.2602113946374317e+04  -2.1115347279086382e+04  3.0417722498830008e+03  3.2171065896071600e+03  -9.6857770731193541e+03  1.3294226049076428e+03  -2.8727441977125014e+04  -1.0435165874041733e+04  -1.1169175933871671e+04  1.5216559048522311e+02  2.8182903139812693e+03  3.1550822678975496e+03  3.2565142792842171e+03  3.1765890672121695e+03  3.2389385384828834e+03  -7.0529877721821151e+02  5.7682066773708289e+02  9.9046588295383856e+02  2.1483544417341964e+03  2.8758042690129823e+03  3.8523340815761039e+03  4.9198680927764781e+03  5.6588025447249993e+03  7.0950825237532927e+03  7.5225423245804468e+03  6.1163789218409220e+03  7.6902716626963665e+03  6.3031895198848088e+03  7.6096747856120201e+03  9.2015619571888928e+03  8.9186720465887247e+03  6.3789501533993871e+03  7.4787959638847015e+03  1.1248926713356996e+04  1.1167531973021662e+04  6.3561232881961942e+03  7.3460219819462536e+03  6.2055403078020236e+03  6.8537194057947299e+03  1.3770062464561217e+04  1.3884781359584509e+04  1.3269255227503656e+04  8.8553335296771093e+03  5.8850520286568280e+03  6.4325661939732709e+03  5.5835219350224679e+03  6.0510432417151242e+03  1.0713477901289045e+04  1.3572443277949993e+04  1.7440774980753507e+04  1.7307829812612523e+04  5.0046601089518317e+03  5.2614094780364503e+03  5.5855117048929333e+03  4.9174367904202600e+03  1.6085099585152240e+04  1.5034080191046545e+04  7.9426826836283026e+03  5.1112046360120639e+03  2.1384864123854531e+04  2.1741987712125141e+04  1.7270862457660522e+04  2.2257028710610652e+04  1.5996731632809431e+03  5.3484536969069895e+03  4.6252583621643162e+03  4.6176562512481714e+03  2.7542648999785470e+04  2.8365763311999257e+04  3.7999606927247096e+03  9.8330388482658473e+03  4.8741589411423347e+03  7.0114733242667598e+03  2.1540914713148133e+04  2.8245798254670375e+04  4.1568665317058039e+03  4.1979972760878363e+03  3.8398668450271352e+03  5.3466981712709612e+03  3.6216838887970662e+04  3.7147026799999716e+04  3.8195238632673972e+03  1.8051118178824465e+04  1.6486400933215784e+04  3.5079095926185219e+03  3.3880666221107858e+03  1.3887039600999806e+04  1.9418730153876630e+04  5.2720747130139043e+03  3.1611633954812905e+03  3.0300354603205565e+03  2.9292902255891868e+03  1.4368410222493709e+04  4.1520926620694800e+03  4.6198727608817084e+04  4.8906933559621102e+04  3.6775695743914752e+04  4.9988829591035603e+04  4.2591800317617097e+04  1.5044202874329425e+04  1.2747631213515539e+04  7.5549651523733010e+03  6.0457944878303042e+03  4.3805919742925080e+03  1.3580255506634592e+04  1.1587383336654002e+04  8.2240551622663297e+03  3.4529163803560325e+04  2.4302829943127558e+03  4.0868101452279207e+03  4.8703214785646596e+04  6.5812652561127950e+04  6.7516821461937652e+04  1.9565985960152098e+04  2.1778439950140000e+04  2.3879815505032078e+04  2.7180397942516288e+03  2.6267958200293056e+03  2.4200041659289791e+03  -1.8704528932679113e+05  -1.5353005903058281e+05  -1.1104465687870445e+04  -1.2652900505360027e+04  -2.6021927412164900e+04  -2.2013118017212033e+04  -3.8350350545844258e+03  -4.2532761004010417e+03  -3.3480136526313140e+03  -3.7457560891535645e+03  -1.0306885474810896e+05  -1.1221794037738311e+05  -9.1514204524381450e+04  -1.1625784867832954e+05  1.4684187549249487e+05  1.2819966509549152e+05  2.7323221483394364e+03  -2.05