<?xml version="1.0"?>
<VTKFile type="UnstructuredGrid"  version="0.1"  >
<UnstructuredGrid>
<Piece  NumberOfPoints="13179" NumberOfCells="25814">
<Points>
<DataArray  type="Float64"  NumberOfComponents="3"  format="ascii">0 0 0  30 0 0  30 -10 0  0 -10 0  0.02360821169319077 0 0  0.04721642338638154 0 0  0.07206717063563725 0 0  0.09691791788489297 0 0  0.1230766011355843 0 0  0.1492352843862757 0 0  0.1767707375239038 0 0  0.204306190661532 0 0  0.2332908770901271 0 0  0.2622755635187223 0 0  0.2927857633803451 0 0  0.323295963241968 0 0  0.3554119623832387 0 0  0.3875279615245094 0 0  0.4213342730081758 0 0  0.4551405844918422 0 0  0.4907261762804851 0 0  0.526311768069128 0 0  0.5637702848355051 0 0  0.6012288016018821 0 0  0.6406588220121138 0 0  0.6800888424223455 0 0  0.721594129780935 0 0  0.7630994171395246 0 0  0.8067891887833475 0 0  0.8504789604271704 0 0  0.8964681941825949 0 0  0.9424574279380195 0 0  0.9908671465681095 0 0  1.039276865198199 0 0  1.090234462786975 0 0  1.141192060375751 0 0  1.194831641933244 0 0  1.248471223490737 0 0  1.304933942963653 0 0  1.361396662436569 0 0  1.420831104471586 0 0  1.480265546506604 0 0  1.542828113436244 0 0  1.605390680365884 0 0  1.671246013469327 0 0  1.73710134657277 0 0  1.806422752814762 0 0  1.875744159056755 0 0  1.948714057431306 0 0  2.021683955805857 0 0  2.098494373901932 0 0  2.175304791998006 0 0  2.256157866653476 0 0  2.337010941308945 0 0  2.422119443935387 0 0  2.50722794656183 0 0  2.596815840700639 0 0  2.686403734839449 0 0  2.780706776094687 0 0  2.875009817349925 0 0  2.974276175689285 0 0  3.073542534028646 0 0  3.178033441002704 0 0  3.282524347976761 0 0  3.392514777963501 0 0  3.502505207950242 0 0  3.618284608533553 0 0  3.734064009116865 0 0  3.855937062816526 0 0  3.977810116516187 0 0  4.106097541496641 0 0  4.234384966477093 0 0  4.369424362562147 0 0  4.5044637586472 0 0  4.646610489729194 0 0  4.788757220811188 0 0  4.938385356669961 0 0  5.088013492528733 0 0  5.24551679218304 0 0  5.403020091837347 0 0  5.568813038399614 0 0  5.73460598496188 0 0  5.909124878408681 0 0  6.083643771855482 0 0  6.267347873338513 0 0  6.451051974821543 0 0  6.644424714363561 0 0  6.83779745390558 0 0  7.041347702348167 0 0  7.244897950790754 0 0  7.459161368238869 0 0  7.673424785686984 0 0  7.898965226038037 0 0  8.124505666389089 0 0  8.361916654054033 0 0  8.599327641718979 0 0  8.849233942517035 0 0  9.099140243315093 0 0  9.362199507946787 0 0  9.625258772578484 0 0  9.902163261537794 0 0  10.1790677504971 0 0  10.47054616023911 0 0  10.76202456998112 0 0  11.06884394887334 0 0  11.37566332776555 0 0  11.69863109504192 0 0  12.02159886231829 0 0  12.3615649378891 0 0  12.7015310134599 0 0  13.05939003847426 0 0  13.41724906348862 0 0  13.79394276982091 0 0  14.1706364761532 0 0  14.5671561683298 0 0  14.96367586050641 0 0  15.38106501332897 0 0  15.79845416615153 0 0  16.23781117165827 0 0  16.677168177165 0 0  17.13964923659526 0 0  17.60213029602552 0 0  18.0889524622663 0 0  18.57577462850707 0 0  19.08821901304263 0 0  19.60066339757818 0 0  20.14007853843172 0 0  20.67949367928525 0 0  21.24729908993883 0 0  21.8151045005924 0 0  22.41279440541421 0 0  23.01048431023601 0 0  23.63963157605829 0 0  24.26877884188056 0 0  24.93103912515648 0 0  25.59329940843241 0 0  26.29041549584691 0 0  26.98753158326142 0 0  27.72133799026916 0 0  28.45514439727691 0 0  29.22757219863846 0 0  30 -0.3571428571428571 0  30 -0.7142857142857142 0  30 -1.071428571428571 0  30 -1.428571428571428 0  30 -1.785714285714286 0  30 -2.142857142857143 0  30 -2.5 0  30 -2.857142857142857 0  30 -3.214285714285714 0  30 -3.571428571428571 0  30 -3.928571428571428 0  30 -4.285714285714286 0  30 -4.642857142857142 0  30 -5 0  30 -5.357142857142857 0  30 -5.714285714285714 0  30 -6.071428571428571 0  30 -6.428571428571428 0  30 -6.785714285714285 0  30 -7.142857142857142 0  30 -7.5 0  30 -7.857142857142857 0  30 -8.214285714285714 0  30 -8.571428571428571 0  30 -8.928571428571427 0  30 -9.285714285714285 0  30 -9.642857142857142 0  29.22757220128658 -10 0  28.45514440257316 -10 0  27.72133799277628 -10 0  26.98753158297939 -10 0  26.29041549304805 -10 0  25.5932994031167 -10 0  24.93103911757599 -10 0  24.26877883203527 -10 0  23.63963156418132 -10 0  23.01048429632737 -10 0  22.41279438968936 -10 0  21.81510448305136 -10 0  21.24729907078059 -10 0  20.67949365850982 -10 0  20.14007851622273 -10 0  19.60066337393564 -10 0  19.08821898813588 -10 0  18.57577460233611 -10 0  18.08895243498708 -10 0  17.60213026763805 -10 0  17.13964920724307 -10 0  16.6771681468481 -10 0  16.2378111405086 -10 0  15.79845413416909 -10 0  15.38106498063496 -10 0  14.96367582710082 -10 0  14.56715613432376 -10 0  14.17063644154669 -10 0  13.79394273471576 -10 0  13.41724902788484 -10 0  13.05939000246495 -10 0  12.70153097704506 -10 0  12.36156490115379 -10 0  12.02159882526251 -10 0  11.69863105774323 -10 0  11.37566329022395 -10 0  11.06884391115945 -10 0  10.76202453209494 -10 0  10.47054612224479 -10 0  10.17906771239465 -10 0  9.902163223385379 -10 0  9.625258734376107 -10 0  9.362199469747061 -10 0  9.099140205118012 -10 0  8.849233904370102 -10 0  8.599327603622193 -10 0  8.361916616050124 -10 0  8.124505628478055 -10 0  7.898965188258209 -10 0  7.673424748038361 -10 0  7.459161330755727 -10 0  7.244897913473093 -10 0  7.041347665226496 -10 0  6.837797416979896 -10 0  6.644424677660922 -10 0  6.451051938341948 -10 0  6.26734783710581 -10 0  6.083643735869675 -10 0  5.90912484269068 -10 0  5.734605949511682 -10 0  5.568813003235423 -10 0  5.403020056959164 -10 0  5.24551675760658 -10 0  5.088013458254 -10 0  4.938385322710374 -10 0  4.788757187166745 -10 0  4.646610456411224 -10 0  4.504463725655707 -10 0  4.369424329906533 -10 0  4.234384934157362 -10 0  4.106097509520442 -10 0  3.977810084883522 -10 0  3.85593703153344 -10 0  3.734063978183357 -10 0  3.618284577954206 -10 0  3.502505177725055 -10 0  3.392514748095728 -10 0  3.282524318466404 -10 0  3.1780334118518 -10 0  3.073542505237196 -10 0  2.97427614725823 -10 0  2.875009789279265 -10 0  2.780706748384375 -10 0  2.686403707489482 -10 0  2.596815813710069 -10 0  2.507227919930656 -10 0  2.422119417661861 -10 0  2.337010915393062 -10 0  2.256157841092762 -10 0  2.175304766792465 -10 0  2.098494349048437 -10 0  2.021683931304413 -10 0  1.948714033278215 -10 0  1.875744135252013 -10 0  1.806422729354161 -10 0  1.737101323456312 -10 0  1.671245990692352 -10 0  1.605390657928396 -10 0  1.542828091333185 -10 0  1.480265524737977 -10 0  1.420831083031992 -10 0  1.36139664132601 -10 0  1.304933922176438 -10 0  1.248471203026863 -10 0  1.194831621786765 -10 0  1.14119204054667 -10 0  1.09023444350921 -10 0  1.039276846471754 -10 0  0.9908671279064798 -10 0  0.942457409341209 -10 0  0.8964681758842019 -10 0  0.8504789424271948 -10 0  0.8067891710751951 -10 0  0.7630993997231954 -10 0  0.7215941126497469 -10 0  0.6800888255762949 -10 0  0.6406588054444597 -10 0  0.6012287853126246 -10 0  0.5637702688178621 -10 0  0.5263117523230996 -10 0  0.4907261607992695 -10 0  0.4551405692754429 -10 0  0.4213342580497894 -10 0  0.3875279468241395 -10 0  0.3554119479341011 -10 0  0.3232959490440663 -10 0  0.2927857494269297 -10 0  0.2622755498097931 -10 0  0.2332908636189828 -10 0  0.2043061774281725 -10 0  0.1767707245216883 -10 0  0.1492352716152006 -10 0  0.1230765885890825 -10 0  0.09691790556296098 -10 0  0.0720671585317838 -10 0  0.04721641150060663 -10 0  0.02360820575030331 -10 0  0 -9.957983193277311 0  0 -9.915966386554622 0  0 -9.873949579831933 0  0 -9.831932773109244 0  0 -9.789915966386555 0  0 -9.747899159663866 0  0 -9.705882352941176 0  0 -9.663865546218487 0  0 -9.621848739495798 0  0 -9.579831932773109 0  0 -9.53781512605042 0  0 -9.495798319327731 0  0 -9.453781512605042 0  0 -9.411764705882353 0  0 -9.369747899159664 0  0 -9.327731092436975 0  0 -9.285714285714286 0  0 -9.243697478991596 0  0 -9.201680672268907 0  0 -9.159663865546218 0  0 -9.117647058823529 0  0 -9.07563025210084 0  0 -9.033613445378151 0  0 -8.991596638655462 0  0 -8.949579831932773 0  0 -8.907563025210084 0  0 -8.865546218487395 0  0 -8.823529411764707 0  0 -8.781512605042018 0  0 -8.739495798319329 0  0 -8.69747899159664 0  0 -8.655462184873949 0  0 -8.61344537815126 0  0 -8.571428571428571 0  0 -8.529411764705882 0  0 -8.487394957983193 0  0 -8.445378151260504 0  0 -8.403361344537815 0  0 -8.361344537815127 0  0 -8.319327731092438 0  0 -8.277310924369749 0  0 -8.235294117647058 0  0 -8.193277310924369 0  0 -8.15126050420168 0  0 -8.109243697478991 0  0 -8.067226890756302 0  0 -8.025210084033613 0  0 -7.983193277310924 0  0 -7.941176470588236 0  0 -7.899159663865547 0  0 -7.857142857142857 0  0 -7.815126050420168 0  0 -7.773109243697479 0  0 -7.73109243697479 0  0 -7.689075630252101 0  0 -7.647058823529411 0  0 -7.605042016806722 0  0 -7.563025210084033 0  0 -7.521008403361344 0  0 -7.478991596638656 0  0 -7.436974789915967 0  0 -7.394957983193278 0  0 -7.352941176470589 0  0 -7.3109243697479 0  0 -7.26890756302521 0  0 -7.226890756302521 0  0 -7.184873949579832 0  0 -7.142857142857143 0  0 -7.100840336134453 0  0 -7.058823529411764 0  0 -7.016806722689076 0  0 -6.974789915966387 0  0 -6.932773109243698 0  0 -6.890756302521009 0  0 -6.84873949579832 0  0 -6.806722689075631 0  0 -6.764705882352941 0  0 -6.722689075630252 0  0 -6.680672268907563 0  0 -6.638655462184874 0  0 -6.596638655462185 0  0 -6.554621848739496 0  0 -6.512605042016807 0  0 -6.470588235294118 0  0 -6.428571428571429 0  0 -6.38655462184874 0  0 -6.344537815126051 0  0 -6.302521008403362 0  0 -6.260504201680672 0  0 -6.218487394957983 0  0 -6.176470588235294 0  0 -6.134453781512605 0  0 -6.092436974789917 0  0 -6.050420168067227 0  0 -6.008403361344538 0  0 -5.966386554621849 0  0 -5.92436974789916 0  0 -5.882352941176471 0  0 -5.840336134453782 0  0 -5.798319327731092 0  0 -5.756302521008403 0  0 -5.714285714285714 0  0 -5.672268907563025 0  0 -5.630252100840336 0  0 -5.588235294117647 0 
[...]
<PointData  Vectors="displacement"> 
<DataArray  type="Float64"  Name="displacement"  NumberOfComponents="3" format="ascii">2.0600000000000401e-01 -2.2194152372440162e-01 0.0000000000000000e+00  1.8349114248928687e-19 5.1260919644552806e-03 0.0000000000000000e+00  9.2405621908254453e-21 9.1648926073737093e-22 0.0000000000000000e+00  -5.1204487176711733e-22 -3.6467460844537856e-21 0.0000000000000000e+00  1.7331321686934509e-01 -2.1725316293689145e-01 0.0000000000000000e+00  1.4731341423522717e-01 -2.1714468719520044e-01 0.0000000000000000e+00  1.2701447652359102e-01 -2.1188902006719637e-01 0.0000000000000000e+00  1.1115314739616325e-01 -2.0655787285038110e-01 0.0000000000000000e+00  9.7485058170671268e-02 -2.0122559546056870e-01 0.0000000000000000e+00  8.6280060866340963e-02 -1.9534142808971003e-01 0.0000000000000000e+00  7.6468451992618855e-02 -1.8920489656606990e-01 0.0000000000000000e+00  6.8414021369905764e-02 -1.8303692980495914e-01 0.0000000000000000e+00  6.1272063512777544e-02 -1.7737410642143964e-01 0.0000000000000000e+00  5.5380803822295481e-02 -1.7149813574243125e-01 0.0000000000000000e+00  5.0109504777487310e-02 -1.6598450369771925e-01 0.0000000000000000e+00  4.5706231537235950e-02 -1.6045781864719011e-01 0.0000000000000000e+00  4.1734737796167459e-02 -1.5522634397397941e-01 0.0000000000000000e+00  3.8377803602475176e-02 -1.5023860682652901e-01 0.0000000000000000e+00  3.5410543772720363e-02 -1.4524254375485282e-01 0.0000000000000000e+00  3.2857191852878255e-02 -1.4064289988480350e-01 0.0000000000000000e+00  3.0574098215145968e-02 -1.3602622203625064e-01 0.0000000000000000e+00  2.8652234412474265e-02 -1.3166014354813610e-01 0.0000000000000000e+00  2.6856695456990952e-02 -1.2740178914048902e-01 0.0000000000000000e+00  2.5256969027026031e-02 -1.2340773521071331e-01 0.0000000000000000e+00  2.3834246409073733e-02 -1.1939438579232146e-01 0.0000000000000000e+00  2.2605644816486050e-02 -1.1560456364071400e-01 0.0000000000000000e+00  2.1442510103352578e-02 -1.1191082968543276e-01 0.0000000000000000e+00  2.0452845795557794e-02 -1.0835400638274224e-01 0.0000000000000000e+00  1.9524211421634172e-02 -1.0482475821798684e-01 0.0000000000000000e+00  1.8675865046943536e-02 -1.0149377612440585e-01 0.0000000000000000e+00  1.7923190142443087e-02 -9.8156841071549331e-02 0.0000000000000000e+00  1.7252826586998258e-02 -9.4992671068069454e-02 0.0000000000000000e+00  1.6635891038348304e-02 -9.1813008062024720e-02 0.0000000000000000e+00  1.6078840983203412e-02 -8.8790766470721233e-02 0.0000000000000000e+00  1.5568759400753395e-02 -8.5746033657046014e-02 0.0000000000000000e+00  1.5118542229353703e-02 -8.2861604848105383e-02 0.0000000000000000e+00  1.4710328229186984e-02 -7.9961194482413109e-02 0.0000000000000000e+00  1.4354704796557803e-02 -7.7193926436002036e-02 0.0000000000000000e+00  1.4031609275819402e-02 -7.4418552553831646e-02 0.0000000000000000e+00  1.3747443528776944e-02 -7.1749761105717097e-02 0.0000000000000000e+00  1.3485383808628159e-02 -6.9087743621767408e-02 0.0000000000000000e+00  1.3289454181451270e-02 -6.6522652730159934e-02 0.0000000000000000e+00  1.3087603803394212e-02 -6.3945047315831394e-02 0.0000000000000000e+00  1.2930020087217508e-02 -6.1481949289549725e-02 0.0000000000000000e+00  1.2776065862352574e-02 -5.8994213632076367e-02 0.0000000000000000e+00  1.2669868764974748e-02 -5.6610071357764566e-02 0.0000000000000000e+00  1.2585098302956564e-02 -5.4214589476785521e-02 0.0000000000000000e+00  1.2524582272542393e-02 -5.1920117300590804e-02 0.0000000000000000e+00  1.2480386161240673e-02 -4.9595946943937742e-02 0.0000000000000000e+00  1.2456040565377699e-02 -4.7374907662857083e-02 0.0000000000000000e+00  1.2454235997598768e-02 -4.5135154201531774e-02 0.0000000000000000e+00  1.2460006954955095e-02 -4.2984002962922846e-02 0.0000000000000000e+00  1.2495395839965994e-02 -4.0817766949875774e-02 0.0000000000000000e+00  1.2544854589999023e-02 -3.8746251152960327e-02 0.0000000000000000e+00  1.2612930944673369e-02 -3.6657463540100792e-02 0.0000000000000000e+00  1.2694392746927545e-02 -3.4655901673111195e-02 0.0000000000000000e+00  1.2790464186009627e-02 -3.2635604561061189e-02 0.0000000000000000e+00  1.2900231503282629e-02 -3.0700201910059337e-02 0.0000000000000000e+00  1.3024415969605662e-02 -2.8750614136884824e-02 0.0000000000000000e+00  1.3158140199912838e-02 -2.6889228879573030e-02 0.0000000000000000e+00  1.3310865426746084e-02 -2.5013749714567903e-02 0.0000000000000000e+00  1.3471879326169623e-02 -2.3222380241981699e-02 0.0000000000000000e+00  1.3646354481895953e-02 -2.1415052593584432e-02 0.0000000000000000e+00  1.3827342419688481e-02 -1.9696060086882128e-02 0.0000000000000000e+00  1.4024919266389902e-02 -1.7968951790613606e-02 0.0000000000000000e+00  1.4226404644064149e-02 -1.6314803672522655e-02 0.0000000000000000e+00  1.4441516111612960e-02 -1.4659802544215266e-02 0.0000000000000000e+00  1.4661935292734567e-02 -1.3086031313702557e-02 0.0000000000000000e+00  1.4894515307618716e-02 -1.1506846626150005e-02 0.0000000000000000e+00  1.5127277926319755e-02 -1.0008891659483137e-02 0.0000000000000000e+00  1.5375960995269826e-02 -8.5135383050068316e-03 0.0000000000000000e+00  1.5624752035327644e-02 -7.0960465289884598e-03 0.0000000000000000e+00  1.5882712000340159e-02 -5.6768545370731822e-03 0.0000000000000000e+00  1.6139706828769508e-02 -4.3388386479527741e-03 0.0000000000000000e+00  1.6406614984401088e-02 -3.0082991160247140e-03 0.0000000000000000e+00  1.6669855164715187e-02 -1.7541517677419998e-03 0.0000000000000000e+00  1.6941773364844398e-02 -5.1001373188468309e-04 0.0000000000000000e+00  1.7208492698331065e-02 6.5804207071311479e-04 0.0000000000000000e+00  1.7482054936627182e-02 1.8079004893685649e-03 0.0000000000000000e+00  1.7747470219289456e-02 2.8828673853843285e-03 0.0000000000000000e+00  1.8018974690519520e-02 3.9383673786386932e-03 0.0000000000000000e+00  1.8281259124710153e-02 4.9217527079545168e-03 0.0000000000000000e+00  1.8546434544999799e-02 5.8825957400588848e-03 0.0000000000000000e+00  1.8801303107290078e-02 6.7647689743690021e-03 0.0000000000000000e+00  1.9054653990282000e-02 7.6294737795318769e-03 0.0000000000000000e+00  1.9294104512713423e-02 8.4173385495553178e-03 0.0000000000000000e+00  1.9529936607417722e-02 9.1739124724350817e-03 0.0000000000000000e+00  1.9752062288601126e-02 9.8610777828967364e-03 0.0000000000000000e+00  1.9967682473530587e-02 1.0517075250753048e-02 0.0000000000000000e+00  2.0165787022403930e-02 1.1100346154215719e-02 0.0000000000000000e+00  2.0356475215206327e-02 1.1644219595580929e-02 0.0000000000000000e+00  2.0523513191588596e-02 1.2129535824883143e-02 0.0000000000000000e+00  2.0679751267346155e-02 1.2574059132916354e-02 0.0000000000000000e+00  2.0814387715148749e-02 1.2952415813401359e-02 0.0000000000000000e+00  2.0931383142113544e-02 1.3292272397445775e-02 0.0000000000000000e+00  2.1025247612031922e-02 1.3575699683603910e-02 0.0000000000000000e+00  2.1100074063682792e-02 1.3814214891892260e-02 0.0000000000000000e+00  2.1150954229857320e-02 1.3995609833541792e-02 0.0000000000000000e+00  2.1172800434797575e-02 1.4138796336641465e-02 0.0000000000000000e+00  2.1171665491809339e-02 1.4225792878634959e-02 0.0000000000000000e+00  2.1147084311594747e-02 1.4267712729545577e-02 0.0000000000000000e+00  2.1089329435262039e-02 1.4271745445203397e-02 0.0000000000000000e+00  2.1003478850228754e-02 1.4233424150107470e-02 0.0000000000000000e+00  2.0889821831140760e-02 1.4153071175776754e-02 0.0000000000000000e+00  2.0743052611055284e-02 1.4033408322170815e-02 0.0000000000000000e+00  2.0567535101506249e-02 1.3882003689316566e-02 0.0000000000000000e+00  2.0355931185923427e-02 1.3698655355740552e-02 0.0000000000000000e+00  2.0124621234272274e-02 1.3472339621141118e-02 0.0000000000000000e+00  1.9842089221643620e-02 1.3233849133170425e-02 0.0000000000000000e+00  1.9560189776684379e-02 1.2957041952286414e-02 0.0000000000000000e+00  1.9209793753543630e-02 1.2663915191451830e-02 0.0000000000000000e+00  1.8848416753470838e-02 1.2365047462872087e-02 0.0000000000000000e+00  1.8461118057394709e-02 1.2017888451111130e-02 0.0000000000000000e+00  1.8043912150106201e-02 1.1690339295959197e-02 0.0000000000000000e+00  1.7596716928604133e-02 1.1330408292792965e-02 0.0000000000000000e+00  1.7132126659520384e-02 1.0972789350757737e-02 0.0000000000000000e+00  1.6603374850610132e-02 1.0602314830078096e-02 0.0000000000000000e+00  1.6081292080367262e-02 1.0240732087450185e-02 0.0000000000000000e+00  1.5532698487159569e-02 9.8748421414869662e-03 0.0000000000000000e+00  1.4978386480810475e-02 9.5176192393246865e-03 0.0000000000000000e+00  1.4392700999068152e-02 9.1497676883151510e-03 0.0000000000000000e+00  1.3775188910309268e-02 8.8074737412305853e-03 0.0000000000000000e+00  1.3146660073915373e-02 8.4637450386715954e-03 0.0000000000000000e+00  1.2526040297790973e-02 8.1425604559318410e-03 0.0000000000000000e+00  1.1875309625772247e-02 7.8251892332625184e-03 0.0000000000000000e+00  1.1229793771336569e-02 7.5289997262748699e-03 0.0000000000000000e+00  1.0560113485527489e-02 7.2414345959308027e-03 0.0000000000000000e+00  9.8966854279683211e-03 6.9747903109849867e-03 0.0000000000000000e+00  9.2089761028654078e-03 6.7145142436576240e-03 0.0000000000000000e+00  8.5342062448908549e-03 6.4884659573047777e-03 0.0000000000000000e+00  7.8439540559546075e-03 6.2762699214107213e-03 0.0000000000000000e+00  7.1652568231282687e-03 6.0816239013287317e-03 0.0000000000000000e+00  6.4701621396248219e-03 5.8943325877708602e-03 0.0000000000000000e+00  5.7825046625959910e-03 5.7350380835499920e-03 0.0000000000000000e+00  5.0826915514234246e-03 5.5947239224376499e-03 0.0000000000000000e+00  4.4013530141284781e-03 5.4656250726360153e-03 0.0000000000000000e+00  3.6637410532593365e-03 5.3567544616924213e-03 0.0000000000000000e+00  2.9399564307076246e-03 5.2595931972972470e-03 0.0000000000000000e+00  2.2170186878920630e-03 5.2044556407404938e-03 0.0000000000000000e+00  1.4960335545563773e-03 5.1508445743578025e-03 0.0000000000000000e+00  7.2163975390977114e-04 5.1286544261884715e-03 0.0000000000000000e+00  -9.3066292553154881e-20 4.8604540017195752e-03 0.0000000000000000e+00  0.0000000000000000e+00 4.5252099439731233e-03 0.0000000000000000e+00  -5.3587649911517618e-20 4.2203619653992186e-03 0.0000000000000000e+00  5.6839330071362805e-20 3.9101497901889368e-03 0.0000000000000000e+00  4.8495895129838720e-20 3.6119161797247596e-03 0.0000000000000000e+00  6.7583394411819430e-20 3.3224525571590563e-03 0.0000000000000000e+00  1.4662622549387244e-19 3.0419190618831316e-03 0.0000000000000000e+00  7.9056280662056058e-20 2.7698562047546484e-03 0.0000000000000000e+00  -4.9429514072493857e-20 2.5075016798141599e-03 0.0000000000000000e+00  1.4343489721041377e-20 2.2557481502310465e-03 0.0000000000000000e+00  -2.3915834515856005e-20 2.0142863312351961e-03 0.0000000000000000e+00  -4.4091833020008553e-20 1.7854967517760476e-03 0.0000000000000000e+00  2.8975863866083742e-20 1.5676133282128599e-03 0.0000000000000000e+00  -9.9112800708919969e-21 1.3634127592048074e-03 0.0000000000000000e+00  3.0374993979603200e-20 1.1712524833115971e-03 0.0000000000000000e+00  -3.0055660102904429e-20 9.9338352637289734e-04 0.0000000000000000e+00  1.1003984101227936e-20 8.2968417246178110e-04 0.0000000000000000e+00  2.3814289194461495e-20 6.7969091326593319e-04 0.0000000000000000e+00  3.1728619680779894e-20 5.4333034424264715e-04 0.0000000000000000e+00  -8.5832939246280202e-21 4.2304704856898934e-04 0.0000000000000000e+00  -2.5240359232875014e-20 3.1741769044943413e-04 0.0000000000000000e+00  -7.9838525634654854e-21 2.2676185964465241e-04 0.0000000000000000e+00  1.9823027087394093e-20 1.5094203369951995e-04 0.0000000000000000e+00  -7.1378698967598201e-21 9.0569584501191025e-05 0.0000000000000000e+00  -1.0839891740195790e-20 4.5543286102031573e-05 0.0000000000000000e+00  5.1312183054292957e-21 1.3570988101282208e-05 0.0000000000000000e+00  -3.5929451240636858e-21 1.5945481057872697e-06 0.0000000000000000e+00  -1.5799752642383415e-20 6.8978699495699646e-23 0.0000000000000000e+00  -6.7659755427444879e-21 -2.4315224606738003e-21 0.0000000000000000e+00  -4.0635150099641374e-20 -7.2150479580329144e-23 0.0000000000000000e+00  -3.3413502899145499e-20 -2.8062121575454228e-21 0.0000000000000000e+00  -6.8157877841904171e-20 1.1438040998810575e-21 0.0000000000000000e+00  0.0000000000000000e+00 -1.3844477233946919e-22 0.0000000000000000e+00  -8.7665242291938999e-20 1.4029507712097257e-21 0.0000000000000000e+00  4.1463234079221181e-20 1.4576918230976196e-21 0.0000000000000000e+00  3.3178210007466670e-20 1.1016202541541668e-21 0.0000000000000000e+00  -4.6723525366716517e-20 -2.0076514806011003e-21 0.0000000000000000e+00  -4.1348359794359294e-20 -1.9552150249645571e-21 0.0000000000000000e+00  1.2530063708823715e-19 5.5069605761570206e-21 0.0000000000000000e+00  1.8562306820702408e-20 1.4501802203673757e-21 0.0000000000000000e+00  2.5781474063706300e-20 8.0567106449082188e-22 0.0000000000000000e+00  1.9653370401449658e-19 -2.6005601619328203e-21 0.0000000000000000e+00  -1.1455278112464196e-19 -2.2373590063406631e-21 0.0000000000000000e+00  6.7903929676528265e-20 3.3008854703867906e-21 0.0000000000000000e+00  5.1498389255852302e-20 -3.0376465153889108e-21 0.0000000000000000e+00  -4.4875626893552383e-20 2.7913702394898297e-21 0.0000000000000000e+00  1.4667094918086595e-19 5.8577823861674880e-23 0.0000000000000000e+00  -2.7082907246668443e-19 1.3747540866771813e-21 0.0000000000000000e+00  -1.1578090316952582e-19 2.4121021493651213e-21 0.0000000000000000e+00  1.1742781851574235e-19 8.4703361478771734e-21 0.0000000000000000e+00  2.5587431591216338e-19 6.6633936435459220e-21 0.0000000000000000e+00  -1.1394753216148473e-19 -5.9403950187302470e-21 0.0000000000000000e+00  -4.6915614207668254e-19 -2.9322258879792660e-21 0.0000000000000000e+00  -2.2737683978430540e-19 1.0838379643061995e-20 0.0000000000000000e+00  -1.0978767763855722e-19 -3.4308649262049131e-21 0.0000000000000000e+00  2.7034343154391705e-19 -7.7183920728299283e-21 0.0000000000000000e+00  5.1913854977389626e-20 -2.8812873970760929e-21 0.0000000000000000e+00  -4.3997426700470717e-19 -5.8179403486543144e-21 0.0000000000000000e+00  -5.9444917119066212e-20 -1.6380110775672623e-20 0.0000000000000000e+00  8.8782375590051319e-20 -1.9811198080829163e-21 0.0000000000000000e+00  -1.5631603987529400e-20 -2.2425356804545521e-22 0.0000000000000000e+00  3.3137256087404909e-19 4.4162703425309849e-21 0.0000000000000000e+00  2.4297416686706226e-20 2.4134925874811058e-21 0.0000000000000000e+00  -1.6606357589432440e-19 2.9178464807680220e-21 0.0000000000000000e+00  -6.9447445532667342e-20 7.2071446890803287e-21 0.0000000000000000e+00  5.8267092338710464e-20 4.2107078447896236e-21 0.0000000000000000e+00  -9.8342968290330060e-20 4.9939788584933232e-21 0.0000000000000000e+00  -2.9020181807730971e-19 2.1189511061564729e-21 0.0000000000000000e+00  5.2762710725883403e-19 4.6017522124817629e-21 0.0000000000000000e+00  -1.1891306604647560e-19 4.3375159412315247e-22 0.0000000000000000e+00  1.8199200828481476e-19 -1.8957500863001536e-21 0.0000000000000000e+00  -4.5818054014722939e-21 -9.3167872440857117e-23 0.0000000000000000e+00  -1.5596467701311236e-19 -3.5638415919821860e-21 0.0000000000000000e+00  -2.8058079780610396e-19 0.0000000000000000e+00 0.0000000000000000e+00  3.6120442415927390e-19 1.1164600837951606e-21 0.0000000000000000e+00  -8.1923639739929181e-20 3.2655725936063194e-22 0.0000000000000000e+00  2.7773091994132160e-20 4.1630450345923431e-21 0.0000000000000000e+00  -8.4565226770216018e-20 5.2853266731385011e-21 0.0000000000000000e+00  2.4567208174000488e-19 8.4111272160479939e-21 0.0000000000000000e+00  7.7308893311409337e-19 -6.2965121920932696e-21 0.0000000000000000e+00  -3.6544540549401922e-19 -1.0368042993684641e-20 0.0000000000000000e+00  -4.2358919944599146e-19 1.3237162482687233e-20 0.0000000000000000e+00  -3.3461225302474999e-19 1.7427721511705730e-20 0.0000000000000000e+00  -1.5848584064429209e-19 1.0457235378226060e-20 0.0000000000000000e+00  -3.3420397754423072e-19 -4.9521226790113951e-21 0.0000000000000000e+00  0.0000000000000000e+00 -3.8801628183777423e-21 0.0000000000000000e+00  8.7583362343530224e-20 2.7687916186413739e-21 0.0000000000000000e+00  -1.4290626736386437e-19 1.3196350192982437e-20 0.0000000000000000e+00  7.7283358591932914e-19 -2.7242340577745510e-20 0.0000000000000000e+00  4.1916553661774738e-19 -8.7326153462030700e-21 0.0000000000000000e+00  -6.0281238801926241e-20 1.0837195574490124e-20 0.0000000000000000e+00  -1.4164068661487476e-19 -2.8225499144268518e-21 0.0000000000000000e+00  3.9848988738019602e-20 5.2232157687664132e-21 0.0000000000000000e+00  -9.6541525704777086e-20 2.4135381426194272e-20 0.0000000000000000e+00  2.2611613916814448e-19 -4.7802103897508871e-20 0.0000000000000000e+00  2.5443882455127936e-19 -5.9633927814812633e-20 0.0000000000000000e+00  4.2072839903935406e-19 1.8782517814256880e-20 0.0000000000000000e+00  -1.0362705245691356e-19 1.2582808227231908e-20 0.0000000000000000e+00  -1.1324622710477074e-19 8.2809470280292327e-22 0.0000000000000000e+00  -4.3129338315403275e-19 3.3208864138060333e-20 0.0000000000000000e+00  4.0107777037712646e-22 3.5541002661402939e-21 0.0000000000000000e+00  -2.3052890937818742e-19 0.0000000000000000e+00 0.0000000000000000e+00  -3.2076335442345921e-19 5.0119274128665501e-21 0.0000000000000000e+00  -3.6724911658281685e-20 2.1124116984882237e-20 0.0000000000000000e+00  8.7641925585706959e-20 0.0000000000000000e+00 0.0000000000000000e+00  1.1455289893271191e-20 -3.2933958443154671e-20 0.0000000000000000e+00  -1.4639507876822253e-19 1.5249487371689847e-20 0.0000000000000000e+00  1.0720959285136685e-19 -8.4705692465112968e-21 0.0000000000000000e+00  -1.0767437810502431e-19 -3.3648243157820096e-21 0.0000000000000000e+00  -8.8875400572194406e-20 2.3974819601117255e-21 0.0000000000000000e+00  -5.8586191974624501e-20 -1.8308184992070155e-20 0.0000000000000000e+00  -9.9494700171292151e-20 8.8476078066429967e-21 0.0000000000000000e+00  2.6590833282182517e-19 1.8824806793923372e-20 0.0000000000000000e+00  6.8658296531294604e-20 -2.5746861199235477e-20 0.0000000000000000e+00  1.4715335765783226e-19 -1.3795627280421774e-20 0.0000000000000000e+00  -1.3224092854356933e-20 -9.1194235835523233e-21 0.0000000000000000e+00  -2.6453638081651121e-19 1.0174476185250430e-20 0.0000000000000000e+00  -8.0222556158940070e-20 1.8531496133637001e-20 0.0000000000000000e+00  1.0597637615893000e-19 -1.8337233367752238e-21 0.0000000000000000e+00  2.0979019128326229e-19 -6.6780376508857085e-21 0.0000000000000000e+00  1.5185843811359799e-19 -2.7117578234571070e-20 0.0000000000000000e+00  -1.0436669724763363e-19 -1.3813239341598568e-20 0.0000000000000000e+00  5.4866289112334697e-20 1.0287429208562756e-20 0.0000000000000000e+00  1.8749014748752877e-19 2.2885961549316209e-20 0.0000000000000000e+00  2.0371485695033549e-20 -1.7855624587093657e-20 0.0000000000000000e+00  -2.8518111884418914e-20 1.2731299948401302e-20 0.0000000000000000e+00  -8.3122178462364199e-20 2.2858599077150155e-20 0.0000000000000000e+00  6.9145891412329434e-20 -1.1005381006250752e-20 0.0000000000000000e+00  -9.2541849722666090e-21 1.6194823701466566e-20 0.0000000000000000e+00  1.0663150640071316e-19 1.8175824954667014e-21 0.0000000000000000e+00  -7.1697032854121136e-20 -7.6818249486558366e-21 0.0000000000000000e+00  -2.1760115595877952e-20 2.0088049706265952e-20 0.0000000000000000e+00  -1.0962830687714001e-20 -1.0962830687714001e-20 0.0000000000000000e+00  9.1655302488494479e-20 -9.3087416589877201e-21 0.0000000000000000e+00  2.4618731297491286e-20 -9.2320242365592320e-21 0.0000000000000000e+00  -3.5553018004029661e-20 7.1361262488763436e-21 0.0000000000000000e+00  0.0000000000000000e+00 3.5692613426603230e-21 0.0000000000000000e+00  -2.3757888607602806e-20 6.8532370983469630e-21 0.0000000000000000e+00  2.2998497629060232e-20 3.8330829381767056e-21 0.0000000000000000e+00  -3.3609966847690941e-20 -7.9021543037458609e-21 0.0000000000000000e+00  1.72125