<?xml version="1.0"?>
<VTKFile type="UnstructuredGrid"  version="0.1"  >
<UnstructuredGrid>
<Piece  NumberOfPoints="18082" NumberOfCells="35500">
<Points>
<DataArray  type="Float64"  NumberOfComponents="3"  format="ascii">0 0 0  30 0 0  30 -10 0  0 -10 0  0.02360821169319077 0 0  0.04721642338638154 0 0  0.07206717063563725 0 0  0.09691791788489297 0 0  0.1230766011355843 0 0  0.1492352843862757 0 0  0.1767707375239038 0 0  0.204306190661532 0 0  0.2332908770901271 0 0  0.2622755635187223 0 0  0.2927857633803451 0 0  0.323295963241968 0 0  0.3554119623832387 0 0  0.3875279615245094 0 0  0.4213342730081758 0 0  0.4551405844918422 0 0  0.4907261762804851 0 0  0.526311768069128 0 0  0.5637702848355051 0 0  0.6012288016018821 0 0  0.6406588220121138 0 0  0.6800888424223455 0 0  0.721594129780935 0 0  0.7630994171395246 0 0  0.8067891887833475 0 0  0.8504789604271704 0 0  0.8964681941825949 0 0  0.9424574279380195 0 0  0.9908671465681095 0 0  1.039276865198199 0 0  1.090234462786975 0 0  1.141192060375751 0 0  1.194831641933244 0 0  1.248471223490737 0 0  1.304933942963653 0 0  1.361396662436569 0 0  1.420831104471586 0 0  1.480265546506604 0 0  1.542828113436244 0 0  1.605390680365884 0 0  1.671246013469327 0 0  1.73710134657277 0 0  1.806422752814762 0 0  1.875744159056755 0 0  1.948714057431306 0 0  2.021683955805857 0 0  2.098494373901932 0 0  2.175304791998006 0 0  2.256157866653476 0 0  2.337010941308945 0 0  2.422119443935387 0 0  2.50722794656183 0 0  2.596815840700639 0 0  2.686403734839449 0 0  2.780706776094687 0 0  2.875009817349925 0 0  2.974276175689285 0 0  3.073542534028646 0 0  3.178033441002704 0 0  3.282524347976761 0 0  3.392514777963501 0 0  3.502505207950242 0 0  3.618284608533553 0 0  3.734064009116865 0 0  3.855937062816526 0 0  3.977810116516187 0 0  4.106097541496641 0 0  4.234384966477093 0 0  4.369424362562147 0 0  4.5044637586472 0 0  4.646610489729194 0 0  4.788757220811188 0 0  4.938385356669961 0 0  5.088013492528733 0 0  5.24551679218304 0 0  5.403020091837347 0 0  5.568813038399614 0 0  5.73460598496188 0 0  5.909124878408681 0 0  6.083643771855482 0 0  6.267347873338513 0 0  6.451051974821543 0 0  6.644424714363561 0 0  6.83779745390558 0 0  7.041347702348167 0 0  7.244897950790754 0 0  7.459161368238869 0 0  7.673424785686984 0 0  7.898965226038037 0 0  8.124505666389089 0 0  8.361916654054033 0 0  8.599327641718979 0 0  8.849233942517035 0 0  9.099140243315093 0 0  9.362199507946787 0 0  9.625258772578484 0 0  9.902163261537794 0 0  10.1790677504971 0 0  10.47054616023911 0 0  10.76202456998112 0 0  11.06884394887334 0 0  11.37566332776555 0 0  11.69863109504192 0 0  12.02159886231829 0 0  12.3615649378891 0 0  12.7015310134599 0 0  13.05939003847426 0 0  13.41724906348862 0 0  13.79394276982091 0 0  14.1706364761532 0 0  14.5671561683298 0 0  14.96367586050641 0 0  15.38106501332897 0 0  15.79845416615153 0 0  16.23781117165827 0 0  16.677168177165 0 0  17.13964923659526 0 0  17.60213029602552 0 0  18.0889524622663 0 0  18.57577462850707 0 0  19.08821901304263 0 0  19.60066339757818 0 0  20.14007853843172 0 0  20.67949367928525 0 0  21.24729908993883 0 0  21.8151045005924 0 0  22.41279440541421 0 0  23.01048431023601 0 0  23.63963157605829 0 0  24.26877884188056 0 0  24.93103912515648 0 0  25.59329940843241 0 0  26.29041549584691 0 0  26.98753158326142 0 0  27.72133799026916 0 0  28.45514439727691 0 0  29.22757219863846 0 0  30 -0.3571428571428571 0  30 -0.7142857142857142 0  30 -1.071428571428571 0  30 -1.428571428571428 0  30 -1.785714285714286 0  30 -2.142857142857143 0  30 -2.5 0  30 -2.857142857142857 0  30 -3.214285714285714 0  30 -3.571428571428571 0  30 -3.928571428571428 0  30 -4.285714285714286 0  30 -4.642857142857142 0  30 -5 0  30 -5.357142857142857 0  30 -5.714285714285714 0  30 -6.071428571428571 0  30 -6.428571428571428 0  30 -6.785714285714285 0  30 -7.142857142857142 0  30 -7.5 0  30 -7.857142857142857 0  30 -8.214285714285714 0  30 -8.571428571428571 0  30 -8.928571428571427 0  30 -9.285714285714285 0  30 -9.642857142857142 0  29.22757220128658 -10 0  28.45514440257316 -10 0  27.72133799277628 -10 0  26.98753158297939 -10 0  26.29041549304805 -10 0  25.5932994031167 -10 0  24.93103911757599 -10 0  24.26877883203527 -10 0  23.63963156418132 -10 0  23.01048429632737 -10 0  22.41279438968936 -10 0  21.81510448305136 -10 0  21.24729907078059 -10 0  20.67949365850982 -10 0  20.14007851622273 -10 0  19.60066337393564 -10 0  19.08821898813588 -10 0  18.57577460233611 -10 0  18.08895243498708 -10 0  17.60213026763805 -10 0  17.13964920724307 -10 0  16.6771681468481 -10 0  16.2378111405086 -10 0  15.79845413416909 -10 0  15.38106498063496 -10 0  14.96367582710082 -10 0  14.56715613432376 -10 0  14.17063644154669 -10 0  13.79394273471576 -10 0  13.41724902788484 -10 0  13.05939000246495 -10 0  12.70153097704506 -10 0  12.36156490115379 -10 0  12.02159882526251 -10 0  11.69863105774323 -10 0  11.37566329022395 -10 0  11.06884391115945 -10 0  10.76202453209494 -10 0  10.47054612224479 -10 0  10.17906771239465 -10 0  9.902163223385379 -10 0  9.625258734376107 -10 0  9.362199469747061 -10 0  9.099140205118012 -10 0  8.849233904370102 -10 0  8.599327603622193 -10 0  8.361916616050124 -10 0  8.124505628478055 -10 0  7.898965188258209 -10 0  7.673424748038361 -10 0  7.459161330755727 -10 0  7.244897913473093 -10 0  7.041347665226496 -10 0  6.837797416979896 -10 0  6.644424677660922 -10 0  6.451051938341948 -10 0  6.26734783710581 -10 0  6.083643735869675 -10 0  5.90912484269068 -10 0  5.734605949511682 -10 0  5.568813003235423 -10 0  5.403020056959164 -10 0  5.24551675760658 -10 0  5.088013458254 -10 0  4.938385322710374 -10 0  4.788757187166745 -10 0  4.646610456411224 -10 0  4.504463725655707 -10 0  4.369424329906533 -10 0  4.234384934157362 -10 0  4.106097509520442 -10 0  3.977810084883522 -10 0  3.85593703153344 -10 0  3.734063978183357 -10 0  3.618284577954206 -10 0  3.502505177725055 -10 0  3.392514748095728 -10 0  3.282524318466404 -10 0  3.1780334118518 -10 0  3.073542505237196 -10 0  2.97427614725823 -10 0  2.875009789279265 -10 0  2.780706748384375 -10 0  2.686403707489482 -10 0  2.596815813710069 -10 0  2.507227919930656 -10 0  2.422119417661861 -10 0  2.337010915393062 -10 0  2.256157841092762 -10 0  2.175304766792465 -10 0  2.098494349048437 -10 0  2.021683931304413 -10 0  1.948714033278215 -10 0  1.875744135252013 -10 0  1.806422729354161 -10 0  1.737101323456312 -10 0  1.671245990692352 -10 0  1.605390657928396 -10 0  1.542828091333185 -10 0  1.480265524737977 -10 0  1.420831083031992 -10 0  1.36139664132601 -10 0  1.304933922176438 -10 0  1.248471203026863 -10 0  1.194831621786765 -10 0  1.14119204054667 -10 0  1.09023444350921 -10 0  1.039276846471754 -10 0  0.9908671279064798 -10 0  0.942457409341209 -10 0  0.8964681758842019 -10 0  0.8504789424271948 -10 0  0.8067891710751951 -10 0  0.7630993997231954 -10 0  0.7215941126497469 -10 0  0.6800888255762949 -10 0  0.6406588054444597 -10 0  0.6012287853126246 -10 0  0.5637702688178621 -10 0  0.5263117523230996 -10 0  0.4907261607992695 -10 0  0.4551405692754429 -10 0  0.4213342580497894 -10 0  0.3875279468241395 -10 0  0.3554119479341011 -10 0  0.3232959490440663 -10 0  0.2927857494269297 -10 0  0.2622755498097931 -10 0  0.2332908636189828 -10 0  0.2043061774281725 -10 0  0.1767707245216883 -10 0  0.1492352716152006 -10 0  0.1230765885890825 -10 0  0.09691790556296098 -10 0  0.0720671585317838 -10 0  0.04721641150060663 -10 0  0.02360820575030331 -10 0  0 -9.972067039106145 0  0 -9.94413407821229 0  0 -9.916201117318435 0  0 -9.888268156424582 0  0 -9.860335195530727 0  0 -9.832402234636872 0  0 -9.804469273743017 0  0 -9.776536312849162 0  0 -9.748603351955307 0  0 -9.720670391061452 0  0 -9.692737430167599 0  0 -9.664804469273744 0  0 -9.636871508379889 0  0 -9.608938547486034 0  0 -9.581005586592179 0  0 -9.553072625698324 0  0 -9.525139664804469 0  0 -9.497206703910614 0  0 -9.46927374301676 0  0 -9.441340782122905 0  0 -9.41340782122905 0  0 -9.385474860335195 0  0 -9.35754189944134 0  0 -9.329608938547485 0  0 -9.30167597765363 0  0 -9.273743016759777 0  0 -9.245810055865922 0  0 -9.217877094972067 0  0 -9.189944134078212 0  0 -9.162011173184357 0  0 -9.134078212290502 0  0 -9.106145251396647 0  0 -9.078212290502794 0  0 -9.050279329608939 0  0 -9.022346368715084 0  0 -8.994413407821229 0  0 -8.966480446927374 0  0 -8.938547486033519 0  0 -8.910614525139664 0  0 -8.882681564245811 0  0 -8.854748603351956 0  0 -8.826815642458101 0  0 -8.798882681564246 0  0 -8.770949720670391 0  0 -8.743016759776536 0  0 -8.715083798882681 0  0 -8.687150837988828 0  0 -8.659217877094973 0  0 -8.631284916201118 0  0 -8.603351955307263 0  0 -8.575418994413408 0  0 -8.547486033519553 0  0 -8.519553072625698 0  0 -8.491620111731844 0  0 -8.463687150837989 0  0 -8.435754189944134 0  0 -8.407821229050279 0  0 -8.379888268156424 0  0 -8.351955307262569 0  0 -8.324022346368714 0  0 -8.296089385474861 0  0 -8.268156424581006 0  0 -8.240223463687151 0  0 -8.212290502793296 0  0 -8.184357541899441 0  0 -8.156424581005586 0  0 -8.128491620111731 0  0 -8.100558659217878 0  0 -8.072625698324023 0  0 -8.044692737430168 0  0 -8.016759776536313 0  0 -7.988826815642458 0  0 -7.960893854748603 0  0 -7.932960893854748 0  0 -7.905027932960894 0  0 -7.877094972067039 0  0 -7.849162011173184 0  0 -7.82122905027933 0  0 -7.793296089385475 0  0 -7.76536312849162 0  0 -7.737430167597765 0  0 -7.709497206703911 0  0 -7.681564245810056 0  0 -7.653631284916202 0  0 -7.625698324022347 0  0 -7.597765363128492 0  0 -7.569832402234637 0  0 -7.541899441340782 0  0 -7.513966480446927 0  0 -7.486033519553073 0  0 -7.458100558659218 0  0 -7.430167597765363 0  0 -7.402234636871508 0  0 -7.374301675977653 0  0 -7.346368715083798 0  0 -7.318435754189944 0  0 -7.290502793296089 0  0 -7.262569832402235 0  0 -7.23463687150838 0  0 -7.206703910614525 0  0 -7.17877094972067 0  0 -7.150837988826815 0  0 -7.12290502793296 0  0 -7.094972067039106 0  0 -7.067039106145251 
[...]
<PointData  Vectors="displacement"> 
<DataArray  type="Float64"  Name="displacement"  NumberOfComponents="3" format="ascii">1.0000000000000003e-01 5.4598118320578606e-02 0.0000000000000000e+00  -2.2093494671650331e-22 1.4680110540049235e-03 0.0000000000000000e+00  1.6893381831803040e-21 -2.4487489480809502e-22 0.0000000000000000e+00  0.0000000000000000e+00 -1.3799848769098848e-21 0.0000000000000000e+00  1.0000740991944869e-01 5.4529423752123128e-02 0.0000000000000000e+00  1.0000204562534987e-01 5.4380246543744105e-02 0.0000000000000000e+00  9.9979600371617308e-02 5.4137901034851263e-02 0.0000000000000000e+00  9.9943642429202950e-02 5.3801449827235830e-02 0.0000000000000000e+00  9.9875274060128971e-02 5.3354005577962299e-02 0.0000000000000000e+00  9.9781664340146126e-02 5.2811106739173101e-02 0.0000000000000000e+00  9.9649344853127861e-02 5.2143472827501099e-02 0.0000000000000000e+00  9.9478011121158172e-02 5.1383303528604984e-02 0.0000000000000000e+00  9.9252522617886696e-02 5.0488943664084122e-02 0.0000000000000000e+00  9.8974272827059187e-02 4.9507777721388285e-02 0.0000000000000000e+00  9.8623567553574376e-02 4.8387783323668901e-02 0.0000000000000000e+00  9.8207627588043550e-02 4.7191335816634178e-02 0.0000000000000000e+00  9.7698997664328865e-02 4.5859330582998362e-02 0.0000000000000000e+00  9.7115505725737183e-02 4.4464352795951720e-02 0.0000000000000000e+00  9.6419174760347323e-02 4.2953257416887554e-02 0.0000000000000000e+00  9.5644013382562398e-02 4.1398320454805196e-02 0.0000000000000000e+00  9.4743216163339541e-02 3.9740042309495287e-02 0.0000000000000000e+00  9.3761934201859881e-02 3.8068277154763477e-02 0.0000000000000000e+00  9.2651866623014292e-02 3.6317822807917122e-02 0.0000000000000000e+00  9.1468238695657539e-02 3.4579935515813641e-02 0.0000000000000000e+00  9.0151502497755762e-02 3.2782953876658943e-02 0.0000000000000000e+00  8.8772686499190734e-02 3.1028036466857169e-02 0.0000000000000000e+00  8.7272379766152444e-02 2.9243466457822085e-02 0.0000000000000000e+00  8.5729824826396697e-02 2.7525496578997673e-02 0.0000000000000000e+00  8.4063759480657876e-02 2.5789071752024592e-02 0.0000000000000000e+00  8.2374358679107459e-02 2.4142282573035238e-02 0.0000000000000000e+00  8.0595350732163021e-02 2.2504592939898833e-02 0.0000000000000000e+00  7.8811469897870370e-02 2.0964600268153423e-02 0.0000000000000000e+00  7.6957669537389931e-02 1.9440560889943018e-02 0.0000000000000000e+00  7.5123718037984052e-02 1.8016077469622419e-02 0.0000000000000000e+00  7.3214627146491559e-02 1.6623928712213180e-02 0.0000000000000000e+00  7.1346721069116714e-02 1.5333889954324843e-02 0.0000000000000000e+00  6.9428839278433754e-02 1.4082078827254089e-02 0.0000000000000000e+00  6.7566643049516623e-02 1.2930165867417744e-02 0.0000000000000000e+00  6.5673612802686548e-02 1.1806297919881838e-02 0.0000000000000000e+00  6.3843951676652411e-02 1.0774264965353142e-02 0.0000000000000000e+00  6.1989255907975854e-02 9.7776206561917649e-03 0.0000000000000000e+00  6.0206382850591135e-02 8.8654143699966083e-03 0.0000000000000000e+00  5.8406143667989942e-02 7.9848854086662247e-03 0.0000000000000000e+00  5.6683181323606321e-02 7.1899783354445702e-03 0.0000000000000000e+00  5.4952486722826113e-02 6.4085643441489050e-03 0.0000000000000000e+00  5.3298956481792795e-02 5.6999556138189501e-03 0.0000000000000000e+00  5.1637101878724022e-02 5.0286222935390255e-03 0.0000000000000000e+00  5.0055287413779286e-02 4.4139335799047007e-03 0.0000000000000000e+00  4.8470657225309244e-02 3.8249415134321793e-03 0.0000000000000000e+00  4.6963742371667928e-02 3.2895140696357151e-03 0.0000000000000000e+00  4.5456596593473182e-02 2.7759281222183062e-03 0.0000000000000000e+00  4.4025168776142327e-02 2.3101241581502414e-03 0.0000000000000000e+00  4.2594855656933606e-02 1.8705457833835630e-03 0.0000000000000000e+00  4.1239836929591607e-02 1.4766290326289615e-03 0.0000000000000000e+00  3.9886267160288494e-02 1.0920169444939328e-03 0.0000000000000000e+00  3.8604010023476805e-02 7.5019634457858448e-04 0.0000000000000000e+00  3.7325041094274813e-02 4.2307575258641286e-04 0.0000000000000000e+00  3.6113486517416284e-02 1.2953613391592926e-04 0.0000000000000000e+00  3.4903852727326247e-02 -1.4591568536707680e-04 0.0000000000000000e+00  3.3759947351956837e-02 -3.8552967339887839e-04 0.0000000000000000e+00  3.2619632602155627e-02 -6.1769337704008491e-04 0.0000000000000000e+00  3.1541426451578758e-02 -8.2200271326123497e-04 0.0000000000000000e+00  3.0465237116252281e-02 -1.0123249875238361e-03 0.0000000000000000e+00  2.9447120737728698e-02 -1.1787002898271245e-03 0.0000000000000000e+00  2.8433738010794303e-02 -1.3334819309178594e-03 0.0000000000000000e+00  2.7475994817790901e-02 -1.4685506275259911e-03 0.0000000000000000e+00  2.6520871321508727e-02 -1.5884459170741150e-03 0.0000000000000000e+00  2.5620759370459614e-02 -1.6848853495624611e-03 0.0000000000000000e+00  2.4715737134218499e-02 -1.7830122983118145e-03 0.0000000000000000e+00  2.3860548359125894e-02 -1.8572949536945593e-03 0.0000000000000000e+00  2.3012439296178036e-02 -1.9186459695680854e-03 0.0000000000000000e+00  2.2210393767257624e-02 -1.9649430367174193e-03 0.0000000000000000e+00  2.1410971295660067e-02 -2.0032139604094692e-03 0.0000000000000000e+00  2.0655010880968563e-02 -2.0271636942199430e-03 0.0000000000000000e+00  1.9903162753994088e-02 -2.0387649659083982e-03 0.0000000000000000e+00  1.9192698393184611e-02 -2.0399214698062240e-03 0.0000000000000000e+00  1.8485871089991526e-02 -2.0295668405880540e-03 0.0000000000000000e+00  1.7818302356831052e-02 -2.0102113638660211e-03 0.0000000000000000e+00  1.7154318729256428e-02 -1.9801790378076870e-03 0.0000000000000000e+00  1.6527737879332791e-02 -1.9420332398446265e-03 0.0000000000000000e+00  1.5905164517521889e-02 -1.8933123778512781e-03 0.0000000000000000e+00  1.5319629432765634e-02 -1.8341800647703847e-03 0.0000000000000000e+00  1.4732641379694680e-02 -1.7723237447896999e-03 0.0000000000000000e+00  1.4180098046584377e-02 -1.6980287712677531e-03 0.0000000000000000e+00  1.3633837348931008e-02 -1.6165352988261139e-03 0.0000000000000000e+00  1.3119270922043541e-02 -1.5295332496205760e-03 0.0000000000000000e+00  1.2610620351136356e-02 -1.4306925627714261e-03 0.0000000000000000e+00  1.2132406782791084e-02 -1.3297303160520301e-03 0.0000000000000000e+00  1.1658930696337900e-02 -1.2204116770360653e-03 0.0000000000000000e+00  1.1215655599018158e-02 -1.1094839899635763e-03 0.0000000000000000e+00  1.0774932135467610e-02 -9.9024864500943063e-04 0.0000000000000000e+00  1.0363900858429621e-02 -8.6724251822381407e-04 0.0000000000000000e+00  9.9535745762349779e-03 -7.4084345199386154e-04 0.0000000000000000e+00  9.5706597559688071e-03 -6.1136946785215161e-04 0.0000000000000000e+00  9.1945837880971701e-03 -4.7647233679524477e-04 0.0000000000000000e+00  8.8418663318567212e-03 -3.4616040478295068e-04 0.0000000000000000e+00  8.5033437941936917e-03 -2.0086992860597237e-04 0.0000000000000000e+00  8.1898155417331042e-03 -6.5131018621671842e-05 0.0000000000000000e+00  7.8702643858761471e-03 7.2882816480248914e-05 0.0000000000000000e+00  7.5745890846981752e-03 2.0982606213549944e-04 0.0000000000000000e+00  7.2876702425517985e-03 3.4805402361005704e-04 0.0000000000000000e+00  7.0219759610123875e-03 4.8290110508201827e-04 0.0000000000000000e+00  6.7608030408159367e-03 6.1773219679672124e-04 0.0000000000000000e+00  6.5202138430777920e-03 7.4660366913343571e-04 0.0000000000000000e+00  6.2817244217026726e-03 8.7163426974382736e-04 0.0000000000000000e+00  6.0612097578498225e-03 9.9092359625397165e-04 0.0000000000000000e+00  5.8448300676913409e-03 1.1078115531356059e-03 0.0000000000000000e+00  5.6442393242651786e-03 1.2170705923278855e-03 0.0000000000000000e+00  5.4476135541949525e-03 1.3220537372294829e-03 0.0000000000000000e+00  5.2651502686176868e-03 1.4185270048232630e-03 0.0000000000000000e+00  5.0846915368048104e-03 1.5092507290055629e-03 0.0000000000000000e+00  4.9177990671019208e-03 1.5916444628637752e-03 0.0000000000000000e+00  4.7467936588470681e-03 1.6641547136571973e-03 0.0000000000000000e+00  4.5861832760022226e-03 1.7291387671514074e-03 0.0000000000000000e+00  4.4295386529837350e-03 1.7888224067859697e-03 0.0000000000000000e+00  4.2798587096281393e-03 1.8374397629979274e-03 0.0000000000000000e+00  4.1300352132740605e-03 1.8788071301019827e-03 0.0000000000000000e+00  3.9856476938471665e-03 1.9100448399810169e-03 0.0000000000000000e+00  3.8404356926100476e-03 1.9351166021458384e-03 0.0000000000000000e+00  3.6999145886996657e-03 1.9506315737200664e-03 0.0000000000000000e+00  3.5545821488408872e-03 1.9582245897101277e-03 0.0000000000000000e+00  3.4137725678657022e-03 1.9590194409840269e-03 0.0000000000000000e+00  3.2651026291002218e-03 1.9524087669105792e-03 0.0000000000000000e+00  3.1191700261979163e-03 1.9401112735551106e-03 0.0000000000000000e+00  2.9736884226297272e-03 1.9244488944210249e-03 0.0000000000000000e+00  2.8283111363304829e-03 1.9015506287928530e-03 0.0000000000000000e+00  2.6713303461589660e-03 1.8726489392936704e-03 0.0000000000000000e+00  2.5179504653800697e-03 1.8412174345093042e-03 0.0000000000000000e+00  2.3589307487588435e-03 1.8113282554631080e-03 0.0000000000000000e+00  2.2016882501185680e-03 1.7723776846200088e-03 0.0000000000000000e+00  2.0388613278545906e-03 1.7395854597338919e-03 0.0000000000000000e+00  1.8749855550898122e-03 1.7034667708512446e-03 0.0000000000000000e+00  1.6990895051941202e-03 1.6645205689615416e-03 0.0000000000000000e+00  1.5261824117859158e-03 1.6289903362249824e-03 0.0000000000000000e+00  1.3472470883799088e-03 1.5973412381699058e-03 0.0000000000000000e+00  1.1685742934023416e-03 1.5671432367689241e-03 0.0000000000000000e+00  9.8209805915514762e-04 1.5392801658841225e-03 0.0000000000000000e+00  7.9648048186163611e-04 1.5153153435814163e-03 0.0000000000000000e+00  6.0020955972535936e-04 1.4963627581005654e-03 0.0000000000000000e+00  4.0398813569347960e-04 1.4802884460153826e-03 0.0000000000000000e+00  2.0243089041182999e-04 1.4761370125445897e-03 0.0000000000000000e+00  1.6706299713547838e-21 1.4070443239699928e-03 0.0000000000000000e+00  2.3232198039152492e-20 1.3273484982901406e-03 0.0000000000000000e+00  2.5685935809579826e-20 1.2430435252935321e-03 0.0000000000000000e+00  -3.9333537630347978e-22 1.1596245093604077e-03 0.0000000000000000e+00  -3.7610206963675236e-21 1.0781144260131326e-03 0.0000000000000000e+00  4.5481619912405144e-21 9.9805239229143992e-04 0.0000000000000000e+00  0.0000000000000000e+00 9.1978885275110199e-04 0.0000000000000000e+00  2.4511438673274066e-20 8.4358251874985237e-04 0.0000000000000000e+00  5.2717860764687781e-20 7.6957979095430449e-04 0.0000000000000000e+00  -1.2939220989643517e-20 6.9790315065480790e-04 0.0000000000000000e+00  -1.0930338858595281e-20 6.2855077147493089e-04 0.0000000000000000e+00  1.7661052707383115e-21 5.6203429156661145e-04 0.0000000000000000e+00  0.0000000000000000e+00 4.9799179092713101e-04 0.0000000000000000e+00  1.0562072825487861e-21 4.3696041708485034e-04 0.0000000000000000e+00  1.2160942453305246e-20 3.7907060656692713e-04 0.0000000000000000e+00  5.8030009479364362e-21 3.2446536456944345e-04 0.0000000000000000e+00  1.1349466487815138e-20 2.7374880785039496e-04 0.0000000000000000e+00  9.9002865533095787e-21 2.2689002805925988e-04 0.0000000000000000e+00  -1.3699165295435775e-21 1.8392398737113977e-04 0.0000000000000000e+00  -7.1733169894749966e-22 1.4504144752323646e-04 0.0000000000000000e+00  1.3459502021983831e-20 1.0981284236578765e-04 0.0000000000000000e+00  -9.2230518256067540e-22 7.9384014061373347e-05 0.0000000000000000e+00  -9.4094256229663275e-22 5.3907896918856796e-05 0.0000000000000000e+00  -3.0267407040364457e-21 3.3305089164802210e-05 0.0000000000000000e+00  -4.0716616765302385e-22 1.8457849166572596e-05 0.0000000000000000e+00  8.1886336935309940e-22 8.8288479003839674e-06 0.0000000000000000e+00  2.0177067020768973e-21 1.4343809292851021e-06 0.0000000000000000e+00  0.0000000000000000e+00 1.4853619906476100e-22 0.0000000000000000e+00  -5.2053354052383810e-21 7.8732570042241027e-22 0.0000000000000000e+00  1.9385283601043103e-21 4.8463209002607757e-22 0.0000000000000000e+00  3.0123077298293929e-22 -8.4555879219152899e-22 0.0000000000000000e+00  -4.3084102880199092e-21 -4.0391346450186648e-22 0.0000000000000000e+00  -1.1284166254638819e-21 1.2694687036468671e-21 0.0000000000000000e+00  -4.5148008550790432e-21 -8.4652516032732065e-22 0.0000000000000000e+00  -2.7874055889364770e-20 -5.6741366591942961e-22 0.0000000000000000e+00  4.6143811007920650e-20 2.0187917315965282e-21 0.0000000000000000e+00  4.9008647131347593e-20 -1.3922911116860111e-22 0.0000000000000000e+00  -2.7748212618315241e-20 1.7342632886447025e-21 0.0000000000000000e+00  -5.7540670782504263e-20 -1.0809324378613695e-21 0.0000000000000000e+00  -7.4996224018913753e-20 1.1718160002955274e-21 0.0000000000000000e+00  5.5858156276342295e-20 1.3091755377267726e-21 0.0000000000000000e+00  -5.4495881686651119e-20 6.3862361351544280e-22 0.0000000000000000e+00  -7.6137235628483412e-20 1.4128117959465851e-22 0.0000000000000000e+00  8.9603334810605382e-20 -5.8335504433987874e-22 0.0000000000000000e+00  2.8160340302010649e-20 1.9643094518701624e-23 0.0000000000000000e+00  8.4636668505789109e-20 1.0331624573460584e-22 0.0000000000000000e+00  4.9554248312337427e-20 -8.0823760494071944e-22 0.0000000000000000e+00  0.0000000000000000e+00 -3.1749347560128945e-22 0.0000000000000000e+00  3.7054877324683562e-20 -4.9627067845558336e-22 0.0000000000000000e+00  1.0711184454574377e-20 -1.6736225710272464e-22 0.0000000000000000e+00  5.6957727305476644e-20 -6.5994408921254206e-22 0.0000000000000000e+00  1.9758352824636240e-20 0.0000000000000000e+00 0.0000000000000000e+00  3.7789595597995393e-20 1.3496284142141211e-21 0.0000000000000000e+00  2.5520872989173543e-20 3.9876364045583661e-22 0.0000000000000000e+00  4.6491656742286209e-20 -5.0735781122517902e-21 0.0000000000000000e+00  -1.7104063563915563e-19 8.2231074826517129e-22 0.0000000000000000e+00  -9.5132068718361726e-20 1.2577557162283402e-21 0.0000000000000000e+00  -6.6643822147008788e-20 5.2065486052350615e-22 0.0000000000000000e+00  3.9692892577527751e-20 2.2429202997575613e-21 0.0000000000000000e+00  7.2925338009748843e-20 1.7091876096034883e-21 0.0000000000000000e+00  3.2708462774701425e-20 -3.5044781544322955e-21 0.0000000000000000e+00  1.9139552855087342e-20 3.5886661603288764e-21 0.0000000000000000e+00  -5.3037791399001430e-20 1.8654009551223462e-21 0.0000000000000000e+00  5.9981291644585072e-20 -1.4995322911146268e-20 0.0000000000000000e+00  -2.5722845486762453e-20 -4.5933652654932954e-21 0.0000000000000000e+00  5.9096318643360244e-20 -2.2161119491260093e-20 0.0000000000000000e+00  4.3966877592290490e-20 -2.1483453200592496e-20 0.0000000000000000e+00  -1.9299555861717661e-20 -3.2165926436196101e-21 0.0000000000000000e+00  -1.0687528579490048e-20 -8.5500228635920385e-22 0.0000000000000000e+00  -7.3703639524117474e-21 9.2129549405146838e-21 0.0000000000000000e+00  1.8256266117414757e-21 -3.8222704408485169e-21 0.0000000000000000e+00  -5.2490261293766084e-22 -3.1494156776259649e-21 0.0000000000000000e+00  2.2094910033718101e-21 -1.3809318771073813e-21 0.0000000000000000e+00  -1.3742400254469449e-20 4.5808000848231498e-21 0.0000000000000000e+00  -3.9330126743539866e-20 2.1909217300437133e-20 0.0000000000000000e+00  -1.4263471267831086e-20 -4.7544904226103626e-21 0.0000000000000000e+00  1.1449077059254114e-20 -7.1556731620338214e-21 0.0000000000000000e+00  -8.9803680252495649e-21 3.3676380094685867e-21 0.0000000000000000e+00  -7.0774614474178270e-20 3.2030952948189681e-22 0.0000000000000000e+00  6.0927206219796197e-21 0.0000000000000000e+00 0.0000000000000000e+00  4.3299859484079750e-20 -4.1495698672243092e-21 0.0000000000000000e+00  -2.2443048308896590e-20 -7.0134525965301850e-21 0.0000000000000000e+00  8.0116894827771678e-20 3.1681134175219838e-22 0.0000000000000000e+00  3.7598325825031078e-20 6.5797070193804378e-21 0.0000000000000000e+00  -5.8890194499052461e-21 6.1343952603179653e-22 0.0000000000000000e+00  4.8865259263376819e-20 2.5450655866342091e-21 0.0000000000000000e+00  8.1001900481255262e-20 3.1213468598875299e-21 0.0000000000000000e+00  5.3953369652456223e-20 5.6201426721308565e-22 0.0000000000000000e+00  -6.6283636036993959e-20 -3.4029545286849582e-21 0.0000000000000000e+00  9.9318357778489578e-20 -3.1036986805777995e-22 0.0000000000000000e+00  1.0779664072829762e-20 -4.0832060881930914e-22 0.0000000000000000e+00  -2.2191248167310513e-20 -3.4673825261422676e-22 0.0000000000000000e+00  -2.9417798982780560e-21 -8.0439294093540596e-22 0.0000000000000000e+00  0.0000000000000000e+00 0.0000000000000000e+00 0.0000000000000000e+00  6.3174056662250229e-20 4.3265511614264308e-23 0.0000000000000000e+00  2.7213995115998464e-20 -1.8603316973827075e-22 0.0000000000000000e+00  -1.0097983141934244e-19 -2.0081216475437419e-22 0.0000000000000000e+00  1.5292803329207399e-20 -1.5531753381226264e-21 0.0000000000000000e+00  8.3337507839445488e-20 8.4987971325270175e-22 0.0000000000000000e+00  -6.9168495478011685e-20 8.1056830638294943e-22 0.0000000000000000e+00  0.0000000000000000e+00 4.9169566093844986e-22 0.0000000000000000e+00  9.6413667371119386e-21 0.0000000000000000e+00 0.0000000000000000e+00  -9.8001471202887738e-20 4.4109776331894106e-21 0.0000000000000000e+00  1.0211125061452006e-19 -3.5100742398741271e-21 0.0000000000000000e+00  -3.9834653690497462e-20 -7.7802057989252856e-22 0.0000000000000000e+00  -5.2818410406984086e-20 3.9613807805238065e-21 0.0000000000000000e+00  -6.1122566382895268e-20 2.2101184741113494e-21 0.0000000000000000e+00  -3.7688113752787701e-20 -1.4721919434682695e-21 0.0000000000000000e+00  -6.5102390901164845e-21 -1.0850398483527474e-21 0.0000000000000000e+00  0.0000000000000000e+00 3.3993303556986404e-21 0.0000000000000000e+00  -1.1331827096810665e-20 -7.4871780846937407e-21 0.0000000000000000e+00  1.5764284910809498e-20 9.8526780692559361e-22 0.0000000000000000e+00  -3.8672995526060150e-20 1.8483416979366984e-21 0.0000000000000000e+00  -2.4604363815053959e-20 -2.0503636512544964e-21 0.0000000000000000e+00  -1.0094477022617502e-19 -3.4573434350913669e-21 0.0000000000000000e+00  -2.8772212574518413e-20 5.9942109530246690e-22 0.0000000000000000e+00  -3.2926978737941573e-20 2.5199218421894062e-21 0.0000000000000000e+00  -2.4410132901135408e-20 0.0000000000000000e+00 0.0000000000000000e+00  -2.6760570721421823e-21 1.4366472888728154e-21 0.0000000000000000e+00  3.0915925038867596e-20 3.8644906298584495e-21 0.0000000000000000e+00  4.8868436588019995e-21 2.0361848578341664e-22 0.0000000000000000e+00  -2.0570418292943889e-20 -2.5713022866179861e-21 0.0000000000000000e+00  -2.2400354421134429e-20 1.0088394913930028e-21 0.0000000000000000e+00  2.1508350237054969e-20 -4.4809062993864521e-21 0.0000000000000000e+00  2.7910246106147011e-20 7.8778920460898828e-22 0.0000000000000000e+00  -3.6173084987262288e-21 0.0000000000000000e+00 0.0000000000000000e+00  -4.2849851695370210e-20 8.4543465189408302e-22 0.0000000000000000e+00  1.3894039838809720e-20 1.7367549798512150e-21 0.0000000000000000e+00  3.4730597196298384e-20 -4.1469369786624937e-21 0.0000000000000000e+00  4.9664241268627967e-21 4.3456211110049469e-21 0.0000000000000000e+00  -1.0821816802559542e-20 3.2617705405983035e-21 0.0000000000000000e+00  -7.0825270344743455e-21 4.4265793965464659e-22 0.0000000000000000e+00  1.5842960083223779e-21 2.5744810135238639e-21 0.0000000000000000e+00  -5.6071883329868838e-21 2.1026956248700813e-21 0.0000000000000000e+00  -7.4170602546166955e-21 7.3788935637696110e-23 0.0000000000000000e+00  6.7016893401729781e-21 -2.0942779188040555e-21 0.0000000000000000e+00  0.0000000000000000e+00 3.2789073499957722e-22 0.0000000000000000e+00  -1.8540344084415823e-21 -2.7810516126623736e-21 0.0000000000000000e+00  9.9882314785445567e-21 1.1419471964799418e-22 0.0000000000000000e+00  -4.0968763762938063e-21 1.0242190940734516e-21 0.0000000000000000e+00  7.2216634420327069e-21 -1.6716813523223858e-21 0.00