<?xml version="1.0"?>
<VTKFile type="UnstructuredGrid"  version="0.1"  >
<UnstructuredGrid>
<Piece  NumberOfPoints="13179" NumberOfCells="25814">
<Points>
<DataArray  type="Float64"  NumberOfComponents="3"  format="ascii">0 0 0  30 0 0  30 -10 0  0 -10 0  0.02360821169319077 0 0  0.04721642338638154 0 0  0.07206717063563725 0 0  0.09691791788489297 0 0  0.1230766011355843 0 0  0.1492352843862757 0 0  0.1767707375239038 0 0  0.204306190661532 0 0  0.2332908770901271 0 0  0.2622755635187223 0 0  0.2927857633803451 0 0  0.323295963241968 0 0  0.3554119623832387 0 0  0.3875279615245094 0 0  0.4213342730081758 0 0  0.4551405844918422 0 0  0.4907261762804851 0 0  0.526311768069128 0 0  0.5637702848355051 0 0  0.6012288016018821 0 0  0.6406588220121138 0 0  0.6800888424223455 0 0  0.721594129780935 0 0  0.7630994171395246 0 0  0.8067891887833475 0 0  0.8504789604271704 0 0  0.8964681941825949 0 0  0.9424574279380195 0 0  0.9908671465681095 0 0  1.039276865198199 0 0  1.090234462786975 0 0  1.141192060375751 0 0  1.194831641933244 0 0  1.248471223490737 0 0  1.304933942963653 0 0  1.361396662436569 0 0  1.420831104471586 0 0  1.480265546506604 0 0  1.542828113436244 0 0  1.605390680365884 0 0  1.671246013469327 0 0  1.73710134657277 0 0  1.806422752814762 0 0  1.875744159056755 0 0  1.948714057431306 0 0  2.021683955805857 0 0  2.098494373901932 0 0  2.175304791998006 0 0  2.256157866653476 0 0  2.337010941308945 0 0  2.422119443935387 0 0  2.50722794656183 0 0  2.596815840700639 0 0  2.686403734839449 0 0  2.780706776094687 0 0  2.875009817349925 0 0  2.974276175689285 0 0  3.073542534028646 0 0  3.178033441002704 0 0  3.282524347976761 0 0  3.392514777963501 0 0  3.502505207950242 0 0  3.618284608533553 0 0  3.734064009116865 0 0  3.855937062816526 0 0  3.977810116516187 0 0  4.106097541496641 0 0  4.234384966477093 0 0  4.369424362562147 0 0  4.5044637586472 0 0  4.646610489729194 0 0  4.788757220811188 0 0  4.938385356669961 0 0  5.088013492528733 0 0  5.24551679218304 0 0  5.403020091837347 0 0  5.568813038399614 0 0  5.73460598496188 0 0  5.909124878408681 0 0  6.083643771855482 0 0  6.267347873338513 0 0  6.451051974821543 0 0  6.644424714363561 0 0  6.83779745390558 0 0  7.041347702348167 0 0  7.244897950790754 0 0  7.459161368238869 0 0  7.673424785686984 0 0  7.898965226038037 0 0  8.124505666389089 0 0  8.361916654054033 0 0  8.599327641718979 0 0  8.849233942517035 0 0  9.099140243315093 0 0  9.362199507946787 0 0  9.625258772578484 0 0  9.902163261537794 0 0  10.1790677504971 0 0  10.47054616023911 0 0  10.76202456998112 0 0  11.06884394887334 0 0  11.37566332776555 0 0  11.69863109504192 0 0  12.02159886231829 0 0  12.3615649378891 0 0  12.7015310134599 0 0  13.05939003847426 0 0  13.41724906348862 0 0  13.79394276982091 0 0  14.1706364761532 0 0  14.5671561683298 0 0  14.96367586050641 0 0  15.38106501332897 0 0  15.79845416615153 0 0  16.23781117165827 0 0  16.677168177165 0 0  17.13964923659526 0 0  17.60213029602552 0 0  18.0889524622663 0 0  18.57577462850707 0 0  19.08821901304263 0 0  19.60066339757818 0 0  20.14007853843172 0 0  20.67949367928525 0 0  21.24729908993883 0 0  21.8151045005924 0 0  22.41279440541421 0 0  23.01048431023601 0 0  23.63963157605829 0 0  24.26877884188056 0 0  24.93103912515648 0 0  25.59329940843241 0 0  26.29041549584691 0 0  26.98753158326142 0 0  27.72133799026916 0 0  28.45514439727691 0 0  29.22757219863846 0 0  30 -0.3571428571428571 0  30 -0.7142857142857142 0  30 -1.071428571428571 0  30 -1.428571428571428 0  30 -1.785714285714286 0  30 -2.142857142857143 0  30 -2.5 0  30 -2.857142857142857 0  30 -3.214285714285714 0  30 -3.571428571428571 0  30 -3.928571428571428 0  30 -4.285714285714286 0  30 -4.642857142857142 0  30 -5 0  30 -5.357142857142857 0  30 -5.714285714285714 0  30 -6.071428571428571 0  30 -6.428571428571428 0  30 -6.785714285714285 0  30 -7.142857142857142 0  30 -7.5 0  30 -7.857142857142857 0  30 -8.214285714285714 0  30 -8.571428571428571 0  30 -8.928571428571427 0  30 -9.285714285714285 0  30 -9.642857142857142 0  29.22757220128658 -10 0  28.45514440257316 -10 0  27.72133799277628 -10 0  26.98753158297939 -10 0  26.29041549304805 -10 0  25.5932994031167 -10 0  24.93103911757599 -10 0  24.26877883203527 -10 0  23.63963156418132 -10 0  23.01048429632737 -10 0  22.41279438968936 -10 0  21.81510448305136 -10 0  21.24729907078059 -10 0  20.67949365850982 -10 0  20.14007851622273 -10 0  19.60066337393564 -10 0  19.08821898813588 -10 0  18.57577460233611 -10 0  18.08895243498708 -10 0  17.60213026763805 -10 0  17.13964920724307 -10 0  16.6771681468481 -10 0  16.2378111405086 -10 0  15.79845413416909 -10 0  15.38106498063496 -10 0  14.96367582710082 -10 0  14.56715613432376 -10 0  14.17063644154669 -10 0  13.79394273471576 -10 0  13.41724902788484 -10 0  13.05939000246495 -10 0  12.70153097704506 -10 0  12.36156490115379 -10 0  12.02159882526251 -10 0  11.69863105774323 -10 0  11.37566329022395 -10 0  11.06884391115945 -10 0  10.76202453209494 -10 0  10.47054612224479 -10 0  10.17906771239465 -10 0  9.902163223385379 -10 0  9.625258734376107 -10 0  9.362199469747061 -10 0  9.099140205118012 -10 0  8.849233904370102 -10 0  8.599327603622193 -10 0  8.361916616050124 -10 0  8.124505628478055 -10 0  7.898965188258209 -10 0  7.673424748038361 -10 0  7.459161330755727 -10 0  7.244897913473093 -10 0  7.041347665226496 -10 0  6.837797416979896 -10 0  6.644424677660922 -10 0  6.451051938341948 -10 0  6.26734783710581 -10 0  6.083643735869675 -10 0  5.90912484269068 -10 0  5.734605949511682 -10 0  5.568813003235423 -10 0  5.403020056959164 -10 0  5.24551675760658 -10 0  5.088013458254 -10 0  4.938385322710374 -10 0  4.788757187166745 -10 0  4.646610456411224 -10 0  4.504463725655707 -10 0  4.369424329906533 -10 0  4.234384934157362 -10 0  4.106097509520442 -10 0  3.977810084883522 -10 0  3.85593703153344 -10 0  3.734063978183357 -10 0  3.618284577954206 -10 0  3.502505177725055 -10 0  3.392514748095728 -10 0  3.282524318466404 -10 0  3.1780334118518 -10 0  3.073542505237196 -10 0  2.97427614725823 -10 0  2.875009789279265 -10 0  2.780706748384375 -10 0  2.686403707489482 -10 0  2.596815813710069 -10 0  2.507227919930656 -10 0  2.422119417661861 -10 0  2.337010915393062 -10 0  2.256157841092762 -10 0  2.175304766792465 -10 0  2.098494349048437 -10 0  2.021683931304413 -10 0  1.948714033278215 -10 0  1.875744135252013 -10 0  1.806422729354161 -10 0  1.737101323456312 -10 0  1.671245990692352 -10 0  1.605390657928396 -10 0  1.542828091333185 -10 0  1.480265524737977 -10 0  1.420831083031992 -10 0  1.36139664132601 -10 0  1.304933922176438 -10 0  1.248471203026863 -10 0  1.194831621786765 -10 0  1.14119204054667 -10 0  1.09023444350921 -10 0  1.039276846471754 -10 0  0.9908671279064798 -10 0  0.942457409341209 -10 0  0.8964681758842019 -10 0  0.8504789424271948 -10 0  0.8067891710751951 -10 0  0.7630993997231954 -10 0  0.7215941126497469 -10 0  0.6800888255762949 -10 0  0.6406588054444597 -10 0  0.6012287853126246 -10 0  0.5637702688178621 -10 0  0.5263117523230996 -10 0  0.4907261607992695 -10 0  0.4551405692754429 -10 0  0.4213342580497894 -10 0  0.3875279468241395 -10 0  0.3554119479341011 -10 0  0.3232959490440663 -10 0  0.2927857494269297 -10 0  0.2622755498097931 -10 0  0.2332908636189828 -10 0  0.2043061774281725 -10 0  0.1767707245216883 -10 0  0.1492352716152006 -10 0  0.1230765885890825 -10 0  0.09691790556296098 -10 0  0.0720671585317838 -10 0  0.04721641150060663 -10 0  0.02360820575030331 -10 0  0 -9.957983193277311 0  0 -9.915966386554622 0  0 -9.873949579831933 0  0 -9.831932773109244 0  0 -9.789915966386555 0  0 -9.747899159663866 0  0 -9.705882352941176 0  0 -9.663865546218487 0  0 -9.621848739495798 0  0 -9.579831932773109 0  0 -9.53781512605042 0  0 -9.495798319327731 0  0 -9.453781512605042 0  0 -9.411764705882353 0  0 -9.369747899159664 0  0 -9.327731092436975 0  0 -9.285714285714286 0  0 -9.243697478991596 0  0 -9.201680672268907 0  0 -9.159663865546218 0  0 -9.117647058823529 0  0 -9.07563025210084 0  0 -9.033613445378151 0  0 -8.991596638655462 0  0 -8.949579831932773 0  0 -8.907563025210084 0  0 -8.865546218487395 0  0 -8.823529411764707 0  0 -8.781512605042018 0  0 -8.739495798319329 0  0 -8.69747899159664 0  0 -8.655462184873949 0  0 -8.61344537815126 0  0 -8.571428571428571 0  0 -8.529411764705882 0  0 -8.487394957983193 0  0 -8.445378151260504 0  0 -8.403361344537815 0  0 -8.361344537815127 0  0 -8.319327731092438 0  0 -8.277310924369749 0  0 -8.235294117647058 0  0 -8.193277310924369 0  0 -8.15126050420168 0  0 -8.109243697478991 0  0 -8.067226890756302 0  0 -8.025210084033613 0  0 -7.983193277310924 0  0 -7.941176470588236 0  0 -7.899159663865547 0  0 -7.857142857142857 0  0 -7.815126050420168 0  0 -7.773109243697479 0  0 -7.73109243697479 0  0 -7.689075630252101 0  0 -7.647058823529411 0  0 -7.605042016806722 0  0 -7.563025210084033 0  0 -7.521008403361344 0  0 -7.478991596638656 0  0 -7.436974789915967 0  0 -7.394957983193278 0  0 -7.352941176470589 0  0 -7.3109243697479 0  0 -7.26890756302521 0  0 -7.226890756302521 0  0 -7.184873949579832 0  0 -7.142857142857143 0  0 -7.100840336134453 0  0 -7.058823529411764 0  0 -7.016806722689076 0  0 -6.974789915966387 0  0 -6.932773109243698 0  0 -6.890756302521009 0  0 -6.84873949579832 0  0 -6.806722689075631 0  0 -6.764705882352941 0  0 -6.722689075630252 0  0 -6.680672268907563 0  0 -6.638655462184874 0  0 -6.596638655462185 0  0 -6.554621848739496 0  0 -6.512605042016807 0  0 -6.470588235294118 0  0 -6.428571428571429 0  0 -6.38655462184874 0  0 -6.344537815126051 0  0 -6.302521008403362 0  0 -6.260504201680672 0  0 -6.218487394957983 0  0 -6.176470588235294 0  0 -6.134453781512605 0  0 -6.092436974789917 0  0 -6.050420168067227 0  0 -6.008403361344538 0  0 -5.966386554621849 0  0 -5.92436974789916 0  0 -5.882352941176471 0  0 -5.840336134453782 0  0 -5.798319327731092 0  0 -5.756302521008403 0  0 -5.714285714285714 0  0 -5.672268907563025 0  0 -5.630252100840336 0  0 -5.588235294117647 0 
[...]
<PointData  Vectors="displacement"> 
<DataArray  type="Float64"  Name="displacement"  NumberOfComponents="3" format="ascii">2.8200000000000175e-01 -4.5041395878035329e-01 0.0000000000000000e+00  2.7351457166408447e-19 9.8282247868382751e-03 0.0000000000000000e+00  1.3791433485223216e-20 -9.1648926073737100e-23 0.0000000000000000e+00  -1.0875808890599191e-21 1.4730370303542777e-20 0.0000000000000000e+00  2.3833964160911730e-01 -4.3598747790379244e-01 0.0000000000000000e+00  2.0409986078284179e-01 -4.2827519674759879e-01 0.0000000000000000e+00  1.7755785257360251e-01 -4.1443129263507705e-01 0.0000000000000000e+00  1.5687407668440378e-01 -4.0136666015366607e-01 0.0000000000000000e+00  1.3895343178864294e-01 -3.8886108099336286e-01 0.0000000000000000e+00  1.2421238280967692e-01 -3.7634402247897319e-01 0.0000000000000000e+00  1.1117405266878688e-01 -3.6386870062768228e-01 0.0000000000000000e+00  1.0034702755724959e-01 -3.5177565438139946e-01 0.0000000000000000e+00  9.0620699915328617e-02 -3.4050930310863681e-01 0.0000000000000000e+00  8.2515140935802520e-02 -3.2931972706360058e-01 0.0000000000000000e+00  7.5124013748249424e-02 -3.1870015495140136e-01 0.0000000000000000e+00  6.8874277294803166e-02 -3.0828271432064658e-01 0.0000000000000000e+00  6.3177492871836147e-02 -2.9829038941086883e-01 0.0000000000000000e+00  5.8311512400332166e-02 -2.8883215073168800e-01 0.0000000000000000e+00  5.3978461371837011e-02 -2.7938565978482738e-01 0.0000000000000000e+00  5.0211031072219442e-02 -2.7062824972896155e-01 0.0000000000000000e+00  4.6828225365085664e-02 -2.6186619367165748e-01 0.0000000000000000e+00  4.3976318398316408e-02 -2.5356822863164247e-01 0.0000000000000000e+00  4.1304756357627460e-02 -2.4542984423713610e-01 0.0000000000000000e+00  3.8912447397425401e-02 -2.3778014504505635e-01 0.0000000000000000e+00  3.6794587274993178e-02 -2.3010205800763028e-01 0.0000000000000000e+00  3.4970863380461521e-02 -2.2283872400733271e-01 0.0000000000000000e+00  3.3244219303455995e-02 -2.1572875862163374e-01 0.0000000000000000e+00  3.1786610134264967e-02 -2.0890062744910148e-01 0.0000000000000000e+00  3.0422697152862273e-02 -2.0211405947254979e-01 0.0000000000000000e+00  2.9176431543246235e-02 -1.9569753802992010e-01 0.0000000000000000e+00  2.8086512534391320e-02 -1.8927262526966790e-01 0.0000000000000000e+00  2.7121504490027960e-02 -1.8317687951329240e-01 0.0000000000000000e+00  2.6241262264838815e-02 -1.7704938725586308e-01 0.0000000000000000e+00  2.5451450271397086e-02 -1.7122257299855601e-01 0.0000000000000000e+00  2.4737310669444595e-02 -1.6535200078437676e-01 0.0000000000000000e+00  2.4116736731620781e-02 -1.5978535282176384e-01 0.0000000000000000e+00  2.3565888276222982e-02 -1.5418991088807510e-01 0.0000000000000000e+00  2.3095427325991631e-02 -1.4884845390747445e-01 0.0000000000000000e+00  2.2680173818812113e-02 -1.4349032778571524e-01 0.0000000000000000e+00  2.2323746688091763e-02 -1.3833944169239396e-01 0.0000000000000000e+00  2.2004344418529075e-02 -1.3319552465186527e-01 0.0000000000000000e+00  2.1792259826924443e-02 -1.2824525308793749e-01 0.0000000000000000e+00  2.1569791492406384e-02 -1.2326673410396770e-01 0.0000000000000000e+00  2.1417536355991841e-02 -1.1850872546185297e-01 0.0000000000000000e+00  2.1271699635072933e-02 -1.1370089119985599e-01 0.0000000000000000e+00  2.1204122100296749e-02 -1.0909631656094726e-01 0.0000000000000000e+00  2.1174506117159458e-02 -1.0446754480936524e-01 0.0000000000000000e+00  2.1182181589549324e-02 -1.0003422412395059e-01 0.0000000000000000e+00  2.1218480965352293e-02 -9.5543173238013576e-02 0.0000000000000000e+00  2.1285078114231294e-02 -9.1251361681961768e-02 0.0000000000000000e+00  2.1392333406381185e-02 -8.6922913723059048e-02 0.0000000000000000e+00  2.1508462857959380e-02 -8.2766103696234092e-02 0.0000000000000000e+00  2.1678174400263657e-02 -7.8579549704528628e-02 0.0000000000000000e+00  2.1868521854951972e-02 -7.4576120304665289e-02 0.0000000000000000e+00  2.2093053571294031e-02 -7.0539378639551828e-02 0.0000000000000000e+00  2.2337718824406341e-02 -6.6671300866990510e-02 0.0000000000000000e+00  2.2609667957097419e-02 -6.2767525749805764e-02 0.0000000000000000e+00  2.2901694476064775e-02 -5.9027803809917165e-02 0.0000000000000000e+00  2.3220868380636684e-02 -5.5260250348081831e-02 0.0000000000000000e+00  2.3553686491414563e-02 -5.1663083037586911e-02 0.0000000000000000e+00  2.3921853978448631e-02 -4.8039155853370347e-02 0.0000000000000000e+00  2.4301864627976386e-02 -4.4578336937451446e-02 0.0000000000000000e+00  2.4706905629915309e-02 -4.1086215317871592e-02 0.0000000000000000e+00  2.5120905287372469e-02 -3.7764939852814143e-02 0.0000000000000000e+00  2.5565877542595976e-02 -3.4429237851767859e-02 0.0000000000000000e+00  2.6014430398631359e-02 -3.1234234384301458e-02 0.0000000000000000e+00  2.6489172501662696e-02 -2.8037244778435704e-02 0.0000000000000000e+00  2.6970624669872233e-02 -2.4998197795564083e-02 0.0000000000000000e+00  2.7474930604719002e-02 -2.1948607458390168e-02 0.0000000000000000e+00  2.7976661204429029e-02 -1.9055961481995624e-02 0.0000000000000000e+00  2.8508381365085309e-02 -1.6169230278953874e-02 0.0000000000000000e+00  2.9037697152099858e-02 -1.3433356776789248e-02 0.0000000000000000e+00  2.9584069035997557e-02 -1.0694399793844067e-02 0.0000000000000000e+00  3.0125937580262829e-02 -8.1126303463644016e-03 0.0000000000000000e+00  3.0686567951761987e-02 -5.5455978136027713e-03 0.0000000000000000e+00  3.1237630714785861e-02 -3.1265620510100888e-03 0.0000000000000000e+00  3.1805028651343652e-02 -7.2747931768573412e-04 0.0000000000000000e+00  3.2359878658397775e-02 1.5244650683940318e-03 0.0000000000000000e+00  3.2927678594535624e-02 3.7408663828718955e-03 0.0000000000000000e+00  3.3477461054746041e-02 5.8124083686238708e-03 0.0000000000000000e+00  3.4038661554017080e-02 7.8457395895625594e-03 0.0000000000000000e+00  3.4579995092581285e-02 9.7392146192214913e-03 0.0000000000000000e+00  3.5126551256064793e-02 1.1588710674066603e-02 0.0000000000000000e+00  3.5650617874535495e-02 1.3285661604852408e-02 0.0000000000000000e+00  3.6172261623599794e-02 1.4948985130517593e-02 0.0000000000000000e+00  3.6664646816990588e-02 1.6463056913350645e-02 0.0000000000000000e+00  3.7149632072338207e-02 1.7916577862697465e-02 0.0000000000000000e+00  3.7606397162174433e-02 1.9235442660535708e-02 0.0000000000000000e+00  3.8050065688037482e-02 2.0493734419174903e-02 0.0000000000000000e+00  3.8458049316207554e-02 2.1611487853931684e-02 0.0000000000000000e+00  3.8851233704875247e-02 2.2652399132117248e-02 0.0000000000000000e+00  3.9197226849734028e-02 2.3580209232484869e-02 0.0000000000000000e+00  3.9521784068010969e-02 2.4428584195004543e-02 0.0000000000000000e+00  3.9802981678047349e-02 2.5149330603046922e-02 0.0000000000000000e+00  4.0049666839973651e-02 2.5795198223813928e-02 0.0000000000000000e+00  4.0250002604803714e-02 2.6332126814185064e-02 0.0000000000000000e+00  4.0412995863100133e-02 2.6782145245511257e-02 0.0000000000000000e+00  4.0528279922271045e-02 2.7121775752701107e-02 0.0000000000000000e+00  4.0587393815383267e-02 2.7387432958475490e-02 0.0000000000000000e+00  4.0600260353443690e-02 2.7544529560329632e-02 0.0000000000000000e+00  4.0567080579035859e-02 2.7614365511666402e-02 0.0000000000000000e+00  4.0468925380000950e-02 2.7611876124048109e-02 0.0000000000000000e+00  4.0315960775093113e-02 2.7527047640769235e-02 0.0000000000000000e+00  4.0108092150972004e-02 2.7361536020731270e-02 0.0000000000000000e+00  3.9835596479896943e-02 2.7120112960877713e-02 0.0000000000000000e+00  3.9506738873027532e-02 2.6818089120424517e-02 0.0000000000000000e+00  3.9107129108712307e-02 2.6453464473736171e-02 0.0000000000000000e+00  3.8668499435119061e-02 2.6007982384178677e-02 0.0000000000000000e+00  3.8132448351476403e-02 2.5538070515398567e-02 0.0000000000000000e+00  3.7592999825177033e-02 2.4995649409569186e-02 0.0000000000000000e+00  3.6925324248653905e-02 2.4421905905249328e-02 0.0000000000000000e+00  3.6233758342120913e-02 2.3835844462174880e-02 0.0000000000000000e+00  3.5490493905762754e-02 2.3159061027413920e-02 0.0000000000000000e+00  3.4690628119889141e-02 2.2520462529512047e-02 0.0000000000000000e+00  3.3831130370867497e-02 2.1819545710512495e-02 0.0000000000000000e+00  3.2937973361469940e-02 2.1124295127808397e-02 0.0000000000000000e+00  3.1923851298412367e-02 2.0404907446498068e-02 0.0000000000000000e+00  3.0919969616656134e-02 1.9701915879822507e-02 0.0000000000000000e+00  2.9864016163854586e-02 1.8991406415046375e-02 0.0000000000000000e+00  2.8796958464017350e-02 1.8298701221460711e-02 0.0000000000000000e+00  2.7669008640552595e-02 1.7587127870783370e-02 0.0000000000000000e+00  2.6483136234972580e-02 1.6925014580273328e-02 0.0000000000000000e+00  2.5273474517045955e-02 1.6259072280395501e-02 0.0000000000000000e+00  2.4078485256844792e-02 1.5638354403867020e-02 0.0000000000000000e+00  2.2826353358399585e-02 1.5025126318558447e-02 0.0000000000000000e+00  2.1583992197361231e-02 1.4452938849672393e-02 0.0000000000000000e+00  2.0295174270089526e-02 1.3898178978311880e-02 0.0000000000000000e+00  1.9018949960191218e-02 1.3384642612083950e-02 0.0000000000000000e+00  1.7696333610550407e-02 1.2884080393423068e-02 0.0000000000000000e+00  1.6398576609924925e-02 1.2447855796506672e-02 0.0000000000000000e+00  1.5070819051951741e-02 1.2039070856088518e-02 0.0000000000000000e+00  1.3765895617855827e-02 1.1664595018075338e-02 0.0000000000000000e+00  1.2429307637547054e-02 1.1304972752302994e-02 0.0000000000000000e+00  1.1107559566910612e-02 1.0999322410019496e-02 0.0000000000000000e+00  9.7621260148781312e-03 1.0729548655585426e-02 0.0000000000000000e+00  8.4524155339152970e-03 1.0482519845497543e-02 0.0000000000000000e+00  7.0370197494792515e-03 1.0273928338026412e-02 0.0000000000000000e+00  5.6477200091384341e-03 1.0087623771869333e-02 0.0000000000000000e+00  4.2585483023697430e-03 9.9814235015229496e-03 0.0000000000000000e+00  2.8741045323679012e-03 9.8784436387495678e-03 0.0000000000000000e+00  1.3878811549537804e-03 9.8359966551398673e-03 0.0000000000000000e+00  -2.4340941267877507e-19 9.3282128777816067e-03 0.0000000000000000e+00  -5.4973031842314909e-20 8.6910722395885237e-03 0.0000000000000000e+00  2.4397629228008022e-20 8.0992625679062596e-03 0.0000000000000000e+00  -5.6839330071362805e-20 7.5062804306714765e-03 0.0000000000000000e+00  -4.2125212859112420e-20 6.9331879790186920e-03 0.0000000000000000e+00  7.6031318713296853e-20 6.3772046175936768e-03 0.0000000000000000e+00  1.0652462737168720e-19 5.8385227041026838e-03 0.0000000000000000e+00  6.9042485111528950e-20 5.3160753912911548e-03 0.0000000000000000e+00  7.8480720405644123e-20 4.8123047807028209e-03 0.0000000000000000e+00  8.6060938326248258e-20 4.3288575570144617e-03 0.0000000000000000e+00  -4.3443012104950385e-20 3.8653178103108614e-03 0.0000000000000000e+00  -7.3663491564841768e-20 3.4260501251142236e-03 0.0000000000000000e+00  -3.8634485154778320e-20 3.0078352648068326e-03 0.0000000000000000e+00  1.5583781103599822e-20 2.6158209421145470e-03 0.0000000000000000e+00  4.3245754140452013e-20 2.2470512371757746e-03 0.0000000000000000e+00  4.1785548546866153e-20 1.9056698338662270e-03 0.0000000000000000e+00  -1.1003984101227936e-20 1.5914838658253835e-03 0.0000000000000000e+00  -3.1155042345369291e-20 1.3036860258188181e-03 0.0000000000000000e+00  1.0952425771292243e-19 1.0421088096087216e-03 0.0000000000000000e+00  4.4561459087113960e-20 8.1122811291118213e-04 0.0000000000000000e+00  -2.1033632694062513e-21 6.0863265946150798e-04 0.0000000000000000e+00  -3.4077910763889551e-20 4.3479928114498201e-04 0.0000000000000000e+00  2.3124026442893927e-20 2.8920895467081511e-04 0.0000000000000000e+00  1.9150187886014728e-20 1.7352806883253578e-04 0.0000000000000000e+00  2.5293080727123509e-20 8.7098999238933159e-05 0.0000000000000000e+00  2.0524873221717183e-20 2.5754383012639665e-05 0.0000000000000000e+00  -8.5790766767351018e-21 3.1898063051307779e-06 0.0000000000000000e+00  -1.8704118936939191e-20 -1.0564632396446631e-21 0.0000000000000000e+00  0.0000000000000000e+00 -4.2287347142153049e-22 0.0000000000000000e+00  8.1270300199282748e-20 4.2713083911554851e-21 0.0000000000000000e+00  -6.6827005798290999e-20 -9.7891121774840324e-21 0.0000000000000000e+00  -1.3667825529342747e-19 -5.0240060523157695e-22 0.0000000000000000e+00  0.0000000000000000e+00 -4.4302327148630142e-21 0.0000000000000000e+00  -7.9184915219604829e-20 4.1128670795923519e-21 0.0000000000000000e+00  4.1463234079221181e-20 4.8589727436587319e-21 0.0000000000000000e+00  -4.4237613343288891e-20 -1.4688270055388890e-21 0.0000000000000000e+00  4.2051172830044865e-19 7.4830646095131918e-21 0.0000000000000000e+00  2.3128518051224827e-19 8.3360931568583042e-21 0.0000000000000000e+00  1.4950981816254074e-19 4.4822356519420945e-21 0.0000000000000000e+00  1.8562306820702410e-19 5.9940782441851526e-21 0.0000000000000000e+00  -2.0625179250965040e-19 1.2890737031853150e-20 0.0000000000000000e+00  -9.5573886154282325e-20 5.7687552830692506e-21 0.0000000000000000e+00  0.0000000000000000e+00 5.3696616152175920e-21 0.0000000000000000e+00  1.8107714580407537e-19 1.4618207083141502e-20 0.0000000000000000e+00  -3.1206370144281748e-20 -5.4818007279999422e-21 0.0000000000000000e+00  9.2920510513672198e-21 2.3493476330649519e-21 0.0000000000000000e+00  -5.5717299006712474e-19 1.7628378696795278e-21 0.0000000000000000e+00  1.9014983664943000e-19 -1.8426472865398560e-20 0.0000000000000000e+00  3.0874907511873553e-19 7.2363064480953640e-21 0.0000000000000000e+00  -3.9379507777356241e-19 2.5479588801791472e-20 0.0000000000000000e+00  -1.7058287727477560e-19 5.3307149148367374e-21 0.0000000000000000e+00  4.8874996748927130e-22 -1.1395679787365720e-20 0.0000000000000000e+00  -7.5064982732269210e-19 -3.8118936543730457e-20 0.0000000000000000e+00  1.8111936547652298e-20 -1.0286853166158165e-20 0.0000000000000000e+00  -8.7830142110845777e-19 1.0292594778614739e-20 0.0000000000000000e+00  -3.6529238743447576e-20 -6.2272611663156100e-21 0.0000000000000000e+00  1.0313483077629155e-19 1.7975160911035838e-21 0.0000000000000000e+00  -1.0576485998573719e-18 -3.8667874215170020e-20 0.0000000000000000e+00  -6.7370163041885745e-20 -2.0691622862193065e-20 0.0000000000000000e+00  3.9155698383593258e-20 -4.6707269190604794e-21 0.0000000000000000e+00  -4.4700596161853047e-19 -1.5223389685313328e-20 0.0000000000000000e+00  2.3391004296991698e-19 4.5685555267561907e-21 0.0000000000000000e+00  -4.0165707378010794e-20 -3.3219500807336958e-21 0.0000000000000000e+00  -7.5636543912345446e-19 1.0267164790176724e-21 0.0000000000000000e+00  -6.8043302834102424e-19 8.0326640824402141e-21 0.0000000000000000e+00  3.4960255403226281e-19 -9.1042331779235099e-22 0.0000000000000000e+00  1.9668593658066012e-19 -5.3781310783774250e-21 0.0000000000000000e+00  2.3270794288662657e-19 3.0013784537496056e-22 0.0000000000000000e+00  -2.7795940823553686e-19 -1.2086653686123341e-20 0.0000000000000000e+00  2.8456025436687952e-19 -3.7838324467328488e-21 0.0000000000000000e+00  1.3346080607553082e-18 0.0000000000000000e+00 0.0000000000000000e+00  -1.0189291859667068e-18 -6.6337498273748474e-21 0.0000000000000000e+00  1.6059068568623175e-19 -2.2647617320632324e-21 0.0000000000000000e+00  2.8058079780610396e-19 0.0000000000000000e+00 0.0000000000000000e+00  -7.0497962575997440e-19 -1.3592297246729609e-20 0.0000000000000000e+00  3.5662669938831624e-19 1.1741785609797586e-20 0.0000000000000000e+00  1.2663061920412842e-19 1.0661093967141476e-20 0.0000000000000000e+00  8.4565226770216020e-19 0.0000000000000000e+00 0.0000000000000000e+00  -1.9468754663748617e-18 1.9352047871242255e-21 0.0000000000000000e+00  -9.4605323447447939e-19 2.2529324254481772e-20 0.0000000000000000e+00  1.7929008966734658e-18 -1.6892669173114847e-20 0.0000000000000000e+00  -2.1179459972299573e-19 3.3092906206718083e-21 0.0000000000000000e+00  -6.6922450604949998e-19 1.3942177209364583e-20 0.0000000000000000e+00  8.5129537260362617e-20 1.8848494619481882e-20 0.0000000000000000e+00  1.2719489105984496e-19 7.3768629037981894e-21 0.0000000000000000e+00  6.2082605094043875e-19 -1.9400814091888711e-20 0.0000000000000000e+00  -1.2793073973720874e-18 9.4446780257847957e-21 0.0000000000000000e+00  -8.5608228457837564e-20 -3.8827231719038359e-20 0.0000000000000000e+00  1.2545707262177015e-18 -3.3223837886024345e-20 0.0000000000000000e+00  -1.9960263648464160e-19 -1.2475164780290100e-21 0.0000000000000000e+00  5.3713195781122642e-20 3.3112334006471505e-20 0.0000000000000000e+00  -3.3391620805825547e-19 -4.4476544106120093e-20 0.0000000000000000e+00  3.3411621203830762e-19 1.8161121694710283e-20 0.0000000000000000e+00  -5.7924915422866247e-19 6.0338453565485679e-21 0.0000000000000000e+00  7.5405696635330370e-19 -1.2342236261407712e-19 0.0000000000000000e+00  -1.0177552972715142e-18 -1.7492635923960372e-19 0.0000000000000000e+00  0.0000000000000000e+00 -2.2539021377108255e-20 0.0000000000000000e+00  2.5512386873101328e-19 8.4860246287698105e-21 0.0000000000000000e+00  5.3583805143524616e-19 -2.4612226364885423e-20 0.0000000000000000e+00  -2.6698985158378433e-19 3.9426439267694600e-20 0.0000000000000000e+00  6.8408588523896133e-19 -6.4431261889713128e-22 0.0000000000000000e+00  -2.3052890937818742e-19 1.9210742448182286e-20 0.0000000000000000e+00  -5.6133587024105365e-19 2.0047709651466200e-20 0.0000000000000000e+00  -2.1762683157145628e-19 4.6443502410661410e-22 0.0000000000000000e+00  -3.5056770234282784e-19 6.0253823840173533e-20 0.0000000000000000e+00  6.8731739359627152e-20 -1.8614846076565686e-20 0.0000000000000000e+00  9.7596719178815022e-20 -4.2698564640731572e-20 0.0000000000000000e+00  4.8466827258844337e-19 -4.6777770465808651e-20 0.0000000000000000e+00  5.3837189052512154e-20 7.4026134947204208e-20 0.0000000000000000e+00  -8.4299770331611756e-20 -2.9811794115558237e-20 0.0000000000000000e+00  6.4444811172086953e-19 1.4646547993656125e-20 0.0000000000000000e+00  -2.9944431234439556e-19 -4.9328925960673549e-20 0.0000000000000000e+00  5.1846072632566932e-20 1.6518478739730169e-20 0.0000000000000000e+00  0.0000000000000000e+00 5.1493722398470953e-20 0.0000000000000000e+00  -1.4715335765783226e-19 9.1970848536145164e-21 0.0000000000000000e+00  -7.2509632729507674e-20 1.3261239182599508e-20 0.0000000000000000e+00  -1.6279161896400689e-19 1.5261714277875646e-20 0.0000000000000000e+00  -4.1571009903562031e-20 -3.2177652460843275e-20 0.0000000000000000e+00  -8.2505820021983717e-20 -8.6507187596268430e-21 0.0000000000000000e+00  -3.5454716305969358e-19 1.7378747192822175e-20 0.0000000000000000e+00  4.3388125175313711e-20 -3.2541093881485283e-20 0.0000000000000000e+00  2.2101182946557709e-19 0.0000000000000000e+00 0.0000000000000000e+00  -2.1946515644933879e-19 -2.7433144556167348e-20 0.0000000000000000e+00  7.1724047851113025e-20 4.9151498116156202e-20 0.0000000000000000e+00  2.1069659540804786e-19 -2.3253115648531273e-20 0.0000000000000000e+00  -1.3036851147162933e-19 -3.0555119876163127e-21 0.0000000000000000e+00  0.0000000000000000e+00 -2.0780544615591050e-20 0.0000000000000000e+00  8.1129842718501440e-20 -2.5349987810732253e-20 0.0000000000000000e+00  -5.5525109833599654e-20 1.3881277458399914e-20 0.0000000000000000e+00  5.3315753200356581e-20 1.4540659963733612e-20 0.0000000000000000e+00  -6.1454599589246693e-20 -2.0484866529748898e-20 0.0000000000000000e+00  -6.9673719295115156e-21 1.8726104228946749e-20 0.0000000000000000e+00  -4.3851322750856002e-20 5.4814153438570003e-21 0.0000000000000000e+00  6.3013020460839957e-20 -1.1456912811061810e-20 0.0000000000000000e+00  -1.1078429083871080e-19 6.1546828243728216e-21 0.0000000000000000e+00  2.7617084035599722e-19 4.0755899513176576e-20 0.0000000000000000e+00  3.2837204352474974e-19 3.9261874769263555e-20 0.0000000000000000e+00  -6.2136016358345801e-20 8.2238845180163562e-21 0.0000000000000000e+00  -3.0664663505413645e-20 1.9165414690883529e-20 0.0000000000000000e+00  3.3101687575892213e-20 1.5296029335692994e-20 0.0000000000000000e+00  -1.1658083888