<?xml version="1.0"?>
<VTKFile type="UnstructuredGrid"  version="0.1"  >
<UnstructuredGrid>
<Piece  NumberOfPoints="13179" NumberOfCells="25814">
<Points>
<DataArray  type="Float64"  NumberOfComponents="3"  format="ascii">0 0 0  30 0 0  30 -10 0  0 -10 0  0.02360821169319077 0 0  0.04721642338638154 0 0  0.07206717063563725 0 0  0.09691791788489297 0 0  0.1230766011355843 0 0  0.1492352843862757 0 0  0.1767707375239038 0 0  0.204306190661532 0 0  0.2332908770901271 0 0  0.2622755635187223 0 0  0.2927857633803451 0 0  0.323295963241968 0 0  0.3554119623832387 0 0  0.3875279615245094 0 0  0.4213342730081758 0 0  0.4551405844918422 0 0  0.4907261762804851 0 0  0.526311768069128 0 0  0.5637702848355051 0 0  0.6012288016018821 0 0  0.6406588220121138 0 0  0.6800888424223455 0 0  0.721594129780935 0 0  0.7630994171395246 0 0  0.8067891887833475 0 0  0.8504789604271704 0 0  0.8964681941825949 0 0  0.9424574279380195 0 0  0.9908671465681095 0 0  1.039276865198199 0 0  1.090234462786975 0 0  1.141192060375751 0 0  1.194831641933244 0 0  1.248471223490737 0 0  1.304933942963653 0 0  1.361396662436569 0 0  1.420831104471586 0 0  1.480265546506604 0 0  1.542828113436244 0 0  1.605390680365884 0 0  1.671246013469327 0 0  1.73710134657277 0 0  1.806422752814762 0 0  1.875744159056755 0 0  1.948714057431306 0 0  2.021683955805857 0 0  2.098494373901932 0 0  2.175304791998006 0 0  2.256157866653476 0 0  2.337010941308945 0 0  2.422119443935387 0 0  2.50722794656183 0 0  2.596815840700639 0 0  2.686403734839449 0 0  2.780706776094687 0 0  2.875009817349925 0 0  2.974276175689285 0 0  3.073542534028646 0 0  3.178033441002704 0 0  3.282524347976761 0 0  3.392514777963501 0 0  3.502505207950242 0 0  3.618284608533553 0 0  3.734064009116865 0 0  3.855937062816526 0 0  3.977810116516187 0 0  4.106097541496641 0 0  4.234384966477093 0 0  4.369424362562147 0 0  4.5044637586472 0 0  4.646610489729194 0 0  4.788757220811188 0 0  4.938385356669961 0 0  5.088013492528733 0 0  5.24551679218304 0 0  5.403020091837347 0 0  5.568813038399614 0 0  5.73460598496188 0 0  5.909124878408681 0 0  6.083643771855482 0 0  6.267347873338513 0 0  6.451051974821543 0 0  6.644424714363561 0 0  6.83779745390558 0 0  7.041347702348167 0 0  7.244897950790754 0 0  7.459161368238869 0 0  7.673424785686984 0 0  7.898965226038037 0 0  8.124505666389089 0 0  8.361916654054033 0 0  8.599327641718979 0 0  8.849233942517035 0 0  9.099140243315093 0 0  9.362199507946787 0 0  9.625258772578484 0 0  9.902163261537794 0 0  10.1790677504971 0 0  10.47054616023911 0 0  10.76202456998112 0 0  11.06884394887334 0 0  11.37566332776555 0 0  11.69863109504192 0 0  12.02159886231829 0 0  12.3615649378891 0 0  12.7015310134599 0 0  13.05939003847426 0 0  13.41724906348862 0 0  13.79394276982091 0 0  14.1706364761532 0 0  14.5671561683298 0 0  14.96367586050641 0 0  15.38106501332897 0 0  15.79845416615153 0 0  16.23781117165827 0 0  16.677168177165 0 0  17.13964923659526 0 0  17.60213029602552 0 0  18.0889524622663 0 0  18.57577462850707 0 0  19.08821901304263 0 0  19.60066339757818 0 0  20.14007853843172 0 0  20.67949367928525 0 0  21.24729908993883 0 0  21.8151045005924 0 0  22.41279440541421 0 0  23.01048431023601 0 0  23.63963157605829 0 0  24.26877884188056 0 0  24.93103912515648 0 0  25.59329940843241 0 0  26.29041549584691 0 0  26.98753158326142 0 0  27.72133799026916 0 0  28.45514439727691 0 0  29.22757219863846 0 0  30 -0.3571428571428571 0  30 -0.7142857142857142 0  30 -1.071428571428571 0  30 -1.428571428571428 0  30 -1.785714285714286 0  30 -2.142857142857143 0  30 -2.5 0  30 -2.857142857142857 0  30 -3.214285714285714 0  30 -3.571428571428571 0  30 -3.928571428571428 0  30 -4.285714285714286 0  30 -4.642857142857142 0  30 -5 0  30 -5.357142857142857 0  30 -5.714285714285714 0  30 -6.071428571428571 0  30 -6.428571428571428 0  30 -6.785714285714285 0  30 -7.142857142857142 0  30 -7.5 0  30 -7.857142857142857 0  30 -8.214285714285714 0  30 -8.571428571428571 0  30 -8.928571428571427 0  30 -9.285714285714285 0  30 -9.642857142857142 0  29.22757220128658 -10 0  28.45514440257316 -10 0  27.72133799277628 -10 0  26.98753158297939 -10 0  26.29041549304805 -10 0  25.5932994031167 -10 0  24.93103911757599 -10 0  24.26877883203527 -10 0  23.63963156418132 -10 0  23.01048429632737 -10 0  22.41279438968936 -10 0  21.81510448305136 -10 0  21.24729907078059 -10 0  20.67949365850982 -10 0  20.14007851622273 -10 0  19.60066337393564 -10 0  19.08821898813588 -10 0  18.57577460233611 -10 0  18.08895243498708 -10 0  17.60213026763805 -10 0  17.13964920724307 -10 0  16.6771681468481 -10 0  16.2378111405086 -10 0  15.79845413416909 -10 0  15.38106498063496 -10 0  14.96367582710082 -10 0  14.56715613432376 -10 0  14.17063644154669 -10 0  13.79394273471576 -10 0  13.41724902788484 -10 0  13.05939000246495 -10 0  12.70153097704506 -10 0  12.36156490115379 -10 0  12.02159882526251 -10 0  11.69863105774323 -10 0  11.37566329022395 -10 0  11.06884391115945 -10 0  10.76202453209494 -10 0  10.47054612224479 -10 0  10.17906771239465 -10 0  9.902163223385379 -10 0  9.625258734376107 -10 0  9.362199469747061 -10 0  9.099140205118012 -10 0  8.849233904370102 -10 0  8.599327603622193 -10 0  8.361916616050124 -10 0  8.124505628478055 -10 0  7.898965188258209 -10 0  7.673424748038361 -10 0  7.459161330755727 -10 0  7.244897913473093 -10 0  7.041347665226496 -10 0  6.837797416979896 -10 0  6.644424677660922 -10 0  6.451051938341948 -10 0  6.26734783710581 -10 0  6.083643735869675 -10 0  5.90912484269068 -10 0  5.734605949511682 -10 0  5.568813003235423 -10 0  5.403020056959164 -10 0  5.24551675760658 -10 0  5.088013458254 -10 0  4.938385322710374 -10 0  4.788757187166745 -10 0  4.646610456411224 -10 0  4.504463725655707 -10 0  4.369424329906533 -10 0  4.234384934157362 -10 0  4.106097509520442 -10 0  3.977810084883522 -10 0  3.85593703153344 -10 0  3.734063978183357 -10 0  3.618284577954206 -10 0  3.502505177725055 -10 0  3.392514748095728 -10 0  3.282524318466404 -10 0  3.1780334118518 -10 0  3.073542505237196 -10 0  2.97427614725823 -10 0  2.875009789279265 -10 0  2.780706748384375 -10 0  2.686403707489482 -10 0  2.596815813710069 -10 0  2.507227919930656 -10 0  2.422119417661861 -10 0  2.337010915393062 -10 0  2.256157841092762 -10 0  2.175304766792465 -10 0  2.098494349048437 -10 0  2.021683931304413 -10 0  1.948714033278215 -10 0  1.875744135252013 -10 0  1.806422729354161 -10 0  1.737101323456312 -10 0  1.671245990692352 -10 0  1.605390657928396 -10 0  1.542828091333185 -10 0  1.480265524737977 -10 0  1.420831083031992 -10 0  1.36139664132601 -10 0  1.304933922176438 -10 0  1.248471203026863 -10 0  1.194831621786765 -10 0  1.14119204054667 -10 0  1.09023444350921 -10 0  1.039276846471754 -10 0  0.9908671279064798 -10 0  0.942457409341209 -10 0  0.8964681758842019 -10 0  0.8504789424271948 -10 0  0.8067891710751951 -10 0  0.7630993997231954 -10 0  0.7215941126497469 -10 0  0.6800888255762949 -10 0  0.6406588054444597 -10 0  0.6012287853126246 -10 0  0.5637702688178621 -10 0  0.5263117523230996 -10 0  0.4907261607992695 -10 0  0.4551405692754429 -10 0  0.4213342580497894 -10 0  0.3875279468241395 -10 0  0.3554119479341011 -10 0  0.3232959490440663 -10 0  0.2927857494269297 -10 0  0.2622755498097931 -10 0  0.2332908636189828 -10 0  0.2043061774281725 -10 0  0.1767707245216883 -10 0  0.1492352716152006 -10 0  0.1230765885890825 -10 0  0.09691790556296098 -10 0  0.0720671585317838 -10 0  0.04721641150060663 -10 0  0.02360820575030331 -10 0  0 -9.957983193277311 0  0 -9.915966386554622 0  0 -9.873949579831933 0  0 -9.831932773109244 0  0 -9.789915966386555 0  0 -9.747899159663866 0  0 -9.705882352941176 0  0 -9.663865546218487 0  0 -9.621848739495798 0  0 -9.579831932773109 0  0 -9.53781512605042 0  0 -9.495798319327731 0  0 -9.453781512605042 0  0 -9.411764705882353 0  0 -9.369747899159664 0  0 -9.327731092436975 0  0 -9.285714285714286 0  0 -9.243697478991596 0  0 -9.201680672268907 0  0 -9.159663865546218 0  0 -9.117647058823529 0  0 -9.07563025210084 0  0 -9.033613445378151 0  0 -8.991596638655462 0  0 -8.949579831932773 0  0 -8.907563025210084 0  0 -8.865546218487395 0  0 -8.823529411764707 0  0 -8.781512605042018 0  0 -8.739495798319329 0  0 -8.69747899159664 0  0 -8.655462184873949 0  0 -8.61344537815126 0  0 -8.571428571428571 0  0 -8.529411764705882 0  0 -8.487394957983193 0  0 -8.445378151260504 0  0 -8.403361344537815 0  0 -8.361344537815127 0  0 -8.319327731092438 0  0 -8.277310924369749 0  0 -8.235294117647058 0  0 -8.193277310924369 0  0 -8.15126050420168 0  0 -8.109243697478991 0  0 -8.067226890756302 0  0 -8.025210084033613 0  0 -7.983193277310924 0  0 -7.941176470588236 0  0 -7.899159663865547 0  0 -7.857142857142857 0  0 -7.815126050420168 0  0 -7.773109243697479 0  0 -7.73109243697479 0  0 -7.689075630252101 0  0 -7.647058823529411 0  0 -7.605042016806722 0  0 -7.563025210084033 0  0 -7.521008403361344 0  0 -7.478991596638656 0  0 -7.436974789915967 0  0 -7.394957983193278 0  0 -7.352941176470589 0  0 -7.3109243697479 0  0 -7.26890756302521 0  0 -7.226890756302521 0  0 -7.184873949579832 0  0 -7.142857142857143 0  0 -7.100840336134453 0  0 -7.058823529411764 0  0 -7.016806722689076 0  0 -6.974789915966387 0  0 -6.932773109243698 0  0 -6.890756302521009 0  0 -6.84873949579832 0  0 -6.806722689075631 0  0 -6.764705882352941 0  0 -6.722689075630252 0  0 -6.680672268907563 0  0 -6.638655462184874 0  0 -6.596638655462185 0  0 -6.554621848739496 0  0 -6.512605042016807 0  0 -6.470588235294118 0  0 -6.428571428571429 0  0 -6.38655462184874 0  0 -6.344537815126051 0  0 -6.302521008403362 0  0 -6.260504201680672 0  0 -6.218487394957983 0  0 -6.176470588235294 0  0 -6.134453781512605 0  0 -6.092436974789917 0  0 -6.050420168067227 0  0 -6.008403361344538 0  0 -5.966386554621849 0  0 -5.92436974789916 0  0 -5.882352941176471 0  0 -5.840336134453782 0  0 -5.798319327731092 0  0 -5.756302521008403 0  0 -5.714285714285714 0  0 -5.672268907563025 0  0 -5.630252100840336 0  0 -5.588235294117647 0 
[...]
<PointData  Vectors="displacement"> 
<DataArray  type="Float64"  Name="displacement"  NumberOfComponents="3" format="ascii">1.0000000000000001e-01 3.8245371980309584e-02 0.0000000000000000e+00  1.1791098043676528e-20 1.0513383764656757e-03 0.0000000000000000e+00  1.5150146486419662e-21 2.2912231518434275e-23 0.0000000000000000e+00  1.1506617885581586e-22 -3.1290909912800592e-22 0.0000000000000000e+00  9.9246599958777812e-02 3.8671956884706600e-02 0.0000000000000000e+00  9.8737545755288605e-02 3.8833791345397460e-02 0.0000000000000000e+00  9.8287600512826007e-02 3.8644853060021231e-02 0.0000000000000000e+00  9.7828898677002424e-02 3.8102246342002918e-02 0.0000000000000000e+00  9.7254431719135920e-02 3.7197482917809228e-02 0.0000000000000000e+00  9.6593578405613154e-02 3.5987939550082428e-02 0.0000000000000000e+00  9.5756542760475141e-02 3.4426893448618566e-02 0.0000000000000000e+00  9.4752164033956837e-02 3.2631848629518935e-02 0.0000000000000000e+00  9.3507271218528129e-02 3.0639369939571497e-02 0.0000000000000000e+00  9.2084737916469303e-02 2.8475523842767969e-02 0.0000000000000000e+00  9.0399976959717118e-02 2.6203494419432313e-02 0.0000000000000000e+00  8.8554252760818547e-02 2.3888781901593548e-02 0.0000000000000000e+00  8.6479527439628487e-02 2.1551893836918534e-02 0.0000000000000000e+00  8.4293324805494008e-02 1.9297967119819109e-02 0.0000000000000000e+00  8.1902134453603101e-02 1.7051808979319225e-02 0.0000000000000000e+00  7.9477359231461805e-02 1.4964974333250608e-02 0.0000000000000000e+00  7.6904217032896197e-02 1.2948189976002044e-02 0.0000000000000000e+00  7.4331723122215976e-02 1.1129776087053608e-02 0.0000000000000000e+00  7.1683055054927919e-02 9.4079506448912012e-03 0.0000000000000000e+00  6.9121747358130800e-02 7.8638930567388153e-03 0.0000000000000000e+00  6.6499983771469567e-02 6.4528509229405638e-03 0.0000000000000000e+00  6.3995846474467405e-02 5.2151113492808496e-03 0.0000000000000000e+00  6.1499413341971031e-02 4.0521317730721892e-03 0.0000000000000000e+00  5.9115976858041007e-02 3.0710309269000118e-03 0.0000000000000000e+00  5.6756960249486177e-02 2.1667750494000102e-03 0.0000000000000000e+00  5.4545157362238118e-02 1.3642011963215786e-03 0.0000000000000000e+00  5.2356573140125665e-02 6.6077863008151137e-04 0.0000000000000000e+00  5.0306927043279916e-02 5.5055996835325399e-05 0.0000000000000000e+00  4.8300462650160740e-02 -4.9520547253897580e-04 0.0000000000000000e+00  4.6419763834059984e-02 -9.6373550061690228e-04 0.0000000000000000e+00  4.4585128727536720e-02 -1.3866251349881503e-03 0.0000000000000000e+00  4.2868873489476086e-02 -1.7587800939152178e-03 0.0000000000000000e+00  4.1184969592033611e-02 -2.0775498416783418e-03 0.0000000000000000e+00  3.9621943007669282e-02 -2.3567478930017712e-03 0.0000000000000000e+00  3.8085852084721171e-02 -2.5995225629907499e-03 0.0000000000000000e+00  3.6656405826160511e-02 -2.8012815242383620e-03 0.0000000000000000e+00  3.5255944648225193e-02 -2.9958130117319418e-03 0.0000000000000000e+00  3.3955490751649949e-02 -3.1229660548900027e-03 0.0000000000000000e+00  3.2674228088273589e-02 -3.2533414859671123e-03 0.0000000000000000e+00  3.1484209229336924e-02 -3.3480373988908235e-03 0.0000000000000000e+00  3.0312840363614708e-02 -3.4430928893786489e-03 0.0000000000000000e+00  2.9220649433196313e-02 -3.5012479050004776e-03 0.0000000000000000e+00  2.8147717392822680e-02 -3.5524837339801271e-03 0.0000000000000000e+00  2.7145373273369428e-02 -3.5841012418163665e-03 0.0000000000000000e+00  2.6162003109901171e-02 -3.6006942400883114e-03 0.0000000000000000e+00  2.5243103424852146e-02 -3.6080580046317897e-03 0.0000000000000000e+00  2.4339519136825916e-02 -3.6012537775812095e-03 0.0000000000000000e+00  2.3492085453760317e-02 -3.5870101180773997e-03 0.0000000000000000e+00  2.2661358363224079e-02 -3.5630290810553435e-03 0.0000000000000000e+00  2.1882951229663772e-02 -3.5323836342676077e-03 0.0000000000000000e+00  2.1117026286576617e-02 -3.4924034658815372e-03 0.0000000000000000e+00  2.0398893356711970e-02 -3.4454986128900382e-03 0.0000000000000000e+00  1.9690507322486384e-02 -3.3883213269091184e-03 0.0000000000000000e+00  1.9029109408112144e-02 -3.3257731702288915e-03 0.0000000000000000e+00  1.8375421238516612e-02 -3.2598336239994486e-03 0.0000000000000000e+00  1.7761552037935412e-02 -3.1929610074725575e-03 0.0000000000000000e+00  1.7157847252176537e-02 -3.1181397098354138e-03 0.0000000000000000e+00  1.6589791151238608e-02 -3.0389902604780698e-03 0.0000000000000000e+00  1.6029866446340399e-02 -2.9536965381455147e-03 0.0000000000000000e+00  1.5502575809050526e-02 -2.8713362709165621e-03 0.0000000000000000e+00  1.4982493370472518e-02 -2.7781606575385115e-03 0.0000000000000000e+00  1.4495340171873086e-02 -2.6831987777084223e-03 0.0000000000000000e+00  1.4011320515313791e-02 -2.5892092427861066e-03 0.0000000000000000e+00  1.3557288534634003e-02 -2.4909970409291676e-03 0.0000000000000000e+00  1.3108537274719849e-02 -2.3894104456922082e-03 0.0000000000000000e+00  1.2684782777402127e-02 -2.2919316836281164e-03 0.0000000000000000e+00  1.2267955163288519e-02 -2.1855810310270475e-03 0.0000000000000000e+00  1.1875060599238077e-02 -2.0802927622856114e-03 0.0000000000000000e+00  1.1485864143619417e-02 -1.9694254319923277e-03 0.0000000000000000e+00  1.1119986198036672e-02 -1.8601781094478782e-03 0.0000000000000000e+00  1.0757951739752485e-02 -1.7493225897958241e-03 0.0000000000000000e+00  1.0416878814188799e-02 -1.6390024738543476e-03 0.0000000000000000e+00  1.0079884837894756e-02 -1.5246440774018143e-03 0.0000000000000000e+00  9.7625511266771336e-03 -1.4129166423408870e-03 0.0000000000000000e+00  9.4482949834961347e-03 -1.2981567212531229e-03 0.0000000000000000e+00  9.1523247970871687e-03 -1.1864622727921588e-03 0.0000000000000000e+00  8.8597218720574585e-03 -1.0707047403210723e-03 0.0000000000000000e+00  8.5841813216930175e-03 -9.5461211987901608e-04 0.0000000000000000e+00  8.3106915076706558e-03 -8.4127590896481092e-04 0.0000000000000000e+00  8.0628387422788141e-03 -7.2484382236209799e-04 0.0000000000000000e+00  7.8065952296861680e-03 -6.1081270844027548e-04 0.0000000000000000e+00  7.5674341015008074e-03 -4.9911945173738905e-04 0.0000000000000000e+00  7.3316557566145205e-03 -3.8590341979199462e-04 0.0000000000000000e+00  7.1111956943601057e-03 -2.7387265185931700e-04 0.0000000000000000e+00  6.8909916434039811e-03 -1.6142188287451782e-04 0.0000000000000000e+00  6.6871560204905794e-03 -5.3900336230577677e-05 0.0000000000000000e+00  6.4868047255308217e-03 5.6315503714651375e-05 0.0000000000000000e+00  6.2963662225310954e-03 1.6187592999863457e-04 0.0000000000000000e+00  6.1077335352441890e-03 2.6722539974956765e-04 0.0000000000000000e+00  5.9309383035134368e-03 3.6803014905821183e-04 0.0000000000000000e+00  5.7569495346371981e-03 4.6944258427859961e-04 0.0000000000000000e+00  5.5935420108273598e-03 5.6462850484280684e-04 0.0000000000000000e+00  5.4321350782585310e-03 6.5910990539378485e-04 0.0000000000000000e+00  5.2816609871576044e-03 7.4965423981376671e-04 0.0000000000000000e+00  5.1295795441691338e-03 8.3706648006731308e-04 0.0000000000000000e+00  4.9898250955537106e-03 9.1976128222857087e-04 0.0000000000000000e+00  4.8517097674132034e-03 1.0000374749008307e-03 0.0000000000000000e+00  4.7199329016648466e-03 1.0746602052952470e-03 0.0000000000000000e+00  4.5893494098842441e-03 1.1466480701323911e-03 0.0000000000000000e+00  4.4657744703347942e-03 1.2120643979299176e-03 0.0000000000000000e+00  4.3440769165633093e-03 1.2750178454830558e-03 0.0000000000000000e+00  4.2291373741092713e-03 1.3285451929152736e-03 0.0000000000000000e+00  4.1154446755064071e-03 1.3824887979028849e-03 0.0000000000000000e+00  4.0046363634669456e-03 1.4262479627287336e-03 0.0000000000000000e+00  3.8921474082286864e-03 1.4677190870405013e-03 0.0000000000000000e+00  3.7908722117471669e-03 1.5024236104017805e-03 0.0000000000000000e+00  3.6814585430384283e-03 1.5321217321060188e-03 0.0000000000000000e+00  3.5797318846419114e-03 1.5589375446004132e-03 0.0000000000000000e+00  3.4755478261871125e-03 1.5750897418865457e-03 0.0000000000000000e+00  3.3734545837285734e-03 1.5899119235918235e-03 0.0000000000000000e+00  3.2714517203626778e-03 1.5979921164991147e-03 0.0000000000000000e+00  3.1717943779209943e-03 1.6014477080644601e-03 0.0000000000000000e+00  3.0645374154243477e-03 1.5997565429032884e-03 0.0000000000000000e+00  2.9625377778906112e-03 1.5938563844876393e-03 0.0000000000000000e+00  2.8587599365366696e-03 1.5842445628108561e-03 0.0000000000000000e+00  2.7569617656782938e-03 1.5701109743330673e-03 0.0000000000000000e+00  2.6514064546080155e-03 1.5509470097034017e-03 0.0000000000000000e+00  2.5424569616203838e-03 1.5303847270748112e-03 0.0000000000000000e+00  2.4321880033321887e-03 1.5053973490298045e-03 0.0000000000000000e+00  2.3237808357713641e-03 1.4795001429246911e-03 0.0000000000000000e+00  2.2107022408888429e-03 1.4506009936143230e-03 0.0000000000000000e+00  2.0983529003968529e-03 1.4204725997941660e-03 0.0000000000000000e+00  1.9813907990274921e-03 1.3885582736783476e-03 0.0000000000000000e+00  1.8649651254185249e-03 1.3565020791420966e-03 0.0000000000000000e+00  1.7433416921152367e-03 1.3229415580792662e-03 0.0000000000000000e+00  1.6229645942699503e-03 1.2913450938377160e-03 0.0000000000000000e+00  1.4984823366169968e-03 1.2598811873578591e-03 0.0000000000000000e+00  1.3749257014935156e-03 1.2292315118255944e-03 0.0000000000000000e+00  1.2467262845313701e-03 1.1983453671087607e-03 0.0000000000000000e+00  1.1186599692016566e-03 1.1710726992183321e-03 0.0000000000000000e+00  9.8680469501823760e-04 1.1455244486735865e-03 0.0000000000000000e+00  8.5710011742391474e-04 1.1214399007897986e-03 0.0000000000000000e+00  7.1636932507228269e-04 1.1005233464872113e-03 0.0000000000000000e+00  5.7686790656013144e-04 1.0812578431763659e-03 0.0000000000000000e+00  4.3583383921884161e-04 1.0694962860923192e-03 0.0000000000000000e+00  2.9478348472521761e-04 1.0583292179341460e-03 0.0000000000000000e+00  1.4318558986395487e-04 1.0534329949991731e-03 0.0000000000000000e+00  -5.5246353785276423e-21 1.0041235615550405e-03 0.0000000000000000e+00  1.0307443470434045e-20 9.4185131436398878e-04 0.0000000000000000e+00  1.3832584428379549e-20 8.7917488339378990e-04 0.0000000000000000e+00  7.1049162589203506e-21 8.1869556419374850e-04 0.0000000000000000e+00  -4.0623741356645201e-21 7.5954514561491653e-04 0.0000000000000000e+00  2.1119810753693572e-21 7.0180855322435191e-04 0.0000000000000000e+00  1.0275990081854024e-20 6.4561815100946582e-04 0.0000000000000000e+00  1.9335848645261211e-20 5.9086104678652347e-04 0.0000000000000000e+00  1.4797587277378183e-21 5.3775618497566935e-04 0.0000000000000000e+00  -1.0757617290781032e-20 4.8641249248269528e-04 0.0000000000000000e+00  -1.2460384356260466e-20 4.3691057201501645e-04 0.0000000000000000e+00  -4.9727102203492237e-21 3.8956672754251163e-04 0.0000000000000000e+00  2.2214828963997533e-20 3.4421039757668860e-04 0.0000000000000000e+00  7.2055182014486449e-21 3.0126127632207952e-04 0.0000000000000000e+00  -5.5344268691649896e-21 2.6057659704908969e-04 0.0000000000000000e+00  3.0814840456938885e-21 2.2252109777585603e-04 0.0000000000000000e+00  9.8577357573500269e-21 1.8717392465426738e-04 0.0000000000000000e+00  -4.2443824401862540e-21 1.5452539718676989e-04 0.0000000000000000e+00  3.5991453343792332e-21 1.2459313358696960e-04 0.0000000000000000e+00  -3.5576417595049595e-21 9.7831924133573016e-05 0.0000000000000000e+00  -5.2584081735156285e-21 7.4170452173016738e-05 0.0000000000000000e+00  2.0151853426408568e-21 5.3635159952114932e-05 0.0000000000000000e+00  2.7306550956475525e-21 3.6205221013139169e-05 0.0000000000000000e+00  5.0339882960721565e-22 2.2232102210516590e-05 0.0000000000000000e+00  -6.7749323376223688e-22 1.1563520647009097e-05 0.0000000000000000e+00  1.7104061018097652e-21 3.8702607313744572e-06 0.0000000000000000e+00  -6.1457204909913540e-23 8.7394088698239896e-07 0.0000000000000000e+00  1.4521831472778874e-23 -1.5883253173351893e-23 0.0000000000000000e+00  0.0000000000000000e+00 -6.3431020713229569e-22 0.0000000000000000e+00  -6.9264460397115986e-21 -1.2987086324459246e-22 0.0000000000000000e+00  8.3533757247863748e-21 -7.8312897419872269e-22 0.0000000000000000e+00  3.0892098900208924e-20 -8.9439252543608225e-22 0.0000000000000000e+00  0.0000000000000000e+00 -6.9222386169734596e-23 0.0000000000000000e+00  -1.4476846578915878e-20 3.1785252789032385e-22 0.0000000000000000e+00  0.0000000000000000e+00 2.4294863718293659e-22 0.0000000000000000e+00  1.5206679586755556e-20 -1.1124204527243056e-21 0.0000000000000000e+00  -2.3361762683358258e-20 -9.1256885481868197e-23 0.0000000000000000e+00  1.0983779512854814e-20 4.1448945041089186e-22 0.0000000000000000e+00  -7.7929828739604044e-21 2.9839289110993487e-22 0.0000000000000000e+00  -2.1656024624152812e-20 1.9335736271565009e-22 0.0000000000000000e+00  -2.5781474063706300e-20 -8.0567106449082188e-22 0.0000000000000000e+00  -1.9946428450154777e-20 -7.9122372947131170e-22 0.0000000000000000e+00  -1.4319097640580244e-20 1.6780192547554975e-22 0.0000000000000000e+00  2.2634643225509422e-20 -2.9472191699882059e-22 0.0000000000000000e+00  1.9799495504449018e-20 -1.3436691139915784e-22 0.0000000000000000e+00  3.0025784187627434e-20 1.2707298422202421e-21 0.0000000000000000e+00  -4.8609097982132460e-20 3.2222393394433747e-22 0.0000000000000000e+00  5.0259353525964547e-20 -2.2782124914738243e-22 0.0000000000000000e+00  9.6484085974604853e-21 3.7689096083830021e-23 0.0000000000000000e+00  5.6533337662324381e-22 6.3695482357200094e-22 0.0000000000000000e+00  2.1322859659346950e-20 1.6658484108864804e-22 0.0000000000000000e+00  -5.0231131019469487e-20 3.1886247195698487e-22 0.0000000000000000e+00  -1.1728903551917064e-20 -9.1632058999352063e-23 0.0000000000000000e+00  -6.3584731786253773e-20 -1.4491890813725310e-21 0.0000000000000000e+00  -2.7446919409639305e-20 1.0721452894390354e-21 0.0000000000000000e+00  -1.6486136642865718e-20 1.6083875751626879e-22 0.0000000000000000e+00  3.9140859691500143e-20 -7.8495255751796866e-22 0.0000000000000000e+00  -9.3549541609617110e-20 2.1234952925843232e-21 0.0000000000000000e+00  -1.5617079840744699e-19 3.0549788078818379e-21 0.0000000000000000e+00  5.1884757502776795e-20 -9.8927980857296481e-22 0.0000000000000000e+00  -9.1351687413429004e-21 1.6068351544539566e-21 0.0000000000000000e+00  5.6040947794875941e-20 0.0000000000000000e+00 0.0000000000000000e+00  -1.9772888493342774e-20 0.0000000000000000e+00 0.0000000000000000e+00  2.3205114894332087e-20 -2.0576408124575480e-21 0.0000000000000000e+00  8.1469080771168114e-21 1.2746912355272660e-21 0.0000000000000000e+00  3.6416932711694040e-21 -9.1042331779235099e-22 0.0000000000000000e+00  4.9171484145165030e-20 -5.3781310783774250e-21 0.0000000000000000e+00  -2.4601208029143817e-20 -1.8653500920683976e-21 0.0000000000000000e+00  1.4813522391455349e-20 3.8299480730785165e-21 0.0000000000000000e+00  7.6283527758786254e-20 1.4029525246240708e-21 0.0000000000000000e+00  0.0000000000000000e+00 -4.2654376941753459e-21 0.0000000000000000e+00  -8.8527028369540765e-21 8.1875817308153564e-22 0.0000000000000000e+00  5.0775355861806467e-21 -3.6532175466661388e-21 0.0000000000000000e+00  4.3840749657203744e-21 2.1920374828601872e-21 0.0000000000000000e+00  1.1433595948196315e-20 7.9256397365714353e-22 0.0000000000000000e+00  1.1363478839390735e-20 -1.9034302913552318e-23 0.0000000000000000e+00  -1.1249594406896690e-20 -2.3198684385809433e-21 0.0000000000000000e+00  -5.2853266731385011e-21 -1.3213316682846253e-21 0.0000000000000000e+00  -5.9732517401401261e-21 -2.2652503029656001e-22 0.0000000000000000e+00  -8.9173950634690951e-21 7.1682037964151929e-21 0.0000000000000000e+00  1.1842380929900996e-22 -5.2845973474915655e-22 0.0000000000000000e+00  -8.2732265516795207e-22 4.1366132758397603e-22 0.0000000000000000e+00  -1.3070791133779297e-21 1.7427721511705729e-21 0.0000000000000000e+00  -2.8301042972195018e-23 -1.7758904465052374e-21 0.0000000000000000e+00  -2.1166805152277363e-21 -2.4406659940549029e-21 0.0000000000000000e+00  -1.4550610568916535e-21 -4.8502035229721779e-22 0.0000000000000000e+00  5.4312302579396390e-21 1.0124219244700596e-21 0.0000000000000000e+00  -2.8473079296530420e-22 -2.6861621749922248e-21 0.0000000000000000e+00  -4.2722771266187490e-21 1.3505546815315086e-22 0.0000000000000000e+00  -3.1187911950725250e-21 1.0136071383985707e-21 0.0000000000000000e+00  9.6791678961138984e-21 1.4526787808124176e-21 0.0000000000000000e+00  -1.1760624643445217e-20 -9.6223292537279043e-22 0.0000000000000000e+00  3.9241595115342932e-21 -1.0277819252042396e-21 0.0000000000000000e+00  6.0338453565485679e-21 -1.5084613391371420e-21 0.0000000000000000e+00  -8.2486377953201680e-21 1.6182720115024790e-21 0.0000000000000000e+00  -3.3792656362525846e-20 8.2921880134375103e-27 0.0000000000000000e+00  1.1269510688554127e-20 -1.4086888360692659e-21 0.0000000000000000e+00  -1.5528711248979264e-21 -3.7355679068338346e-22 0.0000000000000000e+00  -9.3354755257136001e-22 2.8961602286795824e-22 0.0000000000000000e+00  7.3829366560836825e-21 2.2236169652062034e-22 0.0000000000000000e+00  7.6921559859493079e-21 -3.4446123798867428e-22 0.0000000000000000e+00  2.4013428060227857e-21 -3.7520981344106028e-22 0.0000000000000000e+00  1.2529818532166376e-20 4.6986819495623905e-22 0.0000000000000000e+00  1.1657894850973667e-20 2.5316826555122939e-22 0.0000000000000000e+00  5.4776203491066849e-21 -4.2793908977395976e-23 0.0000000000000000e+00  -1.0739334274941742e-20 1.1186806536397647e-23 0.0000000000000000e+00  -9.1496924230139083e-21 7.7438803059362505e-23 0.0000000000000000e+00  -1.6435432866365202e-21 -1.9359043520478241e-23 0.0000000000000000e+00  0.0000000000000000e+00 0.0000000000000000e+00 0.0000000000000000e+00  -1.4233756598291376e-20 1.5695153746174741e-22 0.0000000000000000e+00  -1.0984910995242094e-20 5.7213078100219239e-23 0.0000000000000000e+00  1.4240144881304677e-20 3.6540997419581274e-22 0.0000000000000000e+00  -1.7354820384321444e-20 -3.8026613879281109e-22 0.0000000000000000e+00  4.2911435332059128e-21 0.0000000000000000e+00 0.0000000000000000e+00  -6.8978136402108869e-21 4.3111335251318043e-22 0.0000000000000000e+00  -4.3089740761387762e-21 4.1470393014562975e-22 0.0000000000000000e+00  -3.0523428555751293e-20 -6.3590476157815190e-22 0.0000000000000000e+00  4.9001510650742739e-21 -4.9355880711524014e-23 0.0000000000000000e+00  1.0259602269638154e-21 -3.6269915713298393e-22 0.0000000000000000e+00  -6.3277109733482887e-21 1.1127511453170669e-21 0.0000000000000000e+00  0.0000000000000000e+00 0.0000000000000000e+00 0.0000000000000000e+00  -1.0743630599021109e-20 -5.2758900263050087e-22 0.0000000000000000e+00  -6.8582861390418371e-21 1.0716072092252870e-22 0.0000000000000000e+00  1.5797706320452176e-20 -1.8931612100966702e-21 0.0000000000000000e+00  -7.0459183631056423e-21 1.9403309877415842e-22 0.0000000000000000e+00  7.6387799690407817e-22 3.3419662364553420e-22 0.0000000000000000e+00  3.1170816923386571e-21 1.2987840384744406e-22 0.0000000000000000e+00  -1.0905199209401004e-20 4.4227915102092809e-22 0.0000000000000000e+00  -1.2724504336866587e-20 4.3378992057499730e-22 0.0000000000000000e+00  6.0586083182223385e-22 4.3546247287223060e-22 0.0000000000000000e+00  1.2803041581093061e-21 -1.6003801976366326e-22 0.0000000000000000e+00  4.4024176861731696e-21 1.6830493208807025e-22 0.0000000000000000e+00  -2.7407076719285002e-21 1.7129422949553126e-22 0.0000000000000000e+00  -5.9074706682037460e-21 -1.7901426267284078e-22 0.0000000000000000e+00  4.6160121182796160e-21 -2.8850075739247600e-22 0.0000000000000000e+00  4.7602017968637089e-21 -5.4093607083149010e-22 0.0000000000000000e+00  7.1385226853206460e-21 1.1153941695813509e-22 0.0000000000000000e+00  9.1376494644626176e-22 -9.9943041017559874e-23 0.0000000000000000e+00  9.5827073454417640e-22 -4.7913536727208820e-22 0.0000000000000000e+00  2.2713729958505691e-21 -3.7227485727445954e-23 0.0000000000000000e+00  1.4734919268548001e-21 3.934