<?xml version="1.0"?>
<VTKFile type="UnstructuredGrid"  version="0.1"  >
<UnstructuredGrid>
<Piece  NumberOfPoints="13179" NumberOfCells="25814">
<Points>
<DataArray  type="Float64"  NumberOfComponents="3"  format="ascii">0 0 0  30 0 0  30 -10 0  0 -10 0  0.02360821169319077 0 0  0.04721642338638154 0 0  0.07206717063563725 0 0  0.09691791788489297 0 0  0.1230766011355843 0 0  0.1492352843862757 0 0  0.1767707375239038 0 0  0.204306190661532 0 0  0.2332908770901271 0 0  0.2622755635187223 0 0  0.2927857633803451 0 0  0.323295963241968 0 0  0.3554119623832387 0 0  0.3875279615245094 0 0  0.4213342730081758 0 0  0.4551405844918422 0 0  0.4907261762804851 0 0  0.526311768069128 0 0  0.5637702848355051 0 0  0.6012288016018821 0 0  0.6406588220121138 0 0  0.6800888424223455 0 0  0.721594129780935 0 0  0.7630994171395246 0 0  0.8067891887833475 0 0  0.8504789604271704 0 0  0.8964681941825949 0 0  0.9424574279380195 0 0  0.9908671465681095 0 0  1.039276865198199 0 0  1.090234462786975 0 0  1.141192060375751 0 0  1.194831641933244 0 0  1.248471223490737 0 0  1.304933942963653 0 0  1.361396662436569 0 0  1.420831104471586 0 0  1.480265546506604 0 0  1.542828113436244 0 0  1.605390680365884 0 0  1.671246013469327 0 0  1.73710134657277 0 0  1.806422752814762 0 0  1.875744159056755 0 0  1.948714057431306 0 0  2.021683955805857 0 0  2.098494373901932 0 0  2.175304791998006 0 0  2.256157866653476 0 0  2.337010941308945 0 0  2.422119443935387 0 0  2.50722794656183 0 0  2.596815840700639 0 0  2.686403734839449 0 0  2.780706776094687 0 0  2.875009817349925 0 0  2.974276175689285 0 0  3.073542534028646 0 0  3.178033441002704 0 0  3.282524347976761 0 0  3.392514777963501 0 0  3.502505207950242 0 0  3.618284608533553 0 0  3.734064009116865 0 0  3.855937062816526 0 0  3.977810116516187 0 0  4.106097541496641 0 0  4.234384966477093 0 0  4.369424362562147 0 0  4.5044637586472 0 0  4.646610489729194 0 0  4.788757220811188 0 0  4.938385356669961 0 0  5.088013492528733 0 0  5.24551679218304 0 0  5.403020091837347 0 0  5.568813038399614 0 0  5.73460598496188 0 0  5.909124878408681 0 0  6.083643771855482 0 0  6.267347873338513 0 0  6.451051974821543 0 0  6.644424714363561 0 0  6.83779745390558 0 0  7.041347702348167 0 0  7.244897950790754 0 0  7.459161368238869 0 0  7.673424785686984 0 0  7.898965226038037 0 0  8.124505666389089 0 0  8.361916654054033 0 0  8.599327641718979 0 0  8.849233942517035 0 0  9.099140243315093 0 0  9.362199507946787 0 0  9.625258772578484 0 0  9.902163261537794 0 0  10.1790677504971 0 0  10.47054616023911 0 0  10.76202456998112 0 0  11.06884394887334 0 0  11.37566332776555 0 0  11.69863109504192 0 0  12.02159886231829 0 0  12.3615649378891 0 0  12.7015310134599 0 0  13.05939003847426 0 0  13.41724906348862 0 0  13.79394276982091 0 0  14.1706364761532 0 0  14.5671561683298 0 0  14.96367586050641 0 0  15.38106501332897 0 0  15.79845416615153 0 0  16.23781117165827 0 0  16.677168177165 0 0  17.13964923659526 0 0  17.60213029602552 0 0  18.0889524622663 0 0  18.57577462850707 0 0  19.08821901304263 0 0  19.60066339757818 0 0  20.14007853843172 0 0  20.67949367928525 0 0  21.24729908993883 0 0  21.8151045005924 0 0  22.41279440541421 0 0  23.01048431023601 0 0  23.63963157605829 0 0  24.26877884188056 0 0  24.93103912515648 0 0  25.59329940843241 0 0  26.29041549584691 0 0  26.98753158326142 0 0  27.72133799026916 0 0  28.45514439727691 0 0  29.22757219863846 0 0  30 -0.3571428571428571 0  30 -0.7142857142857142 0  30 -1.071428571428571 0  30 -1.428571428571428 0  30 -1.785714285714286 0  30 -2.142857142857143 0  30 -2.5 0  30 -2.857142857142857 0  30 -3.214285714285714 0  30 -3.571428571428571 0  30 -3.928571428571428 0  30 -4.285714285714286 0  30 -4.642857142857142 0  30 -5 0  30 -5.357142857142857 0  30 -5.714285714285714 0  30 -6.071428571428571 0  30 -6.428571428571428 0  30 -6.785714285714285 0  30 -7.142857142857142 0  30 -7.5 0  30 -7.857142857142857 0  30 -8.214285714285714 0  30 -8.571428571428571 0  30 -8.928571428571427 0  30 -9.285714285714285 0  30 -9.642857142857142 0  29.22757220128658 -10 0  28.45514440257316 -10 0  27.72133799277628 -10 0  26.98753158297939 -10 0  26.29041549304805 -10 0  25.5932994031167 -10 0  24.93103911757599 -10 0  24.26877883203527 -10 0  23.63963156418132 -10 0  23.01048429632737 -10 0  22.41279438968936 -10 0  21.81510448305136 -10 0  21.24729907078059 -10 0  20.67949365850982 -10 0  20.14007851622273 -10 0  19.60066337393564 -10 0  19.08821898813588 -10 0  18.57577460233611 -10 0  18.08895243498708 -10 0  17.60213026763805 -10 0  17.13964920724307 -10 0  16.6771681468481 -10 0  16.2378111405086 -10 0  15.79845413416909 -10 0  15.38106498063496 -10 0  14.96367582710082 -10 0  14.56715613432376 -10 0  14.17063644154669 -10 0  13.79394273471576 -10 0  13.41724902788484 -10 0  13.05939000246495 -10 0  12.70153097704506 -10 0  12.36156490115379 -10 0  12.02159882526251 -10 0  11.69863105774323 -10 0  11.37566329022395 -10 0  11.06884391115945 -10 0  10.76202453209494 -10 0  10.47054612224479 -10 0  10.17906771239465 -10 0  9.902163223385379 -10 0  9.625258734376107 -10 0  9.362199469747061 -10 0  9.099140205118012 -10 0  8.849233904370102 -10 0  8.599327603622193 -10 0  8.361916616050124 -10 0  8.124505628478055 -10 0  7.898965188258209 -10 0  7.673424748038361 -10 0  7.459161330755727 -10 0  7.244897913473093 -10 0  7.041347665226496 -10 0  6.837797416979896 -10 0  6.644424677660922 -10 0  6.451051938341948 -10 0  6.26734783710581 -10 0  6.083643735869675 -10 0  5.90912484269068 -10 0  5.734605949511682 -10 0  5.568813003235423 -10 0  5.403020056959164 -10 0  5.24551675760658 -10 0  5.088013458254 -10 0  4.938385322710374 -10 0  4.788757187166745 -10 0  4.646610456411224 -10 0  4.504463725655707 -10 0  4.369424329906533 -10 0  4.234384934157362 -10 0  4.106097509520442 -10 0  3.977810084883522 -10 0  3.85593703153344 -10 0  3.734063978183357 -10 0  3.618284577954206 -10 0  3.502505177725055 -10 0  3.392514748095728 -10 0  3.282524318466404 -10 0  3.1780334118518 -10 0  3.073542505237196 -10 0  2.97427614725823 -10 0  2.875009789279265 -10 0  2.780706748384375 -10 0  2.686403707489482 -10 0  2.596815813710069 -10 0  2.507227919930656 -10 0  2.422119417661861 -10 0  2.337010915393062 -10 0  2.256157841092762 -10 0  2.175304766792465 -10 0  2.098494349048437 -10 0  2.021683931304413 -10 0  1.948714033278215 -10 0  1.875744135252013 -10 0  1.806422729354161 -10 0  1.737101323456312 -10 0  1.671245990692352 -10 0  1.605390657928396 -10 0  1.542828091333185 -10 0  1.480265524737977 -10 0  1.420831083031992 -10 0  1.36139664132601 -10 0  1.304933922176438 -10 0  1.248471203026863 -10 0  1.194831621786765 -10 0  1.14119204054667 -10 0  1.09023444350921 -10 0  1.039276846471754 -10 0  0.9908671279064798 -10 0  0.942457409341209 -10 0  0.8964681758842019 -10 0  0.8504789424271948 -10 0  0.8067891710751951 -10 0  0.7630993997231954 -10 0  0.7215941126497469 -10 0  0.6800888255762949 -10 0  0.6406588054444597 -10 0  0.6012287853126246 -10 0  0.5637702688178621 -10 0  0.5263117523230996 -10 0  0.4907261607992695 -10 0  0.4551405692754429 -10 0  0.4213342580497894 -10 0  0.3875279468241395 -10 0  0.3554119479341011 -10 0  0.3232959490440663 -10 0  0.2927857494269297 -10 0  0.2622755498097931 -10 0  0.2332908636189828 -10 0  0.2043061774281725 -10 0  0.1767707245216883 -10 0  0.1492352716152006 -10 0  0.1230765885890825 -10 0  0.09691790556296098 -10 0  0.0720671585317838 -10 0  0.04721641150060663 -10 0  0.02360820575030331 -10 0  0 -9.957983193277311 0  0 -9.915966386554622 0  0 -9.873949579831933 0  0 -9.831932773109244 0  0 -9.789915966386555 0  0 -9.747899159663866 0  0 -9.705882352941176 0  0 -9.663865546218487 0  0 -9.621848739495798 0  0 -9.579831932773109 0  0 -9.53781512605042 0  0 -9.495798319327731 0  0 -9.453781512605042 0  0 -9.411764705882353 0  0 -9.369747899159664 0  0 -9.327731092436975 0  0 -9.285714285714286 0  0 -9.243697478991596 0  0 -9.201680672268907 0  0 -9.159663865546218 0  0 -9.117647058823529 0  0 -9.07563025210084 0  0 -9.033613445378151 0  0 -8.991596638655462 0  0 -8.949579831932773 0  0 -8.907563025210084 0  0 -8.865546218487395 0  0 -8.823529411764707 0  0 -8.781512605042018 0  0 -8.739495798319329 0  0 -8.69747899159664 0  0 -8.655462184873949 0  0 -8.61344537815126 0  0 -8.571428571428571 0  0 -8.529411764705882 0  0 -8.487394957983193 0  0 -8.445378151260504 0  0 -8.403361344537815 0  0 -8.361344537815127 0  0 -8.319327731092438 0  0 -8.277310924369749 0  0 -8.235294117647058 0  0 -8.193277310924369 0  0 -8.15126050420168 0  0 -8.109243697478991 0  0 -8.067226890756302 0  0 -8.025210084033613 0  0 -7.983193277310924 0  0 -7.941176470588236 0  0 -7.899159663865547 0  0 -7.857142857142857 0  0 -7.815126050420168 0  0 -7.773109243697479 0  0 -7.73109243697479 0  0 -7.689075630252101 0  0 -7.647058823529411 0  0 -7.605042016806722 0  0 -7.563025210084033 0  0 -7.521008403361344 0  0 -7.478991596638656 0  0 -7.436974789915967 0  0 -7.394957983193278 0  0 -7.352941176470589 0  0 -7.3109243697479 0  0 -7.26890756302521 0  0 -7.226890756302521 0  0 -7.184873949579832 0  0 -7.142857142857143 0  0 -7.100840336134453 0  0 -7.058823529411764 0  0 -7.016806722689076 0  0 -6.974789915966387 0  0 -6.932773109243698 0  0 -6.890756302521009 0  0 -6.84873949579832 0  0 -6.806722689075631 0  0 -6.764705882352941 0  0 -6.722689075630252 0  0 -6.680672268907563 0  0 -6.638655462184874 0  0 -6.596638655462185 0  0 -6.554621848739496 0  0 -6.512605042016807 0  0 -6.470588235294118 0  0 -6.428571428571429 0  0 -6.38655462184874 0  0 -6.344537815126051 0  0 -6.302521008403362 0  0 -6.260504201680672 0  0 -6.218487394957983 0  0 -6.176470588235294 0  0 -6.134453781512605 0  0 -6.092436974789917 0  0 -6.050420168067227 0  0 -6.008403361344538 0  0 -5.966386554621849 0  0 -5.92436974789916 0  0 -5.882352941176471 0  0 -5.840336134453782 0  0 -5.798319327731092 0  0 -5.756302521008403 0  0 -5.714285714285714 0  0 -5.672268907563025 0  0 -5.630252100840336 0  0 -5.588235294117647 0 
[...]
<PointData  Vectors="displacement"> 
<DataArray  type="Float64"  Name="displacement"  NumberOfComponents="3" format="ascii">1.0000000000000005e-01 4.9972264230093703e-02 0.0000000000000000e+00  2.8885758772681803e-20 4.9600805383059638e-04 0.0000000000000000e+00  2.9726001591533044e-22 1.0310504183295424e-22 0.0000000000000000e+00  5.6765779594882569e-23 7.6855514920552892e-23 0.0000000000000000e+00  9.9343599241975361e-02 4.9343406456632828e-02 0.0000000000000000e+00  9.8876550928714918e-02 4.8261215172330556e-02 0.0000000000000000e+00  9.8008040271484437e-02 4.5814012318928739e-02 0.0000000000000000e+00  9.6607533771970899e-02 4.2548248174028983e-02 0.0000000000000000e+00  9.4537858964147001e-02 3.8628700857048108e-02 0.0000000000000000e+00  9.1950155069890141e-02 3.4409391116571715e-02 0.0000000000000000e+00  8.8763769777838938e-02 3.0003531233165865e-02 0.0000000000000000e+00  8.5225131706026663e-02 2.5856826665161581e-02 0.0000000000000000e+00  8.1345860256623007e-02 2.1943210983535428e-02 0.0000000000000000e+00  7.7352316477004912e-02 1.8479500874665825e-02 0.0000000000000000e+00  7.3275092338956530e-02 1.5317653951076548e-02 0.0000000000000000e+00  6.9304303227955083e-02 1.2666717378933795e-02 0.0000000000000000e+00  6.5346454600031287e-02 1.0254965852413842e-02 0.0000000000000000e+00  6.1636743568430019e-02 8.2717162874649287e-03 0.0000000000000000e+00  5.8005505606146042e-02 6.5799412015792183e-03 0.0000000000000000e+00  5.4709056943946267e-02 5.1357801341789426e-03 0.0000000000000000e+00  5.1520651832240374e-02 3.9671183604609904e-03 0.0000000000000000e+00  4.8613395899470682e-02 3.0307338752647195e-03 0.0000000000000000e+00  4.5835492892999805e-02 2.1803022100531657e-03 0.0000000000000000e+00  4.3337293175019276e-02 1.4767197454379176e-03 0.0000000000000000e+00  4.0950913149940892e-02 9.2270749228546775e-04 0.0000000000000000e+00  3.8805480254837488e-02 4.5673873927977622e-04 0.0000000000000000e+00  3.6762398075283836e-02 7.7403264194729794e-06 0.0000000000000000e+00  3.4907594626654194e-02 -3.0860133724775699e-04 0.0000000000000000e+00  3.3138672392750382e-02 -6.0302708460418793e-04 0.0000000000000000e+00  3.1529847574879678e-02 -8.6767441958933238e-04 0.0000000000000000e+00  2.9994237954290539e-02 -1.0743198303278497e-03 0.0000000000000000e+00  2.8591808623219743e-02 -1.2488715969711762e-03 0.0000000000000000e+00  2.7253174804326590e-02 -1.4021306480508117e-03 0.0000000000000000e+00  2.6020312282081497e-02 -1.5279763203120075e-03 0.0000000000000000e+00  2.4842222630042543e-02 -1.6357479094479992e-03 0.0000000000000000e+00  2.3756429228973253e-02 -1.7347021881887240e-03 0.0000000000000000e+00  2.2708883251846709e-02 -1.8080669242732628e-03 0.0000000000000000e+00  2.1750103605960771e-02 -1.8738860667717348e-03 0.0000000000000000e+00  2.0819386421000428e-02 -1.9265404312608118e-03 0.0000000000000000e+00  1.9962077208620633e-02 -1.9643279254481323e-03 0.0000000000000000e+00  1.9130016940487833e-02 -2.0088626257829885e-03 0.0000000000000000e+00  1.8369411881744496e-02 -2.0192464044209092e-03 0.0000000000000000e+00  1.7620981971874936e-02 -2.0390455863376574e-03 0.0000000000000000e+00  1.6932815937819867e-02 -2.0468744020069765e-03 0.0000000000000000e+00  1.6257081582869957e-02 -2.0594626642818090e-03 0.0000000000000000e+00  1.5633681140750120e-02 -2.0559254481844536e-03 0.0000000000000000e+00  1.5024836730642133e-02 -2.0537206040804352e-03 0.0000000000000000e+00  1.4458946743096763e-02 -2.0453457882391194e-03 0.0000000000000000e+00  1.3906135614887610e-02 -2.0313640708127150e-03 0.0000000000000000e+00  1.3391589258994635e-02 -2.0162216638202014e-03 0.0000000000000000e+00  1.2887979995629835e-02 -1.9966689898318632e-03 0.0000000000000000e+00  1.2415849713203113e-02 -1.9753209521339208e-03 0.0000000000000000e+00  1.1955757986671737e-02 -1.9517777878804887e-03 0.0000000000000000e+00  1.1525815479656630e-02 -1.9267265417534745e-03 0.0000000000000000e+00  1.1104122699889364e-02 -1.8985067553532208e-03 0.0000000000000000e+00  1.0709476557983591e-02 -1.8685188615028836e-03 0.0000000000000000e+00  1.0320728534711483e-02 -1.8344067511556065e-03 0.0000000000000000e+00  9.9588729622564001e-03 -1.7991548992807524e-03 0.0000000000000000e+00  9.6015646926779028e-03 -1.7631805791102810e-03 0.0000000000000000e+00  9.2664745428864999e-03 -1.7283629958878338e-03 0.0000000000000000e+00  8.9377602458622571e-03 -1.6903545818969031e-03 0.0000000000000000e+00  8.6286175629444774e-03 -1.6507721402267918e-03 0.0000000000000000e+00  8.3239330031007978e-03 -1.6087521956826905e-03 0.0000000000000000e+00  8.0372581742576988e-03 -1.5691213810929557e-03 0.0000000000000000e+00  7.7550970947586877e-03 -1.5242487095646253e-03 0.0000000000000000e+00  7.4909051236474932e-03 -1.4788744395634352e-03 0.0000000000000000e+00  7.2282397935563951e-03 -1.4349879745957168e-03 0.0000000000000000e+00  6.9821795954493658e-03 -1.3887964073925818e-03 0.0000000000000000e+00  6.7389201962674223e-03 -1.3415492664253688e-03 0.0000000000000000e+00  6.5090275773596667e-03 -1.2966338627455134e-03 0.0000000000000000e+00  6.2833936944965982e-03 -1.2469298996897133e-03 0.0000000000000000e+00  6.0706283377632928e-03 -1.1979686144498296e-03 0.0000000000000000e+00  5.8596954462314726e-03 -1.1464973559865510e-03 0.0000000000000000e+00  5.6613788774946446e-03 -1.0954296505185518e-03 0.0000000000000000e+00  5.4653264183630677e-03 -1.0439129386453630e-03 0.0000000000000000e+00  5.2805927831420900e-03 -9.9239493928754636e-04 0.0000000000000000e+00  5.0980877180496738e-03 -9.3892458127454233e-04 0.0000000000000000e+00  4.9260956132117862e-03 -8.8648405597962056e-04 0.0000000000000000e+00  4.7558133155805021e-03 -8.3233644938649637e-04 0.0000000000000000e+00  4.5954035287981048e-03 -7.7946747356878905e-04 0.0000000000000000e+00  4.4368660835511888e-03 -7.2432229004378869e-04 0.0000000000000000e+00  4.2875303633927390e-03 -6.6843545401382989e-04 0.0000000000000000e+00  4.1390346847149963e-03 -6.1425429834153003e-04 0.0000000000000000e+00  4.0058597442881325e-03 -5.5752586661252698e-04 0.0000000000000000e+00  3.8668625670876646e-03 -5.0233625103885597e-04 0.0000000000000000e+00  3.7372519956643019e-03 -4.4772822156730849e-04 0.0000000000000000e+00  3.6097447129367871e-03 -3.9187138646406145e-04 0.0000000000000000e+00  3.4907386805586005e-03 -3.3614451751951165e-04 0.0000000000000000e+00  3.3715220891129796e-03 -2.7991374954080422e-04 0.0000000000000000e+00  3.2617112248130996e-03 -2.2567447636523156e-04 0.0000000000000000e+00  3.1541542006338456e-03 -1.6955424785804513e-04 0.0000000000000000e+00  3.0518661642374525e-03 -1.1573954360099207e-04 0.0000000000000000e+00  2.9505516251912721e-03 -6.1509264278733497e-05 0.0000000000000000e+00  2.8559333884483097e-03 -8.9652727421769113e-06 0.0000000000000000e+00  2.7631563008467066e-03 4.4203664585292956e-05 0.0000000000000000e+00  2.6762349468677821e-03 9.4457793722887810e-05 0.0000000000000000e+00  2.5907243351309742e-03 1.4489275730849069e-04 0.0000000000000000e+00  2.5113747995658348e-03 1.9370142607607002e-04 0.0000000000000000e+00  2.4311550807647343e-03 2.4120080311365382e-04 0.0000000000000000e+00  2.3581805074609189e-03 2.8691876024971479e-04 0.0000000000000000e+00  2.2864748624663593e-03 3.3167049442221487e-04 0.0000000000000000e+00  2.2183267791000137e-03 3.7344573321191558e-04 0.0000000000000000e+00  2.1511880440472165e-03 4.1447898008156736e-04 0.0000000000000000e+00  2.0881360654325600e-03 4.5240025736918986e-04 0.0000000000000000e+00  2.0265889887956970e-03 4.8937874921155451e-04 0.0000000000000000e+00  1.9689360915886461e-03 5.2148513891354682e-04 0.0000000000000000e+00  1.9124915236984508e-03 5.5431541428620169e-04 0.0000000000000000e+00  1.8577164112560480e-03 5.8176672420101735e-04 0.0000000000000000e+00  1.8023748459412650e-03 6.0833774233869857e-04 0.0000000000000000e+00  1.7536453643236653e-03 6.3146881776896609e-04 0.0000000000000000e+00  1.7006657380973414e-03 6.5207676102601556e-04 0.0000000000000000e+00  1.6522282244480085e-03 6.7136178698298484e-04 0.0000000000000000e+00  1.6029701733640330e-03 6.8511071962187127e-04 0.0000000000000000e+00  1.5548892927511892e-03 6.9788413305416140e-04 0.0000000000000000e+00  1.5074233554546622e-03 7.0744684151989568e-04 0.0000000000000000e+00  1.4613172318785055e-03 7.1431663034921553e-04 0.0000000000000000e+00  1.4115474677760687e-03 7.1850647544470362e-04 0.0000000000000000e+00  1.3647305542093641e-03 7.2043677223383208e-04 0.0000000000000000e+00  1.3173738849396174e-03 7.2032117475627044e-04 0.0000000000000000e+00  1.2710400866781228e-03 7.1757448483825452e-04 0.0000000000000000e+00  1.2231360869213522e-03 7.1208257992008282e-04 0.0000000000000000e+00  1.1733073649042088e-03 7.0551159852664754e-04 0.0000000000000000e+00  1.1232000753529300e-03 6.9673557252655403e-04 0.0000000000000000e+00  1.0739934378323802e-03 6.8701109821647430e-04 0.0000000000000000e+00  1.0225589550571315e-03 6.7561978674574150e-04 0.0000000000000000e+00  9.7141872671253448e-04 6.6331620359066565e-04 0.0000000000000000e+00  9.1810920802600155e-04 6.4987780113714099e-04 0.0000000000000000e+00  8.6489361654558026e-04 6.3602631954368647e-04 0.0000000000000000e+00  8.0918148343963573e-04 6.2121747930562619e-04 0.0000000000000000e+00  7.5394424188422423e-04 6.0723385188734538e-04 0.0000000000000000e+00  6.9673704993201686e-04 5.9309021929417039e-04 0.0000000000000000e+00  6.3978814823946960e-04 5.7913276088501764e-04 0.0000000000000000e+00  5.8062373850771608e-04 5.6487351291393737e-04 0.0000000000000000e+00  5.2134715386544721e-04 5.5219283506124906e-04 0.0000000000000000e+00  4.6028793920082094e-04 5.4030786776665981e-04 0.0000000000000000e+00  4.0010337204442734e-04 5.2889122111451990e-04 0.0000000000000000e+00  3.3440560124944012e-04 5.1898739777276074e-04 0.0000000000000000e+00  2.6923286052641949e-04 5.0986067066902813e-04 0.0000000000000000e+00  2.0352897230878499e-04 5.0436193371026323e-04 0.0000000000000000e+00  1.3766182316886756e-04 4.9901589277360407e-04 0.0000000000000000e+00  6.6651491050089855e-05 4.9669854776401845e-04 0.0000000000000000e+00  -7.4645498466542516e-21 4.7270188695383483e-04 0.0000000000000000e+00  6.8716289802893636e-21 4.4251086009123924e-04 0.0000000000000000e+00  -1.1980978638753941e-21 4.1374186606523051e-04 0.0000000000000000e+00  0.0000000000000000e+00 3.8540849673809787e-04 0.0000000000000000e+00  5.3200256859595802e-21 3.5767552074899569e-04 0.0000000000000000e+00  1.5839858065270179e-21 3.3069863555412917e-04 0.0000000000000000e+00  1.1379785816765415e-21 3.0440323348465475e-04 0.0000000000000000e+00  -1.7911188587497075e-21 2.7875581664981141e-04 0.0000000000000000e+00  4.3000148961869315e-21 2.5386279650507765e-04 0.0000000000000000e+00  1.7929362151301722e-21 2.2978313720126679e-04 0.0000000000000000e+00  2.4743505783931495e-21 2.0653527881487460e-04 0.0000000000000000e+00  -4.0304617992026647e-21 1.8428617363655043e-04 0.0000000000000000e+00  -6.0366383054341124e-21 1.6294245279788600e-04 0.0000000000000000e+00  -6.5736560384500877e-22 1.4271881014638060e-04 0.0000000000000000e+00  4.1186432514716202e-21 1.2353235717613373e-04 0.0000000000000000e+00  -2.5592827067181183e-21 1.0557355079656420e-04 0.0000000000000000e+00  -2.2924966877558201e-22 8.8878366603462863e-05 0.0000000000000000e+00  3.1987030162026269e-21 7.3432729306230612e-05 0.0000000000000000e+00  -1.6412616897174769e-21 5.9252312240970385e-05 0.0000000000000000e+00  1.4055329462963070e-21 4.6576995588763133e-05 0.0000000000000000e+00  -1.0516816347031257e-21 3.5344192911475089e-05 0.0000000000000000e+00  3.3450897533943588e-21 2.5588098002646522e-05 0.0000000000000000e+00  4.6152244685303495e-21 1.7311259756454245e-05 0.0000000000000000e+00  -1.7277120903035904e-21 1.0648442536918279e-05 0.0000000000000000e+00  -6.7749323376223688e-22 5.5771743491010152e-06 0.0000000000000000e+00  -1.0690038136311032e-21 1.8838351389373691e-06 0.0000000000000000e+00  -7.3818652894983108e-22 3.9980911842566964e-07 0.0000000000000000e+00  -2.2654057097535044e-21 -2.3779499036675406e-22 0.0000000000000000e+00  1.2686204142645914e-21 1.3214795981922828e-22 0.0000000000000000e+00  4.6176306931410652e-21 -2.8138687036328367e-22 0.0000000000000000e+00  1.0441719655982969e-21 1.9578224354968067e-22 0.0000000000000000e+00  2.7670771601595012e-21 5.0185799940570264e-22 0.0000000000000000e+00  4.4302327148630142e-21 3.4611193084867298e-23 0.0000000000000000e+00  2.6412214052973586e-21 -1.9281680558283224e-22 0.0000000000000000e+00  1.0365808519805295e-20 -4.0491439530489434e-23 0.0000000000000000e+00  -3.1104571882000001e-21 -4.5900843923090278e-22 0.0000000000000000e+00  1.7521322012518694e-20 2.2814221370467049e-23 0.0000000000000000e+00  2.8877582573843494e-20 -2.4081650121973991e-22 0.0000000000000000e+00  -1.9725475479669726e-20 4.1267485353528544e-23 0.0000000000000000e+00  1.0828012312076406e-20 1.8731494513078602e-22 0.0000000000000000e+00  9.6680527738898622e-21 -3.2730386994939640e-22 0.0000000000000000e+00  -3.0731492675023375e-20 -2.7144171740986605e-22 0.0000000000000000e+00  0.0000000000000000e+00 3.6357083853035779e-22 0.0000000000000000e+00  9.4311013439622590e-21 1.2525681472449874e-22 0.0000000000000000e+00  1.8124911365388856e-20 -5.4620227118669485e-22 0.0000000000000000e+00  8.1121669626637999e-20 2.1164515777515836e-23 0.0000000000000000e+00  -5.3840850752955231e-21 -4.6055481649547604e-23 0.0000000000000000e+00  -1.5269006650200928e-20 -2.3291877147698497e-22 0.0000000000000000e+00  -2.4121021493651213e-20 -5.6533644125745031e-23 0.0000000000000000e+00  2.6106287713351936e-20 -3.5262059605507912e-23 0.0000000000000000e+00  4.2645719318693899e-20 8.3292420544324022e-23 0.0000000000000000e+00  9.2222189505458407e-21 -9.3801327448034303e-24 0.0000000000000000e+00  -1.7593355327875598e-20 -9.1632058999352063e-23 0.0000000000000000e+00  -7.8307112026870277e-21 -3.4760589336748071e-22 0.0000000000000000e+00  2.7446919409639305e-20 0.0000000000000000e+00 0.0000000000000000e+00  -1.0785804813449818e-20 5.3183653323020927e-22 0.0000000000000000e+00  -1.3361841359813061e-20 -8.4687683403791851e-22 0.0000000000000000e+00  1.9589434109281463e-20 2.5514911078316448e-22 0.0000000000000000e+00  -3.6851318611556458e-21 7.5509451888210550e-23 0.0000000000000000e+00  2.6032935729033438e-21 7.2508003654047404e-22 0.0000000000000000e+00  1.3295145721191073e-20 -9.8725597962508934e-22 0.0000000000000000e+00  1.7665081370123940e-20 -7.2335462506973021e-22 0.0000000000000000e+00  -3.0333476926101901e-21 -5.1015554402415813e-22 0.0000000000000000e+00  1.4026582155385460e-20 -7.1217936095795505e-22 0.0000000000000000e+00  -9.6662619921548143e-21 5.6824799748107726e-22 0.0000000000000000e+00  2.0029312991431721e-20 -1.2518320619644825e-21 0.0000000000000000e+00  0.0000000000000000e+00 -3.8415221988410180e-22 0.0000000000000000e+00  -4.0130465006368084e-22 9.7136689163717561e-22 0.0000000000000000e+00  2.4596410890976034e-21 -1.5862454908429202e-21 0.0000000000000000e+00  5.8075083778235415e-21 -1.1708415055712752e-21 0.0000000000000000e+00  5.6872502589004612e-21 -2.1327188470876730e-21 0.0000000000000000e+00  4.5785956251800570e-21 -5.0382330799229478e-22 0.0000000000000000e+00  2.8820601290366855e-21 -8.4851969067751235e-22 0.0000000000000000e+00  -4.3840749657203744e-21 1.0960187414300936e-21 0.0000000000000000e+00  -5.1860739725498762e-22 -1.2335230023017385e-21 0.0000000000000000e+00  6.7333846556691330e-22 1.0302316451960193e-21 0.0000000000000000e+00  2.1036076888213364e-21 4.0336103617208147e-22 0.0000000000000000e+00  0.0000000000000000e+00 3.3033291707115632e-22 0.0000000000000000e+00  5.3090223067016621e-22 1.0934173507694036e-21 0.0000000000000000e+00  -6.8835215144780105e-23 1.4707446537883399e-21 0.0000000000000000e+00  -1.1501243102759278e-21 1.2372038568766531e-21 0.0000000000000000e+00  -2.4819679655038562e-21 4.1366132758397603e-22 0.0000000000000000e+00  5.2283164535117186e-21 2.1784651889632163e-21 0.0000000000000000e+00  1.2118152837656754e-20 1.2027943263182882e-22 0.0000000000000000e+00  2.2697010785679199e-21 -4.1409524091110669e-22 0.0000000000000000e+00  -1.5520651273510969e-20 -4.8502035229721779e-22 0.0000000000000000e+00  -2.1954208953374103e-21 -1.8212965644695028e-21 0.0000000000000000e+00  -7.6422243371568929e-21 -9.2674075550638622e-22 0.0000000000000000e+00  -1.2088285907325762e-20 -9.6124302030093216e-22 0.0000000000000000e+00  9.3563735852175750e-22 -1.4424409277210429e-21 0.0000000000000000e+00  1.1609985168370591e-20 -6.1175685746187947e-22 0.0000000000000000e+00  8.5104156510749021e-21 -2.3120318901318436e-22 0.0000000000000000e+00  -2.4317400429420189e-21 2.7752085612241425e-22 0.0000000000000000e+00  6.0338453565485679e-21 7.5423066956857099e-22 0.0000000000000000e+00  3.6663014851069878e-21 3.1904390420145901e-22 0.0000000000000000e+00  9.9390165766041469e-21 -3.7271083060040979e-22 0.0000000000000000e+00  -5.6347553442770637e-21 5.8695368169552747e-23 0.0000000000000000e+00  -1.1145515677587600e-20 1.9070970430015466e-22 0.0000000000000000e+00  -4.8854202353936648e-21 -1.0941586257583091e-22 0.0000000000000000e+00  3.1430922611638626e-21 -3.1035759625549322e-23 0.0000000000000000e+00  -9.5371036097207898e-21 5.9777042791603824e-23 0.0000000000000000e+00  -2.4013428060227857e-21 -2.4623144007069581e-23 0.0000000000000000e+00  7.5178911192998248e-21 1.9577841456509961e-23 0.0000000000000000e+00  7.7201127698603571e-21 -1.0057561149622829e-22 0.0000000000000000e+00  1.0955240698213370e-20 -4.2793908977395976e-23 0.0000000000000000e+00  -4.2957337099766970e-21 -8.3901049022982357e-23 0.0000000000000000e+00  1.5249487371689847e-20 -4.7654648036530772e-23 0.0000000000000000e+00  1.0493391753140860e-20 2.3685197123523888e-22 0.0000000000000000e+00  -1.3459297263128038e-20 0.0000000000000000e+00 0.0000000000000000e+00  4.7565203760405533e-21 1.3197588707006419e-22 0.0000000000000000e+00  9.1540924960350775e-21 5.1491770290197313e-22 0.0000000000000000e+00  -3.6046891865462556e-21 4.0987022061455791e-22 0.0000000000000000e+00  -1.3702861030874377e-21 3.1801415626065345e-24 0.0000000000000000e+00  -1.2873430599617738e-20 -6.7049117706342387e-23 0.0000000000000000e+00  2.2992712134036291e-21 2.1555667625659022e-22 0.0000000000000000e+00  1.0419545072042471e-20 9.0544175091278161e-23 0.0000000000000000e+00  3.8154285694689116e-21 -4.7692857118361395e-22 0.0000000000000000e+00  3.9775098294448315e-21 -5.6536512614668240e-23 0.0000000000000000e+00  -6.0601076195974230e-21 8.8329098847228561e-23 0.0000000000000000e+00  -1.6586810074189247e-20 5.7945327250020955e-22 0.0000000000000000e+00  1.3558789117285535e-21 8.4742431983034592e-23 0.0000000000000000e+00  -2.6859076497552773e-21 -6.4749559413743289e-22 0.0000000000000000e+00  -2.5718573021406891e-21 -2.1432144184505741e-22 0.0000000000000000e+00  6.3504472340173208e-21 1.2788306877746297e-21 0.0000000000000000e+00  2.6428798237823882e-21 1.1350152640483055e-22 0.0000000000000000e+00  2.0370079917442083e-21 6.3656499742006510e-23 0.0000000000000000e+00  -3.1170816923386571e-21 -2.5975680769488811e-22 0.0000000000000000e+00  5.9859858414668807e-21 6.2822073498340484e-22 0.0000000000000000e+00  -2.3135462430666523e-21 1.4459664019166577e-22 0.0000000000000000e+00  1.0602564556889092e-21 -7.7625919077223709e-22 0.0000000000000000e+00  3.2007603952732653e-21 8.0019009881831632e-23 0.0000000000000000e+00  8.1341999807631655e-22 -5.7380352326570978e-22 0.0000000000000000e+00  0.0000000000000000e+00 -8.5647114747765630e-23 0.0000000000000000e+00  -2.8642282027654525e-21 8.9507131336420389e-23 0.0000000000000000e+00  1.5386707060932054e-21 -4.8083459565412670e-22 0.0000000000000000e+00  -2.8484775400504048e-21 2.9850235235456692e-23 0.0000000000000000e+00  -3.5692613426603230e-21 -1.1153941695813509e-22 0.0000000000000000e+00  1.9417505111983063e-21 -9.9943041017559874e-23 0.0000000000000000e+00  4.7913536727208820e-22 -2.3956768363604410e-22 0.0000000000000000e+00  -1.5724889971273171e-21 3.1221451363418005e-22 0.0000000000000000e+00  3.6409204735548638e-23