<?xml version="1.0"?>
<VTKFile type="UnstructuredGrid"  version="0.1"  >
<UnstructuredGrid>
<Piece  NumberOfPoints="13179" NumberOfCells="25814">
<Points>
<DataArray  type="Float64"  NumberOfComponents="3"  format="ascii">0 0 0  30 0 0  30 -10 0  0 -10 0  0.02360821169319077 0 0  0.04721642338638154 0 0  0.07206717063563725 0 0  0.09691791788489297 0 0  0.1230766011355843 0 0  0.1492352843862757 0 0  0.1767707375239038 0 0  0.204306190661532 0 0  0.2332908770901271 0 0  0.2622755635187223 0 0  0.2927857633803451 0 0  0.323295963241968 0 0  0.3554119623832387 0 0  0.3875279615245094 0 0  0.4213342730081758 0 0  0.4551405844918422 0 0  0.4907261762804851 0 0  0.526311768069128 0 0  0.5637702848355051 0 0  0.6012288016018821 0 0  0.6406588220121138 0 0  0.6800888424223455 0 0  0.721594129780935 0 0  0.7630994171395246 0 0  0.8067891887833475 0 0  0.8504789604271704 0 0  0.8964681941825949 0 0  0.9424574279380195 0 0  0.9908671465681095 0 0  1.039276865198199 0 0  1.090234462786975 0 0  1.141192060375751 0 0  1.194831641933244 0 0  1.248471223490737 0 0  1.304933942963653 0 0  1.361396662436569 0 0  1.420831104471586 0 0  1.480265546506604 0 0  1.542828113436244 0 0  1.605390680365884 0 0  1.671246013469327 0 0  1.73710134657277 0 0  1.806422752814762 0 0  1.875744159056755 0 0  1.948714057431306 0 0  2.021683955805857 0 0  2.098494373901932 0 0  2.175304791998006 0 0  2.256157866653476 0 0  2.337010941308945 0 0  2.422119443935387 0 0  2.50722794656183 0 0  2.596815840700639 0 0  2.686403734839449 0 0  2.780706776094687 0 0  2.875009817349925 0 0  2.974276175689285 0 0  3.073542534028646 0 0  3.178033441002704 0 0  3.282524347976761 0 0  3.392514777963501 0 0  3.502505207950242 0 0  3.618284608533553 0 0  3.734064009116865 0 0  3.855937062816526 0 0  3.977810116516187 0 0  4.106097541496641 0 0  4.234384966477093 0 0  4.369424362562147 0 0  4.5044637586472 0 0  4.646610489729194 0 0  4.788757220811188 0 0  4.938385356669961 0 0  5.088013492528733 0 0  5.24551679218304 0 0  5.403020091837347 0 0  5.568813038399614 0 0  5.73460598496188 0 0  5.909124878408681 0 0  6.083643771855482 0 0  6.267347873338513 0 0  6.451051974821543 0 0  6.644424714363561 0 0  6.83779745390558 0 0  7.041347702348167 0 0  7.244897950790754 0 0  7.459161368238869 0 0  7.673424785686984 0 0  7.898965226038037 0 0  8.124505666389089 0 0  8.361916654054033 0 0  8.599327641718979 0 0  8.849233942517035 0 0  9.099140243315093 0 0  9.362199507946787 0 0  9.625258772578484 0 0  9.902163261537794 0 0  10.1790677504971 0 0  10.47054616023911 0 0  10.76202456998112 0 0  11.06884394887334 0 0  11.37566332776555 0 0  11.69863109504192 0 0  12.02159886231829 0 0  12.3615649378891 0 0  12.7015310134599 0 0  13.05939003847426 0 0  13.41724906348862 0 0  13.79394276982091 0 0  14.1706364761532 0 0  14.5671561683298 0 0  14.96367586050641 0 0  15.38106501332897 0 0  15.79845416615153 0 0  16.23781117165827 0 0  16.677168177165 0 0  17.13964923659526 0 0  17.60213029602552 0 0  18.0889524622663 0 0  18.57577462850707 0 0  19.08821901304263 0 0  19.60066339757818 0 0  20.14007853843172 0 0  20.67949367928525 0 0  21.24729908993883 0 0  21.8151045005924 0 0  22.41279440541421 0 0  23.01048431023601 0 0  23.63963157605829 0 0  24.26877884188056 0 0  24.93103912515648 0 0  25.59329940843241 0 0  26.29041549584691 0 0  26.98753158326142 0 0  27.72133799026916 0 0  28.45514439727691 0 0  29.22757219863846 0 0  30 -0.3571428571428571 0  30 -0.7142857142857142 0  30 -1.071428571428571 0  30 -1.428571428571428 0  30 -1.785714285714286 0  30 -2.142857142857143 0  30 -2.5 0  30 -2.857142857142857 0  30 -3.214285714285714 0  30 -3.571428571428571 0  30 -3.928571428571428 0  30 -4.285714285714286 0  30 -4.642857142857142 0  30 -5 0  30 -5.357142857142857 0  30 -5.714285714285714 0  30 -6.071428571428571 0  30 -6.428571428571428 0  30 -6.785714285714285 0  30 -7.142857142857142 0  30 -7.5 0  30 -7.857142857142857 0  30 -8.214285714285714 0  30 -8.571428571428571 0  30 -8.928571428571427 0  30 -9.285714285714285 0  30 -9.642857142857142 0  29.22757220128658 -10 0  28.45514440257316 -10 0  27.72133799277628 -10 0  26.98753158297939 -10 0  26.29041549304805 -10 0  25.5932994031167 -10 0  24.93103911757599 -10 0  24.26877883203527 -10 0  23.63963156418132 -10 0  23.01048429632737 -10 0  22.41279438968936 -10 0  21.81510448305136 -10 0  21.24729907078059 -10 0  20.67949365850982 -10 0  20.14007851622273 -10 0  19.60066337393564 -10 0  19.08821898813588 -10 0  18.57577460233611 -10 0  18.08895243498708 -10 0  17.60213026763805 -10 0  17.13964920724307 -10 0  16.6771681468481 -10 0  16.2378111405086 -10 0  15.79845413416909 -10 0  15.38106498063496 -10 0  14.96367582710082 -10 0  14.56715613432376 -10 0  14.17063644154669 -10 0  13.79394273471576 -10 0  13.41724902788484 -10 0  13.05939000246495 -10 0  12.70153097704506 -10 0  12.36156490115379 -10 0  12.02159882526251 -10 0  11.69863105774323 -10 0  11.37566329022395 -10 0  11.06884391115945 -10 0  10.76202453209494 -10 0  10.47054612224479 -10 0  10.17906771239465 -10 0  9.902163223385379 -10 0  9.625258734376107 -10 0  9.362199469747061 -10 0  9.099140205118012 -10 0  8.849233904370102 -10 0  8.599327603622193 -10 0  8.361916616050124 -10 0  8.124505628478055 -10 0  7.898965188258209 -10 0  7.673424748038361 -10 0  7.459161330755727 -10 0  7.244897913473093 -10 0  7.041347665226496 -10 0  6.837797416979896 -10 0  6.644424677660922 -10 0  6.451051938341948 -10 0  6.26734783710581 -10 0  6.083643735869675 -10 0  5.90912484269068 -10 0  5.734605949511682 -10 0  5.568813003235423 -10 0  5.403020056959164 -10 0  5.24551675760658 -10 0  5.088013458254 -10 0  4.938385322710374 -10 0  4.788757187166745 -10 0  4.646610456411224 -10 0  4.504463725655707 -10 0  4.369424329906533 -10 0  4.234384934157362 -10 0  4.106097509520442 -10 0  3.977810084883522 -10 0  3.85593703153344 -10 0  3.734063978183357 -10 0  3.618284577954206 -10 0  3.502505177725055 -10 0  3.392514748095728 -10 0  3.282524318466404 -10 0  3.1780334118518 -10 0  3.073542505237196 -10 0  2.97427614725823 -10 0  2.875009789279265 -10 0  2.780706748384375 -10 0  2.686403707489482 -10 0  2.596815813710069 -10 0  2.507227919930656 -10 0  2.422119417661861 -10 0  2.337010915393062 -10 0  2.256157841092762 -10 0  2.175304766792465 -10 0  2.098494349048437 -10 0  2.021683931304413 -10 0  1.948714033278215 -10 0  1.875744135252013 -10 0  1.806422729354161 -10 0  1.737101323456312 -10 0  1.671245990692352 -10 0  1.605390657928396 -10 0  1.542828091333185 -10 0  1.480265524737977 -10 0  1.420831083031992 -10 0  1.36139664132601 -10 0  1.304933922176438 -10 0  1.248471203026863 -10 0  1.194831621786765 -10 0  1.14119204054667 -10 0  1.09023444350921 -10 0  1.039276846471754 -10 0  0.9908671279064798 -10 0  0.942457409341209 -10 0  0.8964681758842019 -10 0  0.8504789424271948 -10 0  0.8067891710751951 -10 0  0.7630993997231954 -10 0  0.7215941126497469 -10 0  0.6800888255762949 -10 0  0.6406588054444597 -10 0  0.6012287853126246 -10 0  0.5637702688178621 -10 0  0.5263117523230996 -10 0  0.4907261607992695 -10 0  0.4551405692754429 -10 0  0.4213342580497894 -10 0  0.3875279468241395 -10 0  0.3554119479341011 -10 0  0.3232959490440663 -10 0  0.2927857494269297 -10 0  0.2622755498097931 -10 0  0.2332908636189828 -10 0  0.2043061774281725 -10 0  0.1767707245216883 -10 0  0.1492352716152006 -10 0  0.1230765885890825 -10 0  0.09691790556296098 -10 0  0.0720671585317838 -10 0  0.04721641150060663 -10 0  0.02360820575030331 -10 0  0 -9.957983193277311 0  0 -9.915966386554622 0  0 -9.873949579831933 0  0 -9.831932773109244 0  0 -9.789915966386555 0  0 -9.747899159663866 0  0 -9.705882352941176 0  0 -9.663865546218487 0  0 -9.621848739495798 0  0 -9.579831932773109 0  0 -9.53781512605042 0  0 -9.495798319327731 0  0 -9.453781512605042 0  0 -9.411764705882353 0  0 -9.369747899159664 0  0 -9.327731092436975 0  0 -9.285714285714286 0  0 -9.243697478991596 0  0 -9.201680672268907 0  0 -9.159663865546218 0  0 -9.117647058823529 0  0 -9.07563025210084 0  0 -9.033613445378151 0  0 -8.991596638655462 0  0 -8.949579831932773 0  0 -8.907563025210084 0  0 -8.865546218487395 0  0 -8.823529411764707 0  0 -8.781512605042018 0  0 -8.739495798319329 0  0 -8.69747899159664 0  0 -8.655462184873949 0  0 -8.61344537815126 0  0 -8.571428571428571 0  0 -8.529411764705882 0  0 -8.487394957983193 0  0 -8.445378151260504 0  0 -8.403361344537815 0  0 -8.361344537815127 0  0 -8.319327731092438 0  0 -8.277310924369749 0  0 -8.235294117647058 0  0 -8.193277310924369 0  0 -8.15126050420168 0  0 -8.109243697478991 0  0 -8.067226890756302 0  0 -8.025210084033613 0  0 -7.983193277310924 0  0 -7.941176470588236 0  0 -7.899159663865547 0  0 -7.857142857142857 0  0 -7.815126050420168 0  0 -7.773109243697479 0  0 -7.73109243697479 0  0 -7.689075630252101 0  0 -7.647058823529411 0  0 -7.605042016806722 0  0 -7.563025210084033 0  0 -7.521008403361344 0  0 -7.478991596638656 0  0 -7.436974789915967 0  0 -7.394957983193278 0  0 -7.352941176470589 0  0 -7.3109243697479 0  0 -7.26890756302521 0  0 -7.226890756302521 0  0 -7.184873949579832 0  0 -7.142857142857143 0  0 -7.100840336134453 0  0 -7.058823529411764 0  0 -7.016806722689076 0  0 -6.974789915966387 0  0 -6.932773109243698 0  0 -6.890756302521009 0  0 -6.84873949579832 0  0 -6.806722689075631 0  0 -6.764705882352941 0  0 -6.722689075630252 0  0 -6.680672268907563 0  0 -6.638655462184874 0  0 -6.596638655462185 0  0 -6.554621848739496 0  0 -6.512605042016807 0  0 -6.470588235294118 0  0 -6.428571428571429 0  0 -6.38655462184874 0  0 -6.344537815126051 0  0 -6.302521008403362 0  0 -6.260504201680672 0  0 -6.218487394957983 0  0 -6.176470588235294 0  0 -6.134453781512605 0  0 -6.092436974789917 0  0 -6.050420168067227 0  0 -6.008403361344538 0  0 -5.966386554621849 0  0 -5.92436974789916 0  0 -5.882352941176471 0  0 -5.840336134453782 0  0 -5.798319327731092 0  0 -5.756302521008403 0  0 -5.714285714285714 0  0 -5.672268907563025 0  0 -5.630252100840336 0  0 -5.588235294117647 0 
[...]
<PointData  Vectors="displacement"> 
<DataArray  type="Float64"  Name="displacement"  NumberOfComponents="3" format="ascii">1.0400000000000097e-01 -2.9521635665148128e-02 0.0000000000000000e+00  1.2006365802407260e-20 1.1838881034041476e-03 0.0000000000000000e+00  5.6876249448753272e-22 2.5203454670277701e-22 0.0000000000000000e+00  -2.5490200380973464e-22 7.0387109177568549e-22 0.0000000000000000e+00  8.4442150287759005e-02 -3.6163866127718575e-02 0.0000000000000000e+00  6.7894221592064471e-02 -4.3974535494226058e-02 0.0000000000000000e+00  5.5231190440412241e-02 -4.6196663720575674e-02 0.0000000000000000e+00  4.5904001207902903e-02 -4.6822957514196434e-02 0.0000000000000000e+00  3.8456845146980362e-02 -4.6641006622462511e-02 0.0000000000000000e+00  3.2745395446402523e-02 -4.5534480819434411e-02 0.0000000000000000e+00  2.8087272327274652e-02 -4.4112057264492563e-02 0.0000000000000000e+00  2.4505687913985452e-02 -4.2560122149082363e-02 0.0000000000000000e+00  2.1487155825727938e-02 -4.1251715124844289e-02 0.0000000000000000e+00  1.9120690453273775e-02 -3.9723530315831757e-02 0.0000000000000000e+00  1.7096488029103601e-02 -3.8376261286893650e-02 0.0000000000000000e+00  1.5467595499215501e-02 -3.6977317975517641e-02 0.0000000000000000e+00  1.4029122713398066e-02 -3.5721734118382031e-02 0.0000000000000000e+00  1.2838659795874419e-02 -3.4514601354894564e-02 0.0000000000000000e+00  1.1801580714157057e-02 -3.3309177364240099e-02 0.0000000000000000e+00  1.0919064762373344e-02 -3.2224102247877945e-02 0.0000000000000000e+00  1.0135804636379139e-02 -3.1131740637824801e-02 0.0000000000000000e+00  9.4784133253682859e-03 -3.0103457982269169e-02 0.0000000000000000e+00  8.8636509678458476e-03 -2.9113979071363014e-02 0.0000000000000000e+00  8.3175164683466519e-03 -2.8190756882641110e-02 0.0000000000000000e+00  7.8299211688402665e-03 -2.7260679278349791e-02 0.0000000000000000e+00  7.4073660237074851e-03 -2.6385343541766939e-02 0.0000000000000000e+00  7.0066624058493180e-03 -2.5540652744618472e-02 0.0000000000000000e+00  6.6635830088569974e-03 -2.4721830288099246e-02 0.0000000000000000e+00  6.3403466475080725e-03 -2.3912238919871761e-02 0.0000000000000000e+00  6.0446490556010412e-03 -2.3151075366610763e-02 0.0000000000000000e+00  5.7786941124399012e-03 -2.2387696903097200e-02 0.0000000000000000e+00  5.5403288697131953e-03 -2.1664681298287244e-02 0.0000000000000000e+00  5.3189903253782747e-03 -2.0938667127483036e-02 0.0000000000000000e+00  5.1177210152266459e-03 -2.0249290793693926e-02 0.0000000000000000e+00  4.9310972597393626e-03 -1.9554849075537725e-02 0.0000000000000000e+00  4.7637512847264075e-03 -1.8898301542122093e-02 0.0000000000000000e+00  4.6090545272787524e-03 -1.8237514908546488e-02 0.0000000000000000e+00  4.4718321137743756e-03 -1.7607828796949727e-02 0.0000000000000000e+00  4.3440257323949048e-03 -1.6976566096252355e-02 0.0000000000000000e+00  4.2292630178943375e-03 -1.6369094367246258e-02 0.0000000000000000e+00  4.1209284863300381e-03 -1.5764852568209579e-02 0.0000000000000000e+00  4.0333123956976576e-03 -1.5180848617812319e-02 0.0000000000000000e+00  3.9436900797314356e-03 -1.4595066592050699e-02 0.0000000000000000e+00  3.8682619786285077e-03 -1.4035541509033592e-02 0.0000000000000000e+00  3.7936020845923306e-03 -1.3470974964936738e-02 0.0000000000000000e+00  3.7336269397274017e-03 -1.2928991426192362e-02 0.0000000000000000e+00  3.6794421728788933e-03 -1.2385088172251195e-02 0.0000000000000000e+00  3.6332488024661547e-03 -1.1864043217705851e-02 0.0000000000000000e+00  3.5915139206228615e-03 -1.1336378766201045e-02 0.0000000000000000e+00  3.5563618716667692e-03 -1.0832082743123242e-02 0.0000000000000000e+00  3.5271093105817180e-03 -1.0323701690904527e-02 0.0000000000000000e+00  3.5009952402788214e-03 -9.8352699540488388e-03 0.0000000000000000e+00  3.4826318307877770e-03 -9.3436035362132967e-03 0.0000000000000000e+00  3.4691668012718896e-03 -8.8733845191766424e-03 0.0000000000000000e+00  3.4604088377172236e-03 -8.3992303969534152e-03 0.0000000000000000e+00  3.4561739547218132e-03 -7.9448479941710663e-03 0.0000000000000000e+00  3.4554992755780854e-03 -7.4860819812646211e-03 0.0000000000000000e+00  3.4596153909449831e-03 -7.0466033453936393e-03 0.0000000000000000e+00  3.4671652491897100e-03 -6.6039850339314372e-03 0.0000000000000000e+00  3.4781282996469323e-03 -6.1814130979862859e-03 0.0000000000000000e+00  3.4938020892639017e-03 -5.7555176319998916e-03 0.0000000000000000e+00  3.5124393322117091e-03 -5.3485896567324921e-03 0.0000000000000000e+00  3.5343606557178046e-03 -4.9381049335092565e-03 0.0000000000000000e+00  3.5587259950174959e-03 -4.5476824082138663e-03 0.0000000000000000e+00  3.5871530369095696e-03 -4.1551087838274606e-03 0.0000000000000000e+00  3.6174810551465007e-03 -3.7791224948683444e-03 0.0000000000000000e+00  3.6509336881757328e-03 -3.4030559907260215e-03 0.0000000000000000e+00  3.6865366711202026e-03 -3.0451823119545841e-03 0.0000000000000000e+00  3.7250459978628967e-03 -2.6860768050745395e-03 0.0000000000000000e+00  3.7643659273494034e-03 -2.3454461989181573e-03 0.0000000000000000e+00  3.8075173282500416e-03 -2.0051583656866554e-03 0.0000000000000000e+00  3.8514089358401534e-03 -1.6824921079685183e-03 0.0000000000000000e+00  3.8975015666262076e-03 -1.3593146579965615e-03 0.0000000000000000e+00  3.9440896825897326e-03 -1.0545155946497717e-03 0.0000000000000000e+00  3.9930153412411221e-03 -7.5136850888096361e-04 0.0000000000000000e+00  4.0417608470052369e-03 -4.6545813851894873e-04 0.0000000000000000e+00  4.0925864594688029e-03 -1.8166626570749594e-04 0.0000000000000000e+00  4.1428750745813748e-03 8.4890019627494856e-05 0.0000000000000000e+00  4.1947965923802141e-03 3.4741674362126794e-04 0.0000000000000000e+00  4.2454540810907479e-03 5.9297708008922590e-04 0.0000000000000000e+00  4.2975863331216196e-03 8.3427377810081453e-04 0.0000000000000000e+00  4.3481634502424574e-03 1.0593625887793691e-03 0.0000000000000000e+00  4.3995407958876713e-03 1.2793117916057796e-03 0.0000000000000000e+00  4.4491705302362504e-03 1.4815948898381363e-03 0.0000000000000000e+00  4.4983788338272632e-03 1.6799778853875381e-03 0.0000000000000000e+00  4.5450245588052147e-03 1.8609784071894394e-03 0.0000000000000000e+00  4.5909345189404658e-03 2.0349376701417131e-03 0.0000000000000000e+00  4.6342147935506429e-03 2.1932792237982480e-03 0.0000000000000000e+00  4.6761413170312389e-03 2.3446432976905423e-03 0.0000000000000000e+00  4.7145609913380486e-03 2.4794525387937653e-03 0.0000000000000000e+00  4.7514275309340076e-03 2.6055121790693413e-03 0.0000000000000000e+00  4.7832949275894649e-03 2.7183103204848342e-03 0.0000000000000000e+00  4.8128608899981207e-03 2.8219411849801294e-03 0.0000000000000000e+00  4.8379242876454920e-03 2.9104992371096934e-03 0.0000000000000000e+00  4.8591123182060002e-03 2.9904693328363756e-03 0.0000000000000000e+00  4.8754687343936240e-03 3.0575615999692521e-03 0.0000000000000000e+00  4.8876434818026088e-03 3.1145153673890450e-03 0.0000000000000000e+00  4.8947639692326957e-03 3.1584922789715184e-03 0.0000000000000000e+00  4.8952781426024944e-03 3.1938215306325391e-03 0.0000000000000000e+00  4.8910763963597075e-03 3.2164025628245341e-03 0.0000000000000000e+00  4.8817325416449960e-03 3.2287670322523067e-03 0.0000000000000000e+00  4.8650521123458496e-03 3.2322999988871537e-03 0.0000000000000000e+00  4.8421599847418154e-03 3.2263651816543627e-03 0.0000000000000000e+00  4.8132428263360600e-03 3.2107292421764740e-03 0.0000000000000000e+00  4.7769725089252309e-03 3.1861525147887306e-03 0.0000000000000000e+00  4.7343798248494790e-03 3.1542223341666153e-03 0.0000000000000000e+00  4.6838912015792662e-03 3.1152017783199664e-03 0.0000000000000000e+00  4.6291146554924183e-03 3.0658895149684208e-03 0.0000000000000000e+00  4.5623160428002818e-03 3.0140647879416857e-03 0.0000000000000000e+00  4.4968372883937005e-03 2.9531235944460967e-03 0.0000000000000000e+00  4.4147346707027963e-03 2.8884091869197334e-03 0.0000000000000000e+00  4.3308657680913472e-03 2.8227394379869756e-03 0.0000000000000000e+00  4.2415578242085052e-03 2.7454282790651268e-03 0.0000000000000000e+00  4.1450316490876443e-03 2.6724341464512973e-03 0.0000000000000000e+00  4.0421975989790677e-03 2.5921283997577416e-03 0.0000000000000000e+00  3.9354304942739492e-03 2.5120431680468683e-03 0.0000000000000000e+00  3.8133613035710862e-03 2.4287436386478366e-03 0.0000000000000000e+00  3.6934193162048361e-03 2.3477126237125218e-03 0.0000000000000000e+00  3.5676815733120060e-03 2.2655374290695986e-03 0.0000000000000000e+00  3.4406499450113951e-03 2.1850226611076547e-03 0.0000000000000000e+00  3.3065909112156852e-03 2.1017650141964116e-03 0.0000000000000000e+00  3.1644303493983039e-03 2.0241451722095151e-03 0.0000000000000000e+00  3.0203536843320068e-03 1.9465181194845676e-03 0.0000000000000000e+00  2.8782427750243013e-03 1.8736214814019433e-03 0.0000000000000000e+00  2.7290132133659540e-03 1.8015340568335028e-03 0.0000000000000000e+00  2.5810586536417998e-03 1.7341948159679218e-03 0.0000000000000000e+00  2.4274875599154151e-03 1.6686951951237964e-03 0.0000000000000000e+00  2.2753547978585286e-03 1.6077231163801626e-03 0.0000000000000000e+00  2.1174674755435143e-03 1.5479822010423009e-03 0.0000000000000000e+00  1.9626034077373832e-03 1.4964993451314287e-03 0.0000000000000000e+00  1.8041919845123622e-03 1.4479990309757967e-03 0.0000000000000000e+00  1.6483478348129502e-03 1.4033812335992120e-03 0.0000000000000000e+00  1.4887108777445158e-03 1.3602690923675297e-03 0.0000000000000000e+00  1.3306993755332996e-03 1.3235224050409716e-03 0.0000000000000000e+00  1.1698491457186300e-03 1.2912775242721042e-03 0.0000000000000000e+00  1.0133048971075703e-03 1.2614419750194398e-03 0.0000000000000000e+00  8.4323447766516133e-04 1.2362697822705484e-03 0.0000000000000000e+00  6.7648474259826964e-04 1.2138378027168038e-03 0.0000000000000000e+00  5.1018602355227356e-04 1.2010872206738078e-03 0.0000000000000000e+00  3.4406104950585514e-04 1.1889307911438698e-03 0.0000000000000000e+00  1.6567056025346369e-04 1.1836946741083652e-03 0.0000000000000000e+00  1.0401205535779776e-20 1.1202497511501950e-03 0.0000000000000000e+00  1.7179072450723409e-20 1.0420702337034726e-03 0.0000000000000000e+00  9.6937008986281878e-21 9.7343798308415093e-04 0.0000000000000000e+00  -7.1049162589203506e-21 9.0102415588331998e-04 0.0000000000000000e+00  1.3120256288655869e-21 8.3268758991215290e-04 0.0000000000000000e+00  1.4783867527585502e-20 7.6593848383135657e-04 0.0000000000000000e+00  -4.5259705077419603e-21 7.0135928264732496e-04 0.0000000000000000e+00  1.9599369580801395e-21 6.3870039268185597e-04 0.0000000000000000e+00  -5.2815235007397361e-21 5.7825548334599611e-04 0.0000000000000000e+00  1.4343489721041377e-20 5.2028922018249415e-04 0.0000000000000000e+00  6.7435616129729335e-21 4.6463475236426546e-04 0.0000000000000000e+00  -7.6252260142635493e-21 4.1193727257597007e-04 0.0000000000000000e+00  -5.3122417087820191e-21 3.6169537146059724e-04 0.0000000000000000e+00  -1.5553506122153855e-21 3.1464885993980648e-04 0.0000000000000000e+00  2.7028596337782508e-21 2.7032191085853559e-04 0.0000000000000000e+00  8.5263589911804731e-22 2.2931652801015703e-04 0.0000000000000000e+00  3.8972443691848944e-21 1.9156145376660936e-04 0.0000000000000000e+00  -5.7084994255637696e-21 1.5696436371569235e-04 0.0000000000000000e+00  7.2212777425075782e-21 1.2548819325017114e-04 0.0000000000000000e+00  -4.2715783919883039e-21 9.7750099519497885e-05 0.0000000000000000e+00  -4.4696469474882841e-21 7.3360226942974289e-05 0.0000000000000000e+00  2.5938216347629386e-21 5.2433062547853721e-05 0.0000000000000000e+00  -5.8310263725884135e-22 3.4952450082788158e-05 0.0000000000000000e+00  -1.8198322515538467e-21 2.1007636118469318e-05 0.0000000000000000e+00  -2.3712263181678289e-21 1.0587892220900337e-05 0.0000000000000000e+00  1.7104061018097652e-21 3.2318513575258528e-06 0.0000000000000000e+00  -1.6871391231288536e-21 3.9777669999256406e-07 0.0000000000000000e+00  -2.2654057097535044e-21 -1.4476450749426440e-22 0.0000000000000000e+00  8.4574694284306098e-22 -1.3214795981922828e-23 0.0000000000000000e+00  2.7705784158846391e-21 -1.4069343518164184e-22 0.0000000000000000e+00  1.4618407518376156e-20 -8.9733528293603631e-23 0.0000000000000000e+00  6.7307670644396322e-21 -1.4104009363587576e-22 0.0000000000000000e+00  0.0000000000000000e+00 -7.2683505478221327e-22 0.0000000000000000e+00  -1.6875788878776103e-20 -8.1577042448950591e-22 0.0000000000000000e+00  4.1463234079221181e-20 4.6565155460062851e-22 0.0000000000000000e+00  -1.5897892295244444e-20 1.3176242255569445e-21 0.0000000000000000e+00  -3.5042644025037388e-20 -3.1939909918653869e-22 0.0000000000000000e+00  4.0548334011707613e-20 -4.6332050139485007e-22 0.0000000000000000e+00  3.4426683990780929e-20 5.4117412234070732e-22 0.0000000000000000e+00  4.6405767051756021e-21 1.2084835169728131e-22 0.0000000000000000e+00  1.2890737031853150e-20 7.0496218142946914e-22 0.0000000000000000e+00  2.0698874791424682e-20 -5.5113394294769158e-22 0.0000000000000000e+00  -2.1478646460870368e-20 -3.3560385095109950e-22 0.0000000000000000e+00  5.2814167526188650e-20 7.6627698419693354e-22 0.0000000000000000e+00  6.1999017358703851e-20 -6.2581428558419708e-22 0.0000000000000000e+00  2.1530079451141977e-20 1.1938106989015690e-21 0.0000000000000000e+00  -2.9774815858037051e-20 -7.1345677411776117e-23 0.0000000000000000e+00  1.0096096752449465e-21 -6.3675354216103539e-22 0.0000000000000000e+00  -1.9296817194920971e-20 0.0000000000000000e+00 0.0000000000000000e+00  3.6726479002774301e-20 2.0254389394223279e-22 0.0000000000000000e+00  3.1984289489020423e-20 -3.3316968217729609e-22 0.0000000000000000e+00  -9.7880571227387854e-21 -3.3389668388553754e-22 0.0000000000000000e+00  2.3457807103834128e-20 -2.9322258879792660e-21 0.0000000000000000e+00  3.6802734703716779e-20 -1.4489127151532371e-21 0.0000000000000000e+00  6.8617298524098263e-20 -4.2885811577561414e-22 0.0000000000000000e+00  -4.5100549160876961e-20 -7.8486641418914284e-22 0.0000000000000000e+00  7.5278588181972184e-21 -2.4804900663278661e-22 0.0000000000000000e+00  -2.8281396118557069e-20 -5.7141192868160662e-22 0.0000000000000000e+00  -1.3194629100786433e-19 2.5019813274479749e-21 0.0000000000000000e+00  1.1211174155787623e-19 3.9035298091783129e-21 0.0000000000000000e+00  -7.4753118542158940e-20 -4.0074969266610806e-22 0.0000000000000000e+00  6.0914073690082551e-20 -1.1611745297171985e-21 0.0000000000000000e+00  3.0139598106420447e-20 -9.1075001703080712e-22 0.0000000000000000e+00  5.6876967102865412e-20 8.3706246898835403e-23 0.0000000000000000e+00  -3.8833217212477322e-20 -1.2147536855281587e-22 0.0000000000000000e+00  1.1653418467742093e-19 -5.1211311625819742e-22 0.0000000000000000e+00  -2.4585742072582515e-20 -3.6441002206046815e-22 0.0000000000000000e+00  -7.5114056679222803e-21 1.0751438989108268e-21 0.0000000000000000e+00  7.1717918826909771e-20 -9.4608772881940377e-23 0.0000000000000000e+00  -1.5781338610043970e-19 -8.7367440418323840e-22 0.0000000000000000e+00  1.5166000690401229e-20 -7.1090628236255765e-22 0.0000000000000000e+00  -2.7122945825747230e-20 -6.6245722067497265e-22 0.0000000000000000e+00  1.4825299508511654e-19 1.8324659561091525e-22 0.0000000000000000e+00  -1.7536299862881498e-20 -8.2201405607257024e-22 0.0000000000000000e+00  2.1414446962768816e-20 3.3674709966837074e-22 0.0000000000000000e+00  2.0557047146636505e-21 -1.2012429604349659e-21 0.0000000000000000e+00  9.6909688229037132e-21 -2.2795728014313768e-21 0.0000000000000000e+00  6.3423920077662010e-20 1.6516645853557816e-21 0.0000000000000000e+00  -1.4003082365210301e-19 -3.9850521479588025e-23 0.0000000000000000e+00  -2.5248226202133790e-20 -1.5372593903210656e-21 0.0000000000000000e+00  1.1674460426154861e-19 1.3428329076160560e-22 0.0000000000000000e+00  -7.9422974896123399e-20 8.2732265516795207e-22 0.0000000000000000e+00  -1.1153741767491666e-19 8.7138607558528643e-22 0.0000000000000000e+00  2.4225692784198934e-20 -6.7214977058963174e-23 0.0000000000000000e+00  -2.4205596869051268e-20 -2.9026345598419585e-21 0.0000000000000000e+00  3.1041302547021939e-20 -5.3352238752693958e-21 0.0000000000000000e+00  -5.1351829102113576e-20 -6.8832811069722267e-22 0.0000000000000000e+00  -2.2306965797490818e-20 -2.6417506632255548e-21 0.0000000000000000e+00  1.9502125233524523e-20 -4.7119566356042886e-22 0.0000000000000000e+00  -2.4950329560580200e-21 -7.7969779876813125e-22 0.0000000000000000e+00  2.6875105289672960e-20 2.1125238252295506e-21 0.0000000000000000e+00  -3.7976126121379464e-20 3.0043050225528235e-21 0.0000000000000000e+00  -6.7899646317811808e-20 1.1522300223428070e-21 0.0000000000000000e+00  -1.0860921641787421e-19 3.0169226782742839e-21 0.0000000000000000e+00  7.5188823118071096e-20 -5.3736705639487165e-21 0.0000000000000000e+00  -2.8624367740822779e-19 -1.8884092731830912e-20 0.0000000000000000e+00  4.5078042754216510e-20 0.0000000000000000e+00 0.0000000000000000e+00  -8.9347346159096273e-21 2.1499752754866205e-21 0.0000000000000000e+00  2.7278648485040646e-21 1.9352368057464697e-21 0.0000000000000000e+00  -7.3759035086686496e-21 5.1592189779255463e-21 0.0000000000000000e+00  4.4014386611632032e-21 6.6225608979170767e-22 0.0000000000000000e+00  -1.9210742448182286e-20 4.8026856120455715e-21 0.0000000000000000e+00  -8.0190838605864802e-20 0.0000000000000000e+00 0.0000000000000000e+00  -2.4644483290197247e-20 1.0272266390622528e-21 0.0000000000000000e+00  -3.2865722094640107e-20 -4.1082152618300133e-21 0.0000000000000000e+00  5.7276449466355955e-21 -3.7587669962296093e-21 0.0000000000000000e+00  0.0000000000000000e+00 0.0000000000000000e+00 0.0000000000000000e+00  -8.5969956531756432e-21 1.3906904733078248e-21 0.0000000000000000e+00  6.7296486315640192e-21 5.0472364736730142e-21 0.0000000000000000e+00  3.6964527672694010e-20 -2.0622966979816496e-21 0.0000000000000000e+00  4.3939643980968376e-20 -9.1540924960350782e-22 0.0000000000000000e+00  -7.8925037139858438e-20 -2.0790075504402170e-21 0.0000000000000000e+00  -2.6910678840210871e-20 -5.6846877390103942e-22 0.0000000000000000e+00  0.0000000000000000e+00 -5.3639294165073909e-22 0.0000000000000000e+00  4.5985424268072582e-21 4.0237246234563512e-21 0.0000000000000000e+00  -2.1544870380693881e-21 -2.6977520886170570e-21 0.0000000000000000e+00  -5.0872380926252152e-21 3.1795238078907594e-21 0.0000000000000000e+00  -3.7944262156565170e-21 -3.3381227321898765e-21 0.0000000000000000e+00  -3.4509893789252427e-21 -5.7765549520601703e-21 0.0000000000000000e+00  2.1284317645096996e-20 -3.4794180189804977e-22 0.0000000000000000e+00  5.4235156469142139e-21 -6.7793945586427674e-22 0.0000000000000000e+00  -4.7578935509950624e-20 -4.2207120210440069e-21 0.0000000000000000e+00  0.0000000000000000e+00 8.5728576738022964e-22 0.0000000000000000e+00  4.2979508177941026e-20 7.6594109228538756e-21 0.0000000000000000e+00  -5.6809766953481511e-22 -1.2645551498561641e-23 0.0000000000000000e+00  3.5647639855523643e-21 3.1828249871003256e-21 0.0000000000000000e+00  8.3122178462364196e-21 3.6365953077284335e-21 0.0000000000000000e+00  1.3740466702792848e-20 -7.4516437713627010e-22 0.0000000000000000e+00  -1.1567731215333261e-20 2.8919328038333153e-21 0.0000000000000000e+00  -1.2723077468266911e-20 4.5439562386667536e-22 0.0000000000000000e+00  1.0242433264874449e-20 4.4810645533825710e-21 0.0000000000000000e+00  7.1069261150432743e-21 3.4339374819504542e-21 0.0000000000000000e+00  5.4814153438570003e-21 -8.9072999337676249e-21 0.0000000000000000e+00  6.4445134562222676e-21 8.0556418202778346e-22 0.0000000000000000e+00  -1.6925377767025259e-20 2.6926737356631096e-21 0.0000000000000000e+00  1.4864675075207540e-20 4.8836336521330717e-21 0.0000000000000000e+00  1.7846306713301616e-20 8.9231533566508075e-22 0.0000000000000000e+00  -1.8275298928925235e-21 -2.3986329844214370e-21 0.0000000000000000e+00  1.9165414690883528e-21 1.9165414690883528e-21 0.0000000000000000e+00  -6.7505840785768665e-22 9.0338698698602189e-22 0.0000000000000000e+00  -3.43