<?xml version="1.0"?>
<VTKFile type="UnstructuredGrid"  version="0.1"  >
<UnstructuredGrid>
<Piece  NumberOfPoints="13179" NumberOfCells="25814">
<Points>
<DataArray  type="Float64"  NumberOfComponents="3"  format="ascii">0 0 0  30 0 0  30 -10 0  0 -10 0  0.02360821169319077 0 0  0.04721642338638154 0 0  0.07206717063563725 0 0  0.09691791788489297 0 0  0.1230766011355843 0 0  0.1492352843862757 0 0  0.1767707375239038 0 0  0.204306190661532 0 0  0.2332908770901271 0 0  0.2622755635187223 0 0  0.2927857633803451 0 0  0.323295963241968 0 0  0.3554119623832387 0 0  0.3875279615245094 0 0  0.4213342730081758 0 0  0.4551405844918422 0 0  0.4907261762804851 0 0  0.526311768069128 0 0  0.5637702848355051 0 0  0.6012288016018821 0 0  0.6406588220121138 0 0  0.6800888424223455 0 0  0.721594129780935 0 0  0.7630994171395246 0 0  0.8067891887833475 0 0  0.8504789604271704 0 0  0.8964681941825949 0 0  0.9424574279380195 0 0  0.9908671465681095 0 0  1.039276865198199 0 0  1.090234462786975 0 0  1.141192060375751 0 0  1.194831641933244 0 0  1.248471223490737 0 0  1.304933942963653 0 0  1.361396662436569 0 0  1.420831104471586 0 0  1.480265546506604 0 0  1.542828113436244 0 0  1.605390680365884 0 0  1.671246013469327 0 0  1.73710134657277 0 0  1.806422752814762 0 0  1.875744159056755 0 0  1.948714057431306 0 0  2.021683955805857 0 0  2.098494373901932 0 0  2.175304791998006 0 0  2.256157866653476 0 0  2.337010941308945 0 0  2.422119443935387 0 0  2.50722794656183 0 0  2.596815840700639 0 0  2.686403734839449 0 0  2.780706776094687 0 0  2.875009817349925 0 0  2.974276175689285 0 0  3.073542534028646 0 0  3.178033441002704 0 0  3.282524347976761 0 0  3.392514777963501 0 0  3.502505207950242 0 0  3.618284608533553 0 0  3.734064009116865 0 0  3.855937062816526 0 0  3.977810116516187 0 0  4.106097541496641 0 0  4.234384966477093 0 0  4.369424362562147 0 0  4.5044637586472 0 0  4.646610489729194 0 0  4.788757220811188 0 0  4.938385356669961 0 0  5.088013492528733 0 0  5.24551679218304 0 0  5.403020091837347 0 0  5.568813038399614 0 0  5.73460598496188 0 0  5.909124878408681 0 0  6.083643771855482 0 0  6.267347873338513 0 0  6.451051974821543 0 0  6.644424714363561 0 0  6.83779745390558 0 0  7.041347702348167 0 0  7.244897950790754 0 0  7.459161368238869 0 0  7.673424785686984 0 0  7.898965226038037 0 0  8.124505666389089 0 0  8.361916654054033 0 0  8.599327641718979 0 0  8.849233942517035 0 0  9.099140243315093 0 0  9.362199507946787 0 0  9.625258772578484 0 0  9.902163261537794 0 0  10.1790677504971 0 0  10.47054616023911 0 0  10.76202456998112 0 0  11.06884394887334 0 0  11.37566332776555 0 0  11.69863109504192 0 0  12.02159886231829 0 0  12.3615649378891 0 0  12.7015310134599 0 0  13.05939003847426 0 0  13.41724906348862 0 0  13.79394276982091 0 0  14.1706364761532 0 0  14.5671561683298 0 0  14.96367586050641 0 0  15.38106501332897 0 0  15.79845416615153 0 0  16.23781117165827 0 0  16.677168177165 0 0  17.13964923659526 0 0  17.60213029602552 0 0  18.0889524622663 0 0  18.57577462850707 0 0  19.08821901304263 0 0  19.60066339757818 0 0  20.14007853843172 0 0  20.67949367928525 0 0  21.24729908993883 0 0  21.8151045005924 0 0  22.41279440541421 0 0  23.01048431023601 0 0  23.63963157605829 0 0  24.26877884188056 0 0  24.93103912515648 0 0  25.59329940843241 0 0  26.29041549584691 0 0  26.98753158326142 0 0  27.72133799026916 0 0  28.45514439727691 0 0  29.22757219863846 0 0  30 -0.3571428571428571 0  30 -0.7142857142857142 0  30 -1.071428571428571 0  30 -1.428571428571428 0  30 -1.785714285714286 0  30 -2.142857142857143 0  30 -2.5 0  30 -2.857142857142857 0  30 -3.214285714285714 0  30 -3.571428571428571 0  30 -3.928571428571428 0  30 -4.285714285714286 0  30 -4.642857142857142 0  30 -5 0  30 -5.357142857142857 0  30 -5.714285714285714 0  30 -6.071428571428571 0  30 -6.428571428571428 0  30 -6.785714285714285 0  30 -7.142857142857142 0  30 -7.5 0  30 -7.857142857142857 0  30 -8.214285714285714 0  30 -8.571428571428571 0  30 -8.928571428571427 0  30 -9.285714285714285 0  30 -9.642857142857142 0  29.22757220128658 -10 0  28.45514440257316 -10 0  27.72133799277628 -10 0  26.98753158297939 -10 0  26.29041549304805 -10 0  25.5932994031167 -10 0  24.93103911757599 -10 0  24.26877883203527 -10 0  23.63963156418132 -10 0  23.01048429632737 -10 0  22.41279438968936 -10 0  21.81510448305136 -10 0  21.24729907078059 -10 0  20.67949365850982 -10 0  20.14007851622273 -10 0  19.60066337393564 -10 0  19.08821898813588 -10 0  18.57577460233611 -10 0  18.08895243498708 -10 0  17.60213026763805 -10 0  17.13964920724307 -10 0  16.6771681468481 -10 0  16.2378111405086 -10 0  15.79845413416909 -10 0  15.38106498063496 -10 0  14.96367582710082 -10 0  14.56715613432376 -10 0  14.17063644154669 -10 0  13.79394273471576 -10 0  13.41724902788484 -10 0  13.05939000246495 -10 0  12.70153097704506 -10 0  12.36156490115379 -10 0  12.02159882526251 -10 0  11.69863105774323 -10 0  11.37566329022395 -10 0  11.06884391115945 -10 0  10.76202453209494 -10 0  10.47054612224479 -10 0  10.17906771239465 -10 0  9.902163223385379 -10 0  9.625258734376107 -10 0  9.362199469747061 -10 0  9.099140205118012 -10 0  8.849233904370102 -10 0  8.599327603622193 -10 0  8.361916616050124 -10 0  8.124505628478055 -10 0  7.898965188258209 -10 0  7.673424748038361 -10 0  7.459161330755727 -10 0  7.244897913473093 -10 0  7.041347665226496 -10 0  6.837797416979896 -10 0  6.644424677660922 -10 0  6.451051938341948 -10 0  6.26734783710581 -10 0  6.083643735869675 -10 0  5.90912484269068 -10 0  5.734605949511682 -10 0  5.568813003235423 -10 0  5.403020056959164 -10 0  5.24551675760658 -10 0  5.088013458254 -10 0  4.938385322710374 -10 0  4.788757187166745 -10 0  4.646610456411224 -10 0  4.504463725655707 -10 0  4.369424329906533 -10 0  4.234384934157362 -10 0  4.106097509520442 -10 0  3.977810084883522 -10 0  3.85593703153344 -10 0  3.734063978183357 -10 0  3.618284577954206 -10 0  3.502505177725055 -10 0  3.392514748095728 -10 0  3.282524318466404 -10 0  3.1780334118518 -10 0  3.073542505237196 -10 0  2.97427614725823 -10 0  2.875009789279265 -10 0  2.780706748384375 -10 0  2.686403707489482 -10 0  2.596815813710069 -10 0  2.507227919930656 -10 0  2.422119417661861 -10 0  2.337010915393062 -10 0  2.256157841092762 -10 0  2.175304766792465 -10 0  2.098494349048437 -10 0  2.021683931304413 -10 0  1.948714033278215 -10 0  1.875744135252013 -10 0  1.806422729354161 -10 0  1.737101323456312 -10 0  1.671245990692352 -10 0  1.605390657928396 -10 0  1.542828091333185 -10 0  1.480265524737977 -10 0  1.420831083031992 -10 0  1.36139664132601 -10 0  1.304933922176438 -10 0  1.248471203026863 -10 0  1.194831621786765 -10 0  1.14119204054667 -10 0  1.09023444350921 -10 0  1.039276846471754 -10 0  0.9908671279064798 -10 0  0.942457409341209 -10 0  0.8964681758842019 -10 0  0.8504789424271948 -10 0  0.8067891710751951 -10 0  0.7630993997231954 -10 0  0.7215941126497469 -10 0  0.6800888255762949 -10 0  0.6406588054444597 -10 0  0.6012287853126246 -10 0  0.5637702688178621 -10 0  0.5263117523230996 -10 0  0.4907261607992695 -10 0  0.4551405692754429 -10 0  0.4213342580497894 -10 0  0.3875279468241395 -10 0  0.3554119479341011 -10 0  0.3232959490440663 -10 0  0.2927857494269297 -10 0  0.2622755498097931 -10 0  0.2332908636189828 -10 0  0.2043061774281725 -10 0  0.1767707245216883 -10 0  0.1492352716152006 -10 0  0.1230765885890825 -10 0  0.09691790556296098 -10 0  0.0720671585317838 -10 0  0.04721641150060663 -10 0  0.02360820575030331 -10 0  0 -9.957983193277311 0  0 -9.915966386554622 0  0 -9.873949579831933 0  0 -9.831932773109244 0  0 -9.789915966386555 0  0 -9.747899159663866 0  0 -9.705882352941176 0  0 -9.663865546218487 0  0 -9.621848739495798 0  0 -9.579831932773109 0  0 -9.53781512605042 0  0 -9.495798319327731 0  0 -9.453781512605042 0  0 -9.411764705882353 0  0 -9.369747899159664 0  0 -9.327731092436975 0  0 -9.285714285714286 0  0 -9.243697478991596 0  0 -9.201680672268907 0  0 -9.159663865546218 0  0 -9.117647058823529 0  0 -9.07563025210084 0  0 -9.033613445378151 0  0 -8.991596638655462 0  0 -8.949579831932773 0  0 -8.907563025210084 0  0 -8.865546218487395 0  0 -8.823529411764707 0  0 -8.781512605042018 0  0 -8.739495798319329 0  0 -8.69747899159664 0  0 -8.655462184873949 0  0 -8.61344537815126 0  0 -8.571428571428571 0  0 -8.529411764705882 0  0 -8.487394957983193 0  0 -8.445378151260504 0  0 -8.403361344537815 0  0 -8.361344537815127 0  0 -8.319327731092438 0  0 -8.277310924369749 0  0 -8.235294117647058 0  0 -8.193277310924369 0  0 -8.15126050420168 0  0 -8.109243697478991 0  0 -8.067226890756302 0  0 -8.025210084033613 0  0 -7.983193277310924 0  0 -7.941176470588236 0  0 -7.899159663865547 0  0 -7.857142857142857 0  0 -7.815126050420168 0  0 -7.773109243697479 0  0 -7.73109243697479 0  0 -7.689075630252101 0  0 -7.647058823529411 0  0 -7.605042016806722 0  0 -7.563025210084033 0  0 -7.521008403361344 0  0 -7.478991596638656 0  0 -7.436974789915967 0  0 -7.394957983193278 0  0 -7.352941176470589 0  0 -7.3109243697479 0  0 -7.26890756302521 0  0 -7.226890756302521 0  0 -7.184873949579832 0  0 -7.142857142857143 0  0 -7.100840336134453 0  0 -7.058823529411764 0  0 -7.016806722689076 0  0 -6.974789915966387 0  0 -6.932773109243698 0  0 -6.890756302521009 0  0 -6.84873949579832 0  0 -6.806722689075631 0  0 -6.764705882352941 0  0 -6.722689075630252 0  0 -6.680672268907563 0  0 -6.638655462184874 0  0 -6.596638655462185 0  0 -6.554621848739496 0  0 -6.512605042016807 0  0 -6.470588235294118 0  0 -6.428571428571429 0  0 -6.38655462184874 0  0 -6.344537815126051 0  0 -6.302521008403362 0  0 -6.260504201680672 0  0 -6.218487394957983 0  0 -6.176470588235294 0  0 -6.134453781512605 0  0 -6.092436974789917 0  0 -6.050420168067227 0  0 -6.008403361344538 0  0 -5.966386554621849 0  0 -5.92436974789916 0  0 -5.882352941176471 0  0 -5.840336134453782 0  0 -5.798319327731092 0  0 -5.756302521008403 0  0 -5.714285714285714 0  0 -5.672268907563025 0  0 -5.630252100840336 0  0 -5.588235294117647 0 
[...]
<PointData  Vectors="displacement"> 
<DataArray  type="Float64"  Name="displacement"  NumberOfComponents="3" format="ascii">1.0000000000000005e-01 5.0803936310936319e-02 0.0000000000000000e+00  2.2990209750843542e-20 4.5378764317816859e-04 0.0000000000000000e+00  -2.7312619975934572e-22 4.5824463036868550e-23 0.0000000000000000e+00  -5.6411262707116155e-23 6.6153160042488362e-24 0.0000000000000000e+00  9.9316539326830489e-02 4.9952457721036056e-02 0.0000000000000000e+00  9.8801605373273621e-02 4.8610457424114996e-02 0.0000000000000000e+00  9.7768433576387384e-02 4.5703964115333909e-02 0.0000000000000000e+00  9.6080266800266073e-02 4.1927820010632826e-02 0.0000000000000000e+00  9.3615661652806756e-02 3.7504429527237960e-02 0.0000000000000000e+00  9.0572665449038942e-02 3.2864202898893836e-02 0.0000000000000000e+00  8.6906466834140814e-02 2.8173295624873557e-02 0.0000000000000000e+00  8.2933912423387476e-02 2.3895051692720784e-02 0.0000000000000000e+00  7.8677283960538191e-02 1.9933611913792441e-02 0.0000000000000000e+00  7.4383301178970837e-02 1.6537761042013210e-02 0.0000000000000000e+00  7.0084733299109664e-02 1.3480905595531107e-02 0.0000000000000000e+00  6.5969013667095899e-02 1.0992413148229144e-02 0.0000000000000000e+00  6.1924669825958220e-02 8.7430694421948112e-03 0.0000000000000000e+00  5.8185744662965042e-02 6.9332252511170797e-03 0.0000000000000000e+00  5.4571507759836407e-02 5.4209228498660654e-03 0.0000000000000000e+00  5.1326142991654021e-02 4.1351697751200109e-03 0.0000000000000000e+00  4.8215996174958212e-02 3.1205508271047204e-03 0.0000000000000000e+00  4.5404726495863502e-02 2.3172824176643605e-03 0.0000000000000000e+00  4.2734027840621400e-02 1.5844659015969435e-03 0.0000000000000000e+00  4.0345204770653294e-02 9.8172979076593687e-04 0.0000000000000000e+00  3.8075888283704944e-02 5.1702189407896179e-04 0.0000000000000000e+00  3.6044146910977702e-02 1.2594885522456759e-04 0.0000000000000000e+00  3.4114413416571281e-02 -2.5658221495683032e-04 0.0000000000000000e+00  3.2368526820919383e-02 -5.1748353038224963e-04 0.0000000000000000e+00  3.0706946357815929e-02 -7.6221276789010443e-04 0.0000000000000000e+00  2.9197997727091161e-02 -9.8409781039038584e-04 0.0000000000000000e+00  2.7761079629530776e-02 -1.1539679982557490e-03 0.0000000000000000e+00  2.6450543328085153e-02 -1.2972711778713583e-03 0.0000000000000000e+00  2.5201422342481690e-02 -1.4222745721726262e-03 0.0000000000000000e+00  2.4052032700016126e-02 -1.5243975763905239e-03 0.0000000000000000e+00  2.2954955261260162e-02 -1.6107416537917386e-03 0.0000000000000000e+00  2.1944691206422472e-02 -1.6911307023441335e-03 0.0000000000000000e+00  2.0970979978682937e-02 -1.7486282328214927e-03 0.0000000000000000e+00  2.0080499479659248e-02 -1.8005521822424305e-03 0.0000000000000000e+00  1.9216696555239762e-02 -1.8412343285445936e-03 0.0000000000000000e+00  1.8421409536632401e-02 -1.8687986213775547e-03 0.0000000000000000e+00  1.7650010597581658e-02 -1.9037677280359284e-03 0.0000000000000000e+00  1.6945558365918271e-02 -1.9076352220533260e-03 0.0000000000000000e+00  1.6252329766026589e-02 -1.9207779012736293e-03 0.0000000000000000e+00  1.5615196379917849e-02 -1.9237071825707174e-03 0.0000000000000000e+00  1.4989603115382470e-02 -1.9312513590647924e-03 0.0000000000000000e+00  1.4412893161502403e-02 -1.9244647241880659e-03 0.0000000000000000e+00  1.3849833961509989e-02 -1.9193312255212705e-03 0.0000000000000000e+00  1.3326669315079915e-02 -1.9089710866748860e-03 0.0000000000000000e+00  1.2815634320373798e-02 -1.8935500511260746e-03 0.0000000000000000e+00  1.2340108517993347e-02 -1.8774318512877386e-03 0.0000000000000000e+00  1.1874794473370942e-02 -1.8575666986721897e-03 0.0000000000000000e+00  1.1438527671134659e-02 -1.8361992260992987e-03 0.0000000000000000e+00  1.1013541968397983e-02 -1.8131271650375653e-03 0.0000000000000000e+00  1.0616462392048403e-02 -1.7888058181252738e-03 0.0000000000000000e+00  1.0227090069340987e-02 -1.7617158079000475e-03 0.0000000000000000e+00  9.8627190442942408e-03 -1.7331730202345690e-03 0.0000000000000000e+00  9.5038240489357072e-03 -1.7009494862028935e-03 0.0000000000000000e+00  9.1697902479866526e-03 -1.6678480627557732e-03 0.0000000000000000e+00  8.8399526931240684e-03 -1.6341209330852065e-03 0.0000000000000000e+00  8.5306468282710379e-03 -1.6016544322561750e-03 0.0000000000000000e+00  8.2272916506847087e-03 -1.5663123357395811e-03 0.0000000000000000e+00  7.9420061376617255e-03 -1.5296071744632898e-03 0.0000000000000000e+00  7.6608008829621129e-03 -1.4906596493224433e-03 0.0000000000000000e+00  7.3962386731288412e-03 -1.4540621773793260e-03 0.0000000000000000e+00  7.1358836661809932e-03 -1.4126721154045856e-03 0.0000000000000000e+00  6.8921152210287750e-03 -1.3708228512266576e-03 0.0000000000000000e+00  6.6497183899955859e-03 -1.3304769259513166e-03 0.0000000000000000e+00  6.4226745295948079e-03 -1.2879971186152328e-03 0.0000000000000000e+00  6.1982009619578312e-03 -1.2445882228305377e-03 0.0000000000000000e+00  5.9860382688343376e-03 -1.2033829774704713e-03 0.0000000000000000e+00  5.7778529267320210e-03 -1.1577241174905674e-03 0.0000000000000000e+00  5.5815484163886228e-03 -1.1128059579160721e-03 0.0000000000000000e+00  5.3868937809605855e-03 -1.0655935985282167e-03 0.0000000000000000e+00  5.2038857597573917e-03 -1.0187503556922930e-03 0.0000000000000000e+00  5.0229763144778415e-03 -9.7152708487548362e-04 0.0000000000000000e+00  4.8525144960980737e-03 -9.2428725974780788e-04 0.0000000000000000e+00  4.6841145224564631e-03 -8.7527301115410789e-04 0.0000000000000000e+00  4.5253938318612942e-03 -8.2719871297753814e-04 0.0000000000000000e+00  4.3682591675053015e-03 -7.7753493912921198e-04 0.0000000000000000e+00  4.2202290118859044e-03 -7.2904942041032879e-04 0.0000000000000000e+00  4.0739239629681359e-03 -6.7844981307260124e-04 0.0000000000000000e+00  3.9361161367930065e-03 -6.2714009580771223e-04 0.0000000000000000e+00  3.7990418740542556e-03 -5.7745708315634756e-04 0.0000000000000000e+00  3.6762744024702470e-03 -5.2533934482844270e-04 0.0000000000000000e+00  3.5479863258846512e-03 -4.7467109721569797e-04 0.0000000000000000e+00  3.4283698812605503e-03 -4.2452295440684266e-04 0.0000000000000000e+00  3.3107150628234562e-03 -3.7318201082687965e-04 0.0000000000000000e+00  3.2009317111546245e-03 -3.2194641939066774e-04 0.0000000000000000e+00  3.0908973919009783e-03 -2.7022326082068156e-04 0.0000000000000000e+00  2.9896074656836271e-03 -2.2030282054881956e-04 0.0000000000000000e+00  2.8904287575276864e-03 -1.6862771817507765e-04 0.0000000000000000e+00  2.7960953746925840e-03 -1.1907958503142199e-04 0.0000000000000000e+00  2.7026491831756904e-03 -6.9133705050741602e-05 0.0000000000000000e+00  2.6153965072966646e-03 -2.0683977405271409e-05 0.0000000000000000e+00  2.5298756823891370e-03 2.8357455246169216e-05 0.0000000000000000e+00  2.4497567563644546e-03 7.4719675556270322e-05 0.0000000000000000e+00  2.3709687824778670e-03 1.2129077021145432e-04 0.0000000000000000e+00  2.2978778987402496e-03 1.6637496644558068e-04 0.0000000000000000e+00  2.2239570543164796e-03 2.1027588866492670e-04 0.0000000000000000e+00  2.1567865473991299e-03 2.5259021588938489e-04 0.0000000000000000e+00  2.0908070789675934e-03 2.9401068444608313e-04 0.0000000000000000e+00  2.0281050726757401e-03 3.3267640786726076e-04 0.0000000000000000e+00  1.9663610022165818e-03 3.7070481905129323e-04 0.0000000000000000e+00  1.9084000331445312e-03 4.0588440308862082e-04 0.0000000000000000e+00  1.8518645485780341e-03 4.4021750801743976e-04 0.0000000000000000e+00  1.7989300990251273e-03 4.7005645646463400e-04 0.0000000000000000e+00  1.7471493739990088e-03 5.0060298456334714e-04 0.0000000000000000e+00  1.6969123412400389e-03 5.2616785898954087e-04 0.0000000000000000e+00  1.6461441116679459e-03 5.5095206469817700e-04 0.0000000000000000e+00  1.6015555170719735e-03 5.7256559808899796e-04 0.0000000000000000e+00  1.5530003803275675e-03 5.9186016835388730e-04 0.0000000000000000e+00  1.5086877179898014e-03 6.0996391159887304e-04 0.0000000000000000e+00  1.4636582694111638e-03 6.2294723509904949e-04 0.0000000000000000e+00  1.4196935446715729e-03 6.3501390525496607e-04 0.0000000000000000e+00  1.3763456184790618e-03 6.4414885446630553e-04 0.0000000000000000e+00  1.3342522025568987e-03 6.5077973653881148e-04 0.0000000000000000e+00  1.2887799932547956e-03 6.5493767826087517e-04 0.0000000000000000e+00  1.2460558145516287e-03 6.5702320322717995e-04 0.0000000000000000e+00  1.2028623547121473e-03 6.5721332242661581e-04 0.0000000000000000e+00  1.1606068174745505e-03 6.5496006114433266e-04 0.0000000000000000e+00  1.1169312357172298e-03 6.5016481431118354e-04 0.0000000000000000e+00  1.0714483061907594e-03 6.4435347215863019e-04 0.0000000000000000e+00  1.0257503465708974e-03 6.3653011640901714e-04 0.0000000000000000e+00  9.8088060763798718e-04 6.2779560014729037e-04 0.0000000000000000e+00  9.3396449179276072e-04 6.1752188215605187e-04 0.0000000000000000e+00  8.8731679250898994e-04 6.0639297058322510e-04 0.0000000000000000e+00  8.3868350584992261e-04 5.9420433131686888e-04 0.0000000000000000e+00  7.9012472724426233e-04 5.8161088714084102e-04 0.0000000000000000e+00  7.3927571728859089e-04 5.6812142659918023e-04 0.0000000000000000e+00  6.8885567486618295e-04 5.5539506823967073e-04 0.0000000000000000e+00  6.3663287346035042e-04 5.4250368235782818e-04 0.0000000000000000e+00  5.8463244298670328e-04 5.2976768334503409e-04 0.0000000000000000e+00  5.3060489961011823e-04 5.1673934743686086e-04 0.0000000000000000e+00  4.7646160320450058e-04 5.0514596112439798e-04 0.0000000000000000e+00  4.2068953513916678e-04 4.9428496628972369e-04 0.0000000000000000e+00  3.6570926907866140e-04 4.8383180458225753e-04 0.0000000000000000e+00  3.0564824488566909e-04 4.7476640783282990e-04 0.0000000000000000e+00  2.4606896819168265e-04 4.6641321084336029e-04 0.0000000000000000e+00  1.8602716452861332e-04 4.6138649746438126e-04 0.0000000000000000e+00  1.2581731024030967e-04 4.5649629874326437e-04 0.0000000000000000e+00  6.0891624746744928e-05 4.5437281487615677e-04 0.0000000000000000e+00  -6.1770292489789697e-21 4.3231544589829388e-04 0.0000000000000000e+00  1.7179072450723409e-21 4.0460622867070402e-04 0.0000000000000000e+00  5.1191454183766830e-21 3.7840317437134476e-04 0.0000000000000000e+00  3.5524581294601753e-21 3.5246718436948216e-04 0.0000000000000000e+00  2.4293547097526538e-21 3.2711707772455469e-04 0.0000000000000000e+00  7.9199290326350898e-21 3.0245883427675621e-04 0.0000000000000000e+00  6.7278394191955572e-21 2.7841988397630683e-04 0.0000000000000000e+00  1.5934781570945673e-21 2.5497257915854421e-04 0.0000000000000000e+00  1.1339666456692110e-21 2.3221339654017393e-04 0.0000000000000000e+00  9.8611491832159475e-21 2.1019791534340783e-04 0.0000000000000000e+00  -1.4758938090435972e-21 1.8893970260647046e-04 0.0000000000000000e+00  -1.0789908420741719e-21 1.6859489940250857e-04 0.0000000000000000e+00  8.4512936276077570e-21 1.4907496930988205e-04 0.0000000000000000e+00  8.9504512501585732e-22 1.3057990539989603e-04 0.0000000000000000e+00  -1.9306140241273220e-21 1.1303020654769282e-04 0.0000000000000000e+00  3.6110988222232802e-21 9.6603562640571432e-05 0.0000000000000000e+00  3.4387450316337300e-21 8.1331804378078628e-05 0.0000000000000000e+00  -2.5166527865568599e-21 6.7201338343839134e-05 0.0000000000000000e+00  -1.0988436290837672e-22 5.4226558981883850e-05 0.0000000000000000e+00  2.6741266346123342e-21 4.2630600881433826e-05 0.0000000000000000e+00  -1.4460622477167979e-21 3.2351479212249041e-05 0.0000000000000000e+00  4.6867561915943327e-21 2.3423263278574986e-05 0.0000000000000000e+00  2.8708394978700358e-21 1.5850835769218493e-05 0.0000000000000000e+00  -9.5772725575260975e-22 9.7515746769835857e-06 0.0000000000000000e+00  5.6457769480186406e-23 5.1110172925413636e-06 0.0000000000000000e+00  1.0690038136311032e-21 1.7301757707229667e-06 0.0000000000000000e+00  -1.2744907792184545e-23 3.6455981579162725e-07 0.0000000000000000e+00  1.9677081645615376e-21 -1.8447264042764412e-22 0.0000000000000000e+00  -4.2287347142153049e-22 2.1143673571076525e-22 0.0000000000000000e+00  2.3088153465705326e-22 -3.6075239790164572e-23 0.0000000000000000e+00  -7.3092037591880782e-21 1.6315186962473388e-22 0.0000000000000000e+00  -6.0841306043632374e-21 2.9898404269685041e-22 0.0000000000000000e+00  2.2151163574315071e-21 3.4611193084867298e-23 0.0000000000000000e+00  -3.0663536927867358e-21 -3.5422931972953785e-22 0.0000000000000000e+00  7.7743563898539710e-21 2.4294863718293659e-22 0.0000000000000000e+00  -6.5665207306444450e-21 2.8080516282361111e-22 0.0000000000000000e+00  -2.9202203354197823e-21 3.8784176329793984e-22 0.0000000000000000e+00  -3.9342457274692338e-21 4.0342379816524314e-22 0.0000000000000000e+00  9.5403150560608523e-21 -3.0002129696190524e-22 0.0000000000000000e+00  -1.4695159566389406e-20 -2.1752703305510637e-22 0.0000000000000000e+00  1.9336105547779724e-20 2.2659498688804366e-22 0.0000000000000000e+00  -2.5774587391745336e-21 -1.3943358736251478e-22 0.0000000000000000e+00  0.0000000000000000e+00 5.0340577642664921e-22 0.0000000000000000e+00  3.3008854703867908e-20 4.5866098332941452e-22 0.0000000000000000e+00  1.4061581919518833e-20 -1.2533408799482350e-22 0.0000000000000000e+00  -1.0560345961563801e-20 3.6748006898375540e-22 0.0000000000000000e+00  -1.9870703390472935e-20 4.0253305817005878e-22 0.0000000000000000e+00  1.3716317575058200e-20 -2.8965745371017987e-22 0.0000000000000000e+00  -1.4472612896190728e-20 -1.1306728825149006e-22 0.0000000000000000e+00  4.8961908511120224e-22 1.7242237619903415e-22 0.0000000000000000e+00  4.7976434233530635e-20 4.1646210272162011e-23 0.0000000000000000e+00  1.2224690927277804e-20 -4.9173735993918419e-23 0.0000000000000000e+00  1.1728903551917064e-20 -9.1632058999352063e-23 0.0000000000000000e+00  5.3493244412934712e-20 -2.6161831286441228e-22 0.0000000000000000e+00  -1.3723459704819653e-20 -3.2164358683171061e-22 0.0000000000000000e+00  -3.5127759644606883e-20 1.7150559449512199e-22 0.0000000000000000e+00  5.8632726235971273e-21 7.2948003207170992e-22 0.0000000000000000e+00  -4.0440540249382811e-20 -6.2032479271074155e-22 0.0000000000000000e+00  -5.4504977528495319e-21 -3.2772485936399068e-22 0.0000000000000000e+00  3.0288133760004303e-20 -2.1218352857514699e-22 0.0000000000000000e+00  -5.3327263357296417e-21 1.8062402570489541e-22 0.0000000000000000e+00  3.4721022003347053e-20 -1.1040675856327462e-21 0.0000000000000000e+00  -1.1037024405937322e-20 -1.5549220000603723e-21 0.0000000000000000e+00  -1.0631144197697332e-20 1.6500800555641162e-22 0.0000000000000000e+00  -1.0890808356680856e-20 1.2024990685574499e-21 0.0000000000000000e+00  1.2745926449092914e-20 -2.2760582944808775e-22 0.0000000000000000e+00  2.1512524313509700e-20 -1.5366088795364072e-21 0.0000000000000000e+00  -1.0275486729741163e-20 8.3940406651302909e-22 0.0000000000000000e+00  -1.7954500068392340e-21 3.0703880754346136e-21 0.0000000000000000e+00  -1.1380084791708585e-20 1.3767634089783023e-22 0.0000000000000000e+00  5.6872502589004612e-21 -2.6066563686627113e-21 0.0000000000000000e+00  2.0085628527982655e-21 4.6035689635057157e-22 0.0000000000000000e+00  6.3033060669077911e-21 -1.6558998169079590e-21 0.0000000000000000e+00  4.3840749657203744e-21 8.2201405607257024e-22 0.0000000000000000e+00  -3.4947942334439206e-21 -3.0338851105593276e-21 0.0000000000000000e+00  -4.7764203873695346e-21 -2.0033603816513815e-21 0.0000000000000000e+00  6.1226172881988611e-22 -6.0622708020348843e-22 0.0000000000000000e+00  -6.6066583414231264e-22 0.0000000000000000e+00 0.0000000000000000e+00  6.4232639585183584e-22 1.9694984914552510e-21 0.0000000000000000e+00  -1.1312577372168520e-21 2.8492973584748144e-21 0.0000000000000000e+00  1.4899113930602016e-21 1.9289805703082737e-22 0.0000000000000000e+00  1.6546453103359041e-21 -1.8614759741278922e-21 0.0000000000000000e+00  2.6141582267558593e-21 0.0000000000000000e+00 0.0000000000000000e+00  2.7275130164452948e-21 -1.1886438048321907e-21 0.0000000000000000e+00  7.0617344658635846e-21 -1.4812737400844969e-21 0.0000000000000000e+00  0.0000000000000000e+00 2.4251017614860890e-22 0.0000000000000000e+00  6.7236817348912475e-21 8.6197255012669182e-22 0.0000000000000000e+00  -1.7063471997064012e-20 -5.3867828324906642e-23 0.0000000000000000e+00  -1.2339641816393423e-20 -1.3303978452586983e-21 0.0000000000000000e+00  2.4950329560580200e-21 -7.7969779876813125e-23 0.0000000000000000e+00  6.9412257955904846e-21 -2.5138185818424646e-22 0.0000000000000000e+00  5.2602066587045876e-21 -4.5438777031492880e-22 0.0000000000000000e+00  4.8370369014169920e-21 3.9156074452655553e-22 0.0000000000000000e+00  0.0000000000000000e+00 2.8283650108821410e-22 0.0000000000000000e+00  -3.0525888972134302e-20 -5.2551428136487356e-22 0.0000000000000000e+00  -3.9756066325088852e-21 -3.7271112826532262e-22 0.0000000000000000e+00  2.0660769595682566e-20 2.9347684084776373e-23 0.0000000000000000e+00  3.3624389257370041e-21 3.5060924378273925e-23 0.0000000000000000e+00  1.0941294747487630e-20 1.8219344417147861e-22 0.0000000000000000e+00  -6.4352266051209879e-21 -5.0579268108806968e-23 0.0000000000000000e+00  -5.5145713467072843e-21 -2.7031819338799025e-23 0.0000000000000000e+00  -2.4013428060227857e-21 -4.6901226680132535e-23 0.0000000000000000e+00  1.2529818532166376e-20 -5.8733524369529881e-23 0.0000000000000000e+00  7.0944688944109507e-21 -3.0376593454287198e-23 0.0000000000000000e+00  1.0955240698213370e-20 1.2838172693218792e-22 0.0000000000000000e+00  3.9377559008119716e-21 -2.2373613072795295e-23 0.0000000000000000e+00  -3.0498974743379694e-21 0.0000000000000000e+00 0.0000000000000000e+00  -3.5399393866017355e-22 4.2135550846102134e-22 0.0000000000000000e+00  -6.7296486315640192e-21 3.1545227960456339e-22 0.0000000000000000e+00  2.2051449417684919e-21 -5.6869883275252556e-22 0.0000000000000000e+00  -1.2815729494449110e-20 4.0049154670153470e-22 0.0000000000000000e+00  -2.3533166800866069e-21 -3.0283517690324073e-22 0.0000000000000000e+00  2.7801102315369433e-21 -5.7296767368161816e-22 0.0000000000000000e+00  -2.1455717666029564e-21 7.3754029476976628e-22 0.0000000000000000e+00  1.4945262887123588e-20 -1.4370445083772682e-22 0.0000000000000000e+00  -2.8788404387996131e-22 1.1724309851562941e-22 0.0000000000000000e+00  1.2718095231563038e-21 -1.5897619039453797e-22 0.0000000000000000e+00  1.3731526776332287e-20 3.9287847232286457e-22 0.0000000000000000e+00  -2.5814219068576760e-21 2.7814909617897430e-22 0.0000000000000000e+00  -1.1060386583382417e-20 -5.9128029836305261e-22 0.0000000000000000e+00  0.0000000000000000e+00 4.2371215991517296e-22 0.0000000000000000e+00  2.6859076497552773e-21 -2.3981318301386404e-23 0.0000000000000000e+00  -8.5728576738022960e-21 -3.2148216276758614e-22 0.0000000000000000e+00  -1.1876399018525898e-20 -1.6144710270560426e-21 0.0000000000000000e+00  -1.7760092183673929e-22 4.6826755110875880e-22 0.0000000000000000e+00  -5.0925199793605206e-21 -2.2279774909702277e-22 0.0000000000000000e+00  -2.0780544615591049e-21 -1.9481760577116607e-22 0.0000000000000000e+00  -8.4070940681545264e-21 8.8773947383118552e-22 0.0000000000000000e+00  -5.2054790468999676e-21 1.4459664019166577e-22 0.0000000000000000e+00  -4.3924910307111957e-21 -1.7039835895000327e-22 0.0000000000000000e+00  1.2803041581093061e-21 1.6003801976366326e-22 0.0000000000000000e+00  3.8002672189713217e-21 -8.2965286340726759e-22 0.0000000000000000e+00  -6.1665922618391255e-21 -3.4258845899106252e-22 0.0000000000000000e+00  -1.9691568894012487e-21 4.9228922235031216e-22 0.0000000000000000e+00  -1.5386707060932054e-21 1.9233383826165067e-22 0.0000000000000000e+00  -4.4426829436027086e-22 -4.4024169882601831e-22 0.0000000000000000e+00  -1.3384730034976210e-21 -6.1346679326974305e-22 0.0000000000000000e+00  1.1422061830578272e-22 6.5676855525825063e-22 0.0000000000000000e+00  4.7913536727208820e-22 5.9891920909011025e-23 0.0000000000000000e+00  -2.6188295293067313e-21 -3.4993836583799198e-22 0.0000000000000000e+00  -8.904985027