<?xml version="1.0"?>
<VTKFile type="UnstructuredGrid"  version="0.1"  >
<UnstructuredGrid>
<Piece  NumberOfPoints="1691" NumberOfCells="3204">
<Points>
<DataArray  type="Float64"  NumberOfComponents="3"  format="ascii">0 0 0  30 0 0  30 -10 0  0 -10 0  0.1391574078963744 0 0  0.2856388821882616 0 0  0.4398299073010886 0 0  0.6021362569539473 0 0  0.7729850389704483 0 0  0.9528258543586996 0 0  1.142131984380316 0 0  1.34140159760994 0 0  1.551159074717981 0 0  1.771956417032531 0 0  2.004374674080994 0 0  2.249025475789527 0 0  2.506552636773105 0 0  2.777633857742732 0 0  3.062982518028728 0 0  3.363349525995907 0 0  3.679525322337712 0 0  4.01234195575742 0 0  4.362675247811097 0 0  4.731447135329707 0 0  5.119628065610077 0 0  5.528239565804708 0 0  5.958356943167011 0 0  6.411112081475485 0 0  6.887696441559404 0 0  7.389364184530748 0 0  7.917435485335147 0 0  8.473300005202017 0 0  9.058420557070402 0 0  9.674336929103793 0 0  10.32266995225095 0 0  11.00512576896296 0 0  11.72350030646412 0 0  12.47968402994705 0 0  13.27566689579597 0 0  14.1135435963616 0 0  14.9955190732806 0 0  15.92391430904694 0 0  16.90117245730496 0 0  17.92986524844506 0 0  19.01269976086341 0 0  20.15252556282024 0 0  21.35234220269763 0 0  22.61530708683689 0 0  23.94474379751883 0 0  25.34415086349739 0 0  26.81721093579712 0 0  28.3678004819169 0 0  30 -1.111111111111111 0  30 -2.222222222222222 0  30 -3.333333333333333 0  30 -4.444444444444445 0  30 -5.555555555555555 0  30 -6.666666666666666 0  30 -7.777777777777777 0  30 -8.888888888888889 0  28.36780047917311 -10 0  26.8172109305839 -10 0  25.34415085606858 -10 0  23.94474378810899 -10 0  22.61530707566275 -10 0  21.3523421899591 -10 0  20.15252554870171 -10 0  19.01269974553473 -10 0  17.92986523206254 -10 0  16.90117244001232 -10 0  15.92391429097614 -10 0  14.99551905455266 -10 0  14.11354357708742 -10 0  13.27566687607703 -10 0  12.47968400987599 -10 0  11.72350028612546 -10 0  11.00512574843363 -10 0  10.32266993160086 -10 0  9.674336908396342 -10 0  9.058420536362949 -10 0  8.473299984546333 -10 0  7.917435464777824 -10 0  7.389364164113587 -10 0  6.887696420787165 -10 0  6.411112061446698 -10 0  5.95835692337857 -10 0  5.528239546282652 -10 0  5.119628046377237 -10 0  4.731447115907979 -10 0  4.362675229213632 -10 0  4.012341937260036 -10 0  3.679525304434552 -10 0  3.363349508456405 -10 0  3.062982500861274 -10 0  2.777633840953978 -10 0  2.506552620368097 -10 0  2.249025459771861 -10 0  2.004374658452946 -10 0  1.771956401795187 -10 0  1.551159059871345 -10 0  1.341401583153029 -10 0  1.142131970307521 -10 0  0.9528258406748833 -10 0  0.7729850256685147 -10 0  0.6021362439621285 -10 0  0.4398298947504031 -10 0  0.2856388700059078 -10 0  0.1391573960769001 -10 0  0 -9.855072463768115 0  0 -9.710144927536232 0  0 -9.565217391304348 0  0 -9.420289855072463 0  0 -9.27536231884058 0  0 -9.130434782608695 0  0 -8.985507246376812 0  0 -8.840579710144928 0  0 -8.695652173913043 0  0 -8.55072463768116 0  0 -8.405797101449275 0  0 -8.260869565217391 0  0 -8.115942028985508 0  0 -7.971014492753623 0  0 -7.826086956521739 0  0 -7.681159420289855 0  0 -7.536231884057971 0  0 -7.391304347826087 0  0 -7.246376811594203 0  0 -7.101449275362318 0  0 -6.956521739130435 0  0 -6.811594202898551 0  0 -6.666666666666667 0  0 -6.521739130434783 0  0 -6.376811594202898 0  0 -6.231884057971015 0  0 -6.086956521739131 0  0 -5.942028985507246 0  0 -5.797101449275362 0  0 -5.652173913043478 0  0 -5.507246376811594 0  0 -5.36231884057971 0  0 -5.217391304347826 0  0 -5.072463768115941 0  0 -4.927536231884058 0  0 -4.782608695652174 0  0 -4.637681159420289 0  0 -4.492753623188406 0  0 -4.347826086956522 0  0 -4.202898550724638 0  0 -4.057971014492754 0  0 -3.913043478260869 0  0 -3.768115942028985 0  0 -3.623188405797101 0  0 -3.478260869565217 0  0 -3.333333333333334 0  0 -3.188405797101449 0  0 -3.043478260869565 0  0 -2.898550724637681 0  0 -2.753623188405797 0  0 -2.608695652173912 0  0 -2.463768115942029 0  0 -2.318840579710145 0  0 -2.173913043478261 0  0 -2.028985507246377 0  0 -1.884057971014492 0  0 -1.739130434782609 0  0 -1.594202898550725 0  0 -1.44927536231884 0  0 -1.304347826086957 0  0 -1.159420289855072 0  0 -1.014492753623188 0  0 -0.8695652173913047 0  0 -0.72463768115942 0  0 -0.579710144927537 0  0 -0.4347826086956523 0  0 -0.2898550724637676 0  0 -0.1449275362318829 0  0.1309460514202492 -4.990980414828784 0  0.1171526873513358 -5.869565217391296 0  0.1344252986967795 -6.716855800502001 0  0.1221309018586645 -4.161899358592938 0  0.1166997684017801 -3.25954604704229 0  4.961569127360256 -0.3118894787216622 0  4.923897360678746 -9.687537149351071 0  0.1228405945134021 -2.536958536012416 0  0.1335945686177435 -7.466846676638523 0  3.206461751753455 -0.2806173508164562 0  3.213166004658842 -9.746377676274168 0  0.1155250883680452 -8.186784073011673 0  0.1359204609538445 -1.804202625344072 0  6.662432263484016 -9.600124945047963 0  6.631056521209421 -0.3942868763482545 0  2.126700074935258 -0.2065769621215452 0  2.120437876630353 -9.808537401472012 0  8.761385473272522 -9.4914222957189 0  8.786076048231736 -0.4923064159810888 0  0.1195911345135556 -8.749677128895598 0  0.1117474302775605 -1.230589418769438 0  11.3907841305612 -9.402816705944797 0  11.36435727088349 -0.618365439918426 0  1.211504568109637 -0.1471532661956818 0  1.239596144827807 -9.832618358594059 0  13.75158625181508 -9.315497816134139 0  13.7500399625954 -0.6902569910160397 0  0.131402377539402 -3.696772604078816 0  0.1204853385030979 -6.307560917781178 0  0.1346483804691658 -4.550944754283819 0  0.1255109280847009 -5.434782608695652 0  16.39894095075685 -9.180198571581517 0  16.44068234362399 -0.8166544577416346 0  0.1255109280847009 -0.7971014492753632 0  0.1162877148651766 -9.206770243020259 0  19.56645066956165 -9.043742294716539 0  29.11731382843969 -5.098539983867493 0  19.50527862123305 -0.9323941524176265 0  23.28904960561395 -8.8608997858633 0  0.6875606479622149 -0.1442604037134076 0  0.6875606348153145 -9.855739596611892 0  23.37074358394081 -1.15131614182933 0  10.00852704311311 -9.475417469395781 0  10.01049631493635 -0.5545437343697674 0  7.639131123468924 -9.543000896765111 0  7.693537846067955 -0.4574302764599576 0  5.733194300659633 -9.66079268774309 0  5.731454990332523 -0.3687808037058806 0  3.803630689980224 -9.686555789708486 0  3.834043646352164 -0.2754981925697493 0  2.618022704128803 -9.787800068206256 0  2.634320277618269 -0.2392104743186785 0  1.65952286941916 -9.813294854785646 0  1.665360553377539 -0.1820878093930922 0  0.1365068028365961 -1.543352471920677 0  0.1128108295274224 -8.471115901500411 0  0.1249192863256123 -0.5070564851587012 0  0.1172626025927563 -9.49200175151447 0  0.1255109280847009 -2.101449275362318 0  0.1255109280847009 -7.898550724637682 0  0.1247535864599936 -2.824177050114505 0  0.1155424837078822 -7.17494363557847 0  26.05192393553612 -8.777856070543081 0  26.00031291598836 -1.159065252957426 0  0.3627343947446455 -0.1301950113519217 0  0.3690141220077834 -9.868919517536135 0  28.90574865438674 -7.135369011630129 0  29.02069681040884 -2.861993939893059 0  0.1397555488250113 -0.2163338956475025 0  0.1255109280847009 -9.782608695652172 0  24.67098979274125 -8.799958058548517 0  23.93395881668722 -7.700959994796646 0  22.61396570077244 -7.764517377391733 0  23.2032949615693 -6.630776985250927 0  21.94857473380583 -6.690613342424633 0  24.50398505507967 -6.535933305198952 0  22.51489076809043 -5.580432145971667 0  21.29537841406989 -5.639199768252479 0  21.84985259542567 -4.547213342284197 0  20.65342988351128 -4.619546679988924 0  20.11277906893955 -5.663225279336593 0  19.49454290958806 -4.673886314669294 0  18.97860072994828 -5.624185949902217 0  18.40383886642446 -4.729683279047542 0  17.90575400337286 -5.630456854950327 0  17.35903168001753 -4.836859475002379 0  16.91444903556046 -5.680257663405808 0  16.36114434035519 -4.898890029095359 0  15.89440836794127 -5.835214594829282 0  15.41608945577568 -4.979845093198404 0  14.9809818125648 -5.732909169427192 0  14.51777858619734 -4.988431190461874 0  14.14039496103406 -5.776391085527889 0  13.67321261031888 -5.031745046943032 0  13.26988611760758 -5.891550007816156 0  12.85732927991246 -5.095735823822261 0  12.46423889659403 -5.760519953635332 0  12.07741841933393 -5.116608846746942 0  11.73131647445202 -5.75987862647932 0  11.35222911621012 -5.158061768105265 0  11.01225658271747 -5.784828178519854 0  10.65393216495117 -5.205808407572067 0  10.33042159780337 -5.788944717060055 0  9.98551374198097 -5.24118342090078 0  9.687616112021921 -5.812725728827915 0  9.357518717034999 -5.284717467130579 0  9.08157001076583 -5.820057568121996 0  8.766199932316585 -5.320212662582848 0  8.494748056481422 -5.830095453943056 0  8.194406727465122 -5.347802431655208 0  7.942610344706003 -5.833678024304247 0  7.660825631728443 -5.380025954369014 0  7.416702921751611 -5.83684433397813 0  7.147290851157173 -5.413787279190068 0  6.91632006965034 -5.851605397483334 0  6.658527053286988 -5.437627383845131 0  6.441897327469297 -5.862220684948111 0  6.194860224019926 -5.464520225953867 0  5.988748643021736 -5.866336295550595 0  5.755042825355586 -5.482399938780632 0  5.555770501455733 -5.867908174086599 0  5.334991086231989 -5.504761241472904 0  5.145076642106908 -5.873191062890511 0  4.935013388047023 -5.544035964184449 0  4.754345788811499 -5.880090917794126 0  4.554437025256316 -5.569020251233177 0  4.382470744799432 -5.88665007327689 0  4.192208958329529 -5.585677590398814 0  4.029485566904095 -5.896175760774888 0  4.354949258143058 -5.270074521138358 0  4.004482386201769 -5.289207815434526 0  4.158655721068861 -4.98145486433833 0  3.821444856080801 -5.001169872115685 0  3.97033944278737 -4.700814034221719 0  3.642688047138773 -4.720140385706738 0  3.788830742180677 -4.426816067812119 0  3.467446796449556 -4.450112744784491 0  3.325275354457695 -4.730293981808933 0  3.158439978631689 -4.466074367009679 0  3.294707394527546 -4
[...]
<PointData  Vectors="displacement"> 
<DataArray  type="Float64"  Name="displacement"  NumberOfComponents="3" format="ascii">3.0000000000000004e-01 1.7181720011772353e-01 0.0000000000000000e+00  7.6697164238118071e-20 2.1698036884937951e-03 0.0000000000000000e+00  -2.9109529020545176e-21 5.8796476683990162e-21 0.0000000000000000e+00  5.7926581334215796e-21 -8.6889872001323686e-21 0.0000000000000000e+00  2.9332737578218626e-01 1.4795421336901377e-01 0.0000000000000000e+00  2.7233967033162998e-01 1.1024130385910501e-01 0.0000000000000000e+00  2.3862948418962709e-01 7.1863499810003020e-02 0.0000000000000000e+00  2.0340583623421407e-01 4.4296568724443139e-02 0.0000000000000000e+00  1.7236509898023586e-01 2.7110344940625097e-02 0.0000000000000000e+00  1.4697886772449584e-01 1.6099554060424678e-02 0.0000000000000000e+00  1.2592926536500629e-01 9.7783200768429054e-03 0.0000000000000000e+00  1.0894817152556836e-01 5.0102137830471839e-03 0.0000000000000000e+00  9.5051693209722662e-02 1.4310367572852461e-03 0.0000000000000000e+00  8.3524873694361068e-02 -6.1462301842950587e-04 0.0000000000000000e+00  7.3805951439303574e-02 -2.0820222492934997e-03 0.0000000000000000e+00  6.5667400581874438e-02 -3.2152923495003369e-03 0.0000000000000000e+00  5.8613927324717909e-02 -4.0275408557907191e-03 0.0000000000000000e+00  5.2538310511414013e-02 -4.4893323277842697e-03 0.0000000000000000e+00  4.7172650541868956e-02 -4.9017579146746083e-03 0.0000000000000000e+00  4.2504160435077619e-02 -5.0574261386465433e-03 0.0000000000000000e+00  3.8330956295005741e-02 -5.1385331343056177e-03 0.0000000000000000e+00  3.4625707459909782e-02 -5.1584943779591696e-03 0.0000000000000000e+00  3.1422335486093085e-02 -4.9310584753353539e-03 0.0000000000000000e+00  2.8382891884485041e-02 -4.7263198300784336e-03 0.0000000000000000e+00  2.5676092403350160e-02 -4.4090916115760333e-03 0.0000000000000000e+00  2.3265572922937999e-02 -4.0402844903220233e-03 0.0000000000000000e+00  2.1060116108036622e-02 -3.6558796441019548e-03 0.0000000000000000e+00  1.9087791188152171e-02 -3.1991908260531839e-03 0.0000000000000000e+00  1.7315703562353402e-02 -2.6888449749226107e-03 0.0000000000000000e+00  1.5666283577991564e-02 -2.1842519285939924e-03 0.0000000000000000e+00  1.4232550584334761e-02 -1.6036017180217574e-03 0.0000000000000000e+00  1.2953082999520495e-02 -1.0430191833372330e-03 0.0000000000000000e+00  1.1800555472220805e-02 -4.7730245676174624e-04 0.0000000000000000e+00  1.0777591633654557e-02 7.5919856255126945e-05 0.0000000000000000e+00  9.8829941625600045e-03 6.0405874604217333e-04 0.0000000000000000e+00  9.0867240139864119e-03 1.0902748801685674e-03 0.0000000000000000e+00  8.3847997323550499e-03 1.5276068621809281e-03 0.0000000000000000e+00  7.7636580020372156e-03 1.9266454344888267e-03 0.0000000000000000e+00  7.1767049633280839e-03 2.2496874653578115e-03 0.0000000000000000e+00  6.6693156240524533e-03 2.5196990356124399e-03 0.0000000000000000e+00  6.1929475461779716e-03 2.7154905722908008e-03 0.0000000000000000e+00  5.7418067675077226e-03 2.8303181629219824e-03 0.0000000000000000e+00  5.2938962853930757e-03 2.8951559285206175e-03 0.0000000000000000e+00  4.8387549341322158e-03 2.8909422389176583e-03 0.0000000000000000e+00  4.3786780321608534e-03 2.8446012813654865e-03 0.0000000000000000e+00  3.9075278920272594e-03 2.7563100586900399e-03 0.0000000000000000e+00  3.4324020617734039e-03 2.6626037907394088e-03 0.0000000000000000e+00  2.9099422285738083e-03 2.5361248872734650e-03 0.0000000000000000e+00  2.3711839474170040e-03 2.4168501426849271e-03 0.0000000000000000e+00  1.8172763918329941e-03 2.3134343212912064e-03 0.0000000000000000e+00  1.2357753135046801e-03 2.2345935822964858e-03 0.0000000000000000e+00  6.0308933711010883e-04 2.1820442289221973e-03 0.0000000000000000e+00  1.3098617264607567e-19 1.8159220791956982e-03 0.0000000000000000e+00  7.6025505483774736e-20 1.4375466284861636e-03 0.0000000000000000e+00  -8.3423432036601637e-20 1.0904276979611534e-03 0.0000000000000000e+00  4.7250125096129588e-20 7.8194287778745816e-04 0.0000000000000000e+00  -2.1632333918300442e-20 5.1695278668258376e-04 0.0000000000000000e+00  7.9982166490086029e-20 2.9401222825367694e-04 0.0000000000000000e+00  4.9742720505627134e-20 1.3003838295805304e-04 0.0000000000000000e+00  -2.9889717041036439e-20 2.6993616016774409e-05 0.0000000000000000e+00  1.9757918857921132e-20 1.5398519049654808e-21 0.0000000000000000e+00  0.0000000000000000e+00 -2.0955023835665839e-20 0.0000000000000000e+00  3.1823415103595312e-19 6.6589403621870016e-21 0.0000000000000000e+00  2.1986961458785836e-19 1.2684785456991828e-20 0.0000000000000000e+00  5.6496290999583105e-20 2.3540121249826295e-21 0.0000000000000000e+00  1.2609184090257876e-19 3.1522960225644691e-20 0.0000000000000000e+00  -5.6827934699176519e-20 -6.6936750006241580e-21 0.0000000000000000e+00  1.0412621242082296e-19 -1.6269720690753587e-21 0.0000000000000000e+00  1.0783430769771558e-19 7.5961406854770995e-21 0.0000000000000000e+00  -2.5628227092700743e-19 0.0000000000000000e+00 0.0000000000000000e+00  -1.3748972268379921e-19 1.7324813846244858e-22 0.0000000000000000e+00  -1.9805432377203337e-19 -2.4756790471504170e-21 0.0000000000000000e+00  -8.4406294989610151e-20 -5.9787792284307188e-21 0.0000000000000000e+00  4.9588803510216019e-20 1.5496501096942506e-21 0.0000000000000000e+00  2.8641026634936616e-20 7.9833432217539905e-21 0.0000000000000000e+00  2.1502215508261382e-19 -1.3438884692663364e-20 0.0000000000000000e+00  6.5146735456804324e-20 -2.0118844773424866e-20 0.0000000000000000e+00  -1.0146945345878170e-19 -2.5367363364695425e-20 0.0000000000000000e+00  -3.1620494677977428e-20 2.3085001858650655e-20 0.0000000000000000e+00  -1.1015203244601155e-20 4.4060812978404621e-20 0.0000000000000000e+00  2.9721392119258636e-21 -6.4644027859387530e-20 0.0000000000000000e+00  7.9499938015610745e-20 -1.9874984503902686e-20 0.0000000000000000e+00  -3.4523409222433821e-19 -2.0244065569079902e-20 0.0000000000000000e+00  -1.0159239787041643e-19 8.4660331558680362e-21 0.0000000000000000e+00  -2.1047535193866377e-19 -3.3982999531763419e-20 0.0000000000000000e+00  -1.2016283426568365e-19 -1.5020354283210457e-20 0.0000000000000000e+00  -1.6950245297337589e-19 2.9893612724283928e-21 0.0000000000000000e+00  -5.4688025443653203e-20 1.7090007951141626e-21 0.0000000000000000e+00  1.7826152189362837e-19 -1.1170359037930814e-21 0.0000000000000000e+00  -1.9081854856732649e-19 2.9815398213644764e-21 0.0000000000000000e+00  2.3839262826609581e-19 8.3027172171022985e-22 0.0000000000000000e+00  3.4055394884357276e-19 -1.3302888626702061e-21 0.0000000000000000e+00  3.9282616738787675e-21 -1.0749719677751221e-21 0.0000000000000000e+00  4.6130239504615919e-20 -5.7662799380769898e-21 0.0000000000000000e+00  1.2587917513156236e-19 1.5362208166126419e-20 0.0000000000000000e+00  9.4956615374914108e-20 1.5826102562485685e-20 0.0000000000000000e+00  8.6210472812232676e-21 -1.2397571908083799e-20 0.0000000000000000e+00  3.7417111947225279e-20 -2.3385694967015799e-21 0.0000000000000000e+00  7.4945802006563458e-20 3.7472901003281732e-21 0.0000000000000000e+00  -1.7411604054206302e-19 1.9043941934288144e-20 0.0000000000000000e+00  6.5009477133840442e-20 -2.6789772521610039e-20 0.0000000000000000e+00  -7.6480671072038433e-20 -1.2746778512006405e-20 0.0000000000000000e+00  4.7188855985018526e-20 -8.7386770342626900e-21 0.0000000000000000e+00  3.3151739129222280e-20 8.2879347823055701e-21 0.0000000000000000e+00  -5.9058104734705245e-20 -1.2738022589838385e-20 0.0000000000000000e+00  -1.0114238630162832e-20 -1.5171357945244249e-20 0.0000000000000000e+00  -8.9497463490885490e-21 1.2742028116146497e-20 0.0000000000000000e+00  -3.6088747727599357e-21 3.6088747727599357e-21 0.0000000000000000e+00  2.8580864405410586e-21 6.8985104522788622e-05 0.0000000000000000e+00  -1.2703955747177732e-20 1.6793355755933054e-04 0.0000000000000000e+00  -7.4579446463796114e-21 2.9724759757526124e-04 0.0000000000000000e+00  -3.7847931458263972e-20 4.5629654636785739e-04 0.0000000000000000e+00  -6.0379249714946300e-20 6.4391883751443437e-04 0.0000000000000000e+00  -1.2250565802761578e-20 8.5591885642046948e-04 0.0000000000000000e+00  2.7616109625598276e-20 1.0926099480533455e-03 0.0000000000000000e+00  0.0000000000000000e+00 1.3532618507614684e-03 0.0000000000000000e+00  2.9437314501175465e-20 1.6348413331414655e-03 0.0000000000000000e+00  0.0000000000000000e+00 1.9347396103627913e-03 0.0000000000000000e+00  9.7747063501650609e-21 2.2552315784537991e-03 0.0000000000000000e+00  -5.1532162688147762e-20 2.5937082679749006e-03 0.0000000000000000e+00  -1.5563435774056735e-19 2.9502173430695972e-03 0.0000000000000000e+00  4.7069279982135639e-20 3.3235986413745872e-03 0.0000000000000000e+00  -1.4270665068368841e-20 3.7124923067912079e-03 0.0000000000000000e+00  0.0000000000000000e+00 4.1186971718710852e-03 0.0000000000000000e+00  3.8327101885587080e-20 4.5403141831499086e-03 0.0000000000000000e+00  2.2402875903852762e-20 4.9796035034276338e-03 0.0000000000000000e+00  -9.1146649841345440e-21 5.4352022030180001e-03 0.0000000000000000e+00  1.2978538101740971e-20 5.9073232108636511e-03 0.0000000000000000e+00  -1.3789083441145916e-19 6.3969811884197082e-03 0.0000000000000000e+00  1.7271686841135042e-19 6.9041693707037792e-03 0.0000000000000000e+00  1.0655170673236277e-19 7.4295875190708667e-03 0.0000000000000000e+00  -1.4390943809026510e-19 7.9718376844446128e-03 0.0000000000000000e+00  1.0442414694095466e-19 8.5336101629441483e-03 0.0000000000000000e+00  -1.4721452208684280e-19 9.1145866909302826e-03 0.0000000000000000e+00  6.2922733559394662e-20 9.7195257938417941e-03 0.0000000000000000e+00  -1.0017696022920944e-19 1.0344823367365280e-02 0.0000000000000000e+00  8.1910289611248172e-20 1.0994649730636019e-02 0.0000000000000000e+00  1.6276073718808280e-19 1.1670137968167503e-02 0.0000000000000000e+00  -8.3625977308878671e-20 1.2369334912689021e-02 0.0000000000000000e+00  1.9165471868204798e-19 1.3102378948542760e-02 0.0000000000000000e+00  -5.9310079686305217e-20 1.3866087374649973e-02 0.0000000000000000e+00  -5.2112118371278146e-20 1.4656995669371668e-02 0.0000000000000000e+00  -1.4761766930758728e-19 1.5487300639168075e-02 0.0000000000000000e+00  -1.0471550839919069e-20 1.6353010732092225e-02 0.0000000000000000e+00  -3.2479930803411377e-19 1.7259369506183741e-02 0.0000000000000000e+00  -1.2356612093536552e-19 1.8217144784334154e-02 0.0000000000000000e+00  -9.0118006094604929e-20 1.9222660892768903e-02 0.0000000000000000e+00  -7.5288324067117247e-20 2.0283658731627425e-02 0.0000000000000000e+00  7.4645195531567258e-20 2.1398506253869340e-02 0.0000000000000000e+00  0.0000000000000000e+00 2.2576645927832120e-02 0.0000000000000000e+00  5.0248442229108339e-19 2.3824116391844272e-02 0.0000000000000000e+00  2.4287273242821447e-19 2.5148368093617601e-02 0.0000000000000000e+00  1.0545684462828255e-18 2.6555535395383450e-02 0.0000000000000000e+00  1.0115301877182148e-18 2.8058067807647507e-02 0.0000000000000000e+00  -1.9336423554803583e-19 2.9665084314305111e-02 0.0000000000000000e+00  1.2091910516140562e-19 3.1405151770283857e-02 0.0000000000000000e+00  4.9944039702075870e-19 3.3285211126605707e-02 0.0000000000000000e+00  -2.9111697832597539e-19 3.5300416718864649e-02 0.0000000000000000e+00  4.9089607350860075e-19 3.7477025491369852e-02 0.0000000000000000e+00  9.4634922867614153e-20 3.9854131682433944e-02 0.0000000000000000e+00  -7.4435108265689226e-19 4.2474772230771396e-02 0.0000000000000000e+00  -9.3893811063206872e-20 4.5317062928107686e-02 0.0000000000000000e+00  -1.7740762995953844e-19 4.8458201375321711e-02 0.0000000000000000e+00  -5.0733881902235841e-19 5.1892967742043723e-02 0.0000000000000000e+00  -3.4792793224935388e-19 5.5752099091079206e-02 0.0000000000000000e+00  -1.0956218347029243e-18 6.0075670900538822e-02 0.0000000000000000e+00  1.1961819041570348e-19 6.4815988219256437e-02 0.0000000000000000e+00  0.0000000000000000e+00 7.0287053794343399e-02 0.0000000000000000e+00  -1.5863927584560683e-18 7.6680413117657789e-02 0.0000000000000000e+00  6.1162716022740726e-20 8.3908938832210511e-02 0.0000000000000000e+00  1.0795497141401165e-18 9.1807801654953877e-02 0.0000000000000000e+00  -4.4723238492102505e-18 1.0137708478145450e-01 0.0000000000000000e+00  2.0289855072463409e-02 1.2178308857383162e-01 0.0000000000000000e+00  1.6521739130434826e-01 1.4866980228925272e-01 0.0000000000000000e+00  2.9999999999999999e-01 1.6206292692781779e-01 0.0000000000000000e+00  3.0000000000000027e-01 1.6749572838895033e-01 0.0000000000000000e+00  -7.0196280979751831e-04 1.5063409474337089e-02 0.0000000000000000e+00  -4.9002945581260013e-04 1.0644656195142712e-02 0.0000000000000000e+00  -4.5434875002856371e-04 7.2269984180077969e-03 0.0000000000000000e+00  -8.6135089136782665e-04 2.0508720902453276e-02 0.0000000000000000e+00  -1.1898295366104797e-03 2.8718308067254839e-02 0.0000000000000000e+00  2.6611344452830990e-02 -5.9280643416184378e-03 0.0000000000000000e+00  -9.8347553335171320e-04 -2.7979931896732369e-05 0.0000000000000000e+00  -1.8234297220043299e-03 3.8311000092246687e-02 0.0000000000000000e+00  -3.7360800122611057e-04 4.7383084982171898e-03 0.0000000000000000e+00  4.3761572005590117e-02 -7.6544099920461744e-03 0.0000000000000000e+00  -9.4496303198614989e-04 3.9733689561610246e-05 0.0000000000000000e+00  -2.5768731625129478e-04 2.7696422436502841e-03 0.0000000000000000e+00  -3.2592783635592951e-03 5.2969196070176125e-02 0.0000000000000000e+00  -6.7397495634810534e-04 -9.1587622125328266e-05 0.0000000000000000e+00  1.8375209843421874e-02 -3.9925959019507171e-03 0.0000000000000000e+00  6.7022151020062898e-02 -6.5609250754956024e-03 0.0000000000000000e+00  -6.0795236915126450e-04 5.9806948393640296e-05 0.0000000000000000e+00  -1.8625978795820547e-05 -1.1598293814253379e-04 0.0000000000000000e+00  1.2605059297516912e-02 -1.4417371593642638e-03 0.0000000000000000e+00  -2.0612925942257952e-04 1.5242443382889961e-03 0.0000000000000000e+00  -3.9857323692677098e-03 7.1007247828230216e-02 0.0000000000000000e+00  6.1965704315747653e-04 -8.0204178317044107e-05 0.0000000000000000e+00  8.9761684504496859e-03 8.4646958212407982e-04 0.0000000000000000e+00  1.1257500282803425e-01 1.2363093160119439e-03 0.0000000000000000e+00  -3.5497764635858609e-04 6.8882818615423626e-05 0.0000000000000000e+00  8.7302725484206039e-04 -3.7122395543470768e-05 0.0000000000000000e+00  7.0429909671970801e-03 2.0767563460322579e-03 0.0000000000000000e+00  -1.1170972918705697e-03 2.4341439147933054e-02 0.0000000000000000e+00  -4.4934728263984090e-04 8.7897254928501825e-03 0.0000000000000000e+00  -8.3405470878428515e-04 1.7753281577854343e-02 0.0000000000000000e+00  -5.9237128532177593e-04 1.2694953099193057e-02 0.0000000000000000e+00  9.2963194024865865e-04 -1.1240154809901252e-06 0.0000000000000000e+00  5.5104940703860836e-03 2.5652114203202534e-03 0.0000000000000000e+00  8.2914132943030864e-05 8.0695513367984140e-02 0.0000000000000000e+00  -1.4035910797710163e-04 7.4018328979997313e-04 0.0000000000000000e+00  7.7587846742517422e-04 2.2515316316357412e-05 0.0000000000000000e+00  2.2511468668203282e-04 6.2003957638719239e-04 0.0000000000000000e+00  4.1035811163603322e-03 2.5018886498199932e-03 0.0000000000000000e+00  5.2410032558971632e-04 2.9245111507992790e-05 0.0000000000000000e+00  1.6729855025230639e-01 2.3182034181279731e-02 0.0000000000000000e+00  -1.8036455349162268e-04 6.2660877801559264e-05 0.0000000000000000e+00  2.4890140738871636e-03 2.1003710909353779e-03 0.0000000000000000e+00  3.2594403783607742e-04 -9.5528894880859015e-05 0.0000000000000000e+00  1.0591395234337544e-02 -2.1731910174632393e-04 0.0000000000000000e+00  -3.9122139487757722e-04 -1.0791894789644743e-04 0.0000000000000000e+00  1.5085134878660322e-02 -2.7126570820022126e-03 0.0000000000000000e+00  -8.4634647320513338e-04 -5.5904229811063685e-05 0.0000000000000000e+00  2.2188017397149953e-02 -5.1435433069009781e-03 0.0000000000000000e+00  -1.1525421855262787e-03 1.7877106244415357e-05 0.0000000000000000e+00  3.6038488082605243e-02 -7.0732217065706295e-03 0.0000000000000000e+00  -7.4834505865702724e-04 5.3677026070313749e-05 0.0000000000000000e+00  5.3909461448555129e-02 -7.5359470858241519e-03 0.0000000000000000e+00  -4.9879937805966167e-04 6.9562642832783487e-05 0.0000000000000000e+00  8.4712520975505440e-02 -4.7207521280142875e-03 0.0000000000000000e+00  -3.8126229016549646e-03 5.9971033249931693e-02 0.0000000000000000e+00  -2.2396131329807548e-04 2.1048847567752228e-03 0.0000000000000000e+00  9.5116441447816127e-02 7.0283942518741968e-02 0.0000000000000000e+00  -9.7779504006530602e-05 3.7385398318896541e-04 0.0000000000000000e+00  -2.4241777018667410e-03 4.6280825864382827e-02 0.0000000000000000e+00  -3.0731666414996964e-04 3.5091237670557547e-03 0.0000000000000000e+00  -1.5877031882952661e-03 3.4041519561245313e-02 0.0000000000000000e+00  -3.4843263489077128e-04 5.6562424834138945e-03 0.0000000000000000e+00  3.1393162136250749e-04 2.4450972115057256e-05 0.0000000000000000e+00  1.4874681006071401e-03 1.9150003564788332e-03 0.0000000000000000e+00  2.2814213958847560e-01 7.5646094607225517e-02 0.0000000000000000e+00  -9.0678836790544301e-05 5.7427505533844696e-05 0.0000000000000000e+00  1.8055710349295571e-04 2.1406640086301865e-04 0.0000000000000000e+00  3.2305396487578340e-04 1.2432230381960064e-03 0.0000000000000000e+00  2.6636853803700178e-01 1.2897675380610382e-01 0.0000000000000000e+00  -5.0446342299532162e-05 1.1290233511077787e-04 0.0000000000000000e+00  4.2321861027787392e-04 2.7825298609605564e-05 0.0000000000000000e+00  8.9578374250286663e-04 1.6240603084316255e-04 0.0000000000000000e+00  1.0972465153285774e-03 1.7062814950655834e-04 0.0000000000000000e+00  1.4117306429548442e-03 3.7070759550177123e-04 0.0000000000000000e+00  1.6949293663928579e-03 3.8833834979437381e-04 0.0000000000000000e+00  1.1384712229209970e-03 3.6242884615495381e-04 0.0000000000000000e+00  1.9402061264438297e-03 6.5403065326395335e-04 0.0000000000000000e+00  2.2913380075518654e-03 6.7340464669152353e-04 0.0000000000000000e+00  2.4610014503242046e-03 9.8611335706355130e-04 0.0000000000000000e+00  2.8639264419850615e-03 1.0129411239455956e-03 0.0000000000000000e+00  2.6527366512817626e-03 6.9700723496503129e-04 0.0000000000000000e+00  3.2695375857774395e-03 1.0256102960502762e-03 0.0000000000000000e+00  3.0460189588069511e-03 7.1436692316926545e-04 0.0000000000000000e+00  3.6573246420995458e-03 9.9718229826036508e-04 0.0000000000000000e+00  3.4040618063102554e-03 6.8224200943648838e-04 0.0000000000000000e+00  4.0067379645743421e-03 9.0566687804455174e-04 0.0000000000000000e+00  3.7014940309435460e-03 5.9848519367950955e-04 0.0000000000000000e+00  4.3474870679851832e-03 7.6758439111445829e-04 0.0000000000000000e+00  3.9119157581070530e-03 4.3068175391400678e-04 0.0000000000000000e+00  4.6248294462935173e-03 5.6670332382480920e-04 0.0000000000000000e+00  4.2279267216518155e-03 2.7552854511595057e-04 0.0000000000000000e+00  4.9066606362418779e-03 3.0979079116749317e-04 0.0000000000000000e+00  4.3744660965456140e-03 3.2114600062809728e-05 0.0000000000000000e+00  5.1053963744255885e-03 -2.8427451209147455e-05 0.0000000000000000e+00  4.3916416674978052e-03 -2.9382879670232780e-04 0.0000000000000000e+00  5.2043363603669988e-03 -4.4517115923691213e-04 0.0000000000000000e+00  4.5628933245458097e-03 -6.7543825041620968e-04 0.0000000000000000e+00  5.2649533334853740e-03 -9.3768059212439832e-04 0.0000000000000000e+00  4.5180333323409953e-03 -1.1081856961519493e-03 0.0000000000000000e+00  5.2142932985804746e-03 -1.4788158348203666e-03 0.0000000000000000e+00  4.3473857901454131e-03 -1.5970261019587061e-03 0.0000000000000000e+00  5.0552596136305243e-03 -2.0734325176310214e-03 0.0000000000000000e+00  4.1005503977780368e-03 -2.1260735107123418e-03 0.0000000000000000e+00  4.8012267141698348e-03 -2.7026804470332371e-03 0.0000000000000000e+00  3.7253701950751210e-03 -2.6543728928598372e-03 0.0000000000000000e+00  4.4268335059295420e-03 -3.323459493