<?xml version="1.0"?>
<VTKFile type="UnstructuredGrid"  version="0.1"  >
<UnstructuredGrid>
<Piece  NumberOfPoints="13179" NumberOfCells="25814">
<Points>
<DataArray  type="Float64"  NumberOfComponents="3"  format="ascii">0 0 0  30 0 0  30 -10 0  0 -10 0  0.02360821169319077 0 0  0.04721642338638154 0 0  0.07206717063563725 0 0  0.09691791788489297 0 0  0.1230766011355843 0 0  0.1492352843862757 0 0  0.1767707375239038 0 0  0.204306190661532 0 0  0.2332908770901271 0 0  0.2622755635187223 0 0  0.2927857633803451 0 0  0.323295963241968 0 0  0.3554119623832387 0 0  0.3875279615245094 0 0  0.4213342730081758 0 0  0.4551405844918422 0 0  0.4907261762804851 0 0  0.526311768069128 0 0  0.5637702848355051 0 0  0.6012288016018821 0 0  0.6406588220121138 0 0  0.6800888424223455 0 0  0.721594129780935 0 0  0.7630994171395246 0 0  0.8067891887833475 0 0  0.8504789604271704 0 0  0.8964681941825949 0 0  0.9424574279380195 0 0  0.9908671465681095 0 0  1.039276865198199 0 0  1.090234462786975 0 0  1.141192060375751 0 0  1.194831641933244 0 0  1.248471223490737 0 0  1.304933942963653 0 0  1.361396662436569 0 0  1.420831104471586 0 0  1.480265546506604 0 0  1.542828113436244 0 0  1.605390680365884 0 0  1.671246013469327 0 0  1.73710134657277 0 0  1.806422752814762 0 0  1.875744159056755 0 0  1.948714057431306 0 0  2.021683955805857 0 0  2.098494373901932 0 0  2.175304791998006 0 0  2.256157866653476 0 0  2.337010941308945 0 0  2.422119443935387 0 0  2.50722794656183 0 0  2.596815840700639 0 0  2.686403734839449 0 0  2.780706776094687 0 0  2.875009817349925 0 0  2.974276175689285 0 0  3.073542534028646 0 0  3.178033441002704 0 0  3.282524347976761 0 0  3.392514777963501 0 0  3.502505207950242 0 0  3.618284608533553 0 0  3.734064009116865 0 0  3.855937062816526 0 0  3.977810116516187 0 0  4.106097541496641 0 0  4.234384966477093 0 0  4.369424362562147 0 0  4.5044637586472 0 0  4.646610489729194 0 0  4.788757220811188 0 0  4.938385356669961 0 0  5.088013492528733 0 0  5.24551679218304 0 0  5.403020091837347 0 0  5.568813038399614 0 0  5.73460598496188 0 0  5.909124878408681 0 0  6.083643771855482 0 0  6.267347873338513 0 0  6.451051974821543 0 0  6.644424714363561 0 0  6.83779745390558 0 0  7.041347702348167 0 0  7.244897950790754 0 0  7.459161368238869 0 0  7.673424785686984 0 0  7.898965226038037 0 0  8.124505666389089 0 0  8.361916654054033 0 0  8.599327641718979 0 0  8.849233942517035 0 0  9.099140243315093 0 0  9.362199507946787 0 0  9.625258772578484 0 0  9.902163261537794 0 0  10.1790677504971 0 0  10.47054616023911 0 0  10.76202456998112 0 0  11.06884394887334 0 0  11.37566332776555 0 0  11.69863109504192 0 0  12.02159886231829 0 0  12.3615649378891 0 0  12.7015310134599 0 0  13.05939003847426 0 0  13.41724906348862 0 0  13.79394276982091 0 0  14.1706364761532 0 0  14.5671561683298 0 0  14.96367586050641 0 0  15.38106501332897 0 0  15.79845416615153 0 0  16.23781117165827 0 0  16.677168177165 0 0  17.13964923659526 0 0  17.60213029602552 0 0  18.0889524622663 0 0  18.57577462850707 0 0  19.08821901304263 0 0  19.60066339757818 0 0  20.14007853843172 0 0  20.67949367928525 0 0  21.24729908993883 0 0  21.8151045005924 0 0  22.41279440541421 0 0  23.01048431023601 0 0  23.63963157605829 0 0  24.26877884188056 0 0  24.93103912515648 0 0  25.59329940843241 0 0  26.29041549584691 0 0  26.98753158326142 0 0  27.72133799026916 0 0  28.45514439727691 0 0  29.22757219863846 0 0  30 -0.3571428571428571 0  30 -0.7142857142857142 0  30 -1.071428571428571 0  30 -1.428571428571428 0  30 -1.785714285714286 0  30 -2.142857142857143 0  30 -2.5 0  30 -2.857142857142857 0  30 -3.214285714285714 0  30 -3.571428571428571 0  30 -3.928571428571428 0  30 -4.285714285714286 0  30 -4.642857142857142 0  30 -5 0  30 -5.357142857142857 0  30 -5.714285714285714 0  30 -6.071428571428571 0  30 -6.428571428571428 0  30 -6.785714285714285 0  30 -7.142857142857142 0  30 -7.5 0  30 -7.857142857142857 0  30 -8.214285714285714 0  30 -8.571428571428571 0  30 -8.928571428571427 0  30 -9.285714285714285 0  30 -9.642857142857142 0  29.22757220128658 -10 0  28.45514440257316 -10 0  27.72133799277628 -10 0  26.98753158297939 -10 0  26.29041549304805 -10 0  25.5932994031167 -10 0  24.93103911757599 -10 0  24.26877883203527 -10 0  23.63963156418132 -10 0  23.01048429632737 -10 0  22.41279438968936 -10 0  21.81510448305136 -10 0  21.24729907078059 -10 0  20.67949365850982 -10 0  20.14007851622273 -10 0  19.60066337393564 -10 0  19.08821898813588 -10 0  18.57577460233611 -10 0  18.08895243498708 -10 0  17.60213026763805 -10 0  17.13964920724307 -10 0  16.6771681468481 -10 0  16.2378111405086 -10 0  15.79845413416909 -10 0  15.38106498063496 -10 0  14.96367582710082 -10 0  14.56715613432376 -10 0  14.17063644154669 -10 0  13.79394273471576 -10 0  13.41724902788484 -10 0  13.05939000246495 -10 0  12.70153097704506 -10 0  12.36156490115379 -10 0  12.02159882526251 -10 0  11.69863105774323 -10 0  11.37566329022395 -10 0  11.06884391115945 -10 0  10.76202453209494 -10 0  10.47054612224479 -10 0  10.17906771239465 -10 0  9.902163223385379 -10 0  9.625258734376107 -10 0  9.362199469747061 -10 0  9.099140205118012 -10 0  8.849233904370102 -10 0  8.599327603622193 -10 0  8.361916616050124 -10 0  8.124505628478055 -10 0  7.898965188258209 -10 0  7.673424748038361 -10 0  7.459161330755727 -10 0  7.244897913473093 -10 0  7.041347665226496 -10 0  6.837797416979896 -10 0  6.644424677660922 -10 0  6.451051938341948 -10 0  6.26734783710581 -10 0  6.083643735869675 -10 0  5.90912484269068 -10 0  5.734605949511682 -10 0  5.568813003235423 -10 0  5.403020056959164 -10 0  5.24551675760658 -10 0  5.088013458254 -10 0  4.938385322710374 -10 0  4.788757187166745 -10 0  4.646610456411224 -10 0  4.504463725655707 -10 0  4.369424329906533 -10 0  4.234384934157362 -10 0  4.106097509520442 -10 0  3.977810084883522 -10 0  3.85593703153344 -10 0  3.734063978183357 -10 0  3.618284577954206 -10 0  3.502505177725055 -10 0  3.392514748095728 -10 0  3.282524318466404 -10 0  3.1780334118518 -10 0  3.073542505237196 -10 0  2.97427614725823 -10 0  2.875009789279265 -10 0  2.780706748384375 -10 0  2.686403707489482 -10 0  2.596815813710069 -10 0  2.507227919930656 -10 0  2.422119417661861 -10 0  2.337010915393062 -10 0  2.256157841092762 -10 0  2.175304766792465 -10 0  2.098494349048437 -10 0  2.021683931304413 -10 0  1.948714033278215 -10 0  1.875744135252013 -10 0  1.806422729354161 -10 0  1.737101323456312 -10 0  1.671245990692352 -10 0  1.605390657928396 -10 0  1.542828091333185 -10 0  1.480265524737977 -10 0  1.420831083031992 -10 0  1.36139664132601 -10 0  1.304933922176438 -10 0  1.248471203026863 -10 0  1.194831621786765 -10 0  1.14119204054667 -10 0  1.09023444350921 -10 0  1.039276846471754 -10 0  0.9908671279064798 -10 0  0.942457409341209 -10 0  0.8964681758842019 -10 0  0.8504789424271948 -10 0  0.8067891710751951 -10 0  0.7630993997231954 -10 0  0.7215941126497469 -10 0  0.6800888255762949 -10 0  0.6406588054444597 -10 0  0.6012287853126246 -10 0  0.5637702688178621 -10 0  0.5263117523230996 -10 0  0.4907261607992695 -10 0  0.4551405692754429 -10 0  0.4213342580497894 -10 0  0.3875279468241395 -10 0  0.3554119479341011 -10 0  0.3232959490440663 -10 0  0.2927857494269297 -10 0  0.2622755498097931 -10 0  0.2332908636189828 -10 0  0.2043061774281725 -10 0  0.1767707245216883 -10 0  0.1492352716152006 -10 0  0.1230765885890825 -10 0  0.09691790556296098 -10 0  0.0720671585317838 -10 0  0.04721641150060663 -10 0  0.02360820575030331 -10 0  0 -9.957983193277311 0  0 -9.915966386554622 0  0 -9.873949579831933 0  0 -9.831932773109244 0  0 -9.789915966386555 0  0 -9.747899159663866 0  0 -9.705882352941176 0  0 -9.663865546218487 0  0 -9.621848739495798 0  0 -9.579831932773109 0  0 -9.53781512605042 0  0 -9.495798319327731 0  0 -9.453781512605042 0  0 -9.411764705882353 0  0 -9.369747899159664 0  0 -9.327731092436975 0  0 -9.285714285714286 0  0 -9.243697478991596 0  0 -9.201680672268907 0  0 -9.159663865546218 0  0 -9.117647058823529 0  0 -9.07563025210084 0  0 -9.033613445378151 0  0 -8.991596638655462 0  0 -8.949579831932773 0  0 -8.907563025210084 0  0 -8.865546218487395 0  0 -8.823529411764707 0  0 -8.781512605042018 0  0 -8.739495798319329 0  0 -8.69747899159664 0  0 -8.655462184873949 0  0 -8.61344537815126 0  0 -8.571428571428571 0  0 -8.529411764705882 0  0 -8.487394957983193 0  0 -8.445378151260504 0  0 -8.403361344537815 0  0 -8.361344537815127 0  0 -8.319327731092438 0  0 -8.277310924369749 0  0 -8.235294117647058 0  0 -8.193277310924369 0  0 -8.15126050420168 0  0 -8.109243697478991 0  0 -8.067226890756302 0  0 -8.025210084033613 0  0 -7.983193277310924 0  0 -7.941176470588236 0  0 -7.899159663865547 0  0 -7.857142857142857 0  0 -7.815126050420168 0  0 -7.773109243697479 0  0 -7.73109243697479 0  0 -7.689075630252101 0  0 -7.647058823529411 0  0 -7.605042016806722 0  0 -7.563025210084033 0  0 -7.521008403361344 0  0 -7.478991596638656 0  0 -7.436974789915967 0  0 -7.394957983193278 0  0 -7.352941176470589 0  0 -7.3109243697479 0  0 -7.26890756302521 0  0 -7.226890756302521 0  0 -7.184873949579832 0  0 -7.142857142857143 0  0 -7.100840336134453 0  0 -7.058823529411764 0  0 -7.016806722689076 0  0 -6.974789915966387 0  0 -6.932773109243698 0  0 -6.890756302521009 0  0 -6.84873949579832 0  0 -6.806722689075631 0  0 -6.764705882352941 0  0 -6.722689075630252 0  0 -6.680672268907563 0  0 -6.638655462184874 0  0 -6.596638655462185 0  0 -6.554621848739496 0  0 -6.512605042016807 0  0 -6.470588235294118 0  0 -6.428571428571429 0  0 -6.38655462184874 0  0 -6.344537815126051 0  0 -6.302521008403362 0  0 -6.260504201680672 0  0 -6.218487394957983 0  0 -6.176470588235294 0  0 -6.134453781512605 0  0 -6.092436974789917 0  0 -6.050420168067227 0  0 -6.008403361344538 0  0 -5.966386554621849 0  0 -5.92436974789916 0  0 -5.882352941176471 0  0 -5.840336134453782 0  0 -5.798319327731092 0  0 -5.756302521008403 0  0 -5.714285714285714 0  0 -5.672268907563025 0  0 -5.630252100840336 0  0 -5.588235294117647 0 
[...]
<PointData  Vectors="displacement"> 
<DataArray  type="Float64"  Name="displacement"  NumberOfComponents="3" format="ascii">8.0000000000000251e-02 4.4705739221018281e-02 0.0000000000000000e+00  -1.0616891781024944e-21 5.5920881547355045e-05 0.0000000000000000e+00  2.0907563929572519e-23 4.2960434097064264e-24 0.0000000000000000e+00  9.9258592759671064e-24 5.8125282431817968e-23 0.0000000000000000e+00  6.6443301736873905e-02 2.8784983184588005e-02 0.0000000000000000e+00  5.2794646997612861e-02 1.4972754816886279e-02 0.0000000000000000e+00  4.1952643238878123e-02 8.1338811581432892e-03 0.0000000000000000e+00  3.4116416651507019e-02 4.3668382683938892e-03 0.0000000000000000e+00  2.8105341527942123e-02 2.0408983635822296e-03 0.0000000000000000e+00  2.3586597916355454e-02 9.7686358926354867e-04 0.0000000000000000e+00  2.0010994237059623e-02 4.0664894586399191e-04 0.0000000000000000e+00  1.7320070921392886e-02 1.2921872162508234e-04 0.0000000000000000e+00  1.5100192948893200e-02 -2.2385278205508098e-04 0.0000000000000000e+00  1.3373064244737713e-02 -2.5613668167763374e-04 0.0000000000000000e+00  1.1936612821905375e-02 -3.6705341994773625e-04 0.0000000000000000e+00  1.0785419205912425e-02 -3.5134088473235000e-04 0.0000000000000000e+00  9.7740666861125744e-03 -4.0887654764762112e-04 0.0000000000000000e+00  8.9379695532523212e-03 -4.1822913135054291e-04 0.0000000000000000e+00  8.2042660882788217e-03 -4.0562662850449592e-04 0.0000000000000000e+00  7.5849260364000163e-03 -4.1715767509485543e-04 0.0000000000000000e+00  7.0287409824622473e-03 -4.0334413030227139e-04 0.0000000000000000e+00  6.5541903256667857e-03 -3.8741267904247075e-04 0.0000000000000000e+00  6.1116991599573798e-03 -3.8701344236385997e-04 0.0000000000000000e+00  5.7227244597287683e-03 -3.8761532793275480e-04 0.0000000000000000e+00  5.3667995406403574e-03 -3.7695574810765211e-04 0.0000000000000000e+00  5.0546490793029241e-03 -3.6914456514910223e-04 0.0000000000000000e+00  4.7595092306305870e-03 -3.7277560501995947e-04 0.0000000000000000e+00  4.4997026940795807e-03 -3.6340889990157059e-04 0.0000000000000000e+00  4.2538073252915446e-03 -3.5771633898150519e-04 0.0000000000000000e+00  4.0301914392509783e-03 -3.5596440024446437e-04 0.0000000000000000e+00  3.8214625377819755e-03 -3.5032839841408884e-04 0.0000000000000000e+00  3.6321891710642705e-03 -3.4542559216531852e-04 0.0000000000000000e+00  3.4532179611340211e-03 -3.4032225029186362e-04 0.0000000000000000e+00  3.2888542529307921e-03 -3.3563639953708711e-04 0.0000000000000000e+00  3.1329371747039064e-03 -3.3024865199987125e-04 0.0000000000000000e+00  2.9897207920017181e-03 -3.2697116359278554e-04 0.0000000000000000e+00  2.8527781594307653e-03 -3.2173450159753370e-04 0.0000000000000000e+00  2.7280050631130325e-03 -3.1767617204306922e-04 0.0000000000000000e+00  2.6075327095805619e-03 -3.1342165429085200e-04 0.0000000000000000e+00  2.4966271757702698e-03 -3.0817650330683573e-04 0.0000000000000000e+00  2.3890902338783663e-03 -3.0565408290109884e-04 0.0000000000000000e+00  2.2927497927032916e-03 -2.9940733307972603e-04 0.0000000000000000e+00  2.1964066884411050e-03 -2.9510543643922887e-04 0.0000000000000000e+00  2.1086134809499180e-03 -2.9080531781523099e-04 0.0000000000000000e+00  2.0215148014858073e-03 -2.8742437034204505e-04 0.0000000000000000e+00  1.9422404198029541e-03 -2.8233686878550475e-04 0.0000000000000000e+00  1.8650161974127523e-03 -2.7820814871824063e-04 0.0000000000000000e+00  1.7933539659039891e-03 -2.7390862628816690e-04 0.0000000000000000e+00  1.7233819531146410e-03 -2.6943593332832104e-04 0.0000000000000000e+00  1.6581850353422302e-03 -2.6504448377484861e-04 0.0000000000000000e+00  1.5946420710507010e-03 -2.6074821521862064e-04 0.0000000000000000e+00  1.5345170931372733e-03 -2.5624001500363199e-04 0.0000000000000000e+00  1.4764493158870152e-03 -2.5197109966830381e-04 0.0000000000000000e+00  1.4222189962940356e-03 -2.4764481507441214e-04 0.0000000000000000e+00  1.3691170574989665e-03 -2.4316742041685698e-04 0.0000000000000000e+00  1.3193485628052327e-03 -2.3872248540874244e-04 0.0000000000000000e+00  1.2702012984162677e-03 -2.3389902987283454e-04 0.0000000000000000e+00  1.2247094115075193e-03 -2.2923092450199408e-04 0.0000000000000000e+00  1.1796665388729359e-03 -2.2455175735650132e-04 0.0000000000000000e+00  1.1374062895739762e-03 -2.2016545152216658e-04 0.0000000000000000e+00  1.0960924915594215e-03 -2.1546869359199882e-04 0.0000000000000000e+00  1.0571830667876804e-03 -2.1064740519013671e-04 0.0000000000000000e+00  1.0187305200013478e-03 -2.0581463502831616e-04 0.0000000000000000e+00  9.8247540147356079e-04 -2.0116680062419424e-04 0.0000000000000000e+00  9.4702257065609058e-04 -1.9583921494884543e-04 0.0000000000000000e+00  9.1379344910706890e-04 -1.9074014126055556e-04 0.0000000000000000e+00  8.8060093583310474e-04 -1.8589247259205379e-04 0.0000000000000000e+00  8.4960624128754857e-04 -1.8063837090721664e-04 0.0000000000000000e+00  8.1890812973784474e-04 -1.7547775993624569e-04 0.0000000000000000e+00  7.8979933990901228e-04 -1.7054123825612053e-04 0.0000000000000000e+00  7.6138291241792204e-04 -1.6489518811772458e-04 0.0000000000000000e+00  7.3449924304010269e-04 -1.5939763119329086e-04 0.0000000000000000e+00  7.0782994896366230e-04 -1.5383094992759300e-04 0.0000000000000000e+00  6.8268557842266593e-04 -1.4813215628920422e-04 0.0000000000000000e+00  6.5792013236827052e-04 -1.4239304547205490e-04 0.0000000000000000e+00  6.3456936746491025e-04 -1.3663674258712369e-04 0.0000000000000000e+00  6.1150325976621830e-04 -1.3069281285385683e-04 0.0000000000000000e+00  5.8972135499143000e-04 -1.2483498853667907e-04 0.0000000000000000e+00  5.6815914769890697e-04 -1.1873704028098380e-04 0.0000000000000000e+00  5.4782004665758206e-04 -1.1277543122892814e-04 0.0000000000000000e+00  5.2773050174803376e-04 -1.0650505946889068e-04 0.0000000000000000e+00  5.0878075319774811e-04 -1.0010952382650798e-04 0.0000000000000000e+00  4.8976083390048252e-04 -9.3902881964202242e-05 0.0000000000000000e+00  4.7330753325554775e-04 -8.7239397796037846e-05 0.0000000000000000e+00  4.5555664193209334e-04 -8.1005156088423017e-05 0.0000000000000000e+00  4.3907292174149247e-04 -7.4637944548997255e-05 0.0000000000000000e+00  4.2292394347940307e-04 -6.8048995231028377e-05 0.0000000000000000e+00  4.0789440728246628e-04 -6.1452203508218666e-05 0.0000000000000000e+00  3.9266235679255503e-04 -5.4789261318568387e-05 0.0000000000000000e+00  3.7880174719633248e-04 -4.8234291111725464e-05 0.0000000000000000e+00  3.6531661152971323e-04 -4.1398779067898327e-05 0.0000000000000000e+00  3.5243279531560365e-04 -3.4971788682681013e-05 0.0000000000000000e+00  3.3963272101379530e-04 -2.8367999277176615e-05 0.0000000000000000e+00  3.2772980845941646e-04 -2.1861598832102567e-05 0.0000000000000000e+00  3.1609526672067648e-04 -1.5273334989960834e-05 0.0000000000000000e+00  3.0521430824078126e-04 -9.0093927665886954e-06 0.0000000000000000e+00  2.9456693711123080e-04 -2.6731142700978973e-06 0.0000000000000000e+00  2.8470559422107030e-04 3.5056853430727826e-06 0.0000000000000000e+00  2.7465467000880965e-04 9.5507923714871207e-06 0.0000000000000000e+00  2.6568193946394341e-04 1.5508777123925914e-05 0.0000000000000000e+00  2.5689649233179556e-04 2.1350233507186220e-05 0.0000000000000000e+00  2.4854778796116339e-04 2.6731590835789255e-05 0.0000000000000000e+00  2.4036333754169330e-04 3.2173410819006843e-05 0.0000000000000000e+00  2.3273864326777129e-04 3.7259020086117547e-05 0.0000000000000000e+00  2.2535201776759605e-04 4.2247015328187339e-05 0.0000000000000000e+00  2.1847804512163685e-04 4.6667969916511580e-05 0.0000000000000000e+00  2.1185201045017773e-04 5.1213082071939799e-05 0.0000000000000000e+00  2.0541174760453808e-04 5.5042112787658362e-05 0.0000000000000000e+00  1.9886489872680992e-04 5.8841895897514291e-05 0.0000000000000000e+00  1.9332973417428807e-04 6.2216232014144430e-05 0.0000000000000000e+00  1.8715086248566383e-04 6.5286000012151546e-05 0.0000000000000000e+00  1.8167076431963185e-04 6.8254746759995191e-05 0.0000000000000000e+00  1.7615423692162672e-04 7.0486659630247141e-05 0.0000000000000000e+00  1.7072487140580117e-04 7.2568881382964362e-05 0.0000000000000000e+00  1.6548092533110988e-04 7.4320420250994248e-05 0.0000000000000000e+00  1.6040542403651515e-04 7.5695221060092377e-05 0.0000000000000000e+00  1.5487551251150644e-04 7.6724092900419270e-05 0.0000000000000000e+00  1.4975794512141869e-04 7.7494227336346051e-05 0.0000000000000000e+00  1.4462399287258138e-04 7.7998995682710564e-05 0.0000000000000000e+00  1.3961014994125882e-04 7.8140308549203759e-05 0.0000000000000000e+00  1.3445120754347793e-04 7.7929304235546619e-05 0.0000000000000000e+00  1.2899938467813234e-04 7.7535521122239974e-05 0.0000000000000000e+00  1.2358384698518143e-04 7.6907285504186022e-05 0.0000000000000000e+00  1.1827864036105004e-04 7.6098616568568258e-05 0.0000000000000000e+00  1.1270776178649917e-04 7.5077488981737967e-05 0.0000000000000000e+00  1.0717209199138391e-04 7.3915296840541405e-05 0.0000000000000000e+00  1.0138597779692334e-04 7.2592956485943982e-05 0.0000000000000000e+00  9.5603107086468300e-05 7.1174447945939463e-05 0.0000000000000000e+00  8.9519579917540063e-05 6.9610742055569612e-05 0.0000000000000000e+00  8.3485921126791221e-05 6.8156559776876209e-05 0.0000000000000000e+00  7.7225310662245203e-05 6.6651748603781391e-05 0.0000000000000000e+00  7.0976734663260842e-05 6.5140841577840988e-05 0.0000000000000000e+00  6.4471786846415958e-05 6.3567761709327364e-05 0.0000000000000000e+00  5.7937586392218925e-05 6.2153527579322581e-05 0.0000000000000000e+00  5.1194478914655266e-05 6.0835348533931787e-05 0.0000000000000000e+00  4.4546238978991290e-05 5.9545975861405891e-05 0.0000000000000000e+00  3.7214963621434369e-05 5.8425158238800390e-05 0.0000000000000000e+00  2.9948535776165511e-05 5.7392613306209545e-05 0.0000000000000000e+00  2.2650698996565472e-05 5.6766042108683468e-05 0.0000000000000000e+00  1.5298095404098895e-05 5.6184951054770442e-05 0.0000000000000000e+00  7.3721404221221112e-06 5.5908593526288177e-05 0.0000000000000000e+00  -2.6296544739964852e-23 5.3032993309663617e-05 0.0000000000000000e+00  4.2947681126808523e-22 4.9544821520208291e-05 0.0000000000000000e+00  1.0687577535706640e-21 4.6511647841910477e-05 0.0000000000000000e+00  6.6608589927378287e-22 4.3248607742498121e-05 0.0000000000000000e+00  5.3805401900543122e-22 4.0186755612351393e-05 0.0000000000000000e+00  2.6399763442116965e-22 3.7169008301941094e-05 0.0000000000000000e+00  1.4112357530884691e-22 3.4235319421313313e-05 0.0000000000000000e+00  -2.6712376083077532e-22 3.1370168366789592e-05 0.0000000000000000e+00  1.7314424011182591e-22 2.8585407992846764e-05 0.0000000000000000e+00  -3.3617554033690726e-22 2.5893815651123344e-05 0.0000000000000000e+00  -6.3473123273768255e-22 2.3288148855731721e-05 0.0000000000000000e+00  3.1982713665445274e-22 2.0796165712966341e-05 0.0000000000000000e+00  1.2073276610868225e-22 1.8398453032490725e-05 0.0000000000000000e+00  -2.1905970713516852e-22 1.6129114964980624e-05 0.0000000000000000e+00  4.4243238052917799e-22 1.3969085644410705e-05 0.0000000000000000e+00  -2.1865245926945364e-22 1.1948581872288416e-05 0.0000000000000000e+00  1.5760914728321263e-22 1.0067314227669164e-05 0.0000000000000000e+00  -7.7760271626045098e-22 8.3255893614859845e-06 0.0000000000000000e+00  1.6392608917431604e-22 6.7225849191970155e-06 0.0000000000000000e+00  1.8780587684185631e-22 5.2920672805329315e-06 0.0000000000000000e+00  -1.9719030650683605e-22 4.0201568600126435e-06 0.0000000000000000e+00  1.6421661734983630e-22 2.9160722283049217e-06 0.0000000000000000e+00  -1.0180641536529637e-22 1.9805212204687555e-06 0.0000000000000000e+00  -4.2939014869230784e-23 1.2248214606694436e-06 0.0000000000000000e+00  1.1291553896037281e-22 6.4574094512461030e-07 0.0000000000000000e+00  -2.6725095340777582e-23 2.2929423465567943e-07 0.0000000000000000e+00  7.1288568731209348e-23 5.0894619629393404e-08 0.0000000000000000e+00  1.7970766447563857e-22 3.9991762454332449e-24 0.0000000000000000e+00  -1.5857755178307392e-22 9.9110969864421202e-24 0.0000000000000000e+00  -6.3492422030689647e-22 -3.2016775313771058e-23 0.0000000000000000e+00  1.0441719655982969e-21 -8.1575934812366942e-24 0.0000000000000000e+00  4.0963222270913561e-22 3.3700031659580358e-23 0.0000000000000000e+00  2.7688954467893839e-22 3.8937592220475708e-23 0.0000000000000000e+00  -3.2835287944168166e-22 -7.0300420829256440e-24 0.0000000000000000e+00  0.0000000000000000e+00 5.0614299413111795e-23 0.0000000000000000e+00  -8.6401588561111122e-22 3.0375558478515626e-24 0.0000000000000000e+00  -2.1901652515648367e-21 6.2739108768784385e-23 0.0000000000000000e+00  -5.2497732990034224e-22 9.7397504751722784e-23 0.0000000000000000e+00  1.1982281150209932e-21 -1.0918293613192323e-23 0.0000000000000000e+00  1.2568228576517255e-21 -1.8504903853646202e-23 0.0000000000000000e+00  0.0000000000000000e+00 6.2943051913345455e-23 0.0000000000000000e+00  1.2136497456228358e-21 -5.1514110123946848e-23 0.0000000000000000e+00  4.4747180126813264e-22 6.9917468948145725e-24 0.0000000000000000e+00  2.3577753359905647e-21 4.3978036052167761e-23 0.0000000000000000e+00  1.5686913697866841e-21 -3.0814287381672107e-23 0.0000000000000000e+00  6.1563980602191014e-21 -1.8324623106500546e-23 0.0000000000000000e+00  -3.2375499511244718e-21 1.3773596014046851e-23 0.0000000000000000e+00  -3.5956493367034696e-21 -3.0974723172833352e-23 0.0000000000000000e+00  6.0302553734128033e-22 9.4222740209575052e-24 0.0000000000000000e+00  -9.8933340909067673e-22 4.9631870875783528e-23 0.0000000000000000e+00  3.3316968217729610e-21 -3.1234657704121507e-23 0.0000000000000000e+00  2.0360320478358512e-21 3.5299758545508757e-23 0.0000000000000000e+00  -5.1313953039637157e-21 1.1454007374919008e-23 0.0000000000000000e+00  3.6608976859789921e-21 -1.5497863851955510e-22 0.0000000000000000e+00  4.2885811577561414e-22 -1.0721452894390354e-22 0.0000000000000000e+00  1.0179795202509478e-21 3.9328305551823554e-23 0.0000000000000000e+00  -2.0651800857584164e-21 -3.0255225947028036e-23 0.0000000000000000e+00  4.5817341521489857e-21 2.0947376056489090e-22 0.0000000000000000e+00  -3.7919285444083617e-21 1.0166764949836098e-22 0.0000000000000000e+00  -1.4473187758048506e-21 5.4471468451277436e-23 0.0000000000000000e+00  2.5482438149168471e-22 9.7858605588391478e-23 0.0000000000000000e+00  1.5228518422520637e-21 -8.5660416126678583e-23 0.0000000000000000e+00  1.0072363135112035e-21 1.4709121354251999e-23 0.0000000000000000e+00  1.6253964809624400e-21 7.3242966036480984e-23 0.0000000000000000e+00  -2.8317095565318647e-21 -1.5983128944096171e-23 0.0000000000000000e+00  3.7554961858934482e-21 -2.2760582944808775e-22 0.0000000000000000e+00  1.9207610994205088e-21 -1.4405708245653817e-22 0.0000000000000000e+00  -1.6969220488353437e-21 2.7866475190468509e-22 0.0000000000000000e+00  3.1062326453116496e-21 -7.0203369180322453e-23 0.0000000000000000e+00  1.9597430281611315e-22 3.3073541736853096e-22 0.0000000000000000e+00  1.0663594235438365e-21 -2.3696876078751920e-22 0.0000000000000000e+00  -7.9262171276645801e-23 -1.7849286955739858e-22 0.0000000000000000e+00  1.5697243022650887e-22 -1.9414646624202046e-22 0.0000000000000000e+00  -6.8501171339380850e-23 3.4250585669690424e-22 0.0000000000000000e+00  9.1149787071441366e-23 5.1244941649213472e-24 0.0000000000000000e+00  -2.0774157164244209e-22 5.3236565961341643e-23 0.0000000000000000e+00  -9.6075567300572580e-23 1.0847672418902384e-23 0.0000000000000000e+00  -1.6516645853557816e-22 -1.2387484390168361e-22 0.0000000000000000e+00  -1.4751913724895749e-22 2.9857657245952439e-22 0.0000000000000000e+00  1.7764174072945375e-23 4.3352726126630796e-22 0.0000000000000000e+00  -1.9781273912935995e-22 1.4040625505593525e-23 0.0000000000000000e+00  0.0000000000000000e+00 5.1707665947997004e-23 0.0000000000000000e+00  8.7138607558528643e-22 1.3615407431020102e-22 0.0000000000000000e+00  1.6149282646008783e-21 2.0429815395553279e-22 0.0000000000000000e+00  3.6036948500576507e-21 -1.8328213794772718e-23 0.0000000000000000e+00  -7.2753052844582674e-22 -1.0609820206501638e-22 0.0000000000000000e+00  -4.7270779327526099e-22 4.1003137124683269e-23 0.0000000000000000e+00  -1.0793655088928268e-21 -3.8808541243424761e-23 0.0000000000000000e+00  -2.7204443859502500e-21 -1.2408885523813818e-22 0.0000000000000000e+00  -1.6373653774130757e-21 7.5533224255662712e-23 0.0000000000000000e+00  1.3021951540562628e-21 8.9215293005434728e-24 0.0000000000000000e+00  -2.6728692371466399e-23 -5.5462036670792777e-23 0.0000000000000000e+00  1.2627148786754629e-21 3.7433372397586737e-23 0.0000000000000000e+00  -1.1313460043528564e-21 7.0709125272053524e-23 0.0000000000000000e+00  -2.7893234004320132e-22 -1.5706796317741996e-23 0.0000000000000000e+00  -1.9878033160046340e-21 -3.4941778123789890e-23 0.0000000000000000e+00  -9.3912589071284395e-22 2.0405811590196073e-23 0.0000000000000000e+00  4.1715997929666469e-21 4.5029642522200328e-24 0.0000000000000000e+00  1.7345519003094752e-22 -3.9983966939089056e-24 0.0000000000000000e+00  -2.2409299070493870e-21 -5.3118253826290008e-24 0.0000000000000000e+00  -1.3619364916865038e-21 1.7208659744866910e-25 0.0000000000000000e+00  3.6020142090341784e-21 4.6901226680132534e-24 0.0000000000000000e+00  -3.1324546330415938e-22 -1.9577841456509961e-23 0.0000000000000000e+00  3.8443033374527330e-22 -1.6315299330622006e-23 0.0000000000000000e+00  -1.0270538154575033e-21 0.0000000000000000e+00 0.0000000000000000e+00  6.2646116603826828e-22 2.0975262255745589e-23 0.0000000000000000e+00  -3.8123718429224618e-22 -4.7654648036530772e-23 0.0000000000000000e+00  -3.5494213671015617e-21 2.1087529549092370e-23 0.0000000000000000e+00  -4.2060303947275120e-22 -2.6287689967046950e-23 0.0000000000000000e+00  -4.4212431331819940e-22 -1.0795100616375059e-24 0.0000000000000000e+00  -1.3731138744052617e-21 -5.7213078100219239e-23 0.0000000000000000e+00  -1.1850474031053329e-21 1.6598514266276308e-22 0.0000000000000000e+00  1.3442264393439628e-21 2.7461587262418703e-25 0.0000000000000000e+00  8.0458941247610864e-22 1.6762279426585597e-23 0.0000000000000000e+00  1.7244534100527217e-21 1.2574139448301097e-22 0.0000000000000000e+00  5.2933517745670310e-22 -7.3349487994617162e-23 0.0000000000000000e+00  -1.2718095231563038e-21 -7.9488095197268987e-23 0.0000000000000000e+00  1.0264571138409451e-21 6.6674435083473553e-23 0.0000000000000000e+00  7.1802475848175906e-22 1.2447195186911465e-23 0.0000000000000000e+00  -1.0557934487908193e-21 6.3759658596425529e-23 0.0000000000000000e+00  -1.6948486396606918e-22 2.1185607995758648e-23 0.0000000000000000e+00  7.1943954904159207e-22 -1.7985988726039804e-23 0.0000000000000000e+00  0.0000000000000000e+00 2.6790180230632176e-23 0.0000000000000000e+00  -3.2297483166041893e-22 -1.0897109570682966e-22 0.0000000000000000e+00  -1.2364612764652367e-22 6.5232115804566704e-23 0.0000000000000000e+00  0.0000000000000000e+00 7.5592093443632732e-23 0.0000000000000000e+00  0.0000000000000000e+00 -6.4939201923722028e-23 0.0000000000000000e+00  -2.3759873859645546e-22 7.9591296189982604e-23 0.0000000000000000e+00  -7.2298320095832883e-22 5.4223740071874662e-23 0.0000000000000000e+00  -1.8933150994444808e-23 6.6266028480556825e-23 0.0000000000000000e+00  -4.8011405929098979e-22 0.0000000000000000e+00 0.0000000000000000e+00  8.6437988874213826e-22 -9.5721411111989091e-23 0.0000000000000000e+00  -8.5647114747765630e-23 5.3529446717353522e-23 0.0000000000000000e+00  -2.0139104550694586e-22 3.0768076396894510e-23 0.0000000000000000e+00  -9.6166919130825337e-23 -3.6062594674059500e-23 0.0000000000000000e+00  -2.1710765887892823e-23 1.7186956719890330e-22 0.0000000000000000e+00  3.9038795935347282e-22 1.6730912543720263e-22 0.0000000000000000e+00  7.1387886441114206e-23 -1.2492880127194984e-23 0.0000000000000000e+00  5.9891920909011025e-23 -4.4918940681758266e-23 0.0000000000000000e+00  3.7823125499085089e-22 -1.9854659054637844e-23 0.0000000000000000e+00  2.37697