<?xml version="1.0"?>
<VTKFile type="UnstructuredGrid"  version="0.1"  >
<UnstructuredGrid>
<Piece  NumberOfPoints="13179" NumberOfCells="25814">
<Points>
<DataArray  type="Float64"  NumberOfComponents="3"  format="ascii">0 0 0  30 0 0  30 -10 0  0 -10 0  0.02360821169319077 0 0  0.04721642338638154 0 0  0.07206717063563725 0 0  0.09691791788489297 0 0  0.1230766011355843 0 0  0.1492352843862757 0 0  0.1767707375239038 0 0  0.204306190661532 0 0  0.2332908770901271 0 0  0.2622755635187223 0 0  0.2927857633803451 0 0  0.323295963241968 0 0  0.3554119623832387 0 0  0.3875279615245094 0 0  0.4213342730081758 0 0  0.4551405844918422 0 0  0.4907261762804851 0 0  0.526311768069128 0 0  0.5637702848355051 0 0  0.6012288016018821 0 0  0.6406588220121138 0 0  0.6800888424223455 0 0  0.721594129780935 0 0  0.7630994171395246 0 0  0.8067891887833475 0 0  0.8504789604271704 0 0  0.8964681941825949 0 0  0.9424574279380195 0 0  0.9908671465681095 0 0  1.039276865198199 0 0  1.090234462786975 0 0  1.141192060375751 0 0  1.194831641933244 0 0  1.248471223490737 0 0  1.304933942963653 0 0  1.361396662436569 0 0  1.420831104471586 0 0  1.480265546506604 0 0  1.542828113436244 0 0  1.605390680365884 0 0  1.671246013469327 0 0  1.73710134657277 0 0  1.806422752814762 0 0  1.875744159056755 0 0  1.948714057431306 0 0  2.021683955805857 0 0  2.098494373901932 0 0  2.175304791998006 0 0  2.256157866653476 0 0  2.337010941308945 0 0  2.422119443935387 0 0  2.50722794656183 0 0  2.596815840700639 0 0  2.686403734839449 0 0  2.780706776094687 0 0  2.875009817349925 0 0  2.974276175689285 0 0  3.073542534028646 0 0  3.178033441002704 0 0  3.282524347976761 0 0  3.392514777963501 0 0  3.502505207950242 0 0  3.618284608533553 0 0  3.734064009116865 0 0  3.855937062816526 0 0  3.977810116516187 0 0  4.106097541496641 0 0  4.234384966477093 0 0  4.369424362562147 0 0  4.5044637586472 0 0  4.646610489729194 0 0  4.788757220811188 0 0  4.938385356669961 0 0  5.088013492528733 0 0  5.24551679218304 0 0  5.403020091837347 0 0  5.568813038399614 0 0  5.73460598496188 0 0  5.909124878408681 0 0  6.083643771855482 0 0  6.267347873338513 0 0  6.451051974821543 0 0  6.644424714363561 0 0  6.83779745390558 0 0  7.041347702348167 0 0  7.244897950790754 0 0  7.459161368238869 0 0  7.673424785686984 0 0  7.898965226038037 0 0  8.124505666389089 0 0  8.361916654054033 0 0  8.599327641718979 0 0  8.849233942517035 0 0  9.099140243315093 0 0  9.362199507946787 0 0  9.625258772578484 0 0  9.902163261537794 0 0  10.1790677504971 0 0  10.47054616023911 0 0  10.76202456998112 0 0  11.06884394887334 0 0  11.37566332776555 0 0  11.69863109504192 0 0  12.02159886231829 0 0  12.3615649378891 0 0  12.7015310134599 0 0  13.05939003847426 0 0  13.41724906348862 0 0  13.79394276982091 0 0  14.1706364761532 0 0  14.5671561683298 0 0  14.96367586050641 0 0  15.38106501332897 0 0  15.79845416615153 0 0  16.23781117165827 0 0  16.677168177165 0 0  17.13964923659526 0 0  17.60213029602552 0 0  18.0889524622663 0 0  18.57577462850707 0 0  19.08821901304263 0 0  19.60066339757818 0 0  20.14007853843172 0 0  20.67949367928525 0 0  21.24729908993883 0 0  21.8151045005924 0 0  22.41279440541421 0 0  23.01048431023601 0 0  23.63963157605829 0 0  24.26877884188056 0 0  24.93103912515648 0 0  25.59329940843241 0 0  26.29041549584691 0 0  26.98753158326142 0 0  27.72133799026916 0 0  28.45514439727691 0 0  29.22757219863846 0 0  30 -0.3571428571428571 0  30 -0.7142857142857142 0  30 -1.071428571428571 0  30 -1.428571428571428 0  30 -1.785714285714286 0  30 -2.142857142857143 0  30 -2.5 0  30 -2.857142857142857 0  30 -3.214285714285714 0  30 -3.571428571428571 0  30 -3.928571428571428 0  30 -4.285714285714286 0  30 -4.642857142857142 0  30 -5 0  30 -5.357142857142857 0  30 -5.714285714285714 0  30 -6.071428571428571 0  30 -6.428571428571428 0  30 -6.785714285714285 0  30 -7.142857142857142 0  30 -7.5 0  30 -7.857142857142857 0  30 -8.214285714285714 0  30 -8.571428571428571 0  30 -8.928571428571427 0  30 -9.285714285714285 0  30 -9.642857142857142 0  29.22757220128658 -10 0  28.45514440257316 -10 0  27.72133799277628 -10 0  26.98753158297939 -10 0  26.29041549304805 -10 0  25.5932994031167 -10 0  24.93103911757599 -10 0  24.26877883203527 -10 0  23.63963156418132 -10 0  23.01048429632737 -10 0  22.41279438968936 -10 0  21.81510448305136 -10 0  21.24729907078059 -10 0  20.67949365850982 -10 0  20.14007851622273 -10 0  19.60066337393564 -10 0  19.08821898813588 -10 0  18.57577460233611 -10 0  18.08895243498708 -10 0  17.60213026763805 -10 0  17.13964920724307 -10 0  16.6771681468481 -10 0  16.2378111405086 -10 0  15.79845413416909 -10 0  15.38106498063496 -10 0  14.96367582710082 -10 0  14.56715613432376 -10 0  14.17063644154669 -10 0  13.79394273471576 -10 0  13.41724902788484 -10 0  13.05939000246495 -10 0  12.70153097704506 -10 0  12.36156490115379 -10 0  12.02159882526251 -10 0  11.69863105774323 -10 0  11.37566329022395 -10 0  11.06884391115945 -10 0  10.76202453209494 -10 0  10.47054612224479 -10 0  10.17906771239465 -10 0  9.902163223385379 -10 0  9.625258734376107 -10 0  9.362199469747061 -10 0  9.099140205118012 -10 0  8.849233904370102 -10 0  8.599327603622193 -10 0  8.361916616050124 -10 0  8.124505628478055 -10 0  7.898965188258209 -10 0  7.673424748038361 -10 0  7.459161330755727 -10 0  7.244897913473093 -10 0  7.041347665226496 -10 0  6.837797416979896 -10 0  6.644424677660922 -10 0  6.451051938341948 -10 0  6.26734783710581 -10 0  6.083643735869675 -10 0  5.90912484269068 -10 0  5.734605949511682 -10 0  5.568813003235423 -10 0  5.403020056959164 -10 0  5.24551675760658 -10 0  5.088013458254 -10 0  4.938385322710374 -10 0  4.788757187166745 -10 0  4.646610456411224 -10 0  4.504463725655707 -10 0  4.369424329906533 -10 0  4.234384934157362 -10 0  4.106097509520442 -10 0  3.977810084883522 -10 0  3.85593703153344 -10 0  3.734063978183357 -10 0  3.618284577954206 -10 0  3.502505177725055 -10 0  3.392514748095728 -10 0  3.282524318466404 -10 0  3.1780334118518 -10 0  3.073542505237196 -10 0  2.97427614725823 -10 0  2.875009789279265 -10 0  2.780706748384375 -10 0  2.686403707489482 -10 0  2.596815813710069 -10 0  2.507227919930656 -10 0  2.422119417661861 -10 0  2.337010915393062 -10 0  2.256157841092762 -10 0  2.175304766792465 -10 0  2.098494349048437 -10 0  2.021683931304413 -10 0  1.948714033278215 -10 0  1.875744135252013 -10 0  1.806422729354161 -10 0  1.737101323456312 -10 0  1.671245990692352 -10 0  1.605390657928396 -10 0  1.542828091333185 -10 0  1.480265524737977 -10 0  1.420831083031992 -10 0  1.36139664132601 -10 0  1.304933922176438 -10 0  1.248471203026863 -10 0  1.194831621786765 -10 0  1.14119204054667 -10 0  1.09023444350921 -10 0  1.039276846471754 -10 0  0.9908671279064798 -10 0  0.942457409341209 -10 0  0.8964681758842019 -10 0  0.8504789424271948 -10 0  0.8067891710751951 -10 0  0.7630993997231954 -10 0  0.7215941126497469 -10 0  0.6800888255762949 -10 0  0.6406588054444597 -10 0  0.6012287853126246 -10 0  0.5637702688178621 -10 0  0.5263117523230996 -10 0  0.4907261607992695 -10 0  0.4551405692754429 -10 0  0.4213342580497894 -10 0  0.3875279468241395 -10 0  0.3554119479341011 -10 0  0.3232959490440663 -10 0  0.2927857494269297 -10 0  0.2622755498097931 -10 0  0.2332908636189828 -10 0  0.2043061774281725 -10 0  0.1767707245216883 -10 0  0.1492352716152006 -10 0  0.1230765885890825 -10 0  0.09691790556296098 -10 0  0.0720671585317838 -10 0  0.04721641150060663 -10 0  0.02360820575030331 -10 0  0 -9.957983193277311 0  0 -9.915966386554622 0  0 -9.873949579831933 0  0 -9.831932773109244 0  0 -9.789915966386555 0  0 -9.747899159663866 0  0 -9.705882352941176 0  0 -9.663865546218487 0  0 -9.621848739495798 0  0 -9.579831932773109 0  0 -9.53781512605042 0  0 -9.495798319327731 0  0 -9.453781512605042 0  0 -9.411764705882353 0  0 -9.369747899159664 0  0 -9.327731092436975 0  0 -9.285714285714286 0  0 -9.243697478991596 0  0 -9.201680672268907 0  0 -9.159663865546218 0  0 -9.117647058823529 0  0 -9.07563025210084 0  0 -9.033613445378151 0  0 -8.991596638655462 0  0 -8.949579831932773 0  0 -8.907563025210084 0  0 -8.865546218487395 0  0 -8.823529411764707 0  0 -8.781512605042018 0  0 -8.739495798319329 0  0 -8.69747899159664 0  0 -8.655462184873949 0  0 -8.61344537815126 0  0 -8.571428571428571 0  0 -8.529411764705882 0  0 -8.487394957983193 0  0 -8.445378151260504 0  0 -8.403361344537815 0  0 -8.361344537815127 0  0 -8.319327731092438 0  0 -8.277310924369749 0  0 -8.235294117647058 0  0 -8.193277310924369 0  0 -8.15126050420168 0  0 -8.109243697478991 0  0 -8.067226890756302 0  0 -8.025210084033613 0  0 -7.983193277310924 0  0 -7.941176470588236 0  0 -7.899159663865547 0  0 -7.857142857142857 0  0 -7.815126050420168 0  0 -7.773109243697479 0  0 -7.73109243697479 0  0 -7.689075630252101 0  0 -7.647058823529411 0  0 -7.605042016806722 0  0 -7.563025210084033 0  0 -7.521008403361344 0  0 -7.478991596638656 0  0 -7.436974789915967 0  0 -7.394957983193278 0  0 -7.352941176470589 0  0 -7.3109243697479 0  0 -7.26890756302521 0  0 -7.226890756302521 0  0 -7.184873949579832 0  0 -7.142857142857143 0  0 -7.100840336134453 0  0 -7.058823529411764 0  0 -7.016806722689076 0  0 -6.974789915966387 0  0 -6.932773109243698 0  0 -6.890756302521009 0  0 -6.84873949579832 0  0 -6.806722689075631 0  0 -6.764705882352941 0  0 -6.722689075630252 0  0 -6.680672268907563 0  0 -6.638655462184874 0  0 -6.596638655462185 0  0 -6.554621848739496 0  0 -6.512605042016807 0  0 -6.470588235294118 0  0 -6.428571428571429 0  0 -6.38655462184874 0  0 -6.344537815126051 0  0 -6.302521008403362 0  0 -6.260504201680672 0  0 -6.218487394957983 0  0 -6.176470588235294 0  0 -6.134453781512605 0  0 -6.092436974789917 0  0 -6.050420168067227 0  0 -6.008403361344538 0  0 -5.966386554621849 0  0 -5.92436974789916 0  0 -5.882352941176471 0  0 -5.840336134453782 0  0 -5.798319327731092 0  0 -5.756302521008403 0  0 -5.714285714285714 0  0 -5.672268907563025 0  0 -5.630252100840336 0  0 -5.588235294117647 0 
[...]
<PointData  Vectors="displacement"> 
<DataArray  type="Float64"  Name="displacement"  NumberOfComponents="3" format="ascii">2.1200000000000413e-01 -2.4703681967974678e-01 0.0000000000000000e+00  1.7221420698458577e-21 5.6198772249838836e-03 0.0000000000000000e+00  5.1898598618887008e-21 1.4663828171797936e-21 0.0000000000000000e+00  1.9534594351831980e-21 8.5366170289636232e-21 0.0000000000000000e+00  1.7822091843361881e-01 -2.4152557822521017e-01 0.0000000000000000e+00  1.5134876897175420e-01 -2.4073402054581633e-01 0.0000000000000000e+00  1.3035201361791998e-01 -2.3466434479213835e-01 0.0000000000000000e+00  1.1393896334609656e-01 -2.2854202573161797e-01 0.0000000000000000e+00  9.9791064125021617e-02 -2.2243025627203813e-01 0.0000000000000000e+00  8.8202269270885800e-02 -2.1578400655028615e-01 0.0000000000000000e+00  7.8062874818929845e-02 -2.0888564814169633e-01 0.0000000000000000e+00  6.9751872694425052e-02 -2.0198805544547871e-01 0.0000000000000000e+00  6.2390656526555094e-02 -1.9563307058834808e-01 0.0000000000000000e+00  5.6330694372172078e-02 -1.8909522892569927e-01 0.0000000000000000e+00  5.0911865881174613e-02 -1.8294928394469342e-01 0.0000000000000000e+00  4.6392020810576022e-02 -1.7682145328169471e-01 0.0000000000000000e+00  4.2321311104618307e-02 -1.7100844676375629e-01 0.0000000000000000e+00  3.8886202463341263e-02 -1.6548111982380664e-01 0.0000000000000000e+00  3.5856790987864318e-02 -1.5995339482821308e-01 0.0000000000000000e+00  3.3253690732668179e-02 -1.5486080735243857e-01 0.0000000000000000e+00  3.0930165643010266e-02 -1.4975931379121915e-01 0.0000000000000000e+00  2.8978964975595236e-02 -1.4493835475647321e-01 0.0000000000000000e+00  2.7159328625356312e-02 -1.4023316811662162e-01 0.0000000000000000e+00  2.5539847200634621e-02 -1.3582118179655461e-01 0.0000000000000000e+00  2.4103817177148976e-02 -1.3139313691256788e-01 0.0000000000000000e+00  2.2866971090226895e-02 -1.2721220412917503e-01 0.0000000000000000e+00  2.1698156996394019e-02 -1.2313408293577101e-01 0.0000000000000000e+00  2.0706091790491689e-02 -1.1921300458097978e-01 0.0000000000000000e+00  1.9777493926581124e-02 -1.1532145266035937e-01 0.0000000000000000e+00  1.8930594970377447e-02 -1.1164807344434016e-01 0.0000000000000000e+00  1.8182897545671768e-02 -1.0797049578163984e-01 0.0000000000000000e+00  1.7518720026044567e-02 -1.0448374229724727e-01 0.0000000000000000e+00  1.6909655715525381e-02 -1.0098012375484423e-01 0.0000000000000000e+00  1.6361216121899343e-02 -9.7650538385664315e-02 0.0000000000000000e+00  1.5861309607968121e-02 -9.4296592299607324e-02 0.0000000000000000e+00  1.5422761802363603e-02 -9.1119155287105291e-02 0.0000000000000000e+00  1.5027805573209178e-02 -8.7925280246586135e-02 0.0000000000000000e+00  1.4686106187156612e-02 -8.4877775440110756e-02 0.0000000000000000e+00  1.4378565157806502e-02 -8.1821831294653924e-02 0.0000000000000000e+00  1.4110250609195171e-02 -7.8883538148051921e-02 0.0000000000000000e+00  1.3865531136013192e-02 -7.5952057511687709e-02 0.0000000000000000e+00  1.3687579573721301e-02 -7.3129017943674157e-02 0.0000000000000000e+00  1.3504897782294436e-02 -7.0291625597295612e-02 0.0000000000000000e+00  1.3366512502304445e-02 -6.7580240938320213e-02 0.0000000000000000e+00  1.3233052219764048e-02 -6.4841219696203697e-02 0.0000000000000000e+00  1.3148165423262432e-02 -6.2217978497854216e-02 0.0000000000000000e+00  1.3086039300317046e-02 -5.9581626186813418e-02 0.0000000000000000e+00  1.3048549091126413e-02 -5.7056925673704822e-02 0.0000000000000000e+00  1.3028025647696666e-02 -5.4498856060410883e-02 0.0000000000000000e+00  1.3027864697152104e-02 -5.2054915357525093e-02 0.0000000000000000e+00  1.3051489074469076e-02 -4.9590158659929225e-02 0.0000000000000000e+00  1.3082847250195010e-02 -4.7223330502648701e-02 0.0000000000000000e+00  1.3145359311714885e-02 -4.4839921187827141e-02 0.0000000000000000e+00  1.3221771600833664e-02 -4.2560832850469105e-02 0.0000000000000000e+00  1.3318267482637451e-02 -4.0262767155719678e-02 0.0000000000000000e+00  1.3428319407037221e-02 -3.8060717956255881e-02 0.0000000000000000e+00  1.3554501706754960e-02 -3.5838408071579148e-02 0.0000000000000000e+00  1.3693685914705005e-02 -3.3709358739455075e-02 0.0000000000000000e+00  1.3848704039714752e-02 -3.1564615940802128e-02 0.0000000000000000e+00  1.4013141353360270e-02 -2.9517219301752759e-02 0.0000000000000000e+00  1.4197998943634020e-02 -2.7454347955523845e-02 0.0000000000000000e+00  1.4391160436630674e-02 -2.5484295223432124e-02 0.0000000000000000e+00  1.4599004601877517e-02 -2.3495767316896794e-02 0.0000000000000000e+00  1.4813304227464017e-02 -2.1605509241896963e-02 0.0000000000000000e+00  1.5045058654966472e-02 -1.9706742967204899e-02 0.0000000000000000e+00  1.5280370320542918e-02 -1.7887176358606170e-02 0.0000000000000000e+00  1.5530801295024182e-02 -1.6067289063031117e-02 0.0000000000000000e+00  1.5785961353398166e-02 -1.4337017093472071e-02 0.0000000000000000e+00  1.6054506704950282e-02 -1.2600173029265851e-02 0.0000000000000000e+00  1.6322767196990527e-02 -1.0953247512209652e-02 0.0000000000000000e+00  1.6607923716296831e-02 -9.3094339280568959e-03 0.0000000000000000e+00  1.6892989437112108e-02 -7.7514398694377689e-03 0.0000000000000000e+00  1.7187793217840683e-02 -6.1907417507149004e-03 0.0000000000000000e+00  1.7481193082540571e-02 -4.7202086736294483e-03 0.0000000000000000e+00  1.7784966581861773e-02 -3.2579284326080204e-03 0.0000000000000000e+00  1.8084257417612250e-02 -1.8796113372236819e-03 0.0000000000000000e+00  1.8392982395774228e-02 -5.1231356980331968e-04 0.0000000000000000e+00  1.8695491293563942e-02 7.7117029968929156e-04 0.0000000000000000e+00  1.9005451228757318e-02 2.0346141381156319e-03 0.0000000000000000e+00  1.9306007593427040e-02 3.2155475274148653e-03 0.0000000000000000e+00  1.9612990782901334e-02 4.3750527424586596e-03 0.0000000000000000e+00  1.9909584549029337e-02 5.4551866027207829e-03 0.0000000000000000e+00  2.0209711061001879e-02 6.5100757424984427e-03 0.0000000000000000e+00  2.0496149715927434e-02 7.4783948394564559e-03 0.0000000000000000e+00  2.0782644480407987e-02 8.4284636088842423e-03 0.0000000000000000e+00  2.1053198891304428e-02 9.2931122710790768e-03 0.0000000000000000e+00  2.1319330038952311e-02 1.0123230958772168e-02 0.0000000000000000e+00  2.1570010703595165e-02 1.0877048646297223e-02 0.0000000000000000e+00  2.1813868410910112e-02 1.1596697399485037e-02 0.0000000000000000e+00  2.2037637278370489e-02 1.2236011354937593e-02 0.0000000000000000e+00  2.2252895591151213e-02 1.2831826381422136e-02 0.0000000000000000e+00  2.2442057917140396e-02 1.3363952025808298e-02 0.0000000000000000e+00  2.2619475928441553e-02 1.3850564634001729e-02 0.0000000000000000e+00  2.2772504120138020e-02 1.4264374960781520e-02 0.0000000000000000e+00  2.2906179682887318e-02 1.4636024406548643e-02 0.0000000000000000e+00  2.3014024575682048e-02 1.4945481768166107e-02 0.0000000000000000e+00  2.3100809624392583e-02 1.5205628491533519e-02 0.0000000000000000e+00  2.3160964669198921e-02 1.5402870890572646e-02 0.0000000000000000e+00  2.3189284203487610e-02 1.5558158769071106e-02 0.0000000000000000e+00  2.3191798711090745e-02 1.5651573374558757e-02 0.0000000000000000e+00  2.3168435557158817e-02 1.5695345967832990e-02 0.0000000000000000e+00  2.3108336471101873e-02 1.5697766500382061e-02 0.0000000000000000e+00  2.3017360783197448e-02 1.5653450225739579e-02 0.0000000000000000e+00  2.2895487873479340e-02 1.5562963735033289e-02 0.0000000000000000e+00  2.2737064564164518e-02 1.5429278680510002e-02 0.0000000000000000e+00  2.2546821794173277e-02 1.5260919406168241e-02 0.0000000000000000e+00  2.2316741333417142e-02 1.5057316744571520e-02 0.0000000000000000e+00  2.2064878950503391e-02 1.4806654693730707e-02 0.0000000000000000e+00  2.1756637312690143e-02 1.4542764049197771e-02 0.0000000000000000e+00  2.1448860228823551e-02 1.4236648690807860e-02 0.0000000000000000e+00  2.1065644495948999e-02 1.3912718274957605e-02 0.0000000000000000e+00  2.0670186489217229e-02 1.3582737550232453e-02 0.0000000000000000e+00  2.0246463564268031e-02 1.3199638007362249e-02 0.0000000000000000e+00  1.9789454989178310e-02 1.2838130304241200e-02 0.0000000000000000e+00  1.9299526060643092e-02 1.2441355686842915e-02 0.0000000000000000e+00  1.8790452113930541e-02 1.2047238976401021e-02 0.0000000000000000e+00  1.8210639343926527e-02 1.1638816921163270e-02 0.0000000000000000e+00  1.7638118475230124e-02 1.1240563571592182e-02 0.0000000000000000e+00  1.7036545348769378e-02 1.0837689249346548e-02 0.0000000000000000e+00  1.6428535222977006e-02 1.0444420737108434e-02 0.0000000000000000e+00  1.5786222134777872e-02 1.0039682378707730e-02 0.0000000000000000e+00  1.5108632144902562e-02 9.6628599070829255e-03 0.0000000000000000e+00  1.4419062491825592e-02 9.2848163309817659e-03 0.0000000000000000e+00  1.3738261974370605e-02 8.9316612396987127e-03 0.0000000000000000e+00  1.3024330964653297e-02 8.5827212672682264e-03 0.0000000000000000e+00  1.2316162190481792e-02 8.2571220372160362e-03 0.0000000000000000e+00  1.1581375875978274e-02 7.9411800002756293e-03 0.0000000000000000e+00  1.0853671766800283e-02 7.6482481180560639e-03 0.0000000000000000e+00  1.0099199469357811e-02 7.3622380888796147e-03 0.0000000000000000e+00  9.3590194582128302e-03 7.1140758510120526e-03 0.0000000000000000e+00  8.6018383917104615e-03 6.8811692991423918e-03 0.0000000000000000e+00  7.8574380707763826e-03 6.6675672845852001e-03 0.0000000000000000e+00  7.0950606971270352e-03 6.4620186433893192e-03 0.0000000000000000e+00  6.3409142454432079e-03 6.2871660431269355e-03 0.0000000000000000e+00  5.5733312436114686e-03 6.1332318983031587e-03 0.0000000000000000e+00  4.8262112959344744e-03 5.9917437760706339e-03 0.0000000000000000e+00  4.0172418452124959e-03 5.8723354727513713e-03 0.0000000000000000e+00  3.2235297191775827e-03 5.7657786769786546e-03 0.0000000000000000e+00  2.4307853581016017e-03 5.7052126418319932e-03 0.0000000000000000e+00  1.6400817378642559e-03 5.6467071785673874e-03 0.0000000000000000e+00  7.9104543400122795e-04 5.6222781375577600e-03 0.0000000000000000e+00  -3.7770546943456774e-20 5.3276309440393951e-03 0.0000000000000000e+00  5.4973031842314909e-20 4.9602939264154176e-03 0.0000000000000000e+00  -1.9605237772506446e-20 4.6263776703253691e-03 0.0000000000000000e+00  0.0000000000000000e+00 4.2858088363891128e-03 0.0000000000000000e+00  5.5371766396836056e-20 3.9589891519045597e-03 0.0000000000000000e+00  2.5343772904432286e-20 3.6415754532444478e-03 0.0000000000000000e+00  8.0002071123877406e-20 3.3340116761071820e-03 0.0000000000000000e+00  -1.0343196719952333e-20 3.0357675018878004e-03 0.0000000000000000e+00  4.8575607228735331e-20 2.7480834508569678e-03 0.0000000000000000e+00  2.8686979442082755e-20 2.4721388834635111e-03 0.0000000000000000e+00  -4.2673184529361975e-20 2.2074063438060365e-03 0.0000000000000000e+00  -1.0323755312616088e-19 1.9566553639212758e-03 0.0000000000000000e+00  -3.6702760897039401e-20 1.7177802909918098e-03 0.0000000000000000e+00  -3.5629255794451973e-20 1.4939936304980425e-03 0.0000000000000000e+00  5.8690666333470592e-20 1.2833538055447681e-03 0.0000000000000000e+00  3.6516872121422203e-20 1.0884337455230523e-03 0.0000000000000000e+00  5.5019920506139679e-21 9.0901959125218388e-04 0.0000000000000000e+00  -6.2368252052790634e-20 7.4466432001209085e-04 0.0000000000000000e+00  -2.0662842265555584e-21 5.9523420279933932e-04 0.0000000000000000e+00  -1.3664292607366266e-20 4.6342452550821999e-04 0.0000000000000000e+00  -5.4687445004562532e-20 3.4769727032892846e-04 0.0000000000000000e+00  6.7256911406624138e-21 2.4843804183473329e-04 0.0000000000000000e+00  2.2197330081323666e-20 1.6535051995826737e-04 0.0000000000000000e+00  3.9685090841671810e-21 9.9247921914271561e-05 0.0000000000000000e+00  9.0332431168298250e-22 4.9879328102215083e-05 0.0000000000000000e+00  0.0000000000000000e+00 1.4866799298980056e-05 0.0000000000000000e+00  -1.2974649654721752e-21 1.8384595774789028e-06 0.0000000000000000e+00  -2.0330564061890423e-21 -2.6411580991116577e-21 0.0000000000000000e+00  -6.7659755427444879e-21 2.3786632767461089e-21 0.0000000000000000e+00  -2.7705784158846394e-20 0.0000000000000000e+00 0.0000000000000000e+00  -2.5060127174359126e-20 -1.6315186962473389e-21 0.0000000000000000e+00  4.2904089631083603e-20 -5.7778165182751964e-22 0.0000000000000000e+00  1.2404651601616441e-19 2.2151163574315071e-21 0.0000000000000000e+00  2.2723350530089934e-20 1.2726594708726435e-21 0.0000000000000000e+00  -2.0731617039610590e-20 1.7816233393415353e-21 0.0000000000000000e+00  -4.4237613343288891e-20 7.3441350276944452e-22 0.0000000000000000e+00  2.3361762683358258e-20 -4.1978167321659374e-21 0.0000000000000000e+00  1.0108804956624948e-19 -5.5024964392973187e-21 0.0000000000000000e+00  -1.7322939182998208e-20 5.0065744995023041e-21 0.0000000000000000e+00  3.0937178034504016e-19 3.7704685729551772e-21 0.0000000000000000e+00  4.6406653314671341e-19 3.6255197902086985e-21 0.0000000000000000e+00  2.4447905684769457e-20 -1.2408764224451020e-21 0.0000000000000000e+00  -1.1455278112464196e-19 4.4747180126813264e-22 0.0000000000000000e+00  5.2814167526188650e-20 7.7806586087688633e-21 0.0000000000000000e+00  -2.6190497019858071e-19 -5.2909473458844789e-21 0.0000000000000000e+00  4.4281996077306981e-19 -4.2720451676821732e-21 0.0000000000000000e+00  -1.4622063408624843e-19 -1.4294837599389541e-21 0.0000000000000000e+00  -1.7539005081763698e-19 -3.9016868683976236e-21 0.0000000000000000e+00  7.7187268779683882e-20 -2.4121021493651213e-21 0.0000000000000000e+00  -6.6224766975865706e-20 -1.7372908203838566e-21 0.0000000000000000e+00  8.5291438637387799e-20 0.0000000000000000e+00 0.0000000000000000e+00  -1.0335951017017432e-20 -2.8264887604536569e-21 0.0000000000000000e+00  -5.6298737049201912e-19 -7.3305647199481646e-21 0.0000000000000000e+00  -3.8302629449069232e-19 1.3808261283998944e-21 0.0000000000000000e+00  1.6468151645783583e-19 8.5771623155122829e-22 0.0000000000000000e+00  -2.3865194112241489e-19 -4.0191585321765719e-21 0.0000000000000000e+00  1.3687169641918820e-19 2.1870620144062353e-21 0.0000000000000000e+00  -1.3680409101191587e-18 -1.2604184217377490e-21 0.0000000000000000e+00  -2.0697953593362422e-19 -6.1515518064591352e-21 0.0000000000000000e+00  4.9915141800221364e-19 -6.8251117584184942e-21 0.0000000000000000e+00  -3.8129182292457547e-19 -5.1020131595147858e-21 0.0000000000000000e+00  4.2883507877818114e-19 4.2639851583057784e-21 0.0000000000000000e+00  1.6995937622364477e-19 -2.6352850804585137e-21 0.0000000000000000e+00  1.8980549278851761e-19 -3.0537000663991657e-22 0.0000000000000000e+00  6.9838216812969006e-19 6.6638046708188598e-23 0.0000000000000000e+00  -2.9133546169355232e-20 1.8208466355847020e-21 0.0000000000000000e+00  8.8508671461297045e-19 9.6038054971025442e-22 0.0000000000000000e+00  1.8920829873283226e-19 7.5717126440600791e-22 0.0000000000000000e+00  -1.4072615704074803e-18 -6.9659415947661890e-21 0.0000000000000000e+00  2.2083818920434239e-20 -6.0111679695633576e-21 0.0000000000000000e+00  6.0664002761604913e-19 2.8436251294502306e-21 0.0000000000000000e+00  -5.1592875785907465e-20 -2.1106944506649654e-21 0.0000000000000000e+00  -3.0087008442990407e-19 -2.2172249536285774e-21 0.0000000000000000e+00  -2.8058079780610396e-19 -1.0960187414300936e-21 0.0000000000000000e+00  -3.5910646509435193e-19 1.0227179163147664e-20 0.0000000000000000e+00  -2.5521193346490949e-19 -4.2220463150123232e-21 0.0000000000000000e+00  7.1985070757843050e-19 -1.4304684066388805e-20 0.0000000000000000e+00  3.3826090708086407e-19 1.4534648351130877e-20 0.0000000000000000e+00  -2.8893087862839959e-19 -8.8304001034343358e-21 0.0000000000000000e+00  -7.7744854330972452e-19 -1.2518382538015765e-20 0.0000000000000000e+00  3.3568409417941467e-19 -6.6515417243540137e-21 0.0000000000000000e+00  -6.3538379916898719e-19 -3.3092906206718083e-21 0.0000000000000000e+00  0.0000000000000000e+00 0.0000000000000000e+00 0.0000000000000000e+00  -6.6926306420646782e-19 3.9762965375934004e-21 0.0000000000000000e+00  -2.8567644201438672e-19 5.5287152916181150e-22 0.0000000000000000e+00  2.4833042037617551e-19 -7.7603256367554847e-21 0.0000000000000000e+00  -3.3119498013321858e-19 2.0367516849793983e-20 0.0000000000000000e+00  1.5744827250536357e-19 -1.6730507947732295e-20 0.0000000000000000e+00  1.4554822281047830e-19 -9.5499778895081342e-21 0.0000000000000000e+00  5.1896685486006821e-19 0.0000000000000000e+00 0.0000000000000000e+00  -3.2059406863797250e-19 2.0635624171143473e-20 0.0000000000000000e+00  -7.2530979619211227e-20 8.1255224809257861e-22 0.0000000000000000e+00  -5.3870623856086813e-19 9.4060431844660715e-21 0.0000000000000000e+00  0.0000000000000000e+00 1.2067690713097136e-20 0.0000000000000000e+00  9.8470678248063623e-21 -1.6965049104019200e-20 0.0000000000000000e+00  -6.3609705925472992e-20 1.5902615434556363e-20 0.0000000000000000e+00  -4.2072839903935406e-19 1.8782517814256880e-20 0.0000000000000000e+00  -1.4543140358935936e-19 -1.8430510466712844e-20 0.0000000000000000e+00  1.8027314311458640e-19 -1.7715485978381695e-20 0.0000000000000000e+00  -1.3136119452949680e-19 -4.4472339304124068e-22 0.0000000000000000e+00  5.5422909439461531e-19 -2.8823540314102020e-20 0.0000000000000000e+00  -3.8421484896364572e-20 4.8026856120455715e-21 0.0000000000000000e+00  -4.0095419302932402e-19 2.0047709651466200e-20 0.0000000000000000e+00  -6.0082283008392832e-21 1.6958915274196059e-21 0.0000000000000000e+00  -2.1910481396426741e-19 0.0000000000000000e+00 0.0000000000000000e+00  -9.1642319146169528e-20 -2.3626535404871831e-20 0.0000000000000000e+00  1.4639507876822253e-19 2.7449077269041725e-20 0.0000000000000000e+00  -5.2188820671042733e-20 1.0569247597139467e-20 0.0000000000000000e+00  -2.1534875621004861e-19 -1.3459297263128038e-20 0.0000000000000000e+00  -1.6131371027705812e-21 1.4509646810150877e-20 0.0000000000000000e+00  -5.8586191974624501e-20 -1.4646547993656125e-20 0.0000000000000000e+00  -2.4018679275871754e-19 -3.6979702802695187e-20 0.0000000000000000e+00  8.4500272332805205e-20 1.1835736377440987e-20 0.0000000000000000e+00  1.3731659306258921e-19 -8.5822870664118255e-21 0.0000000000000000e+00  1.8394169707229033e-19 -4.5985424268072582e-21 0.0000000000000000e+00  5.7056760180596211e-20 7.2992534996661156e-21 0.0000000000000000e+00  -2.4418742844601034e-19 2.5436190463126075e-20 0.0000000000000000e+00  -5.8683322711742881e-20 -4.8339118250295126e-21 0.0000000000000000e+00  -5.9922770415329316e-22 -8.7216821309288052e-21 0.0000000000000000e+00  3.6957960157249118e-21 -1.8158993887991435e-20 0.0000000000000000e+00  -2.1694062587656856e-20 0.0000000000000000e+00 0.0000000000000000e+00  1.8417652455464759e-20 3.8370109282218249e-21 0.0000000000000000e+00  2.7433144556167348e-20 2.7433144556167348e-20 0.0000000000000000e+00  -2.9860951987422456e-20 4.4108297481683138e-21 0.0000000000000000e+00  -5.4217254642463073e-20 -1.9803388025498733e-20 0.0000000000000000e+00  -5.7036223768837829e-20 2.4953347898866552e-20 0.0000000000000000e+00  4.9873307077418514e-20 1.2468326769354629e-20 0.0000000000000000e+00  9.2375335222808885e-20 6.7087229574883795e-21 0.0000000000000000e+00  1.8508369944533218e-20 1.8508369944533218e-20 0.0000000000000000e+00  1.2117216636444677e-20 -8.4820516455112737e-21 0.0000000000000000e+00  -3.0727299794623347e-20 1.5363649897311673e-20 0.0000000000000000e+00  -1.0910036104460613e-19 1.1252202292690332e-20 0.0000000000000000e+00  6.5776984126283998e-20 -2.7407076719285002e-21 0.0000000000000000e+00  7.7334161474667218e-20 1.0024798709679084e-20 0.0000000000000000e+00  -1.2309365648745643e-20 6.1546828243728216e-21 0.0000000000000000e+00  3.5661661955099478e-20 -1.2458681332549781e-20 0.0000000000000000e+00  9.9939317594489041e-20 -1.0707784027980968e-20 0.0000000000000000e+00  -6.9446135929915898e-20 -1.6447769036032712e-20 0.0000000000000000e+00  -1.5332331752706822e-20 -1.1499248814530116e-20 0.0000000000000000e+00  5.7943836985055075e-20 -3.0020244490612416e-21 0.0000000000000000e+00  2.