<?xml version="1.0"?>
<VTKFile type="UnstructuredGrid"  version="0.1"  >
<UnstructuredGrid>
<Piece  NumberOfPoints="1691" NumberOfCells="3204">
<Points>
<DataArray  type="Float64"  NumberOfComponents="3"  format="ascii">0 0 0  30 0 0  30 -10 0  0 -10 0  0.1391574078963744 0 0  0.2856388821882616 0 0  0.4398299073010886 0 0  0.6021362569539473 0 0  0.7729850389704483 0 0  0.9528258543586996 0 0  1.142131984380316 0 0  1.34140159760994 0 0  1.551159074717981 0 0  1.771956417032531 0 0  2.004374674080994 0 0  2.249025475789527 0 0  2.506552636773105 0 0  2.777633857742732 0 0  3.062982518028728 0 0  3.363349525995907 0 0  3.679525322337712 0 0  4.01234195575742 0 0  4.362675247811097 0 0  4.731447135329707 0 0  5.119628065610077 0 0  5.528239565804708 0 0  5.958356943167011 0 0  6.411112081475485 0 0  6.887696441559404 0 0  7.389364184530748 0 0  7.917435485335147 0 0  8.473300005202017 0 0  9.058420557070402 0 0  9.674336929103793 0 0  10.32266995225095 0 0  11.00512576896296 0 0  11.72350030646412 0 0  12.47968402994705 0 0  13.27566689579597 0 0  14.1135435963616 0 0  14.9955190732806 0 0  15.92391430904694 0 0  16.90117245730496 0 0  17.92986524844506 0 0  19.01269976086341 0 0  20.15252556282024 0 0  21.35234220269763 0 0  22.61530708683689 0 0  23.94474379751883 0 0  25.34415086349739 0 0  26.81721093579712 0 0  28.3678004819169 0 0  30 -1.111111111111111 0  30 -2.222222222222222 0  30 -3.333333333333333 0  30 -4.444444444444445 0  30 -5.555555555555555 0  30 -6.666666666666666 0  30 -7.777777777777777 0  30 -8.888888888888889 0  28.36780047917311 -10 0  26.8172109305839 -10 0  25.34415085606858 -10 0  23.94474378810899 -10 0  22.61530707566275 -10 0  21.3523421899591 -10 0  20.15252554870171 -10 0  19.01269974553473 -10 0  17.92986523206254 -10 0  16.90117244001232 -10 0  15.92391429097614 -10 0  14.99551905455266 -10 0  14.11354357708742 -10 0  13.27566687607703 -10 0  12.47968400987599 -10 0  11.72350028612546 -10 0  11.00512574843363 -10 0  10.32266993160086 -10 0  9.674336908396342 -10 0  9.058420536362949 -10 0  8.473299984546333 -10 0  7.917435464777824 -10 0  7.389364164113587 -10 0  6.887696420787165 -10 0  6.411112061446698 -10 0  5.95835692337857 -10 0  5.528239546282652 -10 0  5.119628046377237 -10 0  4.731447115907979 -10 0  4.362675229213632 -10 0  4.012341937260036 -10 0  3.679525304434552 -10 0  3.363349508456405 -10 0  3.062982500861274 -10 0  2.777633840953978 -10 0  2.506552620368097 -10 0  2.249025459771861 -10 0  2.004374658452946 -10 0  1.771956401795187 -10 0  1.551159059871345 -10 0  1.341401583153029 -10 0  1.142131970307521 -10 0  0.9528258406748833 -10 0  0.7729850256685147 -10 0  0.6021362439621285 -10 0  0.4398298947504031 -10 0  0.2856388700059078 -10 0  0.1391573960769001 -10 0  0 -9.855072463768115 0  0 -9.710144927536232 0  0 -9.565217391304348 0  0 -9.420289855072463 0  0 -9.27536231884058 0  0 -9.130434782608695 0  0 -8.985507246376812 0  0 -8.840579710144928 0  0 -8.695652173913043 0  0 -8.55072463768116 0  0 -8.405797101449275 0  0 -8.260869565217391 0  0 -8.115942028985508 0  0 -7.971014492753623 0  0 -7.826086956521739 0  0 -7.681159420289855 0  0 -7.536231884057971 0  0 -7.391304347826087 0  0 -7.246376811594203 0  0 -7.101449275362318 0  0 -6.956521739130435 0  0 -6.811594202898551 0  0 -6.666666666666667 0  0 -6.521739130434783 0  0 -6.376811594202898 0  0 -6.231884057971015 0  0 -6.086956521739131 0  0 -5.942028985507246 0  0 -5.797101449275362 0  0 -5.652173913043478 0  0 -5.507246376811594 0  0 -5.36231884057971 0  0 -5.217391304347826 0  0 -5.072463768115941 0  0 -4.927536231884058 0  0 -4.782608695652174 0  0 -4.637681159420289 0  0 -4.492753623188406 0  0 -4.347826086956522 0  0 -4.202898550724638 0  0 -4.057971014492754 0  0 -3.913043478260869 0  0 -3.768115942028985 0  0 -3.623188405797101 0  0 -3.478260869565217 0  0 -3.333333333333334 0  0 -3.188405797101449 0  0 -3.043478260869565 0  0 -2.898550724637681 0  0 -2.753623188405797 0  0 -2.608695652173912 0  0 -2.463768115942029 0  0 -2.318840579710145 0  0 -2.173913043478261 0  0 -2.028985507246377 0  0 -1.884057971014492 0  0 -1.739130434782609 0  0 -1.594202898550725 0  0 -1.44927536231884 0  0 -1.304347826086957 0  0 -1.159420289855072 0  0 -1.014492753623188 0  0 -0.8695652173913047 0  0 -0.72463768115942 0  0 -0.579710144927537 0  0 -0.4347826086956523 0  0 -0.2898550724637676 0  0 -0.1449275362318829 0  0.1309460514202492 -4.990980414828784 0  0.1171526873513358 -5.869565217391296 0  0.1344252986967795 -6.716855800502001 0  0.1221309018586645 -4.161899358592938 0  0.1166997684017801 -3.25954604704229 0  4.961569127360256 -0.3118894787216622 0  4.923897360678746 -9.687537149351071 0  0.1228405945134021 -2.536958536012416 0  0.1335945686177435 -7.466846676638523 0  3.206461751753455 -0.2806173508164562 0  3.213166004658842 -9.746377676274168 0  0.1155250883680452 -8.186784073011673 0  0.1359204609538445 -1.804202625344072 0  6.662432263484016 -9.600124945047963 0  6.631056521209421 -0.3942868763482545 0  2.126700074935258 -0.2065769621215452 0  2.120437876630353 -9.808537401472012 0  8.761385473272522 -9.4914222957189 0  8.786076048231736 -0.4923064159810888 0  0.1195911345135556 -8.749677128895598 0  0.1117474302775605 -1.230589418769438 0  11.3907841305612 -9.402816705944797 0  11.36435727088349 -0.618365439918426 0  1.211504568109637 -0.1471532661956818 0  1.239596144827807 -9.832618358594059 0  13.75158625181508 -9.315497816134139 0  13.7500399625954 -0.6902569910160397 0  0.131402377539402 -3.696772604078816 0  0.1204853385030979 -6.307560917781178 0  0.1346483804691658 -4.550944754283819 0  0.1255109280847009 -5.434782608695652 0  16.39894095075685 -9.180198571581517 0  16.44068234362399 -0.8166544577416346 0  0.1255109280847009 -0.7971014492753632 0  0.1162877148651766 -9.206770243020259 0  19.56645066956165 -9.043742294716539 0  29.11731382843969 -5.098539983867493 0  19.50527862123305 -0.9323941524176265 0  23.28904960561395 -8.8608997858633 0  0.6875606479622149 -0.1442604037134076 0  0.6875606348153145 -9.855739596611892 0  23.37074358394081 -1.15131614182933 0  10.00852704311311 -9.475417469395781 0  10.01049631493635 -0.5545437343697674 0  7.639131123468924 -9.543000896765111 0  7.693537846067955 -0.4574302764599576 0  5.733194300659633 -9.66079268774309 0  5.731454990332523 -0.3687808037058806 0  3.803630689980224 -9.686555789708486 0  3.834043646352164 -0.2754981925697493 0  2.618022704128803 -9.787800068206256 0  2.634320277618269 -0.2392104743186785 0  1.65952286941916 -9.813294854785646 0  1.665360553377539 -0.1820878093930922 0  0.1365068028365961 -1.543352471920677 0  0.1128108295274224 -8.471115901500411 0  0.1249192863256123 -0.5070564851587012 0  0.1172626025927563 -9.49200175151447 0  0.1255109280847009 -2.101449275362318 0  0.1255109280847009 -7.898550724637682 0  0.1247535864599936 -2.824177050114505 0  0.1155424837078822 -7.17494363557847 0  26.05192393553612 -8.777856070543081 0  26.00031291598836 -1.159065252957426 0  0.3627343947446455 -0.1301950113519217 0  0.3690141220077834 -9.868919517536135 0  28.90574865438674 -7.135369011630129 0  29.02069681040884 -2.861993939893059 0  0.1397555488250113 -0.2163338956475025 0  0.1255109280847009 -9.782608695652172 0  24.67098979274125 -8.799958058548517 0  23.93395881668722 -7.700959994796646 0  22.61396570077244 -7.764517377391733 0  23.2032949615693 -6.630776985250927 0  21.94857473380583 -6.690613342424633 0  24.50398505507967 -6.535933305198952 0  22.51489076809043 -5.580432145971667 0  21.29537841406989 -5.639199768252479 0  21.84985259542567 -4.547213342284197 0  20.65342988351128 -4.619546679988924 0  20.11277906893955 -5.663225279336593 0  19.49454290958806 -4.673886314669294 0  18.97860072994828 -5.624185949902217 0  18.40383886642446 -4.729683279047542 0  17.90575400337286 -5.630456854950327 0  17.35903168001753 -4.836859475002379 0  16.91444903556046 -5.680257663405808 0  16.36114434035519 -4.898890029095359 0  15.89440836794127 -5.835214594829282 0  15.41608945577568 -4.979845093198404 0  14.9809818125648 -5.732909169427192 0  14.51777858619734 -4.988431190461874 0  14.14039496103406 -5.776391085527889 0  13.67321261031888 -5.031745046943032 0  13.26988611760758 -5.891550007816156 0  12.85732927991246 -5.095735823822261 0  12.46423889659403 -5.760519953635332 0  12.07741841933393 -5.116608846746942 0  11.73131647445202 -5.75987862647932 0  11.35222911621012 -5.158061768105265 0  11.01225658271747 -5.784828178519854 0  10.65393216495117 -5.205808407572067 0  10.33042159780337 -5.788944717060055 0  9.98551374198097 -5.24118342090078 0  9.687616112021921 -5.812725728827915 0  9.357518717034999 -5.284717467130579 0  9.08157001076583 -5.820057568121996 0  8.766199932316585 -5.320212662582848 0  8.494748056481422 -5.830095453943056 0  8.194406727465122 -5.347802431655208 0  7.942610344706003 -5.833678024304247 0  7.660825631728443 -5.380025954369014 0  7.416702921751611 -5.83684433397813 0  7.147290851157173 -5.413787279190068 0  6.91632006965034 -5.851605397483334 0  6.658527053286988 -5.437627383845131 0  6.441897327469297 -5.862220684948111 0  6.194860224019926 -5.464520225953867 0  5.988748643021736 -5.866336295550595 0  5.755042825355586 -5.482399938780632 0  5.555770501455733 -5.867908174086599 0  5.334991086231989 -5.504761241472904 0  5.145076642106908 -5.873191062890511 0  4.935013388047023 -5.544035964184449 0  4.754345788811499 -5.880090917794126 0  4.554437025256316 -5.569020251233177 0  4.382470744799432 -5.88665007327689 0  4.192208958329529 -5.585677590398814 0  4.029485566904095 -5.896175760774888 0  4.354949258143058 -5.270074521138358 0  4.004482386201769 -5.289207815434526 0  4.158655721068861 -4.98145486433833 0  3.821444856080801 -5.001169872115685 0  3.97033944278737 -4.700814034221719 0  3.642688047138773 -4.720140385706738 0  3.788830742180677 -4.426816067812119 0  3.467446796449556 -4.450112744784491 0  3.325275354457695 -4.730293981808933 0  3.158439978631689 -4.466074367009679 0  3.294707394527546 -4
[...]
<PointData  Vectors="displacement"> 
<DataArray  type="Float64"  Name="displacement"  NumberOfComponents="3" format="ascii">3.0000000000000016e-01 1.7202702301391420e-01 0.0000000000000000e+00  -1.2171153400144650e-19 1.8280769979270957e-03 0.0000000000000000e+00  -1.7918489922544504e-20 7.6435419689187201e-21 0.0000000000000000e+00  -2.8963290667107898e-21 8.6889872001323686e-21 0.0000000000000000e+00  2.8704755500591250e-01 1.3943025583735633e-01 0.0000000000000000e+00  2.5581419488605078e-01 9.4740928664232033e-02 0.0000000000000000e+00  2.1686705402119763e-01 5.7358190681706452e-02 0.0000000000000000e+00  1.8030366860629557e-01 3.3242743452992482e-02 0.0000000000000000e+00  1.5039524236102020e-01 1.9482619795037355e-02 0.0000000000000000e+00  1.2686497154049972e-01 1.0805342361140297e-02 0.0000000000000000e+00  1.0791168857722579e-01 6.1510590819122716e-03 0.0000000000000000e+00  9.2879811651628633e-02 2.5387770742450462e-03 0.0000000000000000e+00  8.0744288669896816e-02 -1.3762360072433515e-04 0.0000000000000000e+00  7.0786356009059623e-02 -1.5711646720548143e-03 0.0000000000000000e+00  6.2438486730121694e-02 -2.5976191583688495e-03 0.0000000000000000e+00  5.5484733493199441e-02 -3.3997544845986534e-03 0.0000000000000000e+00  4.9473072381835723e-02 -3.9654500480637471e-03 0.0000000000000000e+00  4.4312485480698653e-02 -4.2575306939149245e-03 0.0000000000000000e+00  3.9754693690459440e-02 -4.5307954693104401e-03 0.0000000000000000e+00  3.5802202143930019e-02 -4.5987993879522127e-03 0.0000000000000000e+00  3.2271795735706016e-02 -4.6173393497049913e-03 0.0000000000000000e+00  2.9141037972483193e-02 -4.5937250851839743e-03 0.0000000000000000e+00  2.6439893024982834e-02 -4.3655224969539061e-03 0.0000000000000000e+00  2.3872410197060902e-02 -4.1654117878966272e-03 0.0000000000000000e+00  2.1588976423482772e-02 -3.8719939643477022e-03 0.0000000000000000e+00  1.9557256595082412e-02 -3.5404618562424983e-03 0.0000000000000000e+00  1.7697935911580174e-02 -3.1985080940859357e-03 0.0000000000000000e+00  1.6036782223887412e-02 -2.7969758546390242e-03 0.0000000000000000e+00  1.4545067309948118e-02 -2.3527385090468143e-03 0.0000000000000000e+00  1.3155035020895151e-02 -1.9151771035680937e-03 0.0000000000000000e+00  1.1949108532388864e-02 -1.4135176657689512e-03 0.0000000000000000e+00  1.0873770483930414e-02 -9.3098328498006052e-04 0.0000000000000000e+00  9.9051971834226270e-03 -4.4532859185253165e-04 0.0000000000000000e+00  9.0457988141225375e-03 2.8840908022297819e-05 0.0000000000000000e+00  8.2950718052196577e-03 4.8112340684075013e-04 0.0000000000000000e+00  7.6271822823350830e-03 8.9709490162527788e-04 0.0000000000000000e+00  7.0389692840048300e-03 1.2708335369293860e-03 0.0000000000000000e+00  6.5187041875527192e-03 1.6115556964670099e-03 0.0000000000000000e+00  6.0267214427423910e-03 1.8873354753666024e-03 0.0000000000000000e+00  5.6022337565358711e-03 2.1179755846070683e-03 0.0000000000000000e+00  5.2036121912689701e-03 2.2852354611114715e-03 0.0000000000000000e+00  4.8260055245461560e-03 2.3834040827905062e-03 0.0000000000000000e+00  4.4508788564670476e-03 2.4392784511099003e-03 0.0000000000000000e+00  4.0692105573991539e-03 2.4363169279156809e-03 0.0000000000000000e+00  3.6832081611825056e-03 2.3974918407414780e-03 0.0000000000000000e+00  3.2874206177172858e-03 2.3234555481078845e-03 0.0000000000000000e+00  2.8886601578797188e-03 2.2441676954473534e-03 0.0000000000000000e+00  2.4492140163892375e-03 2.1373165185205041e-03 0.0000000000000000e+00  1.9958266378409715e-03 2.0365538677740648e-03 0.0000000000000000e+00  1.5297832539118736e-03 1.9492667155298570e-03 0.0000000000000000e+00  1.0403326462441731e-03 1.8827103642179966e-03 0.0000000000000000e+00  5.0726753801261302e-04 1.8383609628723424e-03 0.0000000000000000e+00  -1.3098617264607567e-20 1.5282948435547835e-03 0.0000000000000000e+00  -2.7369181974158905e-20 1.2105207440019886e-03 0.0000000000000000e+00  -1.0950985365078822e-20 9.1759568182927869e-04 0.0000000000000000e+00  1.8230074235431189e-20 6.5843121736183547e-04 0.0000000000000000e+00  -4.0311189246739429e-20 4.3527787976300526e-04 0.0000000000000000e+00  -1.3330361081681005e-20 2.4764829674092426e-04 0.0000000000000000e+00  2.4871360252813567e-20 1.0961903043544852e-04 0.0000000000000000e+00  -1.4944858520518220e-20 2.2793017628074439e-05 0.0000000000000000e+00  1.5431339395026399e-20 -2.7549788893194969e-21 0.0000000000000000e+00  3.1931464892443183e-20 -9.4796536399440695e-21 0.0000000000000000e+00  1.3989940446113247e-19 2.9595290498608899e-21 0.0000000000000000e+00  5.0739141827967313e-20 7.3994581832452331e-21 0.0000000000000000e+00  3.2956169749756812e-20 5.4436530390223306e-21 0.0000000000000000e+00  6.3045920451289382e-20 7.8807400564111727e-21 0.0000000000000000e+00  -9.7627477560123764e-20 -9.4257872457768752e-21 0.0000000000000000e+00  -2.6031553105205739e-20 0.0000000000000000e+00 0.0000000000000000e+00  2.0847966154891679e-19 5.8550659257744002e-21 0.0000000000000000e+00  -1.9221170319525558e-19 1.2513782760107784e-21 0.0000000000000000e+00  -9.0920623065093010e-20 1.0394888307746915e-22 0.0000000000000000e+00  3.9610864754406672e-20 6.1891976178760424e-22 0.0000000000000000e+00  2.8135431663203384e-20 -2.1101573747402536e-21 0.0000000000000000e+00  9.9177607020432038e-20 -7.7482505484712524e-21 0.0000000000000000e+00  -3.9029214075600740e-19 -1.7550233418013534e-20 0.0000000000000000e+00  -2.6877769385326726e-19 -1.0079163519497523e-20 0.0000000000000000e+00  1.3604171227744431e-19 -1.9160804546118919e-20 0.0000000000000000e+00  -6.7646302305854471e-20 -3.3823151152927236e-20 0.0000000000000000e+00  2.4420747274422886e-20 8.1863117515337314e-21 0.0000000000000000e+00  5.5076016223005776e-21 -1.1015203244601155e-20 0.0000000000000000e+00  -3.5665670543110360e-20 3.1207461725221567e-20 0.0000000000000000e+00  6.6249948346342281e-20 3.3124974173171141e-20 0.0000000000000000e+00  1.3916191835925944e-20 -4.1324728887913256e-20 0.0000000000000000e+00  0.0000000000000000e+00 -3.3864132623472145e-20 0.0000000000000000e+00  -1.7539612661555315e-19 -4.0560354279846661e-20 0.0000000000000000e+00  -4.0054278088561216e-20 0.0000000000000000e+00 0.0000000000000000e+00  -1.0526179728026996e-19 1.5996862025282581e-20 0.0000000000000000e+00  -1.0937605088730641e-19 -8.5450039755708130e-21 0.0000000000000000e+00  8.9130760946814187e-20 -2.5532249229556147e-21 0.0000000000000000e+00  -6.3606182855775500e-20 3.4784631249252225e-21 0.0000000000000000e+00  2.7404899023651866e-20 7.2040724410181710e-22 0.0000000000000000e+00  0.0000000000000000e+00 6.6514443133510305e-22 0.0000000000000000e+00  -1.0854740472638448e-19 -4.1867687222974406e-21 0.0000000000000000e+00  -2.3065119752307961e-19 2.3065119752307959e-20 0.0000000000000000e+00  -2.9056181646259925e-19 1.5264533328821066e-20 0.0000000000000000e+00  -2.2156543587479960e-19 1.9782628203107106e-21 0.0000000000000000e+00  -2.6725246571792130e-19 1.0508933477464857e-20 0.0000000000000000e+00  -7.4834223894450557e-20 7.0157084901047401e-21 0.0000000000000000e+00  6.7451221805907115e-20 3.1227417502734777e-21 0.0000000000000000e+00  -1.0882252533878937e-19 1.9043941934288144e-20 0.0000000000000000e+00  4.1081447943509381e-20 1.1302865774006915e-20 0.0000000000000000e+00  -8.9227449584044831e-20 1.9120167768009608e-20 0.0000000000000000e+00  8.7386770342626894e-20 -1.3108015551394033e-21 0.0000000000000000e+00  2.4863804346916709e-20 4.1439673911527851e-21 0.0000000000000000e+00  -2.6055046206487609e-21 2.4318043126055101e-20 0.0000000000000000e+00  -5.0571193150814159e-21 2.5285596575407080e-21 0.0000000000000000e+00  -8.8884174059535925e-23 -5.7587008589964450e-21 0.0000000000000000e+00  3.6088747727599357e-21 1.4435499091039743e-20 0.0000000000000000e+00  -6.5955840935562893e-22 5.8121360727084957e-05 0.0000000000000000e+00  -1.9055933620766598e-20 1.4209027549906772e-04 0.0000000000000000e+00  -1.2307160310185482e-20 2.5222655914514439e-04 0.0000000000000000e+00  -5.0463908611018627e-20 3.8790227522823774e-04 0.0000000000000000e+00  -2.7983100907124379e-20 5.4806672158255428e-04 0.0000000000000000e+00  -6.1252829013807892e-21 7.2909656500675605e-04 0.0000000000000000e+00  2.3670951107655664e-20 9.3126855858617814e-04 0.0000000000000000e+00  2.1381101000875100e-20 1.1539584895948118e-03 0.0000000000000000e+00  1.8701352741923236e-20 1.3945731744557897e-03 0.0000000000000000e+00  -3.8955120649327573e-20 1.6508828224380805e-03 0.0000000000000000e+00  1.6291177250275102e-21 1.9248661871920259e-03 0.0000000000000000e+00  -1.2883040672036940e-20 2.2142986095080174e-03 0.0000000000000000e+00  2.7341945798060391e-20 2.5192357678934150e-03 0.0000000000000000e+00  7.0603919973203458e-20 2.8386839629166872e-03 0.0000000000000000e+00  -3.9957862191432752e-20 3.1714767804358591e-03 0.0000000000000000e+00  -3.4062762334080836e-20 3.5191897654081919e-03 0.0000000000000000e+00  -4.8263757929998550e-20 3.8802061490793792e-03 0.0000000000000000e+00  2.2402875903852762e-20 4.2565014258889276e-03 0.0000000000000000e+00  5.1649768243429087e-20 4.6469059394067015e-03 0.0000000000000000e+00  6.4892690508704859e-20 5.0516215178284521e-03 0.0000000000000000e+00  -7.5213182406250440e-20 5.4715489139732319e-03 0.0000000000000000e+00  -1.5112725985993162e-19 5.9066950036801421e-03 0.0000000000000000e+00  6.7705153774105540e-20 6.3576868561204935e-03 0.0000000000000000e+00  4.3172831427079535e-20 6.8233153202398684e-03 0.0000000000000000e+00  -6.0004920257115736e-20 7.3059578105857913e-03 0.0000000000000000e+00  -7.3607261043421401e-20 7.8053468744420504e-03 0.0000000000000000e+00  -1.7803883331514015e-19 8.3256509039361659e-03 0.0000000000000000e+00  2.5044240057302361e-20 8.8637659816521858e-03 0.0000000000000000e+00  3.2558873660963109e-20 9.4233580457973309e-03 0.0000000000000000e+00  4.6503067768023658e-20 1.0005443739209002e-02 0.0000000000000000e+00  -4.3347582435165797e-20 1.0608338117984808e-02 0.0000000000000000e+00  -5.4758491052013709e-20 1.1240914515850154e-02 0.0000000000000000e+00  5.5462572968710923e-20 1.1900404420518021e-02 0.0000000000000000e+00  -5.2112118371278146e-20 1.2584103210304395e-02 0.0000000000000000e+00  3.5299877443118701e-20 1.3302426834694408e-02 0.0000000000000000e+00  -7.3027002599285937e-20 1.4051987331408500e-02 0.0000000000000000e+00  1.0255768156037266e-19 1.4837527412311537e-02 0.0000000000000000e+00  4.1188706978455170e-20 1.5668586513328281e-02 0.0000000000000000e+00  3.0039335364868310e-20 1.6541999107962394e-02 0.0000000000000000e+00  -1.2385955579701140e-19 1.7464638400919302e-02 0.0000000000000000e+00  -1.2265351630913126e-19 1.8435183883200448e-02 0.0000000000000000e+00  -4.4640333723770984e-20 1.9462315802709410e-02 0.0000000000000000e+00  -1.2390125604829130e-19 2.0551478440878252e-02 0.0000000000000000e+00  -9.7149092971285793e-20 2.1709411763616963e-02 0.0000000000000000e+00  0.0000000000000000e+00 2.2941803970372151e-02 0.0000000000000000e+00  2.5288254692955369e-19 2.4260096667280531e-02 0.0000000000000000e+00  1.5469138843842866e-19 2.5672776554590170e-02 0.0000000000000000e+00  -1.7847905462477950e-19 2.7205833765896550e-02 0.0000000000000000e+00  -4.6403512000722074e-19 2.8866036849546986e-02 0.0000000000000000e+00  9.7038992775325129e-20 3.0649806454320170e-02 0.0000000000000000e+00  -2.2131263099460152e-19 3.2581285285173983e-02 0.0000000000000000e+00  9.4634922867614153e-20 3.4696925024004829e-02 0.0000000000000000e+00  -1.0751326759341122e-19 3.7036953698562504e-02 0.0000000000000000e+00  -5.6336286637924121e-19 3.9584174610244785e-02 0.0000000000000000e+00  -5.8094781579330177e-19 4.2411893416680918e-02 0.0000000000000000e+00  1.6911293967411948e-19 4.5519488629483310e-02 0.0000000000000000e+00  1.0705474838441658e-19 4.9036258963170529e-02 0.0000000000000000e+00  0.0000000000000000e+00 5.3002385653033716e-02 0.0000000000000000e+00  -1.3212372850461794e-18 5.7395073912091518e-02 0.0000000000000000e+00  -5.9461803432765821e-19 6.2520870169163995e-02 0.0000000000000000e+00  -9.3067986198824106e-19 6.8566576216955430e-02 0.0000000000000000e+00  6.8251953637706373e-19 7.5514527873777423e-02 0.0000000000000000e+00  -6.4706559214571076e-19 8.3359442976666670e-02 0.0000000000000000e+00  -2.9815492328068337e-18 9.2453219548106619e-02 0.0000000000000000e+00  1.1710373135987417e-17 1.0788587409529331e-01 0.0000000000000000e+00  9.8550724637688852e-02 1.3341584618890295e-01 0.0000000000000000e+00  2.4347826086957366e-01 1.5554117831509290e-01 0.0000000000000000e+00  2.9999999999999999e-01 1.6616169320772245e-01 0.0000000000000000e+00  -6.0812329069302371e-04 1.2935789930074189e-02 0.0000000000000000e+00  -4.2244043136362229e-04 9.1219933332589136e-03 0.0000000000000000e+00  -3.9036229758703764e-04 6.1837745316158472e-03 0.0000000000000000e+00  -7.5113725388468988e-04 1.7660941320530074e-02 0.0000000000000000e+00  -1.0488897516929057e-03 2.4842088400575526e-02 0.0000000000000000e+00  2.2394873878069169e-02 -5.1791814956788571e-03 0.0000000000000000e+00  -8.3961067052116948e-04 -2.3545635062326178e-05 0.0000000000000000e+00  -1.6301658694931830e-03 3.3330244929926603e-02 0.0000000000000000e+00  -3.2029480691933473e-04 4.0497951111951071e-03 0.0000000000000000e+00  3.6919005410321629e-02 -6.8656481251089876e-03 0.0000000000000000e+00  -8.0708183278141302e-04 3.3560014189708860e-05 0.0000000000000000e+00  -2.2058442488850599e-04 2.3647730468050665e-03 0.0000000000000000e+00  -2.9931477020844139e-03 4.6541486241951570e-02 0.0000000000000000e+00  -5.7569212546708306e-04 -7.7189660896526154e-05 0.0000000000000000e+00  1.5447688069561375e-02 -3.4687932681127347e-03 0.0000000000000000e+00  5.6748871795829200e-02 -6.3971010727073285e-03 0.0000000000000000e+00  -5.1939257907213988e-04 5.0415941496994737e-05 0.0000000000000000e+00  -1.8294733412747798e-05 -9.7830577411259231e-05 0.0000000000000000e+00  1.0589097350831526e-02 -1.2673217118997547e-03 0.0000000000000000e+00  -1.7629954869985499e-04 1.3000583076078860e-03 0.0000000000000000e+00  -3.8624985386851956e-03 6.3464580548963007e-02 0.0000000000000000e+00  5.2339955469765968e-04 -6.7662298935716300e-05 0.0000000000000000e+00  7.5401670612024125e-03 6.9253627447098511e-04 0.0000000000000000e+00  9.6322513832052620e-02 -1.3200851237589893e-03 0.0000000000000000e+00  -3.0332742184293579e-04 5.8023554486554419e-05 0.0000000000000000e+00  7.3745892488972457e-04 -3.1372788656887962e-05 0.0000000000000000e+00  5.9185326689689269e-03 1.7428021689066848e-03 0.0000000000000000e+00  -9.7899263470805492e-04 2.1004857843843507e-02 0.0000000000000000e+00  -3.8664806643363785e-04 7.5261011747524229e-03 0.0000000000000000e+00  -7.2490498095325836e-04 1.5266393293614153e-02 0.0000000000000000e+00  -5.1179765130851735e-04 1.0889366936191828e-02 0.0000000000000000e+00  7.8473255075166195e-04 -1.0405662076495550e-06 0.0000000000000000e+00  4.6334921034485782e-03 2.1602013549695065e-03 0.0000000000000000e+00  -2.8831685388305858e-03 7.6063539017062670e-02 0.0000000000000000e+00  -1.1999123937400640e-04 6.3026483787301962e-04 0.0000000000000000e+00  6.5426235663341525e-04 1.8910227143935649e-05 0.0000000000000000e+00  1.8939120593354728e-04 5.2215262222276367e-04 0.0000000000000000e+00  3.4524135170657770e-03 2.1078911937313601e-03 0.0000000000000000e+00  4.4157461205653520e-04 2.4516882087386644e-05 0.0000000000000000e+00  1.4600309292576924e-01 1.4550987770519060e-02 0.0000000000000000e+00  -1.5412432710378094e-04 5.2737139015681257e-05 0.0000000000000000e+00  2.0947336594663063e-03 1.7688529712258550e-03 0.0000000000000000e+00  2.7439163029353034e-04 -8.0524077988396479e-05 0.0000000000000000e+00  8.8964160451343328e-03 -2.1757928415296046e-04 0.0000000000000000e+00  -3.3514196970677680e-04 -9.0899480472169129e-05 0.0000000000000000e+00  1.2676352332823567e-02 -2.3604389717394952e-03 0.0000000000000000e+00  -7.2260703137010703e-04 -4.7087380965084361e-05 0.0000000000000000e+00  1.8662482300013744e-02 -4.4760530263077483e-03 0.0000000000000000e+00  -9.8425683443843586e-04 1.5117666053061201e-05 0.0000000000000000e+00  3.0367568051038549e-02 -6.2573293293202662e-03 0.0000000000000000e+00  -6.3925650798156159e-04 4.5274894259531247e-05 0.0000000000000000e+00  4.5543720363783645e-02 -6.9436695623940996e-03 0.0000000000000000e+00  -4.2618843157635683e-04 5.8613015123846331e-05 0.0000000000000000e+00  7.1995516889373626e-02 -5.3485366907232591e-03 0.0000000000000000e+00  -3.5793543083154195e-03 5.3006594216405856e-02 0.0000000000000000e+00  -1.9162715121516638e-04 1.7963254922249959e-03 0.0000000000000000e+00  5.4740695004562676e-02 6.7253369066651789e-02 0.0000000000000000e+00  -8.3584030095345532e-05 3.1756128995844008e-04 0.0000000000000000e+00  -2.1963740132636988e-03 4.0469988872299120e-02 0.0000000000000000e+00  -2.6320451497126123e-04 2.9974339029057661e-03 0.0000000000000000e+00  -1.4103567058584051e-03 2.9539437667376017e-02 0.0000000000000000e+00  -2.9893949582874803e-04 4.8363763732957327e-03 0.0000000000000000e+00  2.6451747292194962e-04 2.0467364165934549e-05 0.0000000000000000e+00  1.2521620102804113e-03 1.6120255282629668e-03 0.0000000000000000e+00  2.0561113258222677e-01 5.8986935807519333e-02 0.0000000000000000e+00  -7.7504777805212553e-05 4.8328174726974021e-05 0.0000000000000000e+00  1.5199386698265183e-04 1.8026504786438532e-04 0.0000000000000000e+00  2.7196816099797416e-04 1.0467702028206301e-03 0.0000000000000000e+00  2.3690035950355967e-01 1.0930345850713985e-01 0.0000000000000000e+00  -4.3125678828112209e-05 9.5327929529260723e-05 0.0000000000000000e+00  3.5653114464061371e-04 2.3194894725990185e-05 0.0000000000000000e+00  7.5451926084175547e-04 1.3705511467686994e-04 0.0000000000000000e+00  9.2442575382598675e-04 1.4417094983755951e-04 0.0000000000000000e+00  1.1891328458274088e-03 3.1242351659489304e-04 0.0000000000000000e+00  1.4279530308467004e-03 3.2761311454172065e-04 0.0000000000000000e+00  9.5876552707232110e-04 3.0529675756335811e-04 0.0000000000000000e+00  1.6339945224677572e-03 5.5184465727164164e-04 0.0000000000000000e+00  1.9300636927617695e-03 5.6845842380005059e-04 0.0000000000000000e+00  2.0723821480814354e-03 8.3158286285329173e-04 0.0000000000000000e+00  2.4120145347890456e-03 8.5474040148943967e-04 0.0000000000000000e+00  2.2348285483045436e-03 5.8848736463979010e-04 0.0000000000000000e+00  2.7537852291772756e-03 8.6597736188042990e-04 0.0000000000000000e+00  2.5665445333820959e-03 6.0340976709153261e-04 0.0000000000000000e+00  3.0806632984354118e-03 8.4222433058368557e-04 0.0000000000000000e+00  2.8685291087797550e-03 5.7652710837390866e-04 0.0000000000000000e+00  3.3753873447385386e-03 7.6507021887399105e-04 0.0000000000000000e+00  3.1196890960860026e-03 5.0600539672166389e-04 0.0000000000000000e+00  3.6627263288414977e-03 6.4843365445488917e-04 0.0000000000000000e+00  3.2975254214630038e-03 3.6424999641072842e-04 0.0000000000000000e+00  3.8966449655146599e-03 4.7854227168005989e-04 0.0000000000000000e+00  3.5637269184642722e-03 2.3282209689536070e-04 0.0000000000000000e+00  4.1340040871314532e-03 2.6090600847350313e-04 0.0000000000000000e+00  3.6872894418350233e-03 2.6584171314781271e-05 0.0000000000000000e+00  4.3012525833617506e-03 -2.5798698668848412e-05 0.0000000000000000e+00  3.7014987883246791e-03 -2.4976899873985171e-04 0.0000000000000000e+00  4.3840652142421157e-03 -3.7948239026460383e-04 0.0000000000000000e+00  3.8446318573388013e-03 -5.7394483432036047e-04 0.0000000000000000e+00  4.4341034031722491e-03 -7.9786268881493400e-04 0.0000000000000000e+00  3.8054735565082680e-03 -9.4170089039787735e-04 0.0000000000000000e+00  4.3898781863312359e-03 -1.2577812546184387e-03 0.0000000000000000e+00  3.6596802305364396e-03 -1.3574579610044018e-03 0.0000000000000000e+00  4.2538294771499790e-03 -1.7636997665279447e-03 0.0000000000000000e+00  3.4488794022544201e-03 -1.8078727829714389e-03 0.0000000000000000e+00  4.0367409428143358e-03 -2.2995972602125169e-03 0.0000000000000000e+00  3.1291575591986978e-03 -2.2580709164929822e-03 0.0000000000000000e+00  3.7175969549717164e-03 -2.8