<?xml version="1.0"?>
<VTKFile type="UnstructuredGrid"  version="0.1"  >
<UnstructuredGrid>
<Piece  NumberOfPoints="18082" NumberOfCells="35500">
<Points>
<DataArray  type="Float64"  NumberOfComponents="3"  format="ascii">0 0 0  30 0 0  30 -10 0  0 -10 0  0.02360821169319077 0 0  0.04721642338638154 0 0  0.07206717063563725 0 0  0.09691791788489297 0 0  0.1230766011355843 0 0  0.1492352843862757 0 0  0.1767707375239038 0 0  0.204306190661532 0 0  0.2332908770901271 0 0  0.2622755635187223 0 0  0.2927857633803451 0 0  0.323295963241968 0 0  0.3554119623832387 0 0  0.3875279615245094 0 0  0.4213342730081758 0 0  0.4551405844918422 0 0  0.4907261762804851 0 0  0.526311768069128 0 0  0.5637702848355051 0 0  0.6012288016018821 0 0  0.6406588220121138 0 0  0.6800888424223455 0 0  0.721594129780935 0 0  0.7630994171395246 0 0  0.8067891887833475 0 0  0.8504789604271704 0 0  0.8964681941825949 0 0  0.9424574279380195 0 0  0.9908671465681095 0 0  1.039276865198199 0 0  1.090234462786975 0 0  1.141192060375751 0 0  1.194831641933244 0 0  1.248471223490737 0 0  1.304933942963653 0 0  1.361396662436569 0 0  1.420831104471586 0 0  1.480265546506604 0 0  1.542828113436244 0 0  1.605390680365884 0 0  1.671246013469327 0 0  1.73710134657277 0 0  1.806422752814762 0 0  1.875744159056755 0 0  1.948714057431306 0 0  2.021683955805857 0 0  2.098494373901932 0 0  2.175304791998006 0 0  2.256157866653476 0 0  2.337010941308945 0 0  2.422119443935387 0 0  2.50722794656183 0 0  2.596815840700639 0 0  2.686403734839449 0 0  2.780706776094687 0 0  2.875009817349925 0 0  2.974276175689285 0 0  3.073542534028646 0 0  3.178033441002704 0 0  3.282524347976761 0 0  3.392514777963501 0 0  3.502505207950242 0 0  3.618284608533553 0 0  3.734064009116865 0 0  3.855937062816526 0 0  3.977810116516187 0 0  4.106097541496641 0 0  4.234384966477093 0 0  4.369424362562147 0 0  4.5044637586472 0 0  4.646610489729194 0 0  4.788757220811188 0 0  4.938385356669961 0 0  5.088013492528733 0 0  5.24551679218304 0 0  5.403020091837347 0 0  5.568813038399614 0 0  5.73460598496188 0 0  5.909124878408681 0 0  6.083643771855482 0 0  6.267347873338513 0 0  6.451051974821543 0 0  6.644424714363561 0 0  6.83779745390558 0 0  7.041347702348167 0 0  7.244897950790754 0 0  7.459161368238869 0 0  7.673424785686984 0 0  7.898965226038037 0 0  8.124505666389089 0 0  8.361916654054033 0 0  8.599327641718979 0 0  8.849233942517035 0 0  9.099140243315093 0 0  9.362199507946787 0 0  9.625258772578484 0 0  9.902163261537794 0 0  10.1790677504971 0 0  10.47054616023911 0 0  10.76202456998112 0 0  11.06884394887334 0 0  11.37566332776555 0 0  11.69863109504192 0 0  12.02159886231829 0 0  12.3615649378891 0 0  12.7015310134599 0 0  13.05939003847426 0 0  13.41724906348862 0 0  13.79394276982091 0 0  14.1706364761532 0 0  14.5671561683298 0 0  14.96367586050641 0 0  15.38106501332897 0 0  15.79845416615153 0 0  16.23781117165827 0 0  16.677168177165 0 0  17.13964923659526 0 0  17.60213029602552 0 0  18.0889524622663 0 0  18.57577462850707 0 0  19.08821901304263 0 0  19.60066339757818 0 0  20.14007853843172 0 0  20.67949367928525 0 0  21.24729908993883 0 0  21.8151045005924 0 0  22.41279440541421 0 0  23.01048431023601 0 0  23.63963157605829 0 0  24.26877884188056 0 0  24.93103912515648 0 0  25.59329940843241 0 0  26.29041549584691 0 0  26.98753158326142 0 0  27.72133799026916 0 0  28.45514439727691 0 0  29.22757219863846 0 0  30 -0.3571428571428571 0  30 -0.7142857142857142 0  30 -1.071428571428571 0  30 -1.428571428571428 0  30 -1.785714285714286 0  30 -2.142857142857143 0  30 -2.5 0  30 -2.857142857142857 0  30 -3.214285714285714 0  30 -3.571428571428571 0  30 -3.928571428571428 0  30 -4.285714285714286 0  30 -4.642857142857142 0  30 -5 0  30 -5.357142857142857 0  30 -5.714285714285714 0  30 -6.071428571428571 0  30 -6.428571428571428 0  30 -6.785714285714285 0  30 -7.142857142857142 0  30 -7.5 0  30 -7.857142857142857 0  30 -8.214285714285714 0  30 -8.571428571428571 0  30 -8.928571428571427 0  30 -9.285714285714285 0  30 -9.642857142857142 0  29.22757220128658 -10 0  28.45514440257316 -10 0  27.72133799277628 -10 0  26.98753158297939 -10 0  26.29041549304805 -10 0  25.5932994031167 -10 0  24.93103911757599 -10 0  24.26877883203527 -10 0  23.63963156418132 -10 0  23.01048429632737 -10 0  22.41279438968936 -10 0  21.81510448305136 -10 0  21.24729907078059 -10 0  20.67949365850982 -10 0  20.14007851622273 -10 0  19.60066337393564 -10 0  19.08821898813588 -10 0  18.57577460233611 -10 0  18.08895243498708 -10 0  17.60213026763805 -10 0  17.13964920724307 -10 0  16.6771681468481 -10 0  16.2378111405086 -10 0  15.79845413416909 -10 0  15.38106498063496 -10 0  14.96367582710082 -10 0  14.56715613432376 -10 0  14.17063644154669 -10 0  13.79394273471576 -10 0  13.41724902788484 -10 0  13.05939000246495 -10 0  12.70153097704506 -10 0  12.36156490115379 -10 0  12.02159882526251 -10 0  11.69863105774323 -10 0  11.37566329022395 -10 0  11.06884391115945 -10 0  10.76202453209494 -10 0  10.47054612224479 -10 0  10.17906771239465 -10 0  9.902163223385379 -10 0  9.625258734376107 -10 0  9.362199469747061 -10 0  9.099140205118012 -10 0  8.849233904370102 -10 0  8.599327603622193 -10 0  8.361916616050124 -10 0  8.124505628478055 -10 0  7.898965188258209 -10 0  7.673424748038361 -10 0  7.459161330755727 -10 0  7.244897913473093 -10 0  7.041347665226496 -10 0  6.837797416979896 -10 0  6.644424677660922 -10 0  6.451051938341948 -10 0  6.26734783710581 -10 0  6.083643735869675 -10 0  5.90912484269068 -10 0  5.734605949511682 -10 0  5.568813003235423 -10 0  5.403020056959164 -10 0  5.24551675760658 -10 0  5.088013458254 -10 0  4.938385322710374 -10 0  4.788757187166745 -10 0  4.646610456411224 -10 0  4.504463725655707 -10 0  4.369424329906533 -10 0  4.234384934157362 -10 0  4.106097509520442 -10 0  3.977810084883522 -10 0  3.85593703153344 -10 0  3.734063978183357 -10 0  3.618284577954206 -10 0  3.502505177725055 -10 0  3.392514748095728 -10 0  3.282524318466404 -10 0  3.1780334118518 -10 0  3.073542505237196 -10 0  2.97427614725823 -10 0  2.875009789279265 -10 0  2.780706748384375 -10 0  2.686403707489482 -10 0  2.596815813710069 -10 0  2.507227919930656 -10 0  2.422119417661861 -10 0  2.337010915393062 -10 0  2.256157841092762 -10 0  2.175304766792465 -10 0  2.098494349048437 -10 0  2.021683931304413 -10 0  1.948714033278215 -10 0  1.875744135252013 -10 0  1.806422729354161 -10 0  1.737101323456312 -10 0  1.671245990692352 -10 0  1.605390657928396 -10 0  1.542828091333185 -10 0  1.480265524737977 -10 0  1.420831083031992 -10 0  1.36139664132601 -10 0  1.304933922176438 -10 0  1.248471203026863 -10 0  1.194831621786765 -10 0  1.14119204054667 -10 0  1.09023444350921 -10 0  1.039276846471754 -10 0  0.9908671279064798 -10 0  0.942457409341209 -10 0  0.8964681758842019 -10 0  0.8504789424271948 -10 0  0.8067891710751951 -10 0  0.7630993997231954 -10 0  0.7215941126497469 -10 0  0.6800888255762949 -10 0  0.6406588054444597 -10 0  0.6012287853126246 -10 0  0.5637702688178621 -10 0  0.5263117523230996 -10 0  0.4907261607992695 -10 0  0.4551405692754429 -10 0  0.4213342580497894 -10 0  0.3875279468241395 -10 0  0.3554119479341011 -10 0  0.3232959490440663 -10 0  0.2927857494269297 -10 0  0.2622755498097931 -10 0  0.2332908636189828 -10 0  0.2043061774281725 -10 0  0.1767707245216883 -10 0  0.1492352716152006 -10 0  0.1230765885890825 -10 0  0.09691790556296098 -10 0  0.0720671585317838 -10 0  0.04721641150060663 -10 0  0.02360820575030331 -10 0  0 -9.972067039106145 0  0 -9.94413407821229 0  0 -9.916201117318435 0  0 -9.888268156424582 0  0 -9.860335195530727 0  0 -9.832402234636872 0  0 -9.804469273743017 0  0 -9.776536312849162 0  0 -9.748603351955307 0  0 -9.720670391061452 0  0 -9.692737430167599 0  0 -9.664804469273744 0  0 -9.636871508379889 0  0 -9.608938547486034 0  0 -9.581005586592179 0  0 -9.553072625698324 0  0 -9.525139664804469 0  0 -9.497206703910614 0  0 -9.46927374301676 0  0 -9.441340782122905 0  0 -9.41340782122905 0  0 -9.385474860335195 0  0 -9.35754189944134 0  0 -9.329608938547485 0  0 -9.30167597765363 0  0 -9.273743016759777 0  0 -9.245810055865922 0  0 -9.217877094972067 0  0 -9.189944134078212 0  0 -9.162011173184357 0  0 -9.134078212290502 0  0 -9.106145251396647 0  0 -9.078212290502794 0  0 -9.050279329608939 0  0 -9.022346368715084 0  0 -8.994413407821229 0  0 -8.966480446927374 0  0 -8.938547486033519 0  0 -8.910614525139664 0  0 -8.882681564245811 0  0 -8.854748603351956 0  0 -8.826815642458101 0  0 -8.798882681564246 0  0 -8.770949720670391 0  0 -8.743016759776536 0  0 -8.715083798882681 0  0 -8.687150837988828 0  0 -8.659217877094973 0  0 -8.631284916201118 0  0 -8.603351955307263 0  0 -8.575418994413408 0  0 -8.547486033519553 0  0 -8.519553072625698 0  0 -8.491620111731844 0  0 -8.463687150837989 0  0 -8.435754189944134 0  0 -8.407821229050279 0  0 -8.379888268156424 0  0 -8.351955307262569 0  0 -8.324022346368714 0  0 -8.296089385474861 0  0 -8.268156424581006 0  0 -8.240223463687151 0  0 -8.212290502793296 0  0 -8.184357541899441 0  0 -8.156424581005586 0  0 -8.128491620111731 0  0 -8.100558659217878 0  0 -8.072625698324023 0  0 -8.044692737430168 0  0 -8.016759776536313 0  0 -7.988826815642458 0  0 -7.960893854748603 0  0 -7.932960893854748 0  0 -7.905027932960894 0  0 -7.877094972067039 0  0 -7.849162011173184 0  0 -7.82122905027933 0  0 -7.793296089385475 0  0 -7.76536312849162 0  0 -7.737430167597765 0  0 -7.709497206703911 0  0 -7.681564245810056 0  0 -7.653631284916202 0  0 -7.625698324022347 0  0 -7.597765363128492 0  0 -7.569832402234637 0  0 -7.541899441340782 0  0 -7.513966480446927 0  0 -7.486033519553073 0  0 -7.458100558659218 0  0 -7.430167597765363 0  0 -7.402234636871508 0  0 -7.374301675977653 0  0 -7.346368715083798 0  0 -7.318435754189944 0  0 -7.290502793296089 0  0 -7.262569832402235 0  0 -7.23463687150838 0  0 -7.206703910614525 0  0 -7.17877094972067 0  0 -7.150837988826815 0  0 -7.12290502793296 0  0 -7.094972067039106 0  0 -7.067039106145251 
[...]
<PointData  Vectors="displacement"> 
<DataArray  type="Float64"  Name="displacement"  NumberOfComponents="3" format="ascii">8.3999999999999533e-02 4.8317780441813396e-02 0.0000000000000000e+00  -1.2013337727709879e-21 5.2294403691470149e-05 0.0000000000000000e+00  8.7034541828870047e-23 -2.8696276735323637e-23 0.0000000000000000e+00  0.0000000000000000e+00 -8.6249054806867800e-23 0.0000000000000000e+00  6.8953296361166871e-02 2.9501726018013218e-02 0.0000000000000000e+00  5.5859373399993736e-02 1.7336293311300592e-02 0.0000000000000000e+00  4.4898541529794118e-02 9.4583085089961372e-03 0.0000000000000000e+00  3.6462001691153517e-02 5.3020234447457267e-03 0.0000000000000000e+00  3.0159116536793894e-02 2.9518220119247240e-03 0.0000000000000000e+00  2.5427699822794816e-02 1.6773881165068364e-03 0.0000000000000000e+00  2.1649619991466029e-02 8.9769121950078934e-04 0.0000000000000000e+00  1.8750283575989558e-02 4.4530174391078708e-04 0.0000000000000000e+00  1.6374094096624402e-02 1.7276769730956463e-04 0.0000000000000000e+00  1.4505166597707661e-02 9.5938515274153686e-06 0.0000000000000000e+00  1.2935571888237187e-02 -7.0231135202183026e-05 0.0000000000000000e+00  1.1671354117708805e-02 -1.1840937615932366e-04 0.0000000000000000e+00  1.0583425768857322e-02 -1.4604654162342958e-04 0.0000000000000000e+00  9.6845262208649467e-03 -1.5880345750163538e-04 0.0000000000000000e+00  8.8874136324305544e-03 -1.8085490408050421e-04 0.0000000000000000e+00  8.2135677633255275e-03 -1.8420300871833462e-04 0.0000000000000000e+00  7.6099110219378166e-03 -1.9248752889807494e-04 0.0000000000000000e+00  7.0903830045314841e-03 -1.9785137841705149e-04 0.0000000000000000e+00  6.6107010213948183e-03 -2.0753269148401172e-04 0.0000000000000000e+00  6.1920082034460965e-03 -2.0914975240750110e-04 0.0000000000000000e+00  5.8063644579456827e-03 -2.1115700175290819e-04 0.0000000000000000e+00  5.4668258629129544e-03 -2.1046262260894551e-04 0.0000000000000000e+00  5.1478239048267527e-03 -2.1692129260031905e-04 0.0000000000000000e+00  4.8632862182137488e-03 -2.2136353576368055e-04 0.0000000000000000e+00  4.5975874845037255e-03 -2.1543481857200537e-04 0.0000000000000000e+00  4.3613675452784254e-03 -2.1454910334565898e-04 0.0000000000000000e+00  4.1330650882903282e-03 -2.1866759967158881e-04 0.0000000000000000e+00  3.9289773076593756e-03 -2.1884883582869987e-04 0.0000000000000000e+00  3.7317345428401361e-03 -2.2068469088636520e-04 0.0000000000000000e+00  3.5533832364176843e-03 -2.2021393568812678e-04 0.0000000000000000e+00  3.3846398825637968e-03 -2.1906652617697614e-04 0.0000000000000000e+00  3.2307839850336498e-03 -2.1879940285254347e-04 0.0000000000000000e+00  3.0829687161232793e-03 -2.1814508178723475e-04 0.0000000000000000e+00  2.9480955119675824e-03 -2.1730009007828088e-04 0.0000000000000000e+00  2.8171559022902195e-03 -2.1806233747333515e-04 0.0000000000000000e+00  2.6972925546718939e-03 -2.1865681882436702e-04 0.0000000000000000e+00  2.5808392624629582e-03 -2.1826572536281556e-04 0.0000000000000000e+00  2.4739795649316833e-03 -2.1781720425440495e-04 0.0000000000000000e+00  2.3700729760619912e-03 -2.1753729202523734e-04 0.0000000000000000e+00  2.2749111848081455e-03 -2.1611919289023964e-04 0.0000000000000000e+00  2.1805307283750243e-03 -2.1668783070289468e-04 0.0000000000000000e+00  2.0933912609762502e-03 -2.1575972998846677e-04 0.0000000000000000e+00  2.0095709442110119e-03 -2.1413752907167518e-04 0.0000000000000000e+00  1.9318130047582165e-03 -2.1310935442588462e-04 0.0000000000000000e+00  1.8557280320924733e-03 -2.1207121078610749e-04 0.0000000000000000e+00  1.7848811414058333e-03 -2.1111873999593678e-04 0.0000000000000000e+00  1.7153568488149369e-03 -2.1022096803802827e-04 0.0000000000000000e+00  1.6505798258216406e-03 -2.0909837332230664e-04 0.0000000000000000e+00  1.5873440895284622e-03 -2.0743831574179041e-04 0.0000000000000000e+00  1.5286334752401063e-03 -2.0563190517508358e-04 0.0000000000000000e+00  1.4702756715704920e-03 -2.0453238463767224e-04 0.0000000000000000e+00  1.4161128648952259e-03 -2.0298422676249942e-04 0.0000000000000000e+00  1.3626071622502463e-03 -2.0141182130717456e-04 0.0000000000000000e+00  1.3126524945560984e-03 -1.9975648834128740e-04 0.0000000000000000e+00  1.2633822684976100e-03 -1.9782278874133242e-04 0.0000000000000000e+00  1.2175038579268983e-03 -1.9546786555033714e-04 0.0000000000000000e+00  1.1718179237277780e-03 -1.9349319996780218e-04 0.0000000000000000e+00  1.1292812237425481e-03 -1.9142804433923172e-04 0.0000000000000000e+00  1.0870469892714204e-03 -1.8898822210440547e-04 0.0000000000000000e+00  1.0474168446253150e-03 -1.8641227804890956e-04 0.0000000000000000e+00  1.0084029917791510e-03 -1.8377031036689328e-04 0.0000000000000000e+00  9.7197183966451107e-04 -1.8123890367556319e-04 0.0000000000000000e+00  9.3578715203432772e-04 -1.7818581509586296e-04 0.0000000000000000e+00  9.0213483115523347e-04 -1.7511325381115261e-04 0.0000000000000000e+00  8.6767403508386661e-04 -1.7252184442234468e-04 0.0000000000000000e+00  8.3538663080561209e-04 -1.6905621038267363e-04 0.0000000000000000e+00  8.0394188750835009e-04 -1.6550244017398885e-04 0.0000000000000000e+00  7.7436120212053601e-04 -1.6177368966412294e-04 0.0000000000000000e+00  7.4492569179876380e-04 -1.5805613534470303e-04 0.0000000000000000e+00  7.1721638917884736e-04 -1.5415676616217924e-04 0.0000000000000000e+00  6.8981916169268923e-04 -1.4992029199045384e-04 0.0000000000000000e+00  6.6401665224316564e-04 -1.4574061750066315e-04 0.0000000000000000e+00  6.3843765222601099e-04 -1.4119256518429926e-04 0.0000000000000000e+00  6.1434933422430441e-04 -1.3670340024530498e-04 0.0000000000000000e+00  5.9047020115464291e-04 -1.3187206732950097e-04 0.0000000000000000e+00  5.6801226909878320e-04 -1.2705199303461812e-04 0.0000000000000000e+00  5.4581043135726315e-04 -1.2192476435117883e-04 0.0000000000000000e+00  5.2508782039188391e-04 -1.1672012421809019e-04 0.0000000000000000e+00  5.0403916317492135e-04 -1.1162584469488113e-04 0.0000000000000000e+00  4.8431896801975557e-04 -1.0599963790324271e-04 0.0000000000000000e+00  4.6498517849236488e-04 -1.0032236836815744e-04 0.0000000000000000e+00  4.4684643672659476e-04 -9.4570191491621074e-05 0.0000000000000000e+00  4.2904303187033297e-04 -8.8439505503096655e-05 0.0000000000000000e+00  4.1230724342778953e-04 -8.2507473111006143e-05 0.0000000000000000e+00  3.9575838056280671e-04 -7.6237119909061151e-05 0.0000000000000000e+00  3.8038879509140884e-04 -7.0187096841606319e-05 0.0000000000000000e+00  3.6505321186577455e-04 -6.3784215515879961e-05 0.0000000000000000e+00  3.5087428658161704e-04 -5.7488653425676017e-05 0.0000000000000000e+00  3.3657329881668505e-04 -5.1118550214454036e-05 0.0000000000000000e+00  3.2329360037978516e-04 -4.4671745409511290e-05 0.0000000000000000e+00  3.1032038046228917e-04 -3.8085487665054977e-05 0.0000000000000000e+00  2.9808108666435902e-04 -3.1731196997075145e-05 0.0000000000000000e+00  2.8679185864428913e-04 -2.4736553698983458e-05 0.0000000000000000e+00  2.7637064664854191e-04 -1.8591172376429644e-05 0.0000000000000000e+00  2.6537847080140159e-04 -1.2321007325577788e-05 0.0000000000000000e+00  2.5525958911834843e-04 -6.0364549907151983e-06 0.0000000000000000e+00  2.4561543307934368e-04 2.2190625049155520e-07 0.0000000000000000e+00  2.3676539130824752e-04 6.2509094964139148e-06 0.0000000000000000e+00  2.2803276765407529e-04 1.2205418417633240e-05 0.0000000000000000e+00  2.2006217211814443e-04 1.7868316189925177e-05 0.0000000000000000e+00  2.1213308549360372e-04 2.3333531238442642e-05 0.0000000000000000e+00  2.0485426436722944e-04 2.8526184237497472e-05 0.0000000000000000e+00  1.9773770836460029e-04 3.3579906059899822e-05 0.0000000000000000e+00  1.9115685423042993e-04 3.8285969610787538e-05 0.0000000000000000e+00  1.8473746773964205e-04 4.2788457934490598e-05 0.0000000000000000e+00  1.7880990353348847e-04 4.6910847954701609e-05 0.0000000000000000e+00  1.7294632323632689e-04 5.0776045690095150e-05 0.0000000000000000e+00  1.6757352884626384e-04 5.4258138737831297e-05 0.0000000000000000e+00  1.6198415366641604e-04 5.7331845128339412e-05 0.0000000000000000e+00  1.5673560926141836e-04 6.0120595311235285e-05 0.0000000000000000e+00  1.5168327210091421e-04 6.2670289727015187e-05 0.0000000000000000e+00  1.4682148654552381e-04 6.4746635262083775e-05 0.0000000000000000e+00  1.4195701343668979e-04 6.6532898986356608e-05 0.0000000000000000e+00  1.3724050419662971e-04 6.7899266119470205e-05 0.0000000000000000e+00  1.3251367573685689e-04 6.9020629929185352e-05 0.0000000000000000e+00  1.2790047934939990e-04 6.9728258788043357e-05 0.0000000000000000e+00  1.2309922402694979e-04 7.0137736128564405e-05 0.0000000000000000e+00  1.1844195446384242e-04 7.0246011022952372e-05 0.0000000000000000e+00  1.1343636990952906e-04 7.0084876385783607e-05 0.0000000000000000e+00  1.0850670115676414e-04 6.9697965632385962e-05 0.0000000000000000e+00  1.0365132854507273e-04 6.9265393437055987e-05 0.0000000000000000e+00  9.8762845510141339e-05 6.8317744929655507e-05 0.0000000000000000e+00  9.3347712864478235e-05 6.7357463905765946e-05 0.0000000000000000e+00  8.8094960888673683e-05 6.6161921783297010e-05 0.0000000000000000e+00  8.2596607366812070e-05 6.5149528024752471e-05 0.0000000000000000e+00  7.7181940376091617e-05 6.3630986594136505e-05 0.0000000000000000e+00  7.1602333969325973e-05 6.2524930718715083e-05 0.0000000000000000e+00  6.5891161229662430e-05 6.1036820603712548e-05 0.0000000000000000e+00  5.9737499835458892e-05 5.9678160830283926e-05 0.0000000000000000e+00  5.3658739738612034e-05 5.8332655099584784e-05 0.0000000000000000e+00  4.7416541530110916e-05 5.7192150425019240e-05 0.0000000000000000e+00  4.1132944685683512e-05 5.6052058595017074e-05 0.0000000000000000e+00  3.4586909576551648e-05 5.5048501793431214e-05 0.0000000000000000e+00  2.8078643595979029e-05 5.4107591384519611e-05 0.0000000000000000e+00  2.1088240680149420e-05 5.3490066771956546e-05 0.0000000000000000e+00  1.4224832453792849e-05 5.2757133993630119e-05 0.0000000000000000e+00  7.1229345886784841e-06 5.2865765066503967e-05 0.0000000000000000e+00  1.5662155981451098e-21 4.9637932683942637e-05 0.0000000000000000e+00  5.3838661186238233e-22 4.6674934072783666e-05 0.0000000000000000e+00  3.9155389953627780e-23 4.3794612141924323e-05 0.0000000000000000e+00  7.0306659802898034e-22 4.0829552336816670e-05 0.0000000000000000e+00  -5.7367734178353564e-22 3.7968448112805861e-05 0.0000000000000000e+00  -4.5222749742413431e-22 3.5138789177750717e-05 0.0000000000000000e+00  3.8088136988702518e-22 3.2383685351435520e-05 0.0000000000000000e+00  -5.1446166036337957e-22 2.9702443085757637e-05 0.0000000000000000e+00  7.4600392619314279e-22 2.7099694885644390e-05 0.0000000000000000e+00  6.1904404914934599e-22 2.4577035801267487e-05 0.0000000000000000e+00  -4.9046392314209597e-22 2.2134876018364675e-05 0.0000000000000000e+00  4.4152631768457768e-22 1.9796095761099237e-05 0.0000000000000000e+00  2.4251633176413512e-22 1.7539755593424738e-05 0.0000000000000000e+00  1.0388910005401039e-22 1.5390501823257434e-05 0.0000000000000000e+00  -7.5694086662912274e-22 1.3353270000896590e-05 0.0000000000000000e+00  -6.1197005838814355e-22 1.1427605017319226e-05 0.0000000000000000e+00  1.0640124832326692e-21 9.6395050300594478e-06 0.0000000000000000e+00  -1.6911062262332607e-22 7.9904183287884913e-06 0.0000000000000000e+00  -7.4013768966050216e-23 6.4770683453146846e-06 0.0000000000000000e+00  3.5563774497227358e-22 5.1066848050563595e-06 0.0000000000000000e+00  3.5068274269375109e-23 3.8579410790753567e-06 0.0000000000000000e+00  2.7595906133297547e-23 2.7881126073158024e-06 0.0000000000000000e+00  -8.8213365215309320e-23 1.8925054496269656e-06 0.0000000000000000e+00  -1.8286558420220194e-22 1.1671660634008514e-06 0.0000000000000000e+00  -3.8171828217470985e-23 6.5440046352342297e-07 0.0000000000000000e+00  9.6005745058649900e-23 3.0684504580591548e-07 0.0000000000000000e+00  1.1221078659252180e-22 2.0781340326538085e-08 0.0000000000000000e+00  -9.2835124415475626e-24 -9.2835124415475626e-24 0.0000000000000000e+00  -2.5693721694321693e-22 -2.5406230142706853e-23 0.0000000000000000e+00  -6.0579011253259696e-22 -3.4075693829958579e-23 0.0000000000000000e+00  -5.6065695209727674e-22 1.5477391448535402e-23 0.0000000000000000e+00  6.7318910750311081e-22 4.6281751140838868e-23 0.0000000000000000e+00  8.4631246909791135e-22 2.1488402535689156e-23 0.0000000000000000e+00  0.0000000000000000e+00 -5.2907822520457540e-23 0.0000000000000000e+00  -6.2555952178345035e-22 4.8454879886683960e-24 0.0000000000000000e+00  5.7679763759900808e-22 4.9568546981164756e-23 0.0000000000000000e+00  -1.5315202228546123e-21 -6.5263645860281776e-24 0.0000000000000000e+00  -2.8904388144078379e-22 -1.2194038748283065e-22 0.0000000000000000e+00  1.4592238604870094e-21 -7.9032769210630900e-23 0.0000000000000000e+00  -1.5624213337273698e-21 4.2722458344107766e-23 0.0000000000000000e+00  2.1562891209617429e-21 6.8587321369876868e-23 0.0000000000000000e+00  -1.7029963027078475e-21 6.6523293074525292e-24 0.0000000000000000e+00  -1.4324645102642345e-21 -3.1935660766180536e-23 0.0000000000000000e+00  9.3336807094380606e-22 1.6805638484400805e-23 0.0000000000000000e+00  -2.2628844885544271e-21 2.4553868148377029e-24 0.0000000000000000e+00  2.1159167126447276e-21 -1.4464274402844817e-23 0.0000000000000000e+00  5.5571439979162961e-21 -2.0821616959338760e-23 0.0000000000000000e+00  2.5399478048103156e-21 4.9608355562701476e-24 0.0000000000000000e+00  8.2711779742597231e-23 -2.3262688052605470e-23 0.0000000000000000e+00  -2.6777961136435942e-21 7.3220987482442027e-23 0.0000000000000000e+00  -5.2879142765387868e-22 -7.7470266807637242e-23 0.0000000000000000e+00  2.4697941030795299e-21 1.9295266430308828e-23 0.0000000000000000e+00  2.3618497248747121e-21 4.2175887944191285e-23 0.0000000000000000e+00  7.9752728091167323e-22 -1.6199772893518361e-22 0.0000000000000000e+00  3.4383899065260284e-21 -1.8413676253060969e-22 0.0000000000000000e+00  -8.2231074826517129e-22 0.0000000000000000e+00 0.0000000000000000e+00  -5.0881935792873758e-21 1.0719508945127900e-23 0.0000000000000000e+00  5.2065486052350615e-22 -8.1352321956797837e-23 0.0000000000000000e+00  -8.8357466354085758e-22 2.5487730679063197e-23 0.0000000000000000e+00  5.6972920320116283e-22 0.0000000000000000e+00 0.0000000000000000e+00  1.6062191541148022e-21 -1.2320431011676040e-22 0.0000000000000000e+00  -2.6914996202466573e-21 2.2429163502055478e-22 0.0000000000000000e+00  -6.9796414620273043e-22 -8.4837637854270157e-23 0.0000000000000000e+00  1.2496102425955224e-21 -3.9050320081110075e-23 0.0000000000000000e+00  1.6842339306808749e-21 3.8278043879110794e-23 0.0000000000000000e+00  3.0779332626750130e-21 0.0000000000000000e+00 0.0000000000000000e+00  1.0221728287478529e-21 1.9453693174754592e-22 0.0000000000000000e+00  4.0207408045245126e-22 -4.0207408045245126e-22 0.0000000000000000e+00  7.6816611665084719e-22 -1.8703175014107585e-22 0.0000000000000000e+00  -2.3032387351286710e-22 -2.8790484189108388e-23 0.0000000000000000e+00  -7.3378499253465017e-23 9.2502701786076543e-23 0.0000000000000000e+00  2.1324168650592470e-22 9.8419239925811402e-23 0.0000000000000000e+00  -7.5951253240905978e-22 -6.0415769623447940e-23 0.0000000000000000e+00  -1.4315000265072343e-22 1.0736250198804257e-22 0.0000000000000000e+00  1.1237992282001190e-21 -6.4798389269365789e-22 0.0000000000000000e+00  -4.4573347711972145e-22 0.0000000000000000e+00 0.0000000000000000e+00  -2.1467019486101467e-22 -1.1627968888304961e-22 0.0000000000000000e+00  1.6838190047342933e-21 -1.0523868779589333e-22 0.0000000000000000e+00  -1.7577756538576702e-21 -4.9091600359995323e-22 0.0000000000000000e+00  -1.5231801554949049e-21 -1.4279813957764734e-22 0.0000000000000000e+00  3.6083216236733125e-22 -6.7656030443874612e-23 0.0000000000000000e+00  -7.0134525965301844e-22 4.3834078728313653e-23 0.0000000000000000e+00  -4.5304510776955966e-22 4.1337035409179587e-23 0.0000000000000000e+00  -4.6997907281288844e-22 1.1749476820322211e-22 0.0000000000000000e+00  -1.2268790520635931e-21 -1.5335988150794913e-23 0.0000000000000000e+00  -4.0721049386147349e-21 -1.7497325908110190e-22 0.0000000000000000e+00  -5.8218385544534100e-21 -8.5217116172642070e-23 0.0000000000000000e+00  5.6201426721308565e-22 1.5806651265368034e-22 0.0000000000000000e+00  5.1784090653901530e-22 4.2768110584695464e-23 0.0000000000000000e+00  -1.2414794722311198e-21 -9.6990583768056235e-24 0.0000000000000000e+00  8.3705724807958377e-22 -1.2441018549963325e-23 0.0000000000000000e+00  -3.4673825261422676e-21 2.1671140788389172e-23 0.0000000000000000e+00  -1.4708899491390280e-21 7.5411838212694300e-24 0.0000000000000000e+00  1.5613382175056940e-21 -1.3722699177296139e-23 0.0000000000000000e+00  5.7302766493558954e-21 -2.8042461231467608e-24 0.0000000000000000e+00  -2.1260933684373801e-21 8.3050522204585161e-24 0.0000000000000000e+00  -1.3769977011728516e-21 3.2273383621238709e-23 0.0000000000000000e+00  -3.3453007282641187e-21 -6.7204702130305950e-23 0.0000000000000000e+00  -7.0302696171203758e-22 1.2815371960321282e-23 0.0000000000000000e+00  1.0807577418439326e-21 3.3773679432622893e-23 0.0000000000000000e+00  1.1238757964307425e-21 4.8291538127883468e-23 0.0000000000000000e+00  -3.0129271053474808e-21 1.8830794408421755e-23 0.0000000000000000e+00  -1.9253073568695321e-21 8.1873607748523053e-23 0.0000000000000000e+00  -1.9145859490222511e-21 -5.9830810906945348e-23 0.0000000000000000e+00  -3.5010926095163786e-21 1.1913440129604343e-22 0.0000000000000000e+00  -6.6023013008730108e-21 6.1896574695684476e-23 0.0000000000000000e+00  -4.3557365493561691e-21 7.8759485418338045e-25 0.0000000000000000e+00  0.0000000000000000e+00 3.6804798586706739e-23 0.0000000000000000e+00  0.0000000000000000e+00 -5.0861242891535035e-23 0.0000000000000000e+00  -2.9137117334559775e-21 1.2140465556066573e-22 0.0000000000000000e+00  8.1503499944280333e-22 -1.8923137920625577e-23 0.0000000000000000e+00  1.3136904092341249e-21 -8.2105650577132805e-23 0.0000000000000000e+00  5.6872052244206099e-22 -4.4431290815786015e-24 0.0000000000000000e+00  -5.1259091281362411e-22 4.8055398076277263e-23 0.0000000000000000e+00  6.7394034640565062e-21 5.6303462777604971e-23 0.0000000000000000e+00  -8.9913164295370039e-22 2.9971054765123345e-22 0.0000000000000000e+00  -7.5597655265682187e-22 -7.0872801811577056e-23 0.0000000000000000e+00  1.9070416329012037e-22 9.5352081645060186e-23 0.0000000000000000e+00  -3.5855662139730166e-23 9.5776485924854355e-23 0.0000000000000000e+00  -1.9322453149292247e-22 7.2459199309845919e-23 0.0000000000000000e+00  -4.0723697156683327e-22 2.8633849563292964e-23 0.0000000000000000e+00  -6.4282557165449653e-22 1.0713759527574942e-22 0.0000000000000000e+00  -2.3848416548235950e-22 4.3536228051186129e-23 0.0000000000000000e+00  -2.2404531496932259e-22 8.4016993113495971e-23 0.0000000000000000e+00  9.5660117702520011e-22 3.1652244828039706e-23 0.0000000000000000e+00  9.0432712468155720e-22 5.6520445292597325e-23 0.0000000000000000e+00  4.6211152988988870e-22 5.3511171607489269e-23 0.0000000000000000e+00  -6.5128311744420568e-22 1.0854718624070094e-22 0.0000000000000000e+00  4.8596917718701097e-22 -5.0621789290313643e-23 0.0000000000000000e+00  4.6560226189338714e-22 -5.8200282736673393e-23 0.0000000000000000e+00  1.1126326799168362e-22 1.2645216806291673e-22 0.0000000000000000e+00  -3.3199345474098497e-22 6.9165303071038527e-23 0.0000000000000000e+00  2.2279162617033440e-22 3.0943281412546444e-23 0.0000000000000000e+00  -3.5044927081168024e-22 2.1903079425730015e-23 0.0000000000000000e+00  -1.0043064894506255e-21 7.8395064547961776e-23 0.0000000000000000e+00  -4.1885558376081113e-22 5.2356947970101392e-23 0.0000000000000000e+00  -2.5958016520799863e-22 4.0986341874947153e-23 0.0000000000000000e+00  2.3175430105519778e-22 -4.3453931447849587e-23 0.0000000000000000e+00  2.3314755261465475e-22 2.6883340250465291e-23 0.0000000000000000e+00  -3.8408216027754437e-22 3.2006846689795362e-23 0.0000000000000000e+00 