<?xml version="1.0"?>
<VTKFile type="UnstructuredGrid"  version="0.1"  >
<UnstructuredGrid>
<Piece  NumberOfPoints="18082" NumberOfCells="35500">
<Points>
<DataArray  type="Float64"  NumberOfComponents="3"  format="ascii">0 0 0  30 0 0  30 -10 0  0 -10 0  0.02360821169319077 0 0  0.04721642338638154 0 0  0.07206717063563725 0 0  0.09691791788489297 0 0  0.1230766011355843 0 0  0.1492352843862757 0 0  0.1767707375239038 0 0  0.204306190661532 0 0  0.2332908770901271 0 0  0.2622755635187223 0 0  0.2927857633803451 0 0  0.323295963241968 0 0  0.3554119623832387 0 0  0.3875279615245094 0 0  0.4213342730081758 0 0  0.4551405844918422 0 0  0.4907261762804851 0 0  0.526311768069128 0 0  0.5637702848355051 0 0  0.6012288016018821 0 0  0.6406588220121138 0 0  0.6800888424223455 0 0  0.721594129780935 0 0  0.7630994171395246 0 0  0.8067891887833475 0 0  0.8504789604271704 0 0  0.8964681941825949 0 0  0.9424574279380195 0 0  0.9908671465681095 0 0  1.039276865198199 0 0  1.090234462786975 0 0  1.141192060375751 0 0  1.194831641933244 0 0  1.248471223490737 0 0  1.304933942963653 0 0  1.361396662436569 0 0  1.420831104471586 0 0  1.480265546506604 0 0  1.542828113436244 0 0  1.605390680365884 0 0  1.671246013469327 0 0  1.73710134657277 0 0  1.806422752814762 0 0  1.875744159056755 0 0  1.948714057431306 0 0  2.021683955805857 0 0  2.098494373901932 0 0  2.175304791998006 0 0  2.256157866653476 0 0  2.337010941308945 0 0  2.422119443935387 0 0  2.50722794656183 0 0  2.596815840700639 0 0  2.686403734839449 0 0  2.780706776094687 0 0  2.875009817349925 0 0  2.974276175689285 0 0  3.073542534028646 0 0  3.178033441002704 0 0  3.282524347976761 0 0  3.392514777963501 0 0  3.502505207950242 0 0  3.618284608533553 0 0  3.734064009116865 0 0  3.855937062816526 0 0  3.977810116516187 0 0  4.106097541496641 0 0  4.234384966477093 0 0  4.369424362562147 0 0  4.5044637586472 0 0  4.646610489729194 0 0  4.788757220811188 0 0  4.938385356669961 0 0  5.088013492528733 0 0  5.24551679218304 0 0  5.403020091837347 0 0  5.568813038399614 0 0  5.73460598496188 0 0  5.909124878408681 0 0  6.083643771855482 0 0  6.267347873338513 0 0  6.451051974821543 0 0  6.644424714363561 0 0  6.83779745390558 0 0  7.041347702348167 0 0  7.244897950790754 0 0  7.459161368238869 0 0  7.673424785686984 0 0  7.898965226038037 0 0  8.124505666389089 0 0  8.361916654054033 0 0  8.599327641718979 0 0  8.849233942517035 0 0  9.099140243315093 0 0  9.362199507946787 0 0  9.625258772578484 0 0  9.902163261537794 0 0  10.1790677504971 0 0  10.47054616023911 0 0  10.76202456998112 0 0  11.06884394887334 0 0  11.37566332776555 0 0  11.69863109504192 0 0  12.02159886231829 0 0  12.3615649378891 0 0  12.7015310134599 0 0  13.05939003847426 0 0  13.41724906348862 0 0  13.79394276982091 0 0  14.1706364761532 0 0  14.5671561683298 0 0  14.96367586050641 0 0  15.38106501332897 0 0  15.79845416615153 0 0  16.23781117165827 0 0  16.677168177165 0 0  17.13964923659526 0 0  17.60213029602552 0 0  18.0889524622663 0 0  18.57577462850707 0 0  19.08821901304263 0 0  19.60066339757818 0 0  20.14007853843172 0 0  20.67949367928525 0 0  21.24729908993883 0 0  21.8151045005924 0 0  22.41279440541421 0 0  23.01048431023601 0 0  23.63963157605829 0 0  24.26877884188056 0 0  24.93103912515648 0 0  25.59329940843241 0 0  26.29041549584691 0 0  26.98753158326142 0 0  27.72133799026916 0 0  28.45514439727691 0 0  29.22757219863846 0 0  30 -0.3571428571428571 0  30 -0.7142857142857142 0  30 -1.071428571428571 0  30 -1.428571428571428 0  30 -1.785714285714286 0  30 -2.142857142857143 0  30 -2.5 0  30 -2.857142857142857 0  30 -3.214285714285714 0  30 -3.571428571428571 0  30 -3.928571428571428 0  30 -4.285714285714286 0  30 -4.642857142857142 0  30 -5 0  30 -5.357142857142857 0  30 -5.714285714285714 0  30 -6.071428571428571 0  30 -6.428571428571428 0  30 -6.785714285714285 0  30 -7.142857142857142 0  30 -7.5 0  30 -7.857142857142857 0  30 -8.214285714285714 0  30 -8.571428571428571 0  30 -8.928571428571427 0  30 -9.285714285714285 0  30 -9.642857142857142 0  29.22757220128658 -10 0  28.45514440257316 -10 0  27.72133799277628 -10 0  26.98753158297939 -10 0  26.29041549304805 -10 0  25.5932994031167 -10 0  24.93103911757599 -10 0  24.26877883203527 -10 0  23.63963156418132 -10 0  23.01048429632737 -10 0  22.41279438968936 -10 0  21.81510448305136 -10 0  21.24729907078059 -10 0  20.67949365850982 -10 0  20.14007851622273 -10 0  19.60066337393564 -10 0  19.08821898813588 -10 0  18.57577460233611 -10 0  18.08895243498708 -10 0  17.60213026763805 -10 0  17.13964920724307 -10 0  16.6771681468481 -10 0  16.2378111405086 -10 0  15.79845413416909 -10 0  15.38106498063496 -10 0  14.96367582710082 -10 0  14.56715613432376 -10 0  14.17063644154669 -10 0  13.79394273471576 -10 0  13.41724902788484 -10 0  13.05939000246495 -10 0  12.70153097704506 -10 0  12.36156490115379 -10 0  12.02159882526251 -10 0  11.69863105774323 -10 0  11.37566329022395 -10 0  11.06884391115945 -10 0  10.76202453209494 -10 0  10.47054612224479 -10 0  10.17906771239465 -10 0  9.902163223385379 -10 0  9.625258734376107 -10 0  9.362199469747061 -10 0  9.099140205118012 -10 0  8.849233904370102 -10 0  8.599327603622193 -10 0  8.361916616050124 -10 0  8.124505628478055 -10 0  7.898965188258209 -10 0  7.673424748038361 -10 0  7.459161330755727 -10 0  7.244897913473093 -10 0  7.041347665226496 -10 0  6.837797416979896 -10 0  6.644424677660922 -10 0  6.451051938341948 -10 0  6.26734783710581 -10 0  6.083643735869675 -10 0  5.90912484269068 -10 0  5.734605949511682 -10 0  5.568813003235423 -10 0  5.403020056959164 -10 0  5.24551675760658 -10 0  5.088013458254 -10 0  4.938385322710374 -10 0  4.788757187166745 -10 0  4.646610456411224 -10 0  4.504463725655707 -10 0  4.369424329906533 -10 0  4.234384934157362 -10 0  4.106097509520442 -10 0  3.977810084883522 -10 0  3.85593703153344 -10 0  3.734063978183357 -10 0  3.618284577954206 -10 0  3.502505177725055 -10 0  3.392514748095728 -10 0  3.282524318466404 -10 0  3.1780334118518 -10 0  3.073542505237196 -10 0  2.97427614725823 -10 0  2.875009789279265 -10 0  2.780706748384375 -10 0  2.686403707489482 -10 0  2.596815813710069 -10 0  2.507227919930656 -10 0  2.422119417661861 -10 0  2.337010915393062 -10 0  2.256157841092762 -10 0  2.175304766792465 -10 0  2.098494349048437 -10 0  2.021683931304413 -10 0  1.948714033278215 -10 0  1.875744135252013 -10 0  1.806422729354161 -10 0  1.737101323456312 -10 0  1.671245990692352 -10 0  1.605390657928396 -10 0  1.542828091333185 -10 0  1.480265524737977 -10 0  1.420831083031992 -10 0  1.36139664132601 -10 0  1.304933922176438 -10 0  1.248471203026863 -10 0  1.194831621786765 -10 0  1.14119204054667 -10 0  1.09023444350921 -10 0  1.039276846471754 -10 0  0.9908671279064798 -10 0  0.942457409341209 -10 0  0.8964681758842019 -10 0  0.8504789424271948 -10 0  0.8067891710751951 -10 0  0.7630993997231954 -10 0  0.7215941126497469 -10 0  0.6800888255762949 -10 0  0.6406588054444597 -10 0  0.6012287853126246 -10 0  0.5637702688178621 -10 0  0.5263117523230996 -10 0  0.4907261607992695 -10 0  0.4551405692754429 -10 0  0.4213342580497894 -10 0  0.3875279468241395 -10 0  0.3554119479341011 -10 0  0.3232959490440663 -10 0  0.2927857494269297 -10 0  0.2622755498097931 -10 0  0.2332908636189828 -10 0  0.2043061774281725 -10 0  0.1767707245216883 -10 0  0.1492352716152006 -10 0  0.1230765885890825 -10 0  0.09691790556296098 -10 0  0.0720671585317838 -10 0  0.04721641150060663 -10 0  0.02360820575030331 -10 0  0 -9.972067039106145 0  0 -9.94413407821229 0  0 -9.916201117318435 0  0 -9.888268156424582 0  0 -9.860335195530727 0  0 -9.832402234636872 0  0 -9.804469273743017 0  0 -9.776536312849162 0  0 -9.748603351955307 0  0 -9.720670391061452 0  0 -9.692737430167599 0  0 -9.664804469273744 0  0 -9.636871508379889 0  0 -9.608938547486034 0  0 -9.581005586592179 0  0 -9.553072625698324 0  0 -9.525139664804469 0  0 -9.497206703910614 0  0 -9.46927374301676 0  0 -9.441340782122905 0  0 -9.41340782122905 0  0 -9.385474860335195 0  0 -9.35754189944134 0  0 -9.329608938547485 0  0 -9.30167597765363 0  0 -9.273743016759777 0  0 -9.245810055865922 0  0 -9.217877094972067 0  0 -9.189944134078212 0  0 -9.162011173184357 0  0 -9.134078212290502 0  0 -9.106145251396647 0  0 -9.078212290502794 0  0 -9.050279329608939 0  0 -9.022346368715084 0  0 -8.994413407821229 0  0 -8.966480446927374 0  0 -8.938547486033519 0  0 -8.910614525139664 0  0 -8.882681564245811 0  0 -8.854748603351956 0  0 -8.826815642458101 0  0 -8.798882681564246 0  0 -8.770949720670391 0  0 -8.743016759776536 0  0 -8.715083798882681 0  0 -8.687150837988828 0  0 -8.659217877094973 0  0 -8.631284916201118 0  0 -8.603351955307263 0  0 -8.575418994413408 0  0 -8.547486033519553 0  0 -8.519553072625698 0  0 -8.491620111731844 0  0 -8.463687150837989 0  0 -8.435754189944134 0  0 -8.407821229050279 0  0 -8.379888268156424 0  0 -8.351955307262569 0  0 -8.324022346368714 0  0 -8.296089385474861 0  0 -8.268156424581006 0  0 -8.240223463687151 0  0 -8.212290502793296 0  0 -8.184357541899441 0  0 -8.156424581005586 0  0 -8.128491620111731 0  0 -8.100558659217878 0  0 -8.072625698324023 0  0 -8.044692737430168 0  0 -8.016759776536313 0  0 -7.988826815642458 0  0 -7.960893854748603 0  0 -7.932960893854748 0  0 -7.905027932960894 0  0 -7.877094972067039 0  0 -7.849162011173184 0  0 -7.82122905027933 0  0 -7.793296089385475 0  0 -7.76536312849162 0  0 -7.737430167597765 0  0 -7.709497206703911 0  0 -7.681564245810056 0  0 -7.653631284916202 0  0 -7.625698324022347 0  0 -7.597765363128492 0  0 -7.569832402234637 0  0 -7.541899441340782 0  0 -7.513966480446927 0  0 -7.486033519553073 0  0 -7.458100558659218 0  0 -7.430167597765363 0  0 -7.402234636871508 0  0 -7.374301675977653 0  0 -7.346368715083798 0  0 -7.318435754189944 0  0 -7.290502793296089 0  0 -7.262569832402235 0  0 -7.23463687150838 0  0 -7.206703910614525 0  0 -7.17877094972067 0  0 -7.150837988826815 0  0 -7.12290502793296 0  0 -7.094972067039106 0  0 -7.067039106145251 
[...]
<PointData  Vectors="displacement"> 
<DataArray  type="Float64"  Name="displacement"  NumberOfComponents="3" format="ascii">1.0000000000000003e-01 5.5695165197358940e-02 0.0000000000000000e+00  1.1488617229258185e-20 8.9478153647385501e-04 0.0000000000000000e+00  1.3319356693193257e-21 -2.0406241234007920e-23 0.0000000000000000e+00  2.1562263701716950e-23 -1.5524829865236204e-21 0.0000000000000000e+00  9.9989287636749108e-02 5.5551559989689372e-02 0.0000000000000000e+00  9.9953375345735548e-02 5.5192173463810161e-02 0.0000000000000000e+00  9.9865592726253199e-02 5.4587925054658419e-02 0.0000000000000000e+00  9.9722965452410661e-02 5.3744751077675290e-02 0.0000000000000000e+00  9.9470492294054358e-02 5.2637313553870899e-02 0.0000000000000000e+00  9.9120902120989313e-02 5.1313297570506268e-02 0.0000000000000000e+00  9.8629819061289759e-02 4.9721718209562372e-02 0.0000000000000000e+00  9.8003786965497344e-02 4.7961705206336407e-02 0.0000000000000000e+00  9.7196214286478982e-02 4.5962729451382446e-02 0.0000000000000000e+00  9.6232766721901453e-02 4.3858265254593916e-02 0.0000000000000000e+00  9.5058668066830346e-02 4.1561395212846811e-02 0.0000000000000000e+00  9.3727184709926817e-02 3.9229689046794587e-02 0.0000000000000000e+00  9.2172227718177208e-02 3.6777056998310624e-02 0.0000000000000000e+00  9.0479364771155132e-02 3.4361133689847709e-02 0.0000000000000000e+00  8.8584214095298680e-02 3.1903933168760459e-02 0.0000000000000000e+00  8.6591585443874408e-02 2.9538894111734989e-02 0.0000000000000000e+00  8.4421753560664309e-02 2.7182421073495805e-02 0.0000000000000000e+00  8.2202148925153470e-02 2.4973197044368352e-02 0.0000000000000000e+00  7.9854430263274559e-02 2.2815693284898405e-02 0.0000000000000000e+00  7.7508646172268811e-02 2.0823400764868279e-02 0.0000000000000000e+00  7.5065814313350590e-02 1.8900504438831730e-02 0.0000000000000000e+00  7.2668971951385691e-02 1.7156714484052676e-02 0.0000000000000000e+00  7.0228472177263301e-02 1.5487604958047936e-02 0.0000000000000000e+00  6.7869112457328726e-02 1.3981609451681790e-02 0.0000000000000000e+00  6.5458402868309493e-02 1.2580090182364084e-02 0.0000000000000000e+00  6.3163587863929352e-02 1.1326428419030293e-02 0.0000000000000000e+00  6.0870904821932234e-02 1.0125943531698820e-02 0.0000000000000000e+00  5.8693256462508940e-02 9.0749024429732528e-03 0.0000000000000000e+00  5.6533414288322030e-02 8.0685196552380701e-03 0.0000000000000000e+00  5.4494112521286539e-02 7.1762403468398879e-03 0.0000000000000000e+00  5.2464612492484346e-02 6.3501321680298510e-03 0.0000000000000000e+00  5.0557310447236326e-02 5.6091520293241534e-03 0.0000000000000000e+00  4.8670296758318736e-02 4.9180039830297737e-03 0.0000000000000000e+00  4.6901402048948666e-02 4.3053533919322762e-03 0.0000000000000000e+00  4.5157479941715054e-02 3.7165219462757478e-03 0.0000000000000000e+00  4.3521572652929004e-02 3.1927450878081118e-03 0.0000000000000000e+00  4.1905967681657323e-02 2.7011650926465529e-03 0.0000000000000000e+00  4.0392830131705519e-02 2.2641922579727043e-03 0.0000000000000000e+00  3.8899764139244862e-02 1.8511166822480813e-03 0.0000000000000000e+00  3.7503847847843497e-02 1.4938741285280682e-03 0.0000000000000000e+00  3.6124115390589677e-02 1.1378108853022822e-03 0.0000000000000000e+00  3.4831189085728943e-02 8.2645998190910782e-04 0.0000000000000000e+00  3.3557633030031432e-02 5.4270291050564088e-04 0.0000000000000000e+00  3.2364823108490273e-02 2.8480097370780328e-04 0.0000000000000000e+00  3.1187424597067980e-02 4.1557956588099994e-05 0.0000000000000000e+00  3.0083029113634266e-02 -1.7585963466808951e-04 0.0000000000000000e+00  2.8992277414890869e-02 -3.8152359091361154e-04 0.0000000000000000e+00  2.7968830260752947e-02 -5.6409919396152033e-04 0.0000000000000000e+00  2.6958680485178837e-02 -7.3064639060913005e-04 0.0000000000000000e+00  2.6012589481488022e-02 -8.7556291957851813e-04 0.0000000000000000e+00  2.5074920859448034e-02 -1.0193934611125394e-03 0.0000000000000000e+00  2.4195677592424365e-02 -1.1421912729981346e-03 0.0000000000000000e+00  2.3325545778441661e-02 -1.2584739404648796e-03 0.0000000000000000e+00  2.2508230000410172e-02 -1.3600923367105499e-03 0.0000000000000000e+00  2.1698245083007106e-02 -1.4522821060222206e-03 0.0000000000000000e+00  2.0938249778267463e-02 -1.5271076491437394e-03 0.0000000000000000e+00  2.0184323237814019e-02 -1.6004555750131412e-03 0.0000000000000000e+00  1.9476485687820195e-02 -1.6617370823983431e-03 0.0000000000000000e+00  1.8773445905571423e-02 -1.7158172894496434e-03 0.0000000000000000e+00  1.8112057681914220e-02 -1.7597618477546611e-03 0.0000000000000000e+00  1.7457372980962216e-02 -1.7984928946732247e-03 0.0000000000000000e+00  1.6841931132962045e-02 -1.8297300232485889e-03 0.0000000000000000e+00  1.6230489109806404e-02 -1.8524410958947184e-03 0.0000000000000000e+00  1.5657419290617522e-02 -1.8647353202296008e-03 0.0000000000000000e+00  1.5080699416686827e-02 -1.8805133662136502e-03 0.0000000000000000e+00  1.4538053144693031e-02 -1.8836499773230630e-03 0.0000000000000000e+00  1.4002877604305072e-02 -1.8803061390552090e-03 0.0000000000000000e+00  1.3498403031306014e-02 -1.8705245894007154e-03 0.0000000000000000e+00  1.2996769357572513e-02 -1.8572731311040631e-03 0.0000000000000000e+00  1.2523767709418239e-02 -1.8377707201079575e-03 0.0000000000000000e+00  1.2054707414044142e-02 -1.8114438128326066e-03 0.0000000000000000e+00  1.1612557692057390e-02 -1.7813795115399827e-03 0.0000000000000000e+00  1.1173654467967153e-02 -1.7448587298879745e-03 0.0000000000000000e+00  1.0760051658566095e-02 -1.7052050787151308e-03 0.0000000000000000e+00  1.0349479676382186e-02 -1.6595650121014828e-03 0.0000000000000000e+00  9.9628715795774623e-03 -1.6110040964295639e-03 0.0000000000000000e+00  9.5795287673944348e-03 -1.5565394883956636e-03 0.0000000000000000e+00  9.2199597794782821e-03 -1.4974835071520313e-03 0.0000000000000000e+00  8.8589581670575381e-03 -1.4377096317650571e-03 0.0000000000000000e+00  8.5199229476334397e-03 -1.3710595368826967e-03 0.0000000000000000e+00  8.1856168210610106e-03 -1.3008700501882394e-03 0.0000000000000000e+00  7.8712357623963586e-03 -1.2285892782515687e-03 0.0000000000000000e+00  7.5612036937518778e-03 -1.1493209595147269e-03 0.0000000000000000e+00  7.2700998056169598e-03 -1.0702921622260508e-03 0.0000000000000000e+00  6.9822255863098434e-03 -9.8637621421311249e-04 0.0000000000000000e+00  6.7133371310838354e-03 -9.0291937636768904e-04 0.0000000000000000e+00  6.4460223968184002e-03 -8.1443876671703015e-04 0.0000000000000000e+00  6.1974204859473331e-03 -7.2489521550463088e-04 0.0000000000000000e+00  5.9488996560461251e-03 -6.3371958455681336e-04 0.0000000000000000e+00  5.7174634206010287e-03 -5.4142789363454443e-04 0.0000000000000000e+00  5.4905336545254839e-03 -4.4610512964773051e-04 0.0000000000000000e+00  5.2777569265714643e-03 -3.5433480580941018e-04 0.0000000000000000e+00  5.0753142586115151e-03 -2.5328920165907721e-04 0.0000000000000000e+00  4.8880872544874773e-03 -1.6000732200098934e-04 0.0000000000000000e+00  4.6960774425914113e-03 -6.5334599999304602e-05 0.0000000000000000e+00  4.5188545751025794e-03 2.8291123855881809e-05 0.0000000000000000e+00  4.3476168297683308e-03 1.2227730342828489e-04 0.0000000000000000e+00  4.1894580525542440e-03 2.1345398774574300e-04 0.0000000000000000e+00  4.0340456041513062e-03 3.0420115138643804e-04 0.0000000000000000e+00  3.8913007664213694e-03 3.9059413410352036e-04 0.0000000000000000e+00  3.7497631876938077e-03 4.7431778871432256e-04 0.0000000000000000e+00  3.6192434073009667e-03 5.5393545282652441e-04 0.0000000000000000e+00  3.4913318583685042e-03 6.3176282117852060e-04 0.0000000000000000e+00  3.3729648107194816e-03 7.0431958837097078e-04 0.0000000000000000e+00  3.2571013161752146e-03 7.7391466543837791e-04 0.0000000000000000e+00  3.1497816134336402e-03 8.3775186154440046e-04 0.0000000000000000e+00  3.0436982073622238e-03 8.9772857192300004e-04 0.0000000000000000e+00  2.9458435437860653e-03 9.5200458996259419e-04 0.0000000000000000e+00  2.8451605106545120e-03 9.9990037378703688e-04 0.0000000000000000e+00  2.7506793001128220e-03 1.0428906164531369e-03 0.0000000000000000e+00  2.6588030444041075e-03 1.0822805362263261e-03 0.0000000000000000e+00  2.5708642996938153e-03 1.1144395387964055e-03 0.0000000000000000e+00  2.4828207447501684e-03 1.1418897322110510e-03 0.0000000000000000e+00  2.3978136494772796e-03 1.1627580241379653e-03 0.0000000000000000e+00  2.3123145510851764e-03 1.1796431698190874e-03 0.0000000000000000e+00  2.2293938094212437e-03 1.1902997745816127e-03 0.0000000000000000e+00  2.1433998831569020e-03 1.1959183325701828e-03 0.0000000000000000e+00  2.0600009582555814e-03 1.1970738344187527e-03 0.0000000000000000e+00  1.9714798619685464e-03 1.1935472520531302e-03 0.0000000000000000e+00  1.8844034785249367e-03 1.1864868684886834e-03 0.0000000000000000e+00  1.7979095796285607e-03 1.1773430346539919e-03 0.0000000000000000e+00  1.7110740825469876e-03 1.1630933914623998e-03 0.0000000000000000e+00  1.6167503704843772e-03 1.1455251280286980e-03 0.0000000000000000e+00  1.5246640909142746e-03 1.1260632282187987e-03 0.0000000000000000e+00  1.4289862868797031e-03 1.1078986072940869e-03 0.0000000000000000e+00  1.3343344671678703e-03 1.0835930574146873e-03 0.0000000000000000e+00  1.2364018113463653e-03 1.0635147735896487e-03 0.0000000000000000e+00  1.1373682592329293e-03 1.0407379880917088e-03 0.0000000000000000e+00  1.0307711095482400e-03 1.0167908786664476e-03 0.0000000000000000e+00  9.2605785760678711e-04 9.9476305665074775e-04 0.0000000000000000e+00  8.1775355953843420e-04 9.7519621634327143e-04 0.0000000000000000e+00  7.0937897946056515e-04 9.5643606285944504e-04 0.0000000000000000e+00  5.9631325061306622e-04 9.3919146745405900e-04 0.0000000000000000e+00  4.8369302401848506e-04 9.2424392541633844e-04 0.0000000000000000e+00  3.6435583377486872e-04 9.1272308437407234e-04 0.0000000000000000e+00  2.4525593597291814e-04 9.0240585742204645e-04 0.0000000000000000e+00  1.2291980065162931e-04 9.0053088337386730e-04 0.0000000000000000e+00  -6.6825198854191354e-21 8.5580646003550174e-04 0.0000000000000000e+00  -4.3070928948990579e-21 8.0588289758819025e-04 0.0000000000000000e+00  3.8633318087579411e-21 7.5433421135250945e-04 0.0000000000000000e+00  9.7616217680955795e-21 7.0395239652345555e-04 0.0000000000000000e+00  -2.6490016353210783e-21 6.5447663192406849e-04 0.0000000000000000e+00  3.0561790760192788e-21 6.0585828463912306e-04 0.0000000000000000e+00  -4.0627346121282686e-21 5.5836891835339610e-04 0.0000000000000000e+00  -2.4528202069986732e-20 5.1212991488117760e-04 0.0000000000000000e+00  2.4166102556067187e-20 4.6722378992239871e-04 0.0000000000000000e+00  6.5116803397131556e-21 4.2371799680654832e-04 0.0000000000000000e+00  -1.3312592199571177e-21 3.8162025523528543e-04 0.0000000000000000e+00  -8.7173144773621880e-22 3.4124873749284039e-04 0.0000000000000000e+00  -5.8203919623392434e-21 3.0236972558290548e-04 0.0000000000000000e+00  3.8598701205518905e-21 2.6531886053641265e-04 0.0000000000000000e+00  1.2695145027665118e-21 2.3017339788950790e-04 0.0000000000000000e+00  -3.6741577095051284e-21 1.9700604319101059e-04 0.0000000000000000e+00  1.8915777479691895e-21 1.6620061099558074e-04 0.0000000000000000e+00  3.2219418592470573e-21 1.3774639663984695e-04 0.0000000000000000e+00  1.9610366443953734e-21 1.1165540089092347e-04 0.0000000000000000e+00  5.8866745860692790e-21 8.8030155888401860e-05 0.0000000000000000e+00  2.5958287962735112e-21 6.6606441559472450e-05 0.0000000000000000e+00  -2.4744256167220011e-21 4.8123007769756667e-05 0.0000000000000000e+00  4.7047128114831638e-22 3.2665210884317008e-05 0.0000000000000000e+00  -3.6993497493778892e-22 2.0176280399635830e-05 0.0000000000000000e+00  -3.0537462573976789e-21 1.1180728806571120e-05 0.0000000000000000e+00  1.4227020181957519e-21 5.2721416212269963e-06 0.0000000000000000e+00  2.2489321964509414e-21 7.3328282787876132e-07 0.0000000000000000e+00  -8.9121719438856611e-22 -2.5993834836333177e-22 0.0000000000000000e+00  1.8153420021967802e-21 -4.0863915429532704e-22 0.0000000000000000e+00  1.9385283601043103e-21 0.0000000000000000e+00 0.0000000000000000e+00  6.9451620731382174e-21 -8.4865025004338774e-22 0.0000000000000000e+00  2.1542051440099546e-20 2.0195673225093324e-22 0.0000000000000000e+00  2.8210415636597047e-21 -5.2894529318619459e-23 0.0000000000000000e+00  -3.1603605985553300e-20 -4.2326258016366032e-22 0.0000000000000000e+00  -2.5604401225687052e-20 4.4943656706489474e-23 0.0000000000000000e+00  5.5372573209504770e-20 -1.1535952751980162e-21 0.0000000000000000e+00  -1.1138328893488089e-20 1.0790256115566586e-21 0.0000000000000000e+00  3.6997616824420325e-20 3.1794826958486216e-21 0.0000000000000000e+00  7.4874969387116744e-21 -9.6843702419316609e-22 0.0000000000000000e+00  -3.1248426674547400e-20 0.0000000000000000e+00 0.0000000000000000e+00  2.4643304239562778e-20 -3.2087635728597367e-23 0.0000000000000000e+00  -3.4059926054156950e-20 -6.9184224797506299e-22 0.0000000000000000e+00  -5.6683668815919364e-20 -5.5573508820464587e-22 0.0000000000000000e+00  3.7334722837752239e-20 8.7503256650981818e-23 0.0000000000000000e+00  1.8103075908435417e-20 2.6321746655060175e-22 0.0000000000000000e+00  1.6927333701157821e-20 4.3806088191472877e-22 0.0000000000000000e+00  1.5198768882982365e-22 6.5051070408787716e-23 0.0000000000000000e+00  4.0639164876965049e-20 -3.9686684450161180e-22 0.0000000000000000e+00  -4.2348431228209782e-20 1.0338972467824654e-22 0.0000000000000000e+00  -1.0711184454574377e-20 -3.3472451420544927e-22 0.0000000000000000e+00  1.8588683252413714e-20 2.5874391672317169e-22 0.0000000000000000e+00  -3.9516705649272479e-20 3.0872426288494124e-22 0.0000000000000000e+00  -4.8586622911708359e-20 5.9046243121867802e-22 0.0000000000000000e+00  5.1041745978347087e-20 7.9752728091167323e-22 0.0000000000000000e+00  -5.3868987336262903e-20 5.1080573182213379e-22 0.0000000000000000e+00  -5.2627887888970963e-20 -1.2334661223977570e-21 0.0000000000000000e+00  -1.1891508589795216e-20 1.0862435731062937e-21 0.0000000000000000e+00  2.4991433305128295e-20 1.0413097210470123e-21 0.0000000000000000e+00  1.7943362398060491e-20 5.9471371584480792e-22 0.0000000000000000e+00  3.6462669004874421e-20 -2.2789168128046513e-21 0.0000000000000000e+00  2.6867665850647600e-20 1.4601992310134565e-22 0.0000000000000000e+00  9.5697764275436710e-21 -1.1962220534429589e-21 0.0000000000000000e+00  3.5657558598480912e-20 -2.0903286661623741e-21 0.0000000000000000e+00  1.9993763881528358e-20 6.2480512129776120e-22 0.0000000000000000e+00  1.3473871445446999e-20 -2.7560191592959771e-21 0.0000000000000000e+00  -1.9698772881120082e-20 -1.1696146398165048e-20 0.0000000000000000e+00  2.0585293659204194e-20 -1.2990244534053789e-20 0.0000000000000000e+00  0.0000000000000000e+00 -2.4124444827147077e-21 0.0000000000000000e+00  -9.4050251499512425e-21 -1.4962540011286068e-21 0.0000000000000000e+00  -7.3703639524117474e-21 9.2129549405146842e-22 0.0000000000000000e+00  1.3761495272519567e-22 6.0942358346116172e-21 0.0000000000000000e+00  4.9865748229077783e-21 2.0996104517506434e-21 0.0000000000000000e+00  -6.9046593855369073e-21 1.5190250648181196e-21 0.0000000000000000e+00  -1.0306800190852087e-20 5.7260001060289372e-21 0.0000000000000000e+00  3.7549657796338233e-21 2.6412640043376685e-21 0.0000000000000000e+00  1.4263471267831086e-20 0.0000000000000000e+00 0.0000000000000000e+00  -1.1449077059254114e-21 1.0017942426847351e-21 0.0000000000000000e+00  -4.4901840126247825e-21 1.1225460031561956e-21 0.0000000000000000e+00  -1.2679652328614704e-20 -7.4465678862058534e-21 0.0000000000000000e+00  -1.8278161865938859e-20 -7.6159007774745247e-22 0.0000000000000000e+00  -8.6599718968159504e-21 -5.2320663543263028e-21 0.0000000000000000e+00  -6.7329144926689773e-20 -2.1040357789590554e-21 0.0000000000000000e+00  3.1681134175219839e-21 -1.4622212359760416e-21 0.0000000000000000e+00  4.5117990990037291e-20 -1.4099372184386653e-21 0.0000000000000000e+00  -1.3741045383112241e-20 -1.2268790520635931e-21 0.0000000000000000e+00  6.5153679017835759e-20 -3.0540787039610512e-21 0.0000000000000000e+00  -2.8472754594776751e-21 3.5835099681607931e-22 0.0000000000000000e+00  7.1937826203274964e-20 2.8100713360654283e-22 0.0000000000000000e+00  1.4203636293641562e-20 -1.0726704492593889e-21 0.0000000000000000e+00  9.9318357778489584e-21 1.2414794722311198e-21 0.0000000000000000e+00  3.7238839524320993e-20 4.5936068492172284e-22 0.0000000000000000e+00  1.1095624083655256e-20 6.9347650522845352e-22 0.0000000000000000e+00  -1.9121569338807364e-20 2.5855487387209478e-23 0.0000000000000000e+00  2.4981411480091105e-20 9.7583638594105878e-23 0.0000000000000000e+00  3.7740345538487149e-20 -4.5669151148390105e-23 0.0000000000000000e+00  -6.8034987789996161e-21 2.5247358750193889e-22 0.0000000000000000e+00  3.4883941763045573e-20 -5.7374904215535482e-23 0.0000000000000000e+00  -2.2939204993811099e-20 -7.7658766906131321e-22 0.0000000000000000e+00  -1.4511306193215226e-20 -3.4207764152313912e-22 0.0000000000000000e+00  0.0000000000000000e+00 0.0000000000000000e+00 0.0000000000000000e+00  -1.2362633760738168e-20 1.4048447455384282e-22 0.0000000000000000e+00  -3.8565466948447754e-20 -6.0258542106949616e-22 0.0000000000000000e+00  -5.5232958403029184e-21 7.7024937970999177e-22 0.0000000000000000e+00  6.1266750368712037e-20 -9.5729297451112557e-22 0.0000000000000000e+00  6.2241646391402284e-21 -7.7802057989252856e-23 0.0000000000000000e+00  -2.1127364162793635e-20 2.9710355853928551e-21 0.0000000000000000e+00  -9.5374862723671447e-20 1.2572027585970264e-21 0.0000000000000000e+00  -1.8844056876393850e-20 -1.4721919434682696e-22 0.0000000000000000e+00  2.1700796967054950e-20 -6.1033491469842044e-22 0.0000000000000000e+00  0.0000000000000000e+00 1.4568558667279888e-21 0.0000000000000000e+00  2.5408115210511842e-20 -9.3917488122790852e-22 0.0000000000000000e+00  0.0000000000000000e+00 -3.2842260230853122e-22 0.0000000000000000e+00  0.0000000000000000e+00 2.1327019591577285e-21 0.0000000000000000e+00  8.2014546050179857e-21 -3.0755454768817448e-21 0.0000000000000000e+00  1.8012896169262466e-20 1.6997790717531735e-21 0.0000000000000000e+00  -3.8362950099357881e-20 2.3976843812098676e-21 0.0000000000000000e+00  -6.0478124212545749e-21 8.3997394739646874e-23 0.0000000000000000e+00  -1.8307599675851557e-20 0.0000000000000000e+00 0.0000000000000000e+00  2.1018022043353560e-21 1.2450943170231067e-21 0.0000000000000000e+00  9.2747775116602776e-21 1.5457962519433797e-21 0.0000000000000000e+00  -2.2805270407742664e-20 2.0361848578341665e-21 0.0000000000000000e+00  -3.4284030488239815e-21 2.5713022866179861e-21 0.0000000000000000e+00  2.0808172366691049e-20 7.3432534407517886e-22 0.0000000000000000e+00  7.1694500790183228e-21 0.0000000000000000e+00 0.0000000000000000e+00  -5.4019831173187770e-21 7.8778920460898828e-22 0.0000000000000000e+00  -2.5321159491083601e-20 0.0000000000000000e+00 0.0000000000000000e+00  -8.0681685550275793e-21 6.8866434116410297e-22 0.0000000000000000e+00  -1.0420529879107291e-20 8.6837748992560751e-22 0.0000000000000000e+00  4.9244876621617110e-21 0.0000000000000000e+00 0.0000000000000000e+00  -2.4832120634313983e-21 1.2416060317156992e-21 0.0000000000000000e+00  1.3609254463824879e-20 1.3820069076861753e-21 0.0000000000000000e+00  0.0000000000000000e+00 -4.4265793965464659e-22 0.0000000000000000e+00  -4.7528880249671335e-21 -4.9509250260074310e-22 0.0000000000000000e+00  -1.1214376665973768e-20 -1.4017970832467209e-21 0.0000000000000000e+00  -3.9796226800107801e-20 -1.5514759829339726e-21 0.0000000000000000e+00  -1.3403378680345956e-20 -4.1885558376081113e-22 0.0000000000000000e+00  1.3115629399983089e-21 7.1042992583241732e-22 0.0000000000000000e+00  -3.7080688168831645e-21 -6.9526290316559340e-22 0.0000000000000000e+00  4.0044281689896621e-21 -7.3845918705702895e-22 0.0000000000000000e+00  -6.1453145644407099e-21 0.0000000000000000e+00 0.0000000000000000e+00  -5.8843183601747984e-21 4.01203524557372