<?xml version="1.0"?>
<VTKFile type="UnstructuredGrid"  version="0.1"  >
<UnstructuredGrid>
<Piece  NumberOfPoints="18082" NumberOfCells="35500">
<Points>
<DataArray  type="Float64"  NumberOfComponents="3"  format="ascii">0 0 0  30 0 0  30 -10 0  0 -10 0  0.02360821169319077 0 0  0.04721642338638154 0 0  0.07206717063563725 0 0  0.09691791788489297 0 0  0.1230766011355843 0 0  0.1492352843862757 0 0  0.1767707375239038 0 0  0.204306190661532 0 0  0.2332908770901271 0 0  0.2622755635187223 0 0  0.2927857633803451 0 0  0.323295963241968 0 0  0.3554119623832387 0 0  0.3875279615245094 0 0  0.4213342730081758 0 0  0.4551405844918422 0 0  0.4907261762804851 0 0  0.526311768069128 0 0  0.5637702848355051 0 0  0.6012288016018821 0 0  0.6406588220121138 0 0  0.6800888424223455 0 0  0.721594129780935 0 0  0.7630994171395246 0 0  0.8067891887833475 0 0  0.8504789604271704 0 0  0.8964681941825949 0 0  0.9424574279380195 0 0  0.9908671465681095 0 0  1.039276865198199 0 0  1.090234462786975 0 0  1.141192060375751 0 0  1.194831641933244 0 0  1.248471223490737 0 0  1.304933942963653 0 0  1.361396662436569 0 0  1.420831104471586 0 0  1.480265546506604 0 0  1.542828113436244 0 0  1.605390680365884 0 0  1.671246013469327 0 0  1.73710134657277 0 0  1.806422752814762 0 0  1.875744159056755 0 0  1.948714057431306 0 0  2.021683955805857 0 0  2.098494373901932 0 0  2.175304791998006 0 0  2.256157866653476 0 0  2.337010941308945 0 0  2.422119443935387 0 0  2.50722794656183 0 0  2.596815840700639 0 0  2.686403734839449 0 0  2.780706776094687 0 0  2.875009817349925 0 0  2.974276175689285 0 0  3.073542534028646 0 0  3.178033441002704 0 0  3.282524347976761 0 0  3.392514777963501 0 0  3.502505207950242 0 0  3.618284608533553 0 0  3.734064009116865 0 0  3.855937062816526 0 0  3.977810116516187 0 0  4.106097541496641 0 0  4.234384966477093 0 0  4.369424362562147 0 0  4.5044637586472 0 0  4.646610489729194 0 0  4.788757220811188 0 0  4.938385356669961 0 0  5.088013492528733 0 0  5.24551679218304 0 0  5.403020091837347 0 0  5.568813038399614 0 0  5.73460598496188 0 0  5.909124878408681 0 0  6.083643771855482 0 0  6.267347873338513 0 0  6.451051974821543 0 0  6.644424714363561 0 0  6.83779745390558 0 0  7.041347702348167 0 0  7.244897950790754 0 0  7.459161368238869 0 0  7.673424785686984 0 0  7.898965226038037 0 0  8.124505666389089 0 0  8.361916654054033 0 0  8.599327641718979 0 0  8.849233942517035 0 0  9.099140243315093 0 0  9.362199507946787 0 0  9.625258772578484 0 0  9.902163261537794 0 0  10.1790677504971 0 0  10.47054616023911 0 0  10.76202456998112 0 0  11.06884394887334 0 0  11.37566332776555 0 0  11.69863109504192 0 0  12.02159886231829 0 0  12.3615649378891 0 0  12.7015310134599 0 0  13.05939003847426 0 0  13.41724906348862 0 0  13.79394276982091 0 0  14.1706364761532 0 0  14.5671561683298 0 0  14.96367586050641 0 0  15.38106501332897 0 0  15.79845416615153 0 0  16.23781117165827 0 0  16.677168177165 0 0  17.13964923659526 0 0  17.60213029602552 0 0  18.0889524622663 0 0  18.57577462850707 0 0  19.08821901304263 0 0  19.60066339757818 0 0  20.14007853843172 0 0  20.67949367928525 0 0  21.24729908993883 0 0  21.8151045005924 0 0  22.41279440541421 0 0  23.01048431023601 0 0  23.63963157605829 0 0  24.26877884188056 0 0  24.93103912515648 0 0  25.59329940843241 0 0  26.29041549584691 0 0  26.98753158326142 0 0  27.72133799026916 0 0  28.45514439727691 0 0  29.22757219863846 0 0  30 -0.3571428571428571 0  30 -0.7142857142857142 0  30 -1.071428571428571 0  30 -1.428571428571428 0  30 -1.785714285714286 0  30 -2.142857142857143 0  30 -2.5 0  30 -2.857142857142857 0  30 -3.214285714285714 0  30 -3.571428571428571 0  30 -3.928571428571428 0  30 -4.285714285714286 0  30 -4.642857142857142 0  30 -5 0  30 -5.357142857142857 0  30 -5.714285714285714 0  30 -6.071428571428571 0  30 -6.428571428571428 0  30 -6.785714285714285 0  30 -7.142857142857142 0  30 -7.5 0  30 -7.857142857142857 0  30 -8.214285714285714 0  30 -8.571428571428571 0  30 -8.928571428571427 0  30 -9.285714285714285 0  30 -9.642857142857142 0  29.22757220128658 -10 0  28.45514440257316 -10 0  27.72133799277628 -10 0  26.98753158297939 -10 0  26.29041549304805 -10 0  25.5932994031167 -10 0  24.93103911757599 -10 0  24.26877883203527 -10 0  23.63963156418132 -10 0  23.01048429632737 -10 0  22.41279438968936 -10 0  21.81510448305136 -10 0  21.24729907078059 -10 0  20.67949365850982 -10 0  20.14007851622273 -10 0  19.60066337393564 -10 0  19.08821898813588 -10 0  18.57577460233611 -10 0  18.08895243498708 -10 0  17.60213026763805 -10 0  17.13964920724307 -10 0  16.6771681468481 -10 0  16.2378111405086 -10 0  15.79845413416909 -10 0  15.38106498063496 -10 0  14.96367582710082 -10 0  14.56715613432376 -10 0  14.17063644154669 -10 0  13.79394273471576 -10 0  13.41724902788484 -10 0  13.05939000246495 -10 0  12.70153097704506 -10 0  12.36156490115379 -10 0  12.02159882526251 -10 0  11.69863105774323 -10 0  11.37566329022395 -10 0  11.06884391115945 -10 0  10.76202453209494 -10 0  10.47054612224479 -10 0  10.17906771239465 -10 0  9.902163223385379 -10 0  9.625258734376107 -10 0  9.362199469747061 -10 0  9.099140205118012 -10 0  8.849233904370102 -10 0  8.599327603622193 -10 0  8.361916616050124 -10 0  8.124505628478055 -10 0  7.898965188258209 -10 0  7.673424748038361 -10 0  7.459161330755727 -10 0  7.244897913473093 -10 0  7.041347665226496 -10 0  6.837797416979896 -10 0  6.644424677660922 -10 0  6.451051938341948 -10 0  6.26734783710581 -10 0  6.083643735869675 -10 0  5.90912484269068 -10 0  5.734605949511682 -10 0  5.568813003235423 -10 0  5.403020056959164 -10 0  5.24551675760658 -10 0  5.088013458254 -10 0  4.938385322710374 -10 0  4.788757187166745 -10 0  4.646610456411224 -10 0  4.504463725655707 -10 0  4.369424329906533 -10 0  4.234384934157362 -10 0  4.106097509520442 -10 0  3.977810084883522 -10 0  3.85593703153344 -10 0  3.734063978183357 -10 0  3.618284577954206 -10 0  3.502505177725055 -10 0  3.392514748095728 -10 0  3.282524318466404 -10 0  3.1780334118518 -10 0  3.073542505237196 -10 0  2.97427614725823 -10 0  2.875009789279265 -10 0  2.780706748384375 -10 0  2.686403707489482 -10 0  2.596815813710069 -10 0  2.507227919930656 -10 0  2.422119417661861 -10 0  2.337010915393062 -10 0  2.256157841092762 -10 0  2.175304766792465 -10 0  2.098494349048437 -10 0  2.021683931304413 -10 0  1.948714033278215 -10 0  1.875744135252013 -10 0  1.806422729354161 -10 0  1.737101323456312 -10 0  1.671245990692352 -10 0  1.605390657928396 -10 0  1.542828091333185 -10 0  1.480265524737977 -10 0  1.420831083031992 -10 0  1.36139664132601 -10 0  1.304933922176438 -10 0  1.248471203026863 -10 0  1.194831621786765 -10 0  1.14119204054667 -10 0  1.09023444350921 -10 0  1.039276846471754 -10 0  0.9908671279064798 -10 0  0.942457409341209 -10 0  0.8964681758842019 -10 0  0.8504789424271948 -10 0  0.8067891710751951 -10 0  0.7630993997231954 -10 0  0.7215941126497469 -10 0  0.6800888255762949 -10 0  0.6406588054444597 -10 0  0.6012287853126246 -10 0  0.5637702688178621 -10 0  0.5263117523230996 -10 0  0.4907261607992695 -10 0  0.4551405692754429 -10 0  0.4213342580497894 -10 0  0.3875279468241395 -10 0  0.3554119479341011 -10 0  0.3232959490440663 -10 0  0.2927857494269297 -10 0  0.2622755498097931 -10 0  0.2332908636189828 -10 0  0.2043061774281725 -10 0  0.1767707245216883 -10 0  0.1492352716152006 -10 0  0.1230765885890825 -10 0  0.09691790556296098 -10 0  0.0720671585317838 -10 0  0.04721641150060663 -10 0  0.02360820575030331 -10 0  0 -9.972067039106145 0  0 -9.94413407821229 0  0 -9.916201117318435 0  0 -9.888268156424582 0  0 -9.860335195530727 0  0 -9.832402234636872 0  0 -9.804469273743017 0  0 -9.776536312849162 0  0 -9.748603351955307 0  0 -9.720670391061452 0  0 -9.692737430167599 0  0 -9.664804469273744 0  0 -9.636871508379889 0  0 -9.608938547486034 0  0 -9.581005586592179 0  0 -9.553072625698324 0  0 -9.525139664804469 0  0 -9.497206703910614 0  0 -9.46927374301676 0  0 -9.441340782122905 0  0 -9.41340782122905 0  0 -9.385474860335195 0  0 -9.35754189944134 0  0 -9.329608938547485 0  0 -9.30167597765363 0  0 -9.273743016759777 0  0 -9.245810055865922 0  0 -9.217877094972067 0  0 -9.189944134078212 0  0 -9.162011173184357 0  0 -9.134078212290502 0  0 -9.106145251396647 0  0 -9.078212290502794 0  0 -9.050279329608939 0  0 -9.022346368715084 0  0 -8.994413407821229 0  0 -8.966480446927374 0  0 -8.938547486033519 0  0 -8.910614525139664 0  0 -8.882681564245811 0  0 -8.854748603351956 0  0 -8.826815642458101 0  0 -8.798882681564246 0  0 -8.770949720670391 0  0 -8.743016759776536 0  0 -8.715083798882681 0  0 -8.687150837988828 0  0 -8.659217877094973 0  0 -8.631284916201118 0  0 -8.603351955307263 0  0 -8.575418994413408 0  0 -8.547486033519553 0  0 -8.519553072625698 0  0 -8.491620111731844 0  0 -8.463687150837989 0  0 -8.435754189944134 0  0 -8.407821229050279 0  0 -8.379888268156424 0  0 -8.351955307262569 0  0 -8.324022346368714 0  0 -8.296089385474861 0  0 -8.268156424581006 0  0 -8.240223463687151 0  0 -8.212290502793296 0  0 -8.184357541899441 0  0 -8.156424581005586 0  0 -8.128491620111731 0  0 -8.100558659217878 0  0 -8.072625698324023 0  0 -8.044692737430168 0  0 -8.016759776536313 0  0 -7.988826815642458 0  0 -7.960893854748603 0  0 -7.932960893854748 0  0 -7.905027932960894 0  0 -7.877094972067039 0  0 -7.849162011173184 0  0 -7.82122905027933 0  0 -7.793296089385475 0  0 -7.76536312849162 0  0 -7.737430167597765 0  0 -7.709497206703911 0  0 -7.681564245810056 0  0 -7.653631284916202 0  0 -7.625698324022347 0  0 -7.597765363128492 0  0 -7.569832402234637 0  0 -7.541899441340782 0  0 -7.513966480446927 0  0 -7.486033519553073 0  0 -7.458100558659218 0  0 -7.430167597765363 0  0 -7.402234636871508 0  0 -7.374301675977653 0  0 -7.346368715083798 0  0 -7.318435754189944 0  0 -7.290502793296089 0  0 -7.262569832402235 0  0 -7.23463687150838 0  0 -7.206703910614525 0  0 -7.17877094972067 0  0 -7.150837988826815 0  0 -7.12290502793296 0  0 -7.094972067039106 0  0 -7.067039106145251 
[...]
<PointData  Vectors="displacement"> 
<DataArray  type="Float64"  Name="displacement"  NumberOfComponents="3" format="ascii">1.0000000000000006e-01 5.7953496422145229e-02 0.0000000000000000e+00  9.4725858404700896e-21 1.6371313419476677e-04 0.0000000000000000e+00  -1.7105507324474434e-22 3.8261702313764847e-23 0.0000000000000000e+00  -2.6952829627146187e-24 -8.6249054806867800e-23 0.0000000000000000e+00  9.8774261352129578e-02 5.3773708993600823e-02 0.0000000000000000e+00  9.5050230854076101e-02 4.5325714782599349e-02 0.0000000000000000e+00  8.8520155307391199e-02 3.5582387881767048e-02 0.0000000000000000e+00  8.0944607772433744e-02 2.7083646306810830e-02 0.0000000000000000e+00  7.2965251671719647e-02 1.9965447868489829e-02 0.0000000000000000e+00  6.5582186134726897e-02 1.4767725715044295e-02 0.0000000000000000e+00  5.8709878967099935e-02 1.0822227328296040e-02 0.0000000000000000e+00  5.2757738556235709e-02 7.9865420917914400e-03 0.0000000000000000e+00  4.7385244510952641e-02 5.8582886688054890e-03 0.0000000000000000e+00  4.2829124836008349e-02 4.3315457734020004e-03 0.0000000000000000e+00  3.8761522186482385e-02 3.2158636055085827e-03 0.0000000000000000e+00  3.5331388677040179e-02 2.4141498330923568e-03 0.0000000000000000e+00  3.2274111517533614e-02 1.8103492188247861e-03 0.0000000000000000e+00  2.9680972561332421e-02 1.3815420127228622e-03 0.0000000000000000e+00  2.7352656974281790e-02 1.0122997864123128e-03 0.0000000000000000e+00  2.5353928393770091e-02 7.6129375576909999e-04 0.0000000000000000e+00  2.3546443324540197e-02 5.4083340684341519e-04 0.0000000000000000e+00  2.1976997302080394e-02 3.7146396642218847e-04 0.0000000000000000e+00  2.0525281720311199e-02 2.1481188822731616e-04 0.0000000000000000e+00  1.9251324024740217e-02 1.0360630046590966e-04 0.0000000000000000e+00  1.8072668722386231e-02 6.1207172919010921e-06 0.0000000000000000e+00  1.7030539059501217e-02 -6.8381907820568185e-05 0.0000000000000000e+00  1.6052272566485528e-02 -1.5203152503972010e-04 0.0000000000000000e+00  1.5177801925796874e-02 -2.2061559970741785e-04 0.0000000000000000e+00  1.4354284198462419e-02 -2.5494579546508705e-04 0.0000000000000000e+00  1.3620773883165630e-02 -2.9336228615890200e-04 0.0000000000000000e+00  1.2914967430971402e-02 -3.4285156968172879e-04 0.0000000000000000e+00  1.2281602254970185e-02 -3.7426213797658783e-04 0.0000000000000000e+00  1.1671614840889579e-02 -4.0918318012200079e-04 0.0000000000000000e+00  1.1119111505743748e-02 -4.3411311334159801e-04 0.0000000000000000e+00  1.0593738999370727e-02 -4.5363856686715648e-04 0.0000000000000000e+00  1.0114490281412669e-02 -4.7293702354096707e-04 0.0000000000000000e+00  9.6535479619600361e-03 -4.8937927069285633e-04 0.0000000000000000e+00  9.2325590353283301e-03 -5.0273326369232893e-04 0.0000000000000000e+00  8.8244671241627069e-03 -5.1957353200620955e-04 0.0000000000000000e+00  8.4502922025352870e-03 -5.3385120846045214e-04 0.0000000000000000e+00  8.0867956671120018e-03 -5.4494273962674730e-04 0.0000000000000000e+00  7.7529060729407970e-03 -5.5411093608407670e-04 0.0000000000000000e+00  7.4282386441537869e-03 -5.6298022810834323e-04 0.0000000000000000e+00  7.1303190210139080e-03 -5.6720096811871303e-04 0.0000000000000000e+00  6.8361451966439746e-03 -5.7661394014104771e-04 0.0000000000000000e+00  6.5643118265435781e-03 -5.8136449757750753e-04 0.0000000000000000e+00  6.3018113104830308e-03 -5.8337142276088290e-04 0.0000000000000000e+00  6.0582969158389042e-03 -5.8625819951063640e-04 0.0000000000000000e+00  5.8200093332596648e-03 -5.8873578112758585e-04 0.0000000000000000e+00  5.5982016318871716e-03 -5.9078104401878977e-04 0.0000000000000000e+00  5.3805826702889685e-03 -5.9267456661544202e-04 0.0000000000000000e+00  5.1778196175043482e-03 -5.9348652182958849e-04 0.0000000000000000e+00  4.9796047138352369e-03 -5.9247896837904483e-04 0.0000000000000000e+00  4.7954571412790531e-03 -5.9051254866388436e-04 0.0000000000000000e+00  4.6128567062740959e-03 -5.9039016165867114e-04 0.0000000000000000e+00  4.4430980066570147e-03 -5.8862178701360739e-04 0.0000000000000000e+00  4.2755264060794591e-03 -5.8667662416917235e-04 0.0000000000000000e+00  4.1190172354949491e-03 -5.8417108370157982e-04 0.0000000000000000e+00  3.9646093538240629e-03 -5.8073031104809842e-04 0.0000000000000000e+00  3.8206792474759724e-03 -5.7574571602029656e-04 0.0000000000000000e+00  3.6776485305812429e-03 -5.7170078853273614e-04 0.0000000000000000e+00  3.5442494136306603e-03 -5.6711879281632217e-04 0.0000000000000000e+00  3.4118939975456473e-03 -5.6143399548439453e-04 0.0000000000000000e+00  3.2877598926482291e-03 -5.5517787229774924e-04 0.0000000000000000e+00  3.1654490065765872e-03 -5.4865058595996363e-04 0.0000000000000000e+00  3.0510707005920313e-03 -5.4218694552905246e-04 0.0000000000000000e+00  2.9375301297443986e-03 -5.3418775224476831e-04 0.0000000000000000e+00  2.8317833844325973e-03 -5.2576293756097811e-04 0.0000000000000000e+00  2.7240394114330640e-03 -5.1868519455267569e-04 0.0000000000000000e+00  2.6230395431287809e-03 -5.0920914339323982e-04 0.0000000000000000e+00  2.5243717148932280e-03 -4.9923903276774464e-04 0.0000000000000000e+00  2.4315466319072476e-03 -4.8868228389206539e-04 0.0000000000000000e+00  2.3392359561036284e-03 -4.7801625608368475e-04 0.0000000000000000e+00  2.2523401440892759e-03 -4.6675251728508425e-04 0.0000000000000000e+00  2.1663791006544530e-03 -4.5442387692998986e-04 0.0000000000000000e+00  2.0854375476308030e-03 -4.4213624311520352e-04 0.0000000000000000e+00  2.0051835344743934e-03 -4.2873084357341554e-04 0.0000000000000000e+00  1.9296284850133098e-03 -4.1538724364255830e-04 0.0000000000000000e+00  1.8547124189425455e-03 -4.0100460992687409e-04 0.0000000000000000e+00  1.7842656914151952e-03 -3.8658214298231957e-04 0.0000000000000000e+00  1.7145689351867218e-03 -3.7119422660807631e-04 0.0000000000000000e+00  1.6494593288965242e-03 -3.5546571880099904e-04 0.0000000000000000e+00  1.5835133147928653e-03 -3.3997523508469781e-04 0.0000000000000000e+00  1.5217247132907647e-03 -3.2299688212922479e-04 0.0000000000000000e+00  1.4610828105660575e-03 -3.0573305319152598e-04 0.0000000000000000e+00  1.4041619128823278e-03 -2.8827512636822838e-04 0.0000000000000000e+00  1.3482321705556115e-03 -2.6961503923879121e-04 0.0000000000000000e+00  1.2956928140351737e-03 -2.5145736780344760e-04 0.0000000000000000e+00  1.2437509226351545e-03 -2.3231990839867105e-04 0.0000000000000000e+00  1.1954470911127038e-03 -2.1374242681809779e-04 0.0000000000000000e+00  1.1472922747975626e-03 -1.9412259445259855e-04 0.0000000000000000e+00  1.1027329007616208e-03 -1.7471635862222176e-04 0.0000000000000000e+00  1.0578879270770683e-03 -1.5510469261117524e-04 0.0000000000000000e+00  1.0162396534492131e-03 -1.3531842705022501e-04 0.0000000000000000e+00  9.7549778694885317e-04 -1.1505717310026159e-04 0.0000000000000000e+00  9.3714486430206297e-04 -9.5506491246343466e-05 0.0000000000000000e+00  9.0152713630250894e-04 -7.4073121363757484e-05 0.0000000000000000e+00  8.6863056637429188e-04 -5.4994668023636566e-05 0.0000000000000000e+00  8.3415549837570642e-04 -3.5567137433473741e-05 0.0000000000000000e+00  8.0243460219156678e-04 -1.6182743119639244e-05 0.0000000000000000e+00  7.7210263559015634e-04 3.1342399774383121e-06 0.0000000000000000e+00  7.4422744107395641e-04 2.1768021550598737e-05 0.0000000000000000e+00  7.1676322987807082e-04 4.0189268655453933e-05 0.0000000000000000e+00  6.9166717758886416e-04 5.7689373573162574e-05 0.0000000000000000e+00  6.6671801290434638e-04 7.4612373275697539e-05 0.0000000000000000e+00  6.4381084053922229e-04 9.0679127055633650e-05 0.0000000000000000e+00  6.2139716497902717e-04 1.0632791880383301e-04 0.0000000000000000e+00  6.0068026096964913e-04 1.2089517947380413e-04 0.0000000000000000e+00  5.8045442044583635e-04 1.3483629582714844e-04 0.0000000000000000e+00  5.6176738833836170e-04 1.4760351591724076e-04 0.0000000000000000e+00  5.4329271055985923e-04 1.5958156651741867e-04 0.0000000000000000e+00  5.2634177882834052e-04 1.7037308454054259e-04 0.0000000000000000e+00  5.0873968542356363e-04 1.7990451880634843e-04 0.0000000000000000e+00  4.9222626054609567e-04 1.8852953717866778e-04 0.0000000000000000e+00  4.7628858179740138e-04 1.9640795268889916e-04 0.0000000000000000e+00  4.6096937443810854e-04 2.0283794277984446e-04 0.0000000000000000e+00  4.4563831367167445e-04 2.0835659352403879e-04 0.0000000000000000e+00  4.3078346853655494e-04 2.1257538289653561e-04 0.0000000000000000e+00  4.1587892454234189e-04 2.1602898698865460e-04 0.0000000000000000e+00  4.0135073287435324e-04 2.1821824841186245e-04 0.0000000000000000e+00  3.8623444274176480e-04 2.1946420456924373e-04 0.0000000000000000e+00  3.7156800590378713e-04 2.1979831597676754e-04 0.0000000000000000e+00  3.5584522180391728e-04 2.1926552537608935e-04 0.0000000000000000e+00  3.4034692028188292e-04 2.1805795326505404e-04 0.0000000000000000e+00  3.2507658445697678e-04 2.1660887818990388e-04 0.0000000000000000e+00  3.0967433909297030e-04 2.1374776138347479e-04 0.0000000000000000e+00  2.9269006584458366e-04 2.1067516623045281e-04 0.0000000000000000e+00  2.7620335179128435e-04 2.0698358785719998e-04 0.0000000000000000e+00  2.5897159236787056e-04 2.0376178997939535e-04 0.0000000000000000e+00  2.4196911185818436e-04 1.9907194696340636e-04 0.0000000000000000e+00  2.2443497307840567e-04 1.9552834745866540e-04 0.0000000000000000e+00  2.0652606285472789e-04 1.9099128779113782e-04 0.0000000000000000e+00  1.8720805320954984e-04 1.8668441989735376e-04 0.0000000000000000e+00  1.6818355698069212e-04 1.8252205765502123e-04 0.0000000000000000e+00  1.4860206567951831e-04 1.7892644936027624e-04 0.0000000000000000e+00  1.2890992555649342e-04 1.7538645122040648e-04 0.0000000000000000e+00  1.0839523265066927e-04 1.7222260709497361e-04 0.0000000000000000e+00  8.7975622949891768e-05 1.6933277676726884e-04 0.0000000000000000e+00  6.6133981476680566e-05 1.6734339124455691e-04 0.0000000000000000e+00  4.4576214112504827e-05 1.6514736097212376e-04 0.0000000000000000e+00  2.2330553373218743e-05 1.6530691745384048e-04 0.0000000000000000e+00  -1.4618012249354359e-21 1.5563798449254830e-04 0.0000000000000000e+00  2.4537377704273410e-21 1.4630568213466934e-04 0.0000000000000000e+00  -8.3531498567739268e-22 1.3717619976319866e-04 0.0000000000000000e+00  -6.4858203722191103e-22 1.2796697058609514e-04 0.0000000000000000e+00  -3.2574295727623151e-22 1.1895339655321714e-04 0.0000000000000000e+00  1.1954950523243939e-21 1.1011958788124040e-04 0.0000000000000000e+00  -1.0156836530320671e-21 1.0147824397332249e-04 0.0000000000000000e+00  1.2331573706761886e-21 9.3080312375836972e-05 0.0000000000000000e+00  3.3631109394452367e-21 8.4922723765063437e-05 0.0000000000000000e+00  6.9438108116955306e-22 7.7016315151612973e-05 0.0000000000000000e+00  1.8742728491501524e-21 6.9363593268866061e-05 0.0000000000000000e+00  3.3114473826343331e-22 6.2031874334744785e-05 0.0000000000000000e+00  9.7006532705654050e-22 5.4962800140949489e-05 0.0000000000000000e+00  -3.1904840363391547e-23 4.8228468101351992e-05 0.0000000000000000e+00  1.6712742498057578e-21 4.1843749231519645e-05 0.0000000000000000e+00  1.9919664579626751e-21 3.5809459858766330e-05 0.0000000000000000e+00  -7.0934165548844612e-22 3.0206540372473573e-05 0.0000000000000000e+00  1.0366419091214854e-21 2.5037083642924914e-05 0.0000000000000000e+00  3.1144033137872755e-22 2.0295094436661126e-05 0.0000000000000000e+00  -1.0349748366224102e-21 1.5998971984441279e-05 0.0000000000000000e+00  9.2124820014263574e-22 1.2090137685387071e-05 0.0000000000000000e+00  7.8156252688106775e-22 8.7346407312376214e-06 0.0000000000000000e+00  -4.7047128114831638e-22 5.9299985944533538e-06 0.0000000000000000e+00  -3.5522165207094383e-22 3.6583685825369407e-06 0.0000000000000000e+00  1.1451548465241295e-22 2.0486968218353034e-06 0.0000000000000000e+00  2.6214548652052679e-22 9.5448149795627271e-07 0.0000000000000000e+00  5.8401072224547558e-23 7.6337604899642320e-08 0.0000000000000000e+00  4.2704157231118789e-22 3.7134049766190251e-23 0.0000000000000000e+00  1.2997292473005821e-22 4.4928912252365803e-23 0.0000000000000000e+00  -4.8463209002607757e-22 -1.5144752813314924e-22 0.0000000000000000e+00  2.3855272240846481e-22 -2.5092110808452802e-22 0.0000000000000000e+00  1.6156538580074659e-21 1.6829727687577770e-23 0.0000000000000000e+00  1.5515728600128376e-21 2.3582144321217845e-22 0.0000000000000000e+00  5.6435010688488040e-22 1.4990549714129635e-22 0.0000000000000000e+00  2.9438095142750607e-22 1.7556115900972449e-23 0.0000000000000000e+00  -1.1535952751980162e-21 -1.2617448322478301e-22 0.0000000000000000e+00  -3.3414986680464269e-21 -3.2631822930140886e-22 0.0000000000000000e+00  3.4685265772894051e-21 -1.8065242590048987e-23 0.0000000000000000e+00  3.1323277597987874e-21 1.5475180605128287e-22 0.0000000000000000e+00  0.0000000000000000e+00 -6.1032083348725390e-23 0.0000000000000000e+00  1.6428869493041852e-21 7.2197180389344077e-23 0.0000000000000000e+00  0.0000000000000000e+00 1.1308959822669299e-22 0.0000000000000000e+00  -5.4363775072467053e-21 1.5285444469282991e-24 0.0000000000000000e+00  9.3336807094380598e-21 -7.2919380542484848e-24 0.0000000000000000e+00  1.7600212688756656e-21 2.5536022874312113e-23 0.0000000000000000e+00  0.0000000000000000e+00 6.6122397270147737e-23 0.0000000000000000e+00  1.0088219492777008e-21 7.0033684255431204e-23 0.0000000000000000e+00  -6.3498695120257888e-21 -3.9686684450161181e-23 0.0000000000000000e+00  -5.6244010224966119e-21 -8.2711779742597231e-23 0.0000000000000000e+00  1.0711184454574377e-20 1.8828253924056522e-22 0.0000000000000000e+00  -4.7060114404851193e-21 1.2929453648345203e-23 0.0000000000000000e+00  -4.9395882061590599e-21 0.0000000000000000e+00 0.0000000000000000e+00  1.6870355177676513e-21 -2.6359929965119554e-22 0.0000000000000000e+00  1.5950545618233465e-21 4.9845455056979577e-23 0.0000000000000000e+00  -2.9970098757258760e-21 1.0820601715144004e-22 0.0000000000000000e+00  2.3024700951424797e-20 3.0836653059943925e-22 0.0000000000000000e+00  2.2868285749606185e-22 2.4297553608956572e-22 0.0000000000000000e+00  -4.1652388841880492e-21 1.3016371513087654e-22 0.0000000000000000e+00  -3.7382004995959358e-21 4.8426688290220077e-22 0.0000000000000000e+00  -1.1394584064023257e-21 -1.4243230080029071e-22 0.0000000000000000e+00  5.5487570778511346e-21 -1.0038869713217515e-21 0.0000000000000000e+00  8.3735543741007127e-21 -5.9811102672147944e-22 0.0000000000000000e+00  5.8536405707029422e-21 -3.8945175307241017e-23 0.0000000000000000e+00  4.9984409703820896e-21 4.6860384097332088e-22 0.0000000000000000e+00  3.3684678613617498e-21 -3.0622435103288635e-22 0.0000000000000000e+00  2.4623466101400103e-21 -1.5389666313375065e-21 0.0000000000000000e+00  -1.8025976828800510e-21 8.1998020639562950e-22 0.0000000000000000e+00  0.0000000000000000e+00 3.0155556033933846e-22 0.0000000000000000e+00  1.7367233941671329e-21 4.5421996462832702e-22 0.0000000000000000e+00  -9.2129549405146842e-22 6.9097162053860136e-22 0.0000000000000000e+00  5.5161062297067536e-23 1.2334762102561579e-22 0.0000000000000000e+00  -9.8419239925811402e-23 -3.9367695970324561e-22 0.0000000000000000e+00  8.2855912626442880e-22 -7.4225088394521748e-22 0.0000000000000000e+00  5.7260001060289372e-22 -7.1575001325361715e-22 0.0000000000000000e+00  2.6211485511382213e-21 -9.0831953192680694e-22 0.0000000000000000e+00  1.1886226056525907e-21 1.4857782570657383e-22 0.0000000000000000e+00  2.2898154118508229e-21 8.5868077944405867e-22 0.0000000000000000e+00  -4.4901840126247825e-21 -1.4031825039452445e-22 0.0000000000000000e+00  -1.7466707126444929e-20 -7.5932061546094897e-22 0.0000000000000000e+00  -7.6159007774745239e-21 2.8559627915529468e-22 0.0000000000000000e+00  7.2166432473466250e-22 -1.3531206088774922e-22 0.0000000000000000e+00  0.0000000000000000e+00 -9.6434973202290032e-22 0.0000000000000000e+00  3.0935063021649076e-21 -2.2677922974036610e-22 0.0000000000000000e+00  3.7598325825031075e-21 -5.8747384101611055e-23 0.0000000000000000e+00  -5.3982678290798095e-21 -3.1438775709129569e-22 0.0000000000000000e+00  8.1442098772294699e-21 1.2089061536512494e-21 0.0000000000000000e+00  -1.4918442462216751e-21 1.1149976210273255e-21 0.0000000000000000e+00  4.4961141377046852e-21 3.5125891700817853e-22 0.0000000000000000e+00  -9.7649999518785749e-21 -4.6235795226697797e-24 0.0000000000000000e+00  0.0000000000000000e+00 -3.8796233507222494e-23 0.0000000000000000e+00  4.6140228796581938e-21 -2.2074832914293901e-22 0.0000000000000000e+00  -1.1095624083655256e-20 0.0000000000000000e+00 0.0000000000000000e+00  3.6772248728475699e-22 -2.8728319319121640e-24 0.0000000000000000e+00  0.0000000000000000e+00 -7.3187728945579406e-23 0.0000000000000000e+00  -2.9228256734969667e-21 -3.4652469950313545e-23 0.0000000000000000e+00  -5.1026240842497117e-21 6.6440417763668126e-24 0.0000000000000000e+00  -1.4687975479177083e-20 5.3788972702064515e-23 0.0000000000000000e+00  3.8232008323018498e-21 -1.3440940426061190e-22 0.0000000000000000e+00  3.0942845463125323e-21 -3.3143401765114812e-23 0.0000000000000000e+00  -2.1615154836878651e-21 1.6886839716311446e-22 0.0000000000000000e+00  4.7764721348306557e-21 -4.3901398298075880e-23 0.0000000000000000e+00  -1.2051708421389923e-21 1.8830794408421755e-22 0.0000000000000000e+00  -2.0111468542455422e-20 4.4300858803235616e-22 0.0000000000000000e+00  1.5316687592178009e-20 -4.3875927998426589e-22 0.0000000000000000e+00  -6.8465811030542505e-21 2.3340617396775857e-22 0.0000000000000000e+00  -5.2818410406984086e-21 2.4758629878273791e-22 0.0000000000000000e+00  -2.2744441292701368e-21 2.8093213048643804e-22 0.0000000000000000e+00  -1.1777535547746157e-21 7.3609597173413478e-23 0.0000000000000000e+00  3.5263795071464288e-21 -1.3562998104409343e-22 0.0000000000000000e+00  -3.8849489779413034e-21 -1.2140465556066573e-22 0.0000000000000000e+00  2.2970657993679542e-21 4.5203851343091133e-23 0.0000000000000000e+00  1.9705356138511872e-21 2.0526412644283202e-22 0.0000000000000000e+00  -2.8436026122103050e-22 1.9549767958945847e-22 0.0000000000000000e+00  -9.2266364306452337e-21 -3.8444318461021810e-22 0.0000000000000000e+00  -1.1940260452382425e-20 3.8398401666190328e-22 0.0000000000000000e+00  -2.3976843812098676e-21 1.1239145536921254e-21 0.0000000000000000e+00  -4.0318749475030500e-21 -4.7248534541051364e-22 0.0000000000000000e+00  -3.8140832658024077e-21 5.2443644904783105e-22 0.0000000000000000e+00  -1.2935111310622066e-21 1.3169266814667474e-22 0.0000000000000000e+00  -2.3186943779150694e-21 4.8306132873230616e-23 0.0000000000000000e+00  1.5271386433756247e-21 1.0180924289170832e-22 0.0000000000000000e+00  0.0000000000000000e+00 5.3568797637874711e-22 0.0000000000000000e+00  2.0828760927739887e-21 3.7659909585163963e-22 0.0000000000000000e+00  -8.9618125987729035e-22 4.4809062993864518e-22 0.0000000000000000e+00  -3.3762394483242356e-22 8.4405986208105890e-23 0.0000000000000000e+00  -9.0432712468155720e-22 2.8260222646298662e-22 0.0000000000000000e+00  -4.3818025892109296e-21 2.0222784437645907e-22 0.0000000000000000e+00  -1.7367549798512150e-21 -2.1709437248140188e-22 0.0000000000000000e+00  0.0000000000000000e+00 -8.9094349150952016e-23 0.0000000000000000e+00  -6.2080301585784959e-22 -1.5520075396446240e-22 0.0000000000000000e+00  8.7839422098697579e-23 4.3187715865192977e-23 0.0000000000000000e+00  -4.4265793965464659e-22 1.1066448491366165e-22 0.0000000000000000e+00  -5.9411100312089168e-22 -4.9509250260074309e-23 0.0000000000000000e+00  -1.0513478124350407e-21 -8.7612317702920059e-23 0.0000000000000000e+00  -2.5760698860312924e-21 5.7481762607912160e-22 0.0000000000000000e+00  1.2565667512824334e-21 0.0000000000000000e+00 0.0000000000000000e+00  -8.7437529333220593e-22 -1.6394536749978861e-22 0.0000000000000000e+00  2.3175430105519778e-22 -2.3175430105519778e-22 0.0000000000000000e+00  1.1762056123743399e-21 -4.2823019867997814e-23 0.0000000000000000e+00  -1.0242190940734516e-21 6.4013693379590724e-23 0.0000000000000000e+00  -4.0120352455737