<?xml version="1.0"?>
<VTKFile type="UnstructuredGrid"  version="0.1"  >
<UnstructuredGrid>
<Piece  NumberOfPoints="1691" NumberOfCells="3204">
<Points>
<DataArray  type="Float64"  NumberOfComponents="3"  format="ascii">0 0 0  30 0 0  30 -10 0  0 -10 0  0.1391574078963744 0 0  0.2856388821882616 0 0  0.4398299073010886 0 0  0.6021362569539473 0 0  0.7729850389704483 0 0  0.9528258543586996 0 0  1.142131984380316 0 0  1.34140159760994 0 0  1.551159074717981 0 0  1.771956417032531 0 0  2.004374674080994 0 0  2.249025475789527 0 0  2.506552636773105 0 0  2.777633857742732 0 0  3.062982518028728 0 0  3.363349525995907 0 0  3.679525322337712 0 0  4.01234195575742 0 0  4.362675247811097 0 0  4.731447135329707 0 0  5.119628065610077 0 0  5.528239565804708 0 0  5.958356943167011 0 0  6.411112081475485 0 0  6.887696441559404 0 0  7.389364184530748 0 0  7.917435485335147 0 0  8.473300005202017 0 0  9.058420557070402 0 0  9.674336929103793 0 0  10.32266995225095 0 0  11.00512576896296 0 0  11.72350030646412 0 0  12.47968402994705 0 0  13.27566689579597 0 0  14.1135435963616 0 0  14.9955190732806 0 0  15.92391430904694 0 0  16.90117245730496 0 0  17.92986524844506 0 0  19.01269976086341 0 0  20.15252556282024 0 0  21.35234220269763 0 0  22.61530708683689 0 0  23.94474379751883 0 0  25.34415086349739 0 0  26.81721093579712 0 0  28.3678004819169 0 0  30 -1.111111111111111 0  30 -2.222222222222222 0  30 -3.333333333333333 0  30 -4.444444444444445 0  30 -5.555555555555555 0  30 -6.666666666666666 0  30 -7.777777777777777 0  30 -8.888888888888889 0  28.36780047917311 -10 0  26.8172109305839 -10 0  25.34415085606858 -10 0  23.94474378810899 -10 0  22.61530707566275 -10 0  21.3523421899591 -10 0  20.15252554870171 -10 0  19.01269974553473 -10 0  17.92986523206254 -10 0  16.90117244001232 -10 0  15.92391429097614 -10 0  14.99551905455266 -10 0  14.11354357708742 -10 0  13.27566687607703 -10 0  12.47968400987599 -10 0  11.72350028612546 -10 0  11.00512574843363 -10 0  10.32266993160086 -10 0  9.674336908396342 -10 0  9.058420536362949 -10 0  8.473299984546333 -10 0  7.917435464777824 -10 0  7.389364164113587 -10 0  6.887696420787165 -10 0  6.411112061446698 -10 0  5.95835692337857 -10 0  5.528239546282652 -10 0  5.119628046377237 -10 0  4.731447115907979 -10 0  4.362675229213632 -10 0  4.012341937260036 -10 0  3.679525304434552 -10 0  3.363349508456405 -10 0  3.062982500861274 -10 0  2.777633840953978 -10 0  2.506552620368097 -10 0  2.249025459771861 -10 0  2.004374658452946 -10 0  1.771956401795187 -10 0  1.551159059871345 -10 0  1.341401583153029 -10 0  1.142131970307521 -10 0  0.9528258406748833 -10 0  0.7729850256685147 -10 0  0.6021362439621285 -10 0  0.4398298947504031 -10 0  0.2856388700059078 -10 0  0.1391573960769001 -10 0  0 -9.855072463768115 0  0 -9.710144927536232 0  0 -9.565217391304348 0  0 -9.420289855072463 0  0 -9.27536231884058 0  0 -9.130434782608695 0  0 -8.985507246376812 0  0 -8.840579710144928 0  0 -8.695652173913043 0  0 -8.55072463768116 0  0 -8.405797101449275 0  0 -8.260869565217391 0  0 -8.115942028985508 0  0 -7.971014492753623 0  0 -7.826086956521739 0  0 -7.681159420289855 0  0 -7.536231884057971 0  0 -7.391304347826087 0  0 -7.246376811594203 0  0 -7.101449275362318 0  0 -6.956521739130435 0  0 -6.811594202898551 0  0 -6.666666666666667 0  0 -6.521739130434783 0  0 -6.376811594202898 0  0 -6.231884057971015 0  0 -6.086956521739131 0  0 -5.942028985507246 0  0 -5.797101449275362 0  0 -5.652173913043478 0  0 -5.507246376811594 0  0 -5.36231884057971 0  0 -5.217391304347826 0  0 -5.072463768115941 0  0 -4.927536231884058 0  0 -4.782608695652174 0  0 -4.637681159420289 0  0 -4.492753623188406 0  0 -4.347826086956522 0  0 -4.202898550724638 0  0 -4.057971014492754 0  0 -3.913043478260869 0  0 -3.768115942028985 0  0 -3.623188405797101 0  0 -3.478260869565217 0  0 -3.333333333333334 0  0 -3.188405797101449 0  0 -3.043478260869565 0  0 -2.898550724637681 0  0 -2.753623188405797 0  0 -2.608695652173912 0  0 -2.463768115942029 0  0 -2.318840579710145 0  0 -2.173913043478261 0  0 -2.028985507246377 0  0 -1.884057971014492 0  0 -1.739130434782609 0  0 -1.594202898550725 0  0 -1.44927536231884 0  0 -1.304347826086957 0  0 -1.159420289855072 0  0 -1.014492753623188 0  0 -0.8695652173913047 0  0 -0.72463768115942 0  0 -0.579710144927537 0  0 -0.4347826086956523 0  0 -0.2898550724637676 0  0 -0.1449275362318829 0  0.1309460514202492 -4.990980414828784 0  0.1171526873513358 -5.869565217391296 0  0.1344252986967795 -6.716855800502001 0  0.1221309018586645 -4.161899358592938 0  0.1166997684017801 -3.25954604704229 0  4.961569127360256 -0.3118894787216622 0  4.923897360678746 -9.687537149351071 0  0.1228405945134021 -2.536958536012416 0  0.1335945686177435 -7.466846676638523 0  3.206461751753455 -0.2806173508164562 0  3.213166004658842 -9.746377676274168 0  0.1155250883680452 -8.186784073011673 0  0.1359204609538445 -1.804202625344072 0  6.662432263484016 -9.600124945047963 0  6.631056521209421 -0.3942868763482545 0  2.126700074935258 -0.2065769621215452 0  2.120437876630353 -9.808537401472012 0  8.761385473272522 -9.4914222957189 0  8.786076048231736 -0.4923064159810888 0  0.1195911345135556 -8.749677128895598 0  0.1117474302775605 -1.230589418769438 0  11.3907841305612 -9.402816705944797 0  11.36435727088349 -0.618365439918426 0  1.211504568109637 -0.1471532661956818 0  1.239596144827807 -9.832618358594059 0  13.75158625181508 -9.315497816134139 0  13.7500399625954 -0.6902569910160397 0  0.131402377539402 -3.696772604078816 0  0.1204853385030979 -6.307560917781178 0  0.1346483804691658 -4.550944754283819 0  0.1255109280847009 -5.434782608695652 0  16.39894095075685 -9.180198571581517 0  16.44068234362399 -0.8166544577416346 0  0.1255109280847009 -0.7971014492753632 0  0.1162877148651766 -9.206770243020259 0  19.56645066956165 -9.043742294716539 0  29.11731382843969 -5.098539983867493 0  19.50527862123305 -0.9323941524176265 0  23.28904960561395 -8.8608997858633 0  0.6875606479622149 -0.1442604037134076 0  0.6875606348153145 -9.855739596611892 0  23.37074358394081 -1.15131614182933 0  10.00852704311311 -9.475417469395781 0  10.01049631493635 -0.5545437343697674 0  7.639131123468924 -9.543000896765111 0  7.693537846067955 -0.4574302764599576 0  5.733194300659633 -9.66079268774309 0  5.731454990332523 -0.3687808037058806 0  3.803630689980224 -9.686555789708486 0  3.834043646352164 -0.2754981925697493 0  2.618022704128803 -9.787800068206256 0  2.634320277618269 -0.2392104743186785 0  1.65952286941916 -9.813294854785646 0  1.665360553377539 -0.1820878093930922 0  0.1365068028365961 -1.543352471920677 0  0.1128108295274224 -8.471115901500411 0  0.1249192863256123 -0.5070564851587012 0  0.1172626025927563 -9.49200175151447 0  0.1255109280847009 -2.101449275362318 0  0.1255109280847009 -7.898550724637682 0  0.1247535864599936 -2.824177050114505 0  0.1155424837078822 -7.17494363557847 0  26.05192393553612 -8.777856070543081 0  26.00031291598836 -1.159065252957426 0  0.3627343947446455 -0.1301950113519217 0  0.3690141220077834 -9.868919517536135 0  28.90574865438674 -7.135369011630129 0  29.02069681040884 -2.861993939893059 0  0.1397555488250113 -0.2163338956475025 0  0.1255109280847009 -9.782608695652172 0  24.67098979274125 -8.799958058548517 0  23.93395881668722 -7.700959994796646 0  22.61396570077244 -7.764517377391733 0  23.2032949615693 -6.630776985250927 0  21.94857473380583 -6.690613342424633 0  24.50398505507967 -6.535933305198952 0  22.51489076809043 -5.580432145971667 0  21.29537841406989 -5.639199768252479 0  21.84985259542567 -4.547213342284197 0  20.65342988351128 -4.619546679988924 0  20.11277906893955 -5.663225279336593 0  19.49454290958806 -4.673886314669294 0  18.97860072994828 -5.624185949902217 0  18.40383886642446 -4.729683279047542 0  17.90575400337286 -5.630456854950327 0  17.35903168001753 -4.836859475002379 0  16.91444903556046 -5.680257663405808 0  16.36114434035519 -4.898890029095359 0  15.89440836794127 -5.835214594829282 0  15.41608945577568 -4.979845093198404 0  14.9809818125648 -5.732909169427192 0  14.51777858619734 -4.988431190461874 0  14.14039496103406 -5.776391085527889 0  13.67321261031888 -5.031745046943032 0  13.26988611760758 -5.891550007816156 0  12.85732927991246 -5.095735823822261 0  12.46423889659403 -5.760519953635332 0  12.07741841933393 -5.116608846746942 0  11.73131647445202 -5.75987862647932 0  11.35222911621012 -5.158061768105265 0  11.01225658271747 -5.784828178519854 0  10.65393216495117 -5.205808407572067 0  10.33042159780337 -5.788944717060055 0  9.98551374198097 -5.24118342090078 0  9.687616112021921 -5.812725728827915 0  9.357518717034999 -5.284717467130579 0  9.08157001076583 -5.820057568121996 0  8.766199932316585 -5.320212662582848 0  8.494748056481422 -5.830095453943056 0  8.194406727465122 -5.347802431655208 0  7.942610344706003 -5.833678024304247 0  7.660825631728443 -5.380025954369014 0  7.416702921751611 -5.83684433397813 0  7.147290851157173 -5.413787279190068 0  6.91632006965034 -5.851605397483334 0  6.658527053286988 -5.437627383845131 0  6.441897327469297 -5.862220684948111 0  6.194860224019926 -5.464520225953867 0  5.988748643021736 -5.866336295550595 0  5.755042825355586 -5.482399938780632 0  5.555770501455733 -5.867908174086599 0  5.334991086231989 -5.504761241472904 0  5.145076642106908 -5.873191062890511 0  4.935013388047023 -5.544035964184449 0  4.754345788811499 -5.880090917794126 0  4.554437025256316 -5.569020251233177 0  4.382470744799432 -5.88665007327689 0  4.192208958329529 -5.585677590398814 0  4.029485566904095 -5.896175760774888 0  4.354949258143058 -5.270074521138358 0  4.004482386201769 -5.289207815434526 0  4.158655721068861 -4.98145486433833 0  3.821444856080801 -5.001169872115685 0  3.97033944278737 -4.700814034221719 0  3.642688047138773 -4.720140385706738 0  3.788830742180677 -4.426816067812119 0  3.467446796449556 -4.450112744784491 0  3.325275354457695 -4.730293981808933 0  3.158439978631689 -4.466074367009679 0  3.294707394527546 -4
[...]
<PointData  Vectors="displacement"> 
<DataArray  type="Float64"  Name="displacement"  NumberOfComponents="3" format="ascii">3.0000000000000016e-01 1.7327088522770620e-01 0.0000000000000000e+00  4.1370286093150482e-20 1.1799768466351742e-03 0.0000000000000000e+00  3.9759799092055831e-21 5.8796476683990159e-22 0.0000000000000000e+00  2.8963290667107898e-21 -7.2408226667769748e-21 0.0000000000000000e+00  2.6037633733024562e-01 1.1204506505462512e-01 0.0000000000000000e+00  2.0697706539369656e-01 5.8661052380878285e-02 0.0000000000000000e+00  1.6228057172981405e-01 2.9116909485951446e-02 0.0000000000000000e+00  1.2793749204915739e-01 1.4202494601827967e-02 0.0000000000000000e+00  1.0347291883997736e-01 7.2824349776881960e-03 0.0000000000000000e+00  8.5429183964432068e-02 2.8085881996224712e-03 0.0000000000000000e+00  7.1706542796147243e-02 9.2917727584036953e-04 0.0000000000000000e+00  6.1119364694364083e-02 -7.6627312169347500e-04 0.0000000000000000e+00  5.2784950809511171e-02 -1.9648144053315214e-03 0.0000000000000000e+00  4.6092142440402897e-02 -2.4650958667176734e-03 0.0000000000000000e+00  4.0531822318198338e-02 -2.8254200407594418e-03 0.0000000000000000e+00  3.5946207989366964e-02 -3.1304511953353315e-03 0.0000000000000000e+00  3.1994175270445624e-02 -3.3311105728393905e-03 0.0000000000000000e+00  2.8623513867482915e-02 -3.3873230753177132e-03 0.0000000000000000e+00  2.5639488909409945e-02 -3.4627574953654460e-03 0.0000000000000000e+00  2.3071192779665885e-02 -3.4197888330204313e-03 0.0000000000000000e+00  2.0779164183653581e-02 -3.3643616541104539e-03 0.0000000000000000e+00  1.8750892332842536e-02 -3.2937376703313210e-03 0.0000000000000000e+00  1.7010209965958180e-02 -3.0983088727351408e-03 0.0000000000000000e+00  1.5345103442855309e-02 -2.9328100939419446e-03 0.0000000000000000e+00  1.3869096572878131e-02 -2.7078726317590336e-03 0.0000000000000000e+00  1.2558285886117272e-02 -2.4671429644599471e-03 0.0000000000000000e+00  1.1357555726174563e-02 -2.2219952515092423e-03 0.0000000000000000e+00  1.0287292887816248e-02 -1.9403742877458011e-03 0.0000000000000000e+00  9.3269193560920928e-03 -1.6346739309480701e-03 0.0000000000000000e+00  8.4292412115630402e-03 -1.3360710174698666e-03 0.0000000000000000e+00  7.6540331281131670e-03 -9.9530133396048782e-04 0.0000000000000000e+00  6.9641011179769228e-03 -6.7011368072091211e-04 0.0000000000000000e+00  6.3426671429692404e-03 -3.4473772895897355e-04 0.0000000000000000e+00  5.7913650228353991e-03 -2.8186930817941667e-05 0.0000000000000000e+00  5.3110495855501379e-03 2.7365733462129163e-04 0.0000000000000000e+00  4.8840731706135754e-03 5.5062942143215313e-04 0.0000000000000000e+00  4.5088306576432950e-03 7.9876363635956928e-04 0.0000000000000000e+00  4.1771849116547998e-03 1.0247995711103618e-03 0.0000000000000000e+00  3.8630400501413948e-03 1.2074317019429069e-03 0.0000000000000000e+00  3.5930688285998598e-03 1.3605484856768621e-03 0.0000000000000000e+00  3.3395685604341845e-03 1.4716480942606744e-03 0.0000000000000000e+00  3.0991814679759149e-03 1.5367810823928090e-03 0.0000000000000000e+00  2.8601672702446442e-03 1.5745883382355837e-03 0.0000000000000000e+00  2.6161948767766492e-03 1.5733871164621100e-03 0.0000000000000000e+00  2.3692504552455750e-03 1.5485612522907707e-03 0.0000000000000000e+00  2.1152778307426175e-03 1.5013633353680386e-03 0.0000000000000000e+00  1.8601550633458039e-03 1.4496533485960470e-03 0.0000000000000000e+00  1.5774995313761406e-03 1.3802603521768850e-03 0.0000000000000000e+00  1.2854704924347372e-03 1.3148287615841916e-03 0.0000000000000000e+00  9.8555017751125198e-04 1.2583386364261547e-03 0.0000000000000000e+00  6.7027344370598231e-04 1.2152643198805714e-03 0.0000000000000000e+00  3.2617888413967667e-04 1.1865248535227210e-03 0.0000000000000000e+00  5.2394469058430270e-20 9.8406025356480797e-04 0.0000000000000000e+00  4.5615303290264846e-21 7.8054391338380226e-04 0.0000000000000000e+00  8.0228225429912054e-21 5.9057755070410049e-04 0.0000000000000000e+00  2.3209184440995078e-20 4.2449641040790662e-04 0.0000000000000000e+00  -6.0035079234066003e-20 2.8057705902497952e-04 0.0000000000000000e+00  6.6651805408405027e-21 1.5982952921019593e-04 0.0000000000000000e+00  2.5602870848484554e-20 7.0898672215969572e-05 0.0000000000000000e+00  -7.4724292602591098e-21 1.4845209630522157e-05 0.0000000000000000e+00  4.1776174295802698e-21 3.3185971617872650e-21 0.0000000000000000e+00  -3.1931464892443183e-20 0.0000000000000000e+00 0.0000000000000000e+00  5.8354359898494073e-20 5.4874601132837331e-21 0.0000000000000000e+00  3.3826094551978209e-20 1.0570654547493190e-21 0.0000000000000000e+00  -3.0602157624774185e-20 7.3562878905707174e-22 0.0000000000000000e+00  6.3045920451289382e-20 -3.9403700282055864e-21 0.0000000000000000e+00  4.8813738780061882e-20 -3.1419290819256252e-21 0.0000000000000000e+00  -2.6031553105205739e-20 3.2539441381507174e-21 0.0000000000000000e+00  2.8755815386057487e-20 2.8643487982205699e-21 0.0000000000000000e+00  3.2035283865875928e-20 1.5016539312129342e-21 0.0000000000000000e+00  -1.6077427249315229e-19 -1.1607625276984055e-21 0.0000000000000000e+00  -7.9221729508813343e-20 1.8567592853628125e-21 0.0000000000000000e+00  -2.5321888496883044e-20 -4.2203147494805073e-21 0.0000000000000000e+00  -4.9588803510216019e-20 -1.5496501096942506e-21 0.0000000000000000e+00  1.0700125319257870e-19 -1.4851344506662260e-20 0.0000000000000000e+00  -5.3755538770653455e-20 -6.7194423463316818e-21 0.0000000000000000e+00  3.0657287273790270e-20 -4.7902011365297299e-21 0.0000000000000000e+00  5.0734726729390850e-20 4.2278938941159045e-21 0.0000000000000000e+00  6.9006089399105008e-21 2.1521149880323714e-20 0.0000000000000000e+00  1.6522804866901733e-20 4.6814613789554911e-20 0.0000000000000000e+00  -1.7832835271555180e-20 -1.1145522044721988e-21 0.0000000000000000e+00  1.3249989669268457e-20 9.9374922519513431e-21 0.0000000000000000e+00  6.9982264533676339e-20 6.3860236361502518e-21 0.0000000000000000e+00  6.7728265246944289e-20 -2.1165082889670090e-21 0.0000000000000000e+00  -4.3849031653888285e-21 -1.5073104631024098e-20 0.0000000000000000e+00  -1.2016283426568365e-19 -2.2530531424815684e-20 0.0000000000000000e+00  -1.1242114746293538e-19 -2.0472022772117073e-21 0.0000000000000000e+00  -1.0937605088730641e-19 -8.5450039755708130e-22 0.0000000000000000e+00  1.6340639506915934e-19 3.5542051484325319e-22 0.0000000000000000e+00  -3.1803091427887750e-20 2.2361548660233575e-21 0.0000000000000000e+00  2.1365876486274439e-19 -1.4782467157257230e-21 0.0000000000000000e+00  2.1284621802723297e-19 1.3302888626702061e-21 0.0000000000000000e+00  -2.2035050788203801e-19 6.9876503498377179e-21 0.0000000000000000e+00  -1.6145583826615571e-19 1.0090989891634732e-20 0.0000000000000000e+00  1.1149547538680022e-19 -2.2540493485010986e-22 0.0000000000000000e+00  -1.2660882049988548e-19 5.9347884609321318e-21 0.0000000000000000e+00  3.4484189124893070e-20 -2.0199401947765074e-21 0.0000000000000000e+00  1.8708555973612639e-20 2.3385694967015799e-21 0.0000000000000000e+00  2.2483740601969039e-20 -5.3086609754649124e-21 0.0000000000000000e+00  -2.1764505067757877e-20 -5.4411262669394693e-21 0.0000000000000000e+00  3.5861072386563212e-20 3.4360840110493852e-21 0.0000000000000000e+00  -1.2746778512006405e-20 7.9667365700040030e-21 0.0000000000000000e+00  2.6216031102788070e-20 -9.1756108859758234e-21 0.0000000000000000e+00  -2.4863804346916709e-20 -2.0719836955763925e-21 0.0000000000000000e+00  -1.6791029777514235e-20 1.4475025670270893e-22 0.0000000000000000e+00  3.0342715890488497e-20 -1.3907078116473893e-20 0.0000000000000000e+00  -2.6533206428387295e-21 3.6458331716329844e-21 0.0000000000000000e+00  -7.2177495455198713e-21 0.0000000000000000e+00 0.0000000000000000e+00  1.6488960233890722e-21 3.7388222270715093e-05 0.0000000000000000e+00  -5.7167800862299794e-21 9.2494746606131193e-05 0.0000000000000000e+00  -4.2149283186764742e-21 1.6528461488022941e-04 0.0000000000000000e+00  -2.2077960017320648e-20 2.5519771699511755e-04 0.0000000000000000e+00  -5.6058394520008342e-21 3.6148813457484842e-04 0.0000000000000000e+00  1.2250565802761578e-20 4.8167309498917436e-04 0.0000000000000000e+00  2.6301056786284070e-21 6.1598416117411548e-04 0.0000000000000000e+00  1.6035825750656326e-20 7.6400414395683537e-04 0.0000000000000000e+00  -1.2863364319841380e-21 9.2398835962364905e-04 0.0000000000000000e+00  -6.4925201082212626e-21 1.0944520796539070e-03 0.0000000000000000e+00  -2.4436765875412652e-21 1.2767826440685417e-03 0.0000000000000000e+00  -5.7973683024166231e-20 1.4694952537747505e-03 0.0000000000000000e+00  -7.9515852117721954e-20 1.6726582958148204e-03 0.0000000000000000e+00  2.3534639991067819e-20 1.8855985899173316e-03 0.0000000000000000e+00  2.2833064109390144e-20 2.1075203624255972e-03 0.0000000000000000e+00  6.8125524668161671e-20 2.3395441434246314e-03 0.0000000000000000e+00  -3.3358773863381348e-20 2.5805971971166594e-03 0.0000000000000000e+00  -6.7208627711558291e-20 2.8320714036281724e-03 0.0000000000000000e+00  -4.5573324920672720e-20 3.0931550131991286e-03 0.0000000000000000e+00  -2.5957076203481943e-20 3.3640150436367849e-03 0.0000000000000000e+00  6.2677652005208705e-21 3.6453221551459277e-03 0.0000000000000000e+00  4.3179217102837605e-20 3.9370930484869202e-03 0.0000000000000000e+00  1.2507013212834971e-21 4.2397496655428336e-03 0.0000000000000000e+00  -2.8781887618053021e-20 4.5524979270579998e-03 0.0000000000000000e+00  -2.9612817789225949e-20 4.8770469051962941e-03 0.0000000000000000e+00  -2.4535753681140468e-20 5.2131827056966914e-03 0.0000000000000000e+00  -1.6622464039337462e-20 5.5638519052236086e-03 0.0000000000000000e+00  5.0088480114604722e-20 5.9269361554273913e-03 0.0000000000000000e+00  5.2243464900112727e-21 6.3050572557413753e-03 0.0000000000000000e+00  4.6503067768023658e-20 6.6989533139049937e-03 0.0000000000000000e+00  1.1690881641311510e-20 7.1074351409757689e-03 0.0000000000000000e+00  4.1068868289010282e-20 7.5367181813742572e-03 0.0000000000000000e+00  2.1007432261139346e-20 7.9849104971373187e-03 0.0000000000000000e+00  2.6056059185639073e-20 8.4506692601975016e-03 0.0000000000000000e+00  -6.0972515583568660e-20 8.9407628932039376e-03 0.0000000000000000e+00  -5.5550853217796194e-20 9.4529704681827250e-03 0.0000000000000000e+00  8.1095320771727252e-20 9.9909945904101058e-03 0.0000000000000000e+00  -1.2242596402102530e-19 1.0561579960786729e-02 0.0000000000000000e+00  -9.7627839935822013e-20 1.1162461124431432e-02 0.0000000000000000e+00  -8.2799122875469362e-20 1.1798735120222980e-02 0.0000000000000000e+00  -1.7639186246982388e-19 1.2469739712604464e-02 0.0000000000000000e+00  0.0000000000000000e+00 1.3181892609812274e-02 0.0000000000000000e+00  -1.1123739632526071e-19 1.3939340040015557e-02 0.0000000000000000e+00  0.0000000000000000e+00 1.4747236521228098e-02 0.0000000000000000e+00  4.2182737851313018e-19 1.5609946575685466e-02 0.0000000000000000e+00  2.5288254692955369e-19 1.6536223581007228e-02 0.0000000000000000e+00  -2.3203708265764297e-19 1.7532589547920713e-02 0.0000000000000000e+00  2.1103481129947966e-19 1.8619181851235029e-02 0.0000000000000000e+00  -2.9002195000451296e-20 1.9801964151939681e-02 0.0000000000000000e+00  -9.7038992775325129e-20 2.1078598550642241e-02 0.0000000000000000e+00  3.5310750926820556e-19 2.2467723198234361e-02 0.0000000000000000e+00  -3.7853969147045661e-19 2.3999292223953011e-02 0.0000000000000000e+00  -3.0208050535022963e-19 2.5705450933887770e-02 0.0000000000000000e+00  9.3893811063206872e-20 2.7576046424048772e-02 0.0000000000000000e+00  -4.2773388500592402e-19 2.9671746084861127e-02 0.0000000000000000e+00  0.0000000000000000e+00 3.1999382618738956e-02 0.0000000000000000e+00  -9.9025642255585332e-19 3.4671979882412773e-02 0.0000000000000000e+00  1.0956218347029243e-18 3.7728998921791906e-02 0.0000000000000000e+00  5.1653309497690142e-19 4.1176875639335149e-02 0.0000000000000000e+00  -1.9820601144255275e-19 4.5297342009595128e-02 0.0000000000000000e+00  -6.4713925720067745e-20 5.0247447153159173e-02 0.0000000000000000e+00  4.5605161795263036e-19 5.6128774907181017e-02 0.0000000000000000e+00  -1.4178598575591261e-19 6.3280440786400549e-02 0.0000000000000000e+00  -1.6771214434538440e-18 7.1777711843728012e-02 0.0000000000000000e+00  2.9865958187669250e-18 8.2304548027094637e-02 0.0000000000000000e+00  6.0542564516738231e-18 1.0036445649174042e-01 0.0000000000000000e+00  1.1014492753623822e-01 1.2786773037587693e-01 0.0000000000000000e+00  2.5507246376812315e-01 1.5397440771740836e-01 0.0000000000000000e+00  -4.1604434313944868e-04 8.6907001341951819e-03 0.0000000000000000e+00  -2.8605858282647724e-04 6.1014459985594500e-03 0.0000000000000000e+00  -2.6249648378814900e-04 4.1230082097409885e-03 0.0000000000000000e+00  -5.2098212306274112e-04 1.1934872925544153e-02 0.0000000000000000e+00  -7.4396973538442873e-04 1.6948549246781519e-02 0.0000000000000000e+00  1.4412462346637024e-02 -3.5951351009283878e-03 0.0000000000000000e+00  -5.5681584928310749e-04 -1.5042754334315607e-05 0.0000000000000000e+00  -1.1900716890747812e-03 2.3017862186186098e-02 0.0000000000000000e+00  -2.1439853779675602e-04 2.6939072646830304e-03 0.0000000000000000e+00  2.3869518113230546e-02 -5.0011338675051541e-03 0.0000000000000000e+00  -5.3590962332190309e-04 2.1762651205876054e-05 0.0000000000000000e+00  -1.4719368930057807e-04 1.5697318907942387e-03 0.0000000000000000e+00  -2.3047408315738978e-03 3.2823889674733979e-02 0.0000000000000000e+00  -3.8200368003572262e-04 -4.9663105145358724e-05 0.0000000000000000e+00  9.9224152487096505e-03 -2.3823844084714294e-03 0.0000000000000000e+00  3.6928093291806546e-02 -5.3262780149467533e-03 0.0000000000000000e+00  -3.4515641990797861e-04 3.2485662349557340e-05 0.0000000000000000e+00  -1.5200378352656903e-05 -6.3134967083102681e-05 0.0000000000000000e+00  6.7919898859240225e-03 -8.9001974983097794e-04 0.0000000000000000e+00  -1.1743468518176247e-04 8.6113476619862283e-04 0.0000000000000000e+00  -3.2958481062984922e-03 4.6346564239501911e-02 0.0000000000000000e+00  3.3967620496733940e-04 -4.3730513878352444e-05 0.0000000000000000e+00  4.8360831938613139e-03 4.1882527108382011e-04 0.0000000000000000e+00  6.3879738938216565e-02 -4.2797932995035015e-03 0.0000000000000000e+00  -2.0167251009139888e-04 3.7306751803419918e-05 0.0000000000000000e+00  4.7839225330286605e-04 -2.0367059869641773e-05 0.0000000000000000e+00  3.7991985783559870e-03 1.1152780293120126e-03 0.0000000000000000e+00  -6.8600174953286426e-04 1.4256919662637643e-02 0.0000000000000000e+00  -2.6081579734508217e-04 5.0252013267300059e-03 0.0000000000000000e+00  -4.9929706969739792e-04 1.0285767578463311e-02 0.0000000000000000e+00  -3.4817766428439970e-04 7.2981743147190843e-03 0.0000000000000000e+00  5.0840210575134488e-04 -8.2118047813134261e-07 0.0000000000000000e+00  2.9781616734216856e-03 1.3927003460346328e-03 0.0000000000000000e+00  -5.1939974272127987e-03 6.0621950924024538e-02 0.0000000000000000e+00  -7.9853196195308558e-05 4.1605682086655094e-04 0.0000000000000000e+00  4.2300645067381106e-04 1.2120851117021260e-05 0.0000000000000000e+00  1.2179828873101056e-04 3.3667838435488568e-04 0.0000000000000000e+00  2.2215906463582359e-03 1.3602653442173780e-03 0.0000000000000000e+00  2.8504024482252171e-04 1.5673214720180181e-05 0.0000000000000000e+00  1.0047406746056090e-01 1.2846874558477628e-03 0.0000000000000000e+00  -1.0247338422118248e-04 3.3811771288464457e-05 0.0000000000000000e+00  1.3488240714286078e-03 1.1405019436644351e-03 0.0000000000000000e+00  1.7684859743136318e-04 -5.1944879625686793e-05 0.0000000000000000e+00  5.7051541927387664e-03 -1.8738288309765925e-04 0.0000000000000000e+00  -2.2362653696266567e-04 -5.8419431638112443e-05 0.0000000000000000e+00  8.1353223546516296e-03 -1.6259647048492616e-03 0.0000000000000000e+00  -4.7920635621693397e-04 -3.0202772702750556e-05 0.0000000000000000e+00  1.1998840821579506e-02 -3.0837226620329234e-03 0.0000000000000000e+00  -6.5334670976505041e-04 9.8378898079353660e-06 0.0000000000000000e+00  1.9591459348306247e-02 -4.4458486402189209e-03 0.0000000000000000e+00  -4.2467001424490976e-04 2.9190021257378517e-05 0.0000000000000000e+00  2.9518588354780849e-02 -5.2958816214561432e-03 0.0000000000000000e+00  -2.8330239194283326e-04 3.7696116292486084e-05 0.0000000000000000e+00  4.7172680701202035e-02 -5.3690663242087142e-03 0.0000000000000000e+00  -2.8671486144652854e-03 3.7844569451179901e-02 0.0000000000000000e+00  -1.2775068873194424e-04 1.1912211051381605e-03 0.0000000000000000e+00  3.2285735876557693e-03 6.5440321132339496e-02 0.0000000000000000e+00  -5.5622340179001257e-05 2.0856268668061775e-04 0.0000000000000000e+00  -1.6472484231610538e-03 2.8254084199362026e-02 0.0000000000000000e+00  -1.7582679360874027e-04 1.9914402502533351e-03 0.0000000000000000e+00  -1.0163479326889065e-03 2.0288612273255395e-02 0.0000000000000000e+00  -2.0042887172275228e-04 3.2199393489103058e-03 0.0000000000000000e+00  1.7079244606027722e-04 1.3057855722273648e-05 0.0000000000000000e+00  8.0673148468108551e-04 1.0383616485685021e-03 0.0000000000000000e+00  1.4944456764088920e-01 2.6047446462308648e-02 0.0000000000000000e+00  -5.1576277946487863e-05 3.1012780277741447e-05 0.0000000000000000e+00  9.7923302600792748e-05 1.1616098481810319e-04 0.0000000000000000e+00  1.7530505937142380e-04 6.7465854928784922e-04 0.0000000000000000e+00  1.5504186985552265e-01 6.4517190099067229e-02 0.0000000000000000e+00  -2.8704829863263487e-05 6.1709581868908499e-05 0.0000000000000000e+00  2.3010676753810807e-04 1.4573012342463512e-05 0.0000000000000000e+00  4.8668413541236641e-04 8.8773944564012183e-05 0.0000000000000000e+00  5.9650514842209817e-04 9.3678579875279338e-05 0.0000000000000000e+00  7.6714144573752864e-04 2.0165498746579932e-04 0.0000000000000000e+00  9.2152745451581713e-04 2.1198077661342874e-04 0.0000000000000000e+00  6.1822690454312827e-04 1.9693113252466137e-04 0.0000000000000000e+00  1.0536566274144666e-03 3.5731123503194830e-04 0.0000000000000000e+00  1.2450748474338619e-03 3.6839445995713626e-04 0.0000000000000000e+00  1.3361228280811528e-03 5.3769092652128717e-04 0.0000000000000000e+00  1.5555781672875067e-03 5.5341245900505584e-04 0.0000000000000000e+00  1.4421050354455681e-03 3.8136706833846908e-04 0.0000000000000000e+00  1.7761012479198899e-03 5.6153439081798738e-04 0.0000000000000000e+00  1.6567817685161743e-03 3.9143938049783728e-04 0.0000000000000000e+00  1.9872531370746680e-03 5.4637557207884891e-04 0.0000000000000000e+00  1.8520557586165331e-03 3.7439001936389265e-04 0.0000000000000000e+00  2.1779857211422643e-03 4.9652224493662047e-04 0.0000000000000000e+00  2.0149958867840441e-03 3.2901731861250007e-04 0.0000000000000000e+00  2.3637597106906847e-03 4.2084292138036707e-04 0.0000000000000000e+00  2.1304465671001531e-03 2.3702606106372994e-04 0.0000000000000000e+00  2.5151594049586928e-03 3.1040509941117881e-04 0.0000000000000000e+00  2.3021633832952791e-03 1.5127625692338667e-04 0.0000000000000000e+00  2.6681815785291065e-03 1.6849117978947223e-04 0.0000000000000000e+00  2.3822131693282955e-03 1.6642254291821420e-05 0.0000000000000000e+00  2.7758751788488707e-03 -1.8929205041179274e-05 0.0000000000000000e+00  2.3910196553758056e-03 -1.6404346417900808e-04 0.0000000000000000e+00  2.8285861997326099e-03 -2.5070214342908946e-04 0.0000000000000000e+00  2.4818343470849121e-03 -3.7672699903175172e-04 0.0000000000000000e+00  2.8595536473560073e-03 -5.2525035542815512e-04 0.0000000000000000e+00  2.4548153023445291e-03 -6.1834544741431194e-04 0.0000000000000000e+00  2.8289439138511636e-03 -8.2739718272526385e-04 0.0000000000000000e+00  2.3579986998370859e-03 -8.9190572962301166e-04 0.0000000000000000e+00  2.7384756677075405e-03 -1.1606157680614593e-03 0.0000000000000000e+00  2.2182234859591805e-03 -1.1889313379505745e-03 0.0000000000000000e+00  2.5942363133371641e-03 -1.5142610558894648e-03 0.0000000000000000e+00  2.0070244029909250e-03 -1.4864503875883278e-03 0.0000000000000000e+00  2.3833531375539079e-03 -1.864