<?xml version="1.0"?>
<VTKFile type="UnstructuredGrid"  version="0.1"  >
<UnstructuredGrid>
<Piece  NumberOfPoints="13179" NumberOfCells="25814">
<Points>
<DataArray  type="Float64"  NumberOfComponents="3"  format="ascii">0 0 0  30 0 0  30 -10 0  0 -10 0  0.02360821169319077 0 0  0.04721642338638154 0 0  0.07206717063563725 0 0  0.09691791788489297 0 0  0.1230766011355843 0 0  0.1492352843862757 0 0  0.1767707375239038 0 0  0.204306190661532 0 0  0.2332908770901271 0 0  0.2622755635187223 0 0  0.2927857633803451 0 0  0.323295963241968 0 0  0.3554119623832387 0 0  0.3875279615245094 0 0  0.4213342730081758 0 0  0.4551405844918422 0 0  0.4907261762804851 0 0  0.526311768069128 0 0  0.5637702848355051 0 0  0.6012288016018821 0 0  0.6406588220121138 0 0  0.6800888424223455 0 0  0.721594129780935 0 0  0.7630994171395246 0 0  0.8067891887833475 0 0  0.8504789604271704 0 0  0.8964681941825949 0 0  0.9424574279380195 0 0  0.9908671465681095 0 0  1.039276865198199 0 0  1.090234462786975 0 0  1.141192060375751 0 0  1.194831641933244 0 0  1.248471223490737 0 0  1.304933942963653 0 0  1.361396662436569 0 0  1.420831104471586 0 0  1.480265546506604 0 0  1.542828113436244 0 0  1.605390680365884 0 0  1.671246013469327 0 0  1.73710134657277 0 0  1.806422752814762 0 0  1.875744159056755 0 0  1.948714057431306 0 0  2.021683955805857 0 0  2.098494373901932 0 0  2.175304791998006 0 0  2.256157866653476 0 0  2.337010941308945 0 0  2.422119443935387 0 0  2.50722794656183 0 0  2.596815840700639 0 0  2.686403734839449 0 0  2.780706776094687 0 0  2.875009817349925 0 0  2.974276175689285 0 0  3.073542534028646 0 0  3.178033441002704 0 0  3.282524347976761 0 0  3.392514777963501 0 0  3.502505207950242 0 0  3.618284608533553 0 0  3.734064009116865 0 0  3.855937062816526 0 0  3.977810116516187 0 0  4.106097541496641 0 0  4.234384966477093 0 0  4.369424362562147 0 0  4.5044637586472 0 0  4.646610489729194 0 0  4.788757220811188 0 0  4.938385356669961 0 0  5.088013492528733 0 0  5.24551679218304 0 0  5.403020091837347 0 0  5.568813038399614 0 0  5.73460598496188 0 0  5.909124878408681 0 0  6.083643771855482 0 0  6.267347873338513 0 0  6.451051974821543 0 0  6.644424714363561 0 0  6.83779745390558 0 0  7.041347702348167 0 0  7.244897950790754 0 0  7.459161368238869 0 0  7.673424785686984 0 0  7.898965226038037 0 0  8.124505666389089 0 0  8.361916654054033 0 0  8.599327641718979 0 0  8.849233942517035 0 0  9.099140243315093 0 0  9.362199507946787 0 0  9.625258772578484 0 0  9.902163261537794 0 0  10.1790677504971 0 0  10.47054616023911 0 0  10.76202456998112 0 0  11.06884394887334 0 0  11.37566332776555 0 0  11.69863109504192 0 0  12.02159886231829 0 0  12.3615649378891 0 0  12.7015310134599 0 0  13.05939003847426 0 0  13.41724906348862 0 0  13.79394276982091 0 0  14.1706364761532 0 0  14.5671561683298 0 0  14.96367586050641 0 0  15.38106501332897 0 0  15.79845416615153 0 0  16.23781117165827 0 0  16.677168177165 0 0  17.13964923659526 0 0  17.60213029602552 0 0  18.0889524622663 0 0  18.57577462850707 0 0  19.08821901304263 0 0  19.60066339757818 0 0  20.14007853843172 0 0  20.67949367928525 0 0  21.24729908993883 0 0  21.8151045005924 0 0  22.41279440541421 0 0  23.01048431023601 0 0  23.63963157605829 0 0  24.26877884188056 0 0  24.93103912515648 0 0  25.59329940843241 0 0  26.29041549584691 0 0  26.98753158326142 0 0  27.72133799026916 0 0  28.45514439727691 0 0  29.22757219863846 0 0  30 -0.3571428571428571 0  30 -0.7142857142857142 0  30 -1.071428571428571 0  30 -1.428571428571428 0  30 -1.785714285714286 0  30 -2.142857142857143 0  30 -2.5 0  30 -2.857142857142857 0  30 -3.214285714285714 0  30 -3.571428571428571 0  30 -3.928571428571428 0  30 -4.285714285714286 0  30 -4.642857142857142 0  30 -5 0  30 -5.357142857142857 0  30 -5.714285714285714 0  30 -6.071428571428571 0  30 -6.428571428571428 0  30 -6.785714285714285 0  30 -7.142857142857142 0  30 -7.5 0  30 -7.857142857142857 0  30 -8.214285714285714 0  30 -8.571428571428571 0  30 -8.928571428571427 0  30 -9.285714285714285 0  30 -9.642857142857142 0  29.22757220128658 -10 0  28.45514440257316 -10 0  27.72133799277628 -10 0  26.98753158297939 -10 0  26.29041549304805 -10 0  25.5932994031167 -10 0  24.93103911757599 -10 0  24.26877883203527 -10 0  23.63963156418132 -10 0  23.01048429632737 -10 0  22.41279438968936 -10 0  21.81510448305136 -10 0  21.24729907078059 -10 0  20.67949365850982 -10 0  20.14007851622273 -10 0  19.60066337393564 -10 0  19.08821898813588 -10 0  18.57577460233611 -10 0  18.08895243498708 -10 0  17.60213026763805 -10 0  17.13964920724307 -10 0  16.6771681468481 -10 0  16.2378111405086 -10 0  15.79845413416909 -10 0  15.38106498063496 -10 0  14.96367582710082 -10 0  14.56715613432376 -10 0  14.17063644154669 -10 0  13.79394273471576 -10 0  13.41724902788484 -10 0  13.05939000246495 -10 0  12.70153097704506 -10 0  12.36156490115379 -10 0  12.02159882526251 -10 0  11.69863105774323 -10 0  11.37566329022395 -10 0  11.06884391115945 -10 0  10.76202453209494 -10 0  10.47054612224479 -10 0  10.17906771239465 -10 0  9.902163223385379 -10 0  9.625258734376107 -10 0  9.362199469747061 -10 0  9.099140205118012 -10 0  8.849233904370102 -10 0  8.599327603622193 -10 0  8.361916616050124 -10 0  8.124505628478055 -10 0  7.898965188258209 -10 0  7.673424748038361 -10 0  7.459161330755727 -10 0  7.244897913473093 -10 0  7.041347665226496 -10 0  6.837797416979896 -10 0  6.644424677660922 -10 0  6.451051938341948 -10 0  6.26734783710581 -10 0  6.083643735869675 -10 0  5.90912484269068 -10 0  5.734605949511682 -10 0  5.568813003235423 -10 0  5.403020056959164 -10 0  5.24551675760658 -10 0  5.088013458254 -10 0  4.938385322710374 -10 0  4.788757187166745 -10 0  4.646610456411224 -10 0  4.504463725655707 -10 0  4.369424329906533 -10 0  4.234384934157362 -10 0  4.106097509520442 -10 0  3.977810084883522 -10 0  3.85593703153344 -10 0  3.734063978183357 -10 0  3.618284577954206 -10 0  3.502505177725055 -10 0  3.392514748095728 -10 0  3.282524318466404 -10 0  3.1780334118518 -10 0  3.073542505237196 -10 0  2.97427614725823 -10 0  2.875009789279265 -10 0  2.780706748384375 -10 0  2.686403707489482 -10 0  2.596815813710069 -10 0  2.507227919930656 -10 0  2.422119417661861 -10 0  2.337010915393062 -10 0  2.256157841092762 -10 0  2.175304766792465 -10 0  2.098494349048437 -10 0  2.021683931304413 -10 0  1.948714033278215 -10 0  1.875744135252013 -10 0  1.806422729354161 -10 0  1.737101323456312 -10 0  1.671245990692352 -10 0  1.605390657928396 -10 0  1.542828091333185 -10 0  1.480265524737977 -10 0  1.420831083031992 -10 0  1.36139664132601 -10 0  1.304933922176438 -10 0  1.248471203026863 -10 0  1.194831621786765 -10 0  1.14119204054667 -10 0  1.09023444350921 -10 0  1.039276846471754 -10 0  0.9908671279064798 -10 0  0.942457409341209 -10 0  0.8964681758842019 -10 0  0.8504789424271948 -10 0  0.8067891710751951 -10 0  0.7630993997231954 -10 0  0.7215941126497469 -10 0  0.6800888255762949 -10 0  0.6406588054444597 -10 0  0.6012287853126246 -10 0  0.5637702688178621 -10 0  0.5263117523230996 -10 0  0.4907261607992695 -10 0  0.4551405692754429 -10 0  0.4213342580497894 -10 0  0.3875279468241395 -10 0  0.3554119479341011 -10 0  0.3232959490440663 -10 0  0.2927857494269297 -10 0  0.2622755498097931 -10 0  0.2332908636189828 -10 0  0.2043061774281725 -10 0  0.1767707245216883 -10 0  0.1492352716152006 -10 0  0.1230765885890825 -10 0  0.09691790556296098 -10 0  0.0720671585317838 -10 0  0.04721641150060663 -10 0  0.02360820575030331 -10 0  0 -9.957983193277311 0  0 -9.915966386554622 0  0 -9.873949579831933 0  0 -9.831932773109244 0  0 -9.789915966386555 0  0 -9.747899159663866 0  0 -9.705882352941176 0  0 -9.663865546218487 0  0 -9.621848739495798 0  0 -9.579831932773109 0  0 -9.53781512605042 0  0 -9.495798319327731 0  0 -9.453781512605042 0  0 -9.411764705882353 0  0 -9.369747899159664 0  0 -9.327731092436975 0  0 -9.285714285714286 0  0 -9.243697478991596 0  0 -9.201680672268907 0  0 -9.159663865546218 0  0 -9.117647058823529 0  0 -9.07563025210084 0  0 -9.033613445378151 0  0 -8.991596638655462 0  0 -8.949579831932773 0  0 -8.907563025210084 0  0 -8.865546218487395 0  0 -8.823529411764707 0  0 -8.781512605042018 0  0 -8.739495798319329 0  0 -8.69747899159664 0  0 -8.655462184873949 0  0 -8.61344537815126 0  0 -8.571428571428571 0  0 -8.529411764705882 0  0 -8.487394957983193 0  0 -8.445378151260504 0  0 -8.403361344537815 0  0 -8.361344537815127 0  0 -8.319327731092438 0  0 -8.277310924369749 0  0 -8.235294117647058 0  0 -8.193277310924369 0  0 -8.15126050420168 0  0 -8.109243697478991 0  0 -8.067226890756302 0  0 -8.025210084033613 0  0 -7.983193277310924 0  0 -7.941176470588236 0  0 -7.899159663865547 0  0 -7.857142857142857 0  0 -7.815126050420168 0  0 -7.773109243697479 0  0 -7.73109243697479 0  0 -7.689075630252101 0  0 -7.647058823529411 0  0 -7.605042016806722 0  0 -7.563025210084033 0  0 -7.521008403361344 0  0 -7.478991596638656 0  0 -7.436974789915967 0  0 -7.394957983193278 0  0 -7.352941176470589 0  0 -7.3109243697479 0  0 -7.26890756302521 0  0 -7.226890756302521 0  0 -7.184873949579832 0  0 -7.142857142857143 0  0 -7.100840336134453 0  0 -7.058823529411764 0  0 -7.016806722689076 0  0 -6.974789915966387 0  0 -6.932773109243698 0  0 -6.890756302521009 0  0 -6.84873949579832 0  0 -6.806722689075631 0  0 -6.764705882352941 0  0 -6.722689075630252 0  0 -6.680672268907563 0  0 -6.638655462184874 0  0 -6.596638655462185 0  0 -6.554621848739496 0  0 -6.512605042016807 0  0 -6.470588235294118 0  0 -6.428571428571429 0  0 -6.38655462184874 0  0 -6.344537815126051 0  0 -6.302521008403362 0  0 -6.260504201680672 0  0 -6.218487394957983 0  0 -6.176470588235294 0  0 -6.134453781512605 0  0 -6.092436974789917 0  0 -6.050420168067227 0  0 -6.008403361344538 0  0 -5.966386554621849 0  0 -5.92436974789916 0  0 -5.882352941176471 0  0 -5.840336134453782 0  0 -5.798319327731092 0  0 -5.756302521008403 0  0 -5.714285714285714 0  0 -5.672268907563025 0  0 -5.630252100840336 0  0 -5.588235294117647 0 
[...]
<PointData  Vectors="displacement"> 
<DataArray  type="Float64"  Name="displacement"  NumberOfComponents="3" format="ascii">1.8200000000000313e-01 -1.6238255501911178e-01 0.0000000000000000e+00  9.0884500209720498e-20 3.9220479589940644e-03 0.0000000000000000e+00  3.2875164728899421e-21 2.2912231518434273e-22 0.0000000000000000e+00  -1.0530785370484519e-21 1.7762377507905243e-21 0.0000000000000000e+00  1.5264465433035784e-01 -1.6066504409537719e-01 0.0000000000000000e+00  1.2909713230356898e-01 -1.6280592304139163e-01 0.0000000000000000e+00  1.1066159786012451e-01 -1.5995244971070130e-01 0.0000000000000000e+00  9.6276537618058405e-02 -1.5667572960857065e-01 0.0000000000000000e+00  8.3964172632858783e-02 -1.5316400859301027e-01 0.0000000000000000e+00  7.3935829010241302e-02 -1.4892645094912366e-01 0.0000000000000000e+00  6.5230263963667018e-02 -1.4436393090612490e-01 0.0000000000000000e+00  5.8143210926136502e-02 -1.3968727533121461e-01 0.0000000000000000e+00  5.1905972422213252e-02 -1.3543308802437676e-01 0.0000000000000000e+00  4.6794782927526500e-02 -1.3091622992580751e-01 0.0000000000000000e+00  4.2259229674307869e-02 -1.2670872715363013e-01 0.0000000000000000e+00  3.8492277606654308e-02 -1.2245130855919696e-01 0.0000000000000000e+00  3.5108519531987771e-02 -1.1845134044590548e-01 0.0000000000000000e+00  3.2259221174590541e-02 -1.1462669854919409e-01 0.0000000000000000e+00  2.9746631760511476e-02 -1.1079281314806530e-01 0.0000000000000000e+00  2.7590155906870556e-02 -1.0727554699987850e-01 0.0000000000000000e+00  2.5663717098322953e-02 -1.0374078775628029e-01 0.0000000000000000e+00  2.4041809078832865e-02 -1.0039960276930410e-01 0.0000000000000000e+00  2.2526242065214048e-02 -9.7148557915135533e-02 0.0000000000000000e+00  2.1176838726616611e-02 -9.4101758846217951e-02 0.0000000000000000e+00  1.9974188782039663e-02 -9.1037870323876419e-02 0.0000000000000000e+00  1.8933951452080437e-02 -8.8146060937242227e-02 0.0000000000000000e+00  1.7948501577930872e-02 -8.5332739296964180e-02 0.0000000000000000e+00  1.7107686313704611e-02 -8.2619580212684465e-02 0.0000000000000000e+00  1.6317543479502965e-02 -7.9928989661961033e-02 0.0000000000000000e+00  1.5595364639364749e-02 -7.7391201687025735e-02 0.0000000000000000e+00  1.4951489989134521e-02 -7.4847866320140455e-02 0.0000000000000000e+00  1.4376760827049974e-02 -7.2436476386433593e-02 0.0000000000000000e+00  1.3846184627325817e-02 -7.0013381836076541e-02 0.0000000000000000e+00  1.3365999074249395e-02 -6.7710456496687707e-02 0.0000000000000000e+00  1.2924431712196507e-02 -6.5390238106806137e-02 0.0000000000000000e+00  1.2532666113054675e-02 -6.3192915131266514e-02 0.0000000000000000e+00  1.2175105065398687e-02 -6.0982808390074625e-02 0.0000000000000000e+00  1.1861697805955048e-02 -5.8874553839693658e-02 0.0000000000000000e+00  1.1574538639497438e-02 -5.6760144563792331e-02 0.0000000000000000e+00  1.1320191718157225e-02 -5.4726518311118383e-02 0.0000000000000000e+00  1.1083722333212646e-02 -5.2699135281045036e-02 0.0000000000000000e+00  1.0901813268654050e-02 -5.0744198714104335e-02 0.0000000000000000e+00  1.0714963402184526e-02 -4.8780424860930649e-02 0.0000000000000000e+00  1.0564918030662063e-02 -4.6903951028425157e-02 0.0000000000000000e+00  1.0417624051270495e-02 -4.5009060779808902e-02 0.0000000000000000e+00  1.0309559893903759e-02 -4.3192324455808950e-02 0.0000000000000000e+00  1.0218509693987746e-02 -4.1367365969722361e-02 0.0000000000000000e+00  1.0147810679673203e-02 -3.9619242893174436e-02 0.0000000000000000e+00  1.0090118070756129e-02 -3.7848547954812246e-02 0.0000000000000000e+00  1.0049119872735397e-02 -3.6156336073490267e-02 0.0000000000000000e+00  1.0025886830547052e-02 -3.4449954713405860e-02 0.0000000000000000e+00  1.0009490706809156e-02 -3.2810918692879831e-02 0.0000000000000000e+00  1.0016433119917604e-02 -3.1160493753740272e-02 0.0000000000000000e+00  1.0035393466459281e-02 -2.9582161520974707e-02 0.0000000000000000e+00  1.0068903384896842e-02 -2.7990636239260087e-02 0.0000000000000000e+00  1.0113730952856989e-02 -2.6465526997108180e-02 0.0000000000000000e+00  1.0169865735423488e-02 -2.4926016010796241e-02 0.0000000000000000e+00  1.0237731963797653e-02 -2.3451192396538763e-02 0.0000000000000000e+00  1.0316701332394727e-02 -2.1965602637689336e-02 0.0000000000000000e+00  1.0403882479523115e-02 -2.0547215213956103e-02 0.0000000000000000e+00  1.0505851080740114e-02 -1.9117978584807831e-02 0.0000000000000000e+00  1.0614954143850396e-02 -1.7752722021808807e-02 0.0000000000000000e+00  1.0734477681902031e-02 -1.6375379075631160e-02 0.0000000000000000e+00  1.0859685472367646e-02 -1.5065295468437549e-02 0.0000000000000000e+00  1.0997798380131063e-02 -1.3748774178033449e-02 0.0000000000000000e+00  1.1139655787162589e-02 -1.2487915354656497e-02 0.0000000000000000e+00  1.1291898542593303e-02 -1.1226467042320375e-02 0.0000000000000000e+00  1.1448927196437836e-02 -1.0026704422467218e-02 0.0000000000000000e+00  1.1615326009975250e-02 -8.8228503305731992e-03 0.0000000000000000e+00  1.1782432553790499e-02 -7.6808960368662900e-03 0.0000000000000000e+00  1.1961856623358375e-02 -6.5407049709930703e-03 0.0000000000000000e+00  1.2141889841711858e-02 -5.4598017839540608e-03 0.0000000000000000e+00  1.2329011812180293e-02 -4.3775701883531351e-03 0.0000000000000000e+00  1.2515922245933338e-02 -3.3571178107931429e-03 0.0000000000000000e+00  1.2710479807560883e-02 -2.3423150141709580e-03 0.0000000000000000e+00  1.2902737284910726e-02 -1.3856494235969870e-03 0.0000000000000000e+00  1.3101695739283213e-02 -4.3651287125056893e-04 0.0000000000000000e+00  1.3297166709411825e-02 4.5467665934352536e-04 0.0000000000000000e+00  1.3497916508781552e-02 1.3320831769156596e-03 0.0000000000000000e+00  1.3692896946044390e-02 2.1524386598904765e-03 0.0000000000000000e+00  1.3892591389883403e-02 2.9580837441991006e-03 0.0000000000000000e+00  1.4085668004059956e-02 3.7088740235261186e-03 0.0000000000000000e+00  1.4280981385680033e-02 4.4424983243730601e-03 0.0000000000000000e+00  1.4469092194460761e-02 5.1163368721183732e-03 0.0000000000000000e+00  1.4655817007906146e-02 5.7768127654209472e-03 0.0000000000000000e+00  1.4832420623622378e-02 6.3788388963816871e-03 0.0000000000000000e+00  1.5006345577724544e-02 6.9570735585985305e-03 0.0000000000000000e+00  1.5170200335764638e-02 7.4825077334499902e-03 0.0000000000000000e+00  1.5329132737490389e-02 7.9842502904540931e-03 0.0000000000000000e+00  1.5475129823848523e-02 8.4305687519076102e-03 0.0000000000000000e+00  1.5615578946528949e-02 8.8470030128380856e-03 0.0000000000000000e+00  1.5738276084783499e-02 9.2187837389237706e-03 0.0000000000000000e+00  1.5852834092119565e-02 9.5595673867063490e-03 0.0000000000000000e+00  1.5951238097159020e-02 9.8499067904331220e-03 0.0000000000000000e+00  1.6036301154807590e-02 1.0111003259106820e-02 0.0000000000000000e+00  1.6104043866504495e-02 1.0329041794244499e-02 0.0000000000000000e+00  1.6157382708897251e-02 1.0512897802650151e-02 0.0000000000000000e+00  1.6192759107715771e-02 1.0653217824033756e-02 0.0000000000000000e+00  1.6205986561068485e-02 1.0764431606704825e-02 0.0000000000000000e+00  1.6202091204907430e-02 1.0832836061775467e-02 0.0000000000000000e+00  1.6180448444772674e-02 1.0866897058292148e-02 0.0000000000000000e+00  1.6133689596301622e-02 1.0871913634151601e-02 0.0000000000000000e+00  1.6065615883873344e-02 1.0844753007625567e-02 0.0000000000000000e+00  1.5976584155626167e-02 1.0785454755677711e-02 0.0000000000000000e+00  1.5862426150252525e-02 1.0696184949544590e-02 0.0000000000000000e+00  1.5726543192307197e-02 1.0582588244025890e-02 0.0000000000000000e+00  1.5563332361146175e-02 1.0444771990406464e-02 0.0000000000000000e+00  1.5385245242113352e-02 1.0273843047466123e-02 0.0000000000000000e+00  1.5167899708801922e-02 1.0093775573329576e-02 0.0000000000000000e+00  1.4951793575905299e-02 9.8842528845730273e-03 0.0000000000000000e+00  1.4682846942551552e-02 9.6622336110940392e-03 0.0000000000000000e+00  1.4405992293506432e-02 9.4360146614863548e-03 0.0000000000000000e+00  1.4109613267592276e-02 9.1725523939000346e-03 0.0000000000000000e+00  1.3790269396599057e-02 8.9239651430316445e-03 0.0000000000000000e+00  1.3448335293950701e-02 8.6506666126581096e-03 0.0000000000000000e+00  1.3093182806229809e-02 8.3789278416000878e-03 0.0000000000000000e+00  1.2688678632657820e-02 8.0972334961690717e-03 0.0000000000000000e+00  1.2289660838404493e-02 7.8224124138340633e-03 0.0000000000000000e+00  1.1870560933632781e-02 7.5441740220129469e-03 0.0000000000000000e+00  1.1447119986074204e-02 7.2723506410640173e-03 0.0000000000000000e+00  1.0999805303499758e-02 6.9921824870196160e-03 0.0000000000000000e+00  1.0527721967916600e-02 6.7314283221046054e-03 0.0000000000000000e+00  1.0047587515726465e-02 6.4697135828565367e-03 0.0000000000000000e+00  9.5735772623815815e-03 6.2249341997116341e-03 0.0000000000000000e+00  9.0764516246260654e-03 5.9830201499152186e-03 0.0000000000000000e+00  8.5833504648129486e-03 5.7572071066242063e-03 0.0000000000000000e+00  8.0717671916434638e-03 5.5378540958927408e-03 0.0000000000000000e+00  7.5649014611248880e-03 5.3343170798292594e-03 0.0000000000000000e+00  7.0394150680521839e-03 5.1355182368358907e-03 0.0000000000000000e+00  6.5238211546734043e-03 4.9630655249833372e-03 0.0000000000000000e+00  5.9964123636896214e-03 4.8010671884581154e-03 0.0000000000000000e+00  5.4777492305796869e-03 4.6523839461554599e-03 0.0000000000000000e+00  4.9465527962092009e-03 4.5092098083219113e-03 0.0000000000000000e+00  4.4209652775109637e-03 4.3873961911892034e-03 0.0000000000000000e+00  3.8861009429392735e-03 4.2801612647968418e-03 0.0000000000000000e+00  3.3653372021536783e-03 4.1813485912390036e-03 0.0000000000000000e+00  2.8012115316069352e-03 4.0980410910929467e-03 0.0000000000000000e+00  2.2477200217907098e-03 4.0237081972811168e-03 0.0000000000000000e+00  1.6950548125298007e-03 3.9815622624895693e-03 0.0000000000000000e+00  1.1437359581163351e-03 3.9406031464282506e-03 0.0000000000000000e+00  5.5150824437644489e-04 3.9235915182579241e-03 0.0000000000000000e+00  -6.3043003002973932e-20 3.7175222670535941e-03 0.0000000000000000e+00  -2.7486515921157455e-20 3.4603911609150440e-03 0.0000000000000000e+00  -6.1865416971020340e-20 3.2282011847076324e-03 0.0000000000000000e+00  0.0000000000000000e+00 2.9905417555124731e-03 0.0000000000000000e+00  3.8434682727478239e-20 2.7625927971845024e-03 0.0000000000000000e+00  3.8015659356648426e-20 2.5412580769420268e-03 0.0000000000000000e+00  4.8384807261045180e-21 2.3267330234123459e-03 0.0000000000000000e+00  7.4181143354562594e-20 2.1186998552930542e-03 0.0000000000000000e+00  -3.7998243125828279e-21 1.9180668777021796e-03 0.0000000000000000e+00  -3.5858724302603445e-20 1.7255572604451858e-03 0.0000000000000000e+00  4.0657771671498801e-20 1.5408856588948552e-03 0.0000000000000000e+00  4.1270460653367815e-21 1.3659203960862244e-03 0.0000000000000000e+00  -2.5112415350605906e-20 1.1992675447825606e-03 0.0000000000000000e+00  2.5779814808247019e-21 1.0430943482892360e-03 0.0000000000000000e+00  1.0296608128679051e-20 8.9610364879767139e-04 0.0000000000000000e+00  1.0496321887291407e-20 7.6005117658660534e-04 0.0000000000000000e+00  2.0173970852251217e-20 6.3483142435009584e-04 0.0000000000000000e+00  -5.9177812596189291e-21 5.2008659214503169e-04 0.0000000000000000e+00  -9.2483993758598009e-21 4.1575818741529559e-04 0.0000000000000000e+00  -2.1138067303018621e-20 3.2374589583007241e-04 0.0000000000000000e+00  -2.6292040867578140e-20 2.4292455805905057e-04 0.0000000000000000e+00  8.6053410014158310e-21 1.7355659518565903e-04 0.0000000000000000e+00  -5.9378412511682717e-21 1.1556115878804279e-04 0.0000000000000000e+00  -1.0512455938053857e-20 6.9348996083906845e-05 0.0000000000000000e+00  6.3232701817808772e-21 3.4895117901479924e-05 0.0000000000000000e+00  6.8416244072390609e-21 1.0432593704677138e-05 0.0000000000000000e+00  -4.7669791681413100e-21 1.2198616170844417e-06 0.0000000000000000e+00  -4.1242001382692003e-21 8.7130988836673250e-23 0.0000000000000000e+00  -1.3531951085488976e-20 -4.7573265534922181e-22 0.0000000000000000e+00  1.4776418218051409e-20 -5.7720383664263315e-22 0.0000000000000000e+00  5.8473630073504625e-20 -1.2725845830729243e-21 0.0000000000000000e+00  -4.5318678072005902e-21 8.1030134559665674e-22 0.0000000000000000e+00  5.3162792578356167e-20 -3.4611193084867299e-22 0.0000000000000000e+00  -3.1800688682778336e-20 2.1695782749592556e-21 0.0000000000000000e+00  2.0731617039610590e-20 -1.1337603068537042e-21 0.0000000000000000e+00  1.3824254169777780e-20 -1.7280317712222223e-22 0.0000000000000000e+00  2.3361762683358258e-20 1.7338808241554959e-21 0.0000000000000000e+00  4.7048261738600268e-20 -1.1962517481648654e-21 0.0000000000000000e+00  1.5580577606545163e-20 -3.4913721486093473e-22 0.0000000000000000e+00  4.3312049248305623e-20 -2.7070030780191015e-21 0.0000000000000000e+00  -5.1562948127412601e-20 2.4170131934724656e-21 0.0000000000000000e+00  -6.3073484536624443e-20 4.9173028442638350e-22 0.0000000000000000e+00  5.7276390562320978e-20 -8.9494360253626528e-22 0.0000000000000000e+00  6.7903929676528265e-20 3.1829967035872626e-21 0.0000000000000000e+00  -1.1702388804105656e-20 3.8952552321483414e-21 0.0000000000000000e+00  -1.1271223652175898e-19 3.5202728257259508e-21 0.0000000000000000e+00  -1.5180761220301885e-20 -4.9506667958916409e-21 0.0000000000000000e+00  3.1586243728838534e-20 -1.0317725339396565e-21 0.0000000000000000e+00  -1.5437453755936776e-19 1.2060510746825607e-21 0.0000000000000000e+00  1.5207467831165259e-19 -1.1860984826501122e-21 0.0000000000000000e+00  1.2793715795608169e-19 6.6633936435459218e-22 0.0000000000000000e+00  6.1476172809334038e-20 6.0472427184646184e-21 0.0000000000000000e+00  9.3831228415336512e-20 -1.0262790607927431e-20 0.0000000000000000e+00  -1.1898821950694868e-19 5.6063148761947964e-21 0.0000000000000000e+00  -5.4893838819278610e-20 0.0000000000000000e+00 0.0000000000000000e+00  -7.9206540314239934e-20 -7.9256379282534995e-21 0.0000000000000000e+00  -8.3817048151238539e-20 -7.6190250749468520e-22 0.0000000000000000e+00  -3.3824472093953028e-19 -4.9751659879998685e-21 0.0000000000000000e+00  7.1117348660509077e-20 -1.6487429504471244e-21 0.0000000000000000e+00  -9.2459924364260620e-20 -1.9590313545127310e-21 0.0000000000000000e+00  -1.3042488747123401e-19 9.1798227507050598e-22 0.0000000000000000e+00  1.8517878401785093e-19 5.1776962636570170e-21 0.0000000000000000e+00  -3.1797851674258547e-20 -1.5234505706504073e-21 0.0000000000000000e+00  -3.8462193907181936e-20 3.4179800349499329e-21 0.0000000000000000e+00  8.3932456310565730e-21 5.8594979853208892e-21 0.0000000000000000e+00  -2.9133546169355232e-20 -1.1380291472404387e-21 0.0000000000000000e+00  3.9337187316132024e-19 1.7286849894784579e-21 0.0000000000000000e+00  -2.4998795538690183e-19 2.5046949420629673e-21 0.0000000000000000e+00  4.4444387399340537e-19 5.1109871464073882e-21 0.0000000000000000e+00  -3.4723140615255224e-20 -1.6997669178437906e-21 0.0000000000000000e+00  -2.4265601104641966e-19 2.3696876078751919e-21 0.0000000000000000e+00  1.8835966358793175e-19 2.8136442079338144e-22 0.0000000000000000e+00  2.6828532833571572e-19 -4.0871741689702632e-21 0.0000000000000000e+00  -7.0145199451525990e-20 3.2880562242902810e-21 0.0000000000000000e+00  -8.5588661447952069e-20 2.4397344486214419e-21 0.0000000000000000e+00  -3.2099448433414630e-19 -4.1470987472902114e-21 0.0000000000000000e+00  -2.1475281531130666e-19 -5.8409215754517749e-21 0.0000000000000000e+00  -3.3826090708086407e-19 1.3213316682846253e-21 0.0000000000000000e+00  4.3297285557843329e-20 -2.5030993581426846e-21 0.0000000000000000e+00  9.5560169600353440e-20 1.4192184360374933e-20 0.0000000000000000e+00  -1.9907020801642942e-19 6.8894555457154775e-21 0.0000000000000000e+00  -1.0589729986149786e-19 0.0000000000000000e+00 0.0000000000000000e+00  2.7884354418729168e-19 8.7138607558528651e-21 0.0000000000000000e+00  -3.9938431842361612e-19 3.2546199418024269e-21 0.0000000000000000e+00  -1.8200435029723308e-19 1.5408866205123936e-20 0.0000000000000000e+00  6.2082605094043878e-20 -1.7460732682699842e-20 0.0000000000000000e+00  -4.6542320564866706e-19 -2.7748490224097247e-21 0.0000000000000000e+00  -3.2880237692195295e-20 -1.4952560256004556e-20 0.0000000000000000e+00  3.9325986030655651e-19 7.8662799625205456e-21 0.0000000000000000e+00  -6.9860922769624560e-20 -4.3663076731015350e-21 0.0000000000000000e+00  1.6778165996061807e-19 1.0235261067465504e-20 0.0000000000000000e+00  -1.0263817870643098e-20 9.1946701757844428e-22 0.0000000000000000e+00  -2.1958483230328021e-19 -2.3608043354421659e-20 0.0000000000000000e+00  -3.3789533996671979e-19 3.0169226782742839e-21 0.0000000000000000e+00  5.8629225184132735e-19 2.7993804567991704e-21 0.0000000000000000e+00  4.4526794280924392e-19 -6.1621772109257892e-20 0.0000000000000000e+00  -1.2020811401124403e-19 3.7565035628513758e-21 0.0000000000000000e+00  -6.5793694488260209e-20 1.5630867275572051e-21 0.0000000000000000e+00  -1.5487548097967212e-19 -1.3673465241213678e-20 0.0000000000000000e+00  -8.6472613951409768e-21 1.8062611655828851e-20 0.0000000000000000e+00  3.9535407722102529e-19 -2.0001849229201497e-21 0.0000000000000000e+00  1.1526445468909371e-19 -7.2040284180683568e-21 0.0000000000000000e+00  4.0095419302932401e-20 1.7541745945032927e-20 0.0000000000000000e+00  -2.0379357680385102e-19 -8.7692497389166203e-21 0.0000000000000000e+00  -2.6292577675712085e-19 -5.4776203491066849e-21 0.0000000000000000e+00  1.6037405850579668e-19 1.7182934839906788e-20 0.0000000000000000e+00  1.7079425856292629e-19 -1.5249487371689847e-20 0.0000000000000000e+00  1.6587144554362419e-20 -1.5019457111724507e-20 0.0000000000000000e+00  -8.0755783578768228e-20 6.7296486315640192e-21 0.0000000000000000e+00  6.4336001270245834e-20 -2.1028499610433201e-23 0.0000000000000000e+00  -1.7575857592387350e-19 0.0000000000000000e+00 0.0000000000000000e+00  2.2361972510681611e-19 8.2978246060207781e-21 0.0000000000000000e+00  2.2096761067825683e-19 1.2798245235652535e-21 0.0000000000000000e+00  0.0000000000000000e+00 -4.2911435332059128e-21 0.0000000000000000e+00  -5.5182509121687095e-20 6.8978136402108869e-21 0.0000000000000000e+00  7.6521436179705853e-20 3.9375107937130193e-21 0.0000000000000000e+00  4.0697904741001722e-20 -5.0872380926252152e-21 0.0000000000000000e+00  -2.8278542124345592e-20 -4.9083795420984675e-21 0.0000000000000000e+00  4.2264625452945866e-20 3.4540452188101441e-21 0.0000000000000000e+00  2.7132067961431102e-20 -3.3154575001405777e-21 0.0000000000000000e+00  -1.3016437552594113e-19 -1.0847031293828428e-20 0.0000000000000000e+00  7.3670609821859036e-20 1.0743630599021109e-20 0.0000000000000000e+00  4.1149716834251026e-20 3.4291430695209185e-21 0.0000000000000000e+00  -2.9471182347818704e-20 -3.2022659337340120e-21 0.0000000000000000e+00  3.6767414105037149e-20 -7.4264113097762449e-21 0.0000000000000000e+00  6.7221263727558879e-20 -3.0555119876163127e-21 0.0000000000000000e+00  -1.6624435692472839e-20 -8.3122178462364196e-21 0.0000000000000000e+00  -2.0354476548882479e-22 -2.7748189507660550e-21 0.0000000000000000e+00  -1.8508369944533218e-20 -4.6270924861333045e-21 0.0000000000000000e+00  1.9387546618311483e-20 2.7263737432000524e-21 0.0000000000000000e+00  3.0727299794623347e-20 7.6818249486558366e-21 0.0000000000000000e+00  -6.3264564107730668e-21 7.2904140256498452e-21 0.0000000000000000e+00  5.4814153438570003e-21 0.0000000000000000e+00 0.0000000000000000e+00  -1.5753255115209989e-20 -5.0123993548395422e-21 0.0000000000000000e+00  0.0000000000000000e+00 4.6160121182796160e-21 0.0000000000000000e+00  -1.4475494547444640e-20 -9.5459783945837103e-21 0.0000000000000000e+00  -2.8554090741282584e-20 -1.0707784027980968e-20 0.0000000000000000e+00  2.2844123661156544e-20 1.4391797906528622e-20 0.0000000000000000e+00  0.0000000000000000e+00 -9.5827073454417644e-21 0.0000000000000000e+00  -1.1372748706496556e-20 -1.5883727243710273e-21 0.0000000000000000e+00  2.51