<?xml version="1.0"?>
<VTKFile type="UnstructuredGrid"  version="0.1"  >
<UnstructuredGrid>
<Piece  NumberOfPoints="18082" NumberOfCells="35500">
<Points>
<DataArray  type="Float64"  NumberOfComponents="3"  format="ascii">0 0 0  30 0 0  30 -10 0  0 -10 0  0.02360821169319077 0 0  0.04721642338638154 0 0  0.07206717063563725 0 0  0.09691791788489297 0 0  0.1230766011355843 0 0  0.1492352843862757 0 0  0.1767707375239038 0 0  0.204306190661532 0 0  0.2332908770901271 0 0  0.2622755635187223 0 0  0.2927857633803451 0 0  0.323295963241968 0 0  0.3554119623832387 0 0  0.3875279615245094 0 0  0.4213342730081758 0 0  0.4551405844918422 0 0  0.4907261762804851 0 0  0.526311768069128 0 0  0.5637702848355051 0 0  0.6012288016018821 0 0  0.6406588220121138 0 0  0.6800888424223455 0 0  0.721594129780935 0 0  0.7630994171395246 0 0  0.8067891887833475 0 0  0.8504789604271704 0 0  0.8964681941825949 0 0  0.9424574279380195 0 0  0.9908671465681095 0 0  1.039276865198199 0 0  1.090234462786975 0 0  1.141192060375751 0 0  1.194831641933244 0 0  1.248471223490737 0 0  1.304933942963653 0 0  1.361396662436569 0 0  1.420831104471586 0 0  1.480265546506604 0 0  1.542828113436244 0 0  1.605390680365884 0 0  1.671246013469327 0 0  1.73710134657277 0 0  1.806422752814762 0 0  1.875744159056755 0 0  1.948714057431306 0 0  2.021683955805857 0 0  2.098494373901932 0 0  2.175304791998006 0 0  2.256157866653476 0 0  2.337010941308945 0 0  2.422119443935387 0 0  2.50722794656183 0 0  2.596815840700639 0 0  2.686403734839449 0 0  2.780706776094687 0 0  2.875009817349925 0 0  2.974276175689285 0 0  3.073542534028646 0 0  3.178033441002704 0 0  3.282524347976761 0 0  3.392514777963501 0 0  3.502505207950242 0 0  3.618284608533553 0 0  3.734064009116865 0 0  3.855937062816526 0 0  3.977810116516187 0 0  4.106097541496641 0 0  4.234384966477093 0 0  4.369424362562147 0 0  4.5044637586472 0 0  4.646610489729194 0 0  4.788757220811188 0 0  4.938385356669961 0 0  5.088013492528733 0 0  5.24551679218304 0 0  5.403020091837347 0 0  5.568813038399614 0 0  5.73460598496188 0 0  5.909124878408681 0 0  6.083643771855482 0 0  6.267347873338513 0 0  6.451051974821543 0 0  6.644424714363561 0 0  6.83779745390558 0 0  7.041347702348167 0 0  7.244897950790754 0 0  7.459161368238869 0 0  7.673424785686984 0 0  7.898965226038037 0 0  8.124505666389089 0 0  8.361916654054033 0 0  8.599327641718979 0 0  8.849233942517035 0 0  9.099140243315093 0 0  9.362199507946787 0 0  9.625258772578484 0 0  9.902163261537794 0 0  10.1790677504971 0 0  10.47054616023911 0 0  10.76202456998112 0 0  11.06884394887334 0 0  11.37566332776555 0 0  11.69863109504192 0 0  12.02159886231829 0 0  12.3615649378891 0 0  12.7015310134599 0 0  13.05939003847426 0 0  13.41724906348862 0 0  13.79394276982091 0 0  14.1706364761532 0 0  14.5671561683298 0 0  14.96367586050641 0 0  15.38106501332897 0 0  15.79845416615153 0 0  16.23781117165827 0 0  16.677168177165 0 0  17.13964923659526 0 0  17.60213029602552 0 0  18.0889524622663 0 0  18.57577462850707 0 0  19.08821901304263 0 0  19.60066339757818 0 0  20.14007853843172 0 0  20.67949367928525 0 0  21.24729908993883 0 0  21.8151045005924 0 0  22.41279440541421 0 0  23.01048431023601 0 0  23.63963157605829 0 0  24.26877884188056 0 0  24.93103912515648 0 0  25.59329940843241 0 0  26.29041549584691 0 0  26.98753158326142 0 0  27.72133799026916 0 0  28.45514439727691 0 0  29.22757219863846 0 0  30 -0.3571428571428571 0  30 -0.7142857142857142 0  30 -1.071428571428571 0  30 -1.428571428571428 0  30 -1.785714285714286 0  30 -2.142857142857143 0  30 -2.5 0  30 -2.857142857142857 0  30 -3.214285714285714 0  30 -3.571428571428571 0  30 -3.928571428571428 0  30 -4.285714285714286 0  30 -4.642857142857142 0  30 -5 0  30 -5.357142857142857 0  30 -5.714285714285714 0  30 -6.071428571428571 0  30 -6.428571428571428 0  30 -6.785714285714285 0  30 -7.142857142857142 0  30 -7.5 0  30 -7.857142857142857 0  30 -8.214285714285714 0  30 -8.571428571428571 0  30 -8.928571428571427 0  30 -9.285714285714285 0  30 -9.642857142857142 0  29.22757220128658 -10 0  28.45514440257316 -10 0  27.72133799277628 -10 0  26.98753158297939 -10 0  26.29041549304805 -10 0  25.5932994031167 -10 0  24.93103911757599 -10 0  24.26877883203527 -10 0  23.63963156418132 -10 0  23.01048429632737 -10 0  22.41279438968936 -10 0  21.81510448305136 -10 0  21.24729907078059 -10 0  20.67949365850982 -10 0  20.14007851622273 -10 0  19.60066337393564 -10 0  19.08821898813588 -10 0  18.57577460233611 -10 0  18.08895243498708 -10 0  17.60213026763805 -10 0  17.13964920724307 -10 0  16.6771681468481 -10 0  16.2378111405086 -10 0  15.79845413416909 -10 0  15.38106498063496 -10 0  14.96367582710082 -10 0  14.56715613432376 -10 0  14.17063644154669 -10 0  13.79394273471576 -10 0  13.41724902788484 -10 0  13.05939000246495 -10 0  12.70153097704506 -10 0  12.36156490115379 -10 0  12.02159882526251 -10 0  11.69863105774323 -10 0  11.37566329022395 -10 0  11.06884391115945 -10 0  10.76202453209494 -10 0  10.47054612224479 -10 0  10.17906771239465 -10 0  9.902163223385379 -10 0  9.625258734376107 -10 0  9.362199469747061 -10 0  9.099140205118012 -10 0  8.849233904370102 -10 0  8.599327603622193 -10 0  8.361916616050124 -10 0  8.124505628478055 -10 0  7.898965188258209 -10 0  7.673424748038361 -10 0  7.459161330755727 -10 0  7.244897913473093 -10 0  7.041347665226496 -10 0  6.837797416979896 -10 0  6.644424677660922 -10 0  6.451051938341948 -10 0  6.26734783710581 -10 0  6.083643735869675 -10 0  5.90912484269068 -10 0  5.734605949511682 -10 0  5.568813003235423 -10 0  5.403020056959164 -10 0  5.24551675760658 -10 0  5.088013458254 -10 0  4.938385322710374 -10 0  4.788757187166745 -10 0  4.646610456411224 -10 0  4.504463725655707 -10 0  4.369424329906533 -10 0  4.234384934157362 -10 0  4.106097509520442 -10 0  3.977810084883522 -10 0  3.85593703153344 -10 0  3.734063978183357 -10 0  3.618284577954206 -10 0  3.502505177725055 -10 0  3.392514748095728 -10 0  3.282524318466404 -10 0  3.1780334118518 -10 0  3.073542505237196 -10 0  2.97427614725823 -10 0  2.875009789279265 -10 0  2.780706748384375 -10 0  2.686403707489482 -10 0  2.596815813710069 -10 0  2.507227919930656 -10 0  2.422119417661861 -10 0  2.337010915393062 -10 0  2.256157841092762 -10 0  2.175304766792465 -10 0  2.098494349048437 -10 0  2.021683931304413 -10 0  1.948714033278215 -10 0  1.875744135252013 -10 0  1.806422729354161 -10 0  1.737101323456312 -10 0  1.671245990692352 -10 0  1.605390657928396 -10 0  1.542828091333185 -10 0  1.480265524737977 -10 0  1.420831083031992 -10 0  1.36139664132601 -10 0  1.304933922176438 -10 0  1.248471203026863 -10 0  1.194831621786765 -10 0  1.14119204054667 -10 0  1.09023444350921 -10 0  1.039276846471754 -10 0  0.9908671279064798 -10 0  0.942457409341209 -10 0  0.8964681758842019 -10 0  0.8504789424271948 -10 0  0.8067891710751951 -10 0  0.7630993997231954 -10 0  0.7215941126497469 -10 0  0.6800888255762949 -10 0  0.6406588054444597 -10 0  0.6012287853126246 -10 0  0.5637702688178621 -10 0  0.5263117523230996 -10 0  0.4907261607992695 -10 0  0.4551405692754429 -10 0  0.4213342580497894 -10 0  0.3875279468241395 -10 0  0.3554119479341011 -10 0  0.3232959490440663 -10 0  0.2927857494269297 -10 0  0.2622755498097931 -10 0  0.2332908636189828 -10 0  0.2043061774281725 -10 0  0.1767707245216883 -10 0  0.1492352716152006 -10 0  0.1230765885890825 -10 0  0.09691790556296098 -10 0  0.0720671585317838 -10 0  0.04721641150060663 -10 0  0.02360820575030331 -10 0  0 -9.972067039106145 0  0 -9.94413407821229 0  0 -9.916201117318435 0  0 -9.888268156424582 0  0 -9.860335195530727 0  0 -9.832402234636872 0  0 -9.804469273743017 0  0 -9.776536312849162 0  0 -9.748603351955307 0  0 -9.720670391061452 0  0 -9.692737430167599 0  0 -9.664804469273744 0  0 -9.636871508379889 0  0 -9.608938547486034 0  0 -9.581005586592179 0  0 -9.553072625698324 0  0 -9.525139664804469 0  0 -9.497206703910614 0  0 -9.46927374301676 0  0 -9.441340782122905 0  0 -9.41340782122905 0  0 -9.385474860335195 0  0 -9.35754189944134 0  0 -9.329608938547485 0  0 -9.30167597765363 0  0 -9.273743016759777 0  0 -9.245810055865922 0  0 -9.217877094972067 0  0 -9.189944134078212 0  0 -9.162011173184357 0  0 -9.134078212290502 0  0 -9.106145251396647 0  0 -9.078212290502794 0  0 -9.050279329608939 0  0 -9.022346368715084 0  0 -8.994413407821229 0  0 -8.966480446927374 0  0 -8.938547486033519 0  0 -8.910614525139664 0  0 -8.882681564245811 0  0 -8.854748603351956 0  0 -8.826815642458101 0  0 -8.798882681564246 0  0 -8.770949720670391 0  0 -8.743016759776536 0  0 -8.715083798882681 0  0 -8.687150837988828 0  0 -8.659217877094973 0  0 -8.631284916201118 0  0 -8.603351955307263 0  0 -8.575418994413408 0  0 -8.547486033519553 0  0 -8.519553072625698 0  0 -8.491620111731844 0  0 -8.463687150837989 0  0 -8.435754189944134 0  0 -8.407821229050279 0  0 -8.379888268156424 0  0 -8.351955307262569 0  0 -8.324022346368714 0  0 -8.296089385474861 0  0 -8.268156424581006 0  0 -8.240223463687151 0  0 -8.212290502793296 0  0 -8.184357541899441 0  0 -8.156424581005586 0  0 -8.128491620111731 0  0 -8.100558659217878 0  0 -8.072625698324023 0  0 -8.044692737430168 0  0 -8.016759776536313 0  0 -7.988826815642458 0  0 -7.960893854748603 0  0 -7.932960893854748 0  0 -7.905027932960894 0  0 -7.877094972067039 0  0 -7.849162011173184 0  0 -7.82122905027933 0  0 -7.793296089385475 0  0 -7.76536312849162 0  0 -7.737430167597765 0  0 -7.709497206703911 0  0 -7.681564245810056 0  0 -7.653631284916202 0  0 -7.625698324022347 0  0 -7.597765363128492 0  0 -7.569832402234637 0  0 -7.541899441340782 0  0 -7.513966480446927 0  0 -7.486033519553073 0  0 -7.458100558659218 0  0 -7.430167597765363 0  0 -7.402234636871508 0  0 -7.374301675977653 0  0 -7.346368715083798 0  0 -7.318435754189944 0  0 -7.290502793296089 0  0 -7.262569832402235 0  0 -7.23463687150838 0  0 -7.206703910614525 0  0 -7.17877094972067 0  0 -7.150837988826815 0  0 -7.12290502793296 0  0 -7.094972067039106 0  0 -7.067039106145251 
[...]
<PointData  Vectors="displacement"> 
<DataArray  type="Float64"  Name="displacement"  NumberOfComponents="3" format="ascii">1.0000000000000003e-01 5.5432740713896582e-02 0.0000000000000000e+00  -3.9768290408970650e-21 1.0123995284177713e-03 0.0000000000000000e+00  2.2635540939585940e-21 -1.4284368863805545e-22 0.0000000000000000e+00  -1.2937358221030170e-22 -6.8999243845494240e-22 0.0000000000000000e+00  9.9993138626291389e-02 5.5316899956242692e-02 0.0000000000000000e+00  9.9966916177424509e-02 5.5032139252019760e-02 0.0000000000000000e+00  9.9902801494040280e-02 5.4554167070298518e-02 0.0000000000000000e+00  9.9800756883838118e-02 5.3885307272678179e-02 0.0000000000000000e+00  9.9618109001414712e-02 5.3001018721138549e-02 0.0000000000000000e+00  9.9365726637888244e-02 5.1936579637152570e-02 0.0000000000000000e+00  9.9009771012080278e-02 5.0645599287402872e-02 0.0000000000000000e+00  9.8552745266990066e-02 4.9202656039380677e-02 0.0000000000000000e+00  9.7957990383536420e-02 4.7543243487912529e-02 0.0000000000000000e+00  9.7239694049643291e-02 4.5771582727107567e-02 0.0000000000000000e+00  9.6353332754042495e-02 4.3808604618668118e-02 0.0000000000000000e+00  9.5332801491885152e-02 4.1782301000152247e-02 0.0000000000000000e+00  9.4122266655125950e-02 3.9611645719461755e-02 0.0000000000000000e+00  9.2781764890424639e-02 3.7431730000727255e-02 0.0000000000000000e+00  9.1252254135940236e-02 3.5171881257452207e-02 0.0000000000000000e+00  8.9615434277135586e-02 3.2951917999851650e-02 0.0000000000000000e+00  8.7798725657187410e-02 3.0695794773615059e-02 0.0000000000000000e+00  8.5906019782674009e-02 2.8535901626272037e-02 0.0000000000000000e+00  8.3866885784741996e-02 2.6385797436765134e-02 0.0000000000000000e+00  8.1792857365533642e-02 2.4360003919245699e-02 0.0000000000000000e+00  7.9594654831683126e-02 2.2368909003586318e-02 0.0000000000000000e+00  7.7401151750709579e-02 2.0527889266422118e-02 0.0000000000000000e+00  7.5131076421636758e-02 1.8740172093702302e-02 0.0000000000000000e+00  7.2903192162290964e-02 1.7101368860772855e-02 0.0000000000000000e+00  7.0595270470139110e-02 1.5543028710633167e-02 0.0000000000000000e+00  6.8366103997437006e-02 1.4131408953652174e-02 0.0000000000000000e+00  6.6113560819954356e-02 1.2771316547827736e-02 0.0000000000000000e+00  6.3948009409450432e-02 1.1559640737197095e-02 0.0000000000000000e+00  6.1779525218693870e-02 1.0393457081936622e-02 0.0000000000000000e+00  5.9711908620216754e-02 9.3472519681328196e-03 0.0000000000000000e+00  5.7634630576944797e-02 8.3669353800041781e-03 0.0000000000000000e+00  5.5666811712566502e-02 7.4829814825132556e-03 0.0000000000000000e+00  5.3705804854770514e-02 6.6520060768984436e-03 0.0000000000000000e+00  5.1855092562460944e-02 5.9098607860931631e-03 0.0000000000000000e+00  5.0020160665609936e-02 5.1958894716989199e-03 0.0000000000000000e+00  4.8289109741072325e-02 4.5567243371552575e-03 0.0000000000000000e+00  4.6571320672618585e-02 3.9533244775246026e-03 0.0000000000000000e+00  4.4954615537853897e-02 3.4136900012858139e-03 0.0000000000000000e+00  4.3352609708847724e-02 2.9016640971872027e-03 0.0000000000000000e+00  4.1848290034038178e-02 2.4541007068986870e-03 0.0000000000000000e+00  4.0357406376502522e-02 2.0109708751413599e-03 0.0000000000000000e+00  3.8955343830900310e-02 1.6199677177379929e-03 0.0000000000000000e+00  3.7569047714578828e-02 1.2601263546035450e-03 0.0000000000000000e+00  3.6266920743478065e-02 9.3301637055307374e-04 0.0000000000000000e+00  3.4978264362066830e-02 6.2356929473510224e-04 0.0000000000000000e+00  3.3766589090217666e-02 3.4603820740988577e-04 0.0000000000000000e+00  3.2567272189744798e-02 8.2829965423991296e-05 0.0000000000000000e+00  3.1439568067611133e-02 -1.5203000877877894e-04 0.0000000000000000e+00  3.0324077557524327e-02 -3.6826096332392364e-04 0.0000000000000000e+00  2.9277212576304692e-02 -5.5790656635538029e-04 0.0000000000000000e+00  2.8238378977687086e-02 -7.4486551413199321e-04 0.0000000000000000e+00  2.7262514446122689e-02 -9.0633983846018630e-04 0.0000000000000000e+00  2.6295509314291254e-02 -1.0595987943870300e-03 0.0000000000000000e+00  2.5385856816413064e-02 -1.1945307029525606e-03 0.0000000000000000e+00  2.4483227258741237e-02 -1.3181825735218342e-03 0.0000000000000000e+00  2.3635141030682042e-02 -1.4208486954555609e-03 0.0000000000000000e+00  2.2793219112939973e-02 -1.5209631866487643e-03 0.0000000000000000e+00  2.2001785265070697e-02 -1.6060472114969842e-03 0.0000000000000000e+00  2.1215098153074919e-02 -1.6825820508431383e-03 0.0000000000000000e+00  2.0474298941946613e-02 -1.7464482223947466e-03 0.0000000000000000e+00  1.9740308071149498e-02 -1.8038616957558747e-03 0.0000000000000000e+00  1.9049675189948146e-02 -1.8516150008989014e-03 0.0000000000000000e+00  1.8363120876334967e-02 -1.8895027288548308e-03 0.0000000000000000e+00  1.7719008033897900e-02 -1.9145748530297380e-03 0.0000000000000000e+00  1.7071076224675213e-02 -1.9429877894576175e-03 0.0000000000000000e+00  1.6460963277718683e-02 -1.9566034045745309e-03 0.0000000000000000e+00  1.5858619264808218e-02 -1.9624915601740849e-03 0.0000000000000000e+00  1.5290520257639471e-02 -1.9604266587823502e-03 0.0000000000000000e+00  1.4725415496350711e-02 -1.9540703789435363e-03 0.0000000000000000e+00  1.4192307158320240e-02 -1.9400303490107302e-03 0.0000000000000000e+00  1.3663378325985813e-02 -1.9180805062874212e-03 0.0000000000000000e+00  1.3164589645735763e-02 -1.8912633872730903e-03 0.0000000000000000e+00  1.2669285100520278e-02 -1.8569980792908578e-03 0.0000000000000000e+00  1.2202355630158063e-02 -1.8186227350484483e-03 0.0000000000000000e+00  1.1738701164062712e-02 -1.7733447622913338e-03 0.0000000000000000e+00  1.1301942148194983e-02 -1.7242798969761236e-03 0.0000000000000000e+00  1.0868720185119495e-02 -1.6684004078576734e-03 0.0000000000000000e+00  1.0462155732113053e-02 -1.6069056610202653e-03 0.0000000000000000e+00  1.0054156159739622e-02 -1.5443695942718623e-03 0.0000000000000000e+00  9.6708134786203121e-03 -1.4739082926917514e-03 0.0000000000000000e+00  9.2926228106883797e-03 -1.3992315921304206e-03 0.0000000000000000e+00  8.9368647595388633e-03 -1.3218961046341951e-03 0.0000000000000000e+00  8.5858697249908845e-03 -1.2365952602641764e-03 0.0000000000000000e+00  8.2562342041681124e-03 -1.1512076193794603e-03 0.0000000000000000e+00  7.9301896116357549e-03 -1.0602457924740090e-03 0.0000000000000000e+00  7.6255077835258155e-03 -9.6946296253697009e-04 0.0000000000000000e+00  7.3226244827630394e-03 -8.7299663125254819e-04 0.0000000000000000e+00  7.0407768490077325e-03 -7.7503739763488760e-04 0.0000000000000000e+00  6.7591270191675471e-03 -6.7512184901237840e-04 0.0000000000000000e+00  6.4967271610171752e-03 -5.7377428638606285e-04 0.0000000000000000e+00  6.2393597454595212e-03 -4.6893456405150430e-04 0.0000000000000000e+00  5.9980466452104484e-03 -3.6795877104964605e-04 0.0000000000000000e+00  5.7679986104242379e-03 -2.5652271099007277e-04 0.0000000000000000e+00  5.5551853856618313e-03 -1.5339066480041740e-04 0.0000000000000000e+00  5.3372617256177641e-03 -4.8693974865786007e-05 0.0000000000000000e+00  5.1360111930007120e-03 5.4889249703978424e-05 0.0000000000000000e+00  4.9413760574362016e-03 1.5898426499578734e-04 0.0000000000000000e+00  4.7615082734281007e-03 2.6007102377597127e-04 0.0000000000000000e+00  4.5847587503308439e-03 3.6077525871866664e-04 0.0000000000000000e+00  4.4223140157666771e-03 4.5671802498398520e-04 0.0000000000000000e+00  4.2612591297616926e-03 5.4971313335764845e-04 0.0000000000000000e+00  4.1126545574634932e-03 6.3820204496234845e-04 0.0000000000000000e+00  3.9669844246190559e-03 7.2474160203036804e-04 0.0000000000000000e+00  3.8321345043739173e-03 8.0546097782031292e-04 0.0000000000000000e+00  3.7000986934269428e-03 8.8291236427292619e-04 0.0000000000000000e+00  3.5777525132509170e-03 9.5397978213036241e-04 0.0000000000000000e+00  3.4568025416751563e-03 1.0207616447191622e-03 0.0000000000000000e+00  3.3451715127105317e-03 1.0812399055553340e-03 0.0000000000000000e+00  3.2304218637600243e-03 1.1345823817976342e-03 0.0000000000000000e+00  3.1227195723361792e-03 1.1824427227766496e-03 0.0000000000000000e+00  3.0179193711553595e-03 1.2263189494073881e-03 0.0000000000000000e+00  2.9176492560798791e-03 1.2621251267790144e-03 0.0000000000000000e+00  2.8172641302872466e-03 1.2926707662831857e-03 0.0000000000000000e+00  2.7203810268091829e-03 1.3158638695356726e-03 0.0000000000000000e+00  2.6229366243526561e-03 1.3346014876432044e-03 0.0000000000000000e+00  2.5284778517404489e-03 1.3463869666046791e-03 0.0000000000000000e+00  2.4305747339184287e-03 1.3525201006980611e-03 0.0000000000000000e+00  2.3356447201189246e-03 1.3536771589024125e-03 0.0000000000000000e+00  2.2349991968662682e-03 1.3495769695176948e-03 0.0000000000000000e+00  2.1360431924739133e-03 1.3414888010433793e-03 0.0000000000000000e+00  2.0376641325745791e-03 1.3310481267833484e-03 0.0000000000000000e+00  1.9389991407291096e-03 1.3150080510715770e-03 0.0000000000000000e+00  1.8319661666644932e-03 1.2951139384601539e-03 0.0000000000000000e+00  1.7274436177603159e-03 1.2731695817295961e-03 0.0000000000000000e+00  1.6188992353995009e-03 1.2526028629038454e-03 0.0000000000000000e+00  1.5115271793213836e-03 1.2252449997227125e-03 0.0000000000000000e+00  1.4004077476643900e-03 1.2025431255913424e-03 0.0000000000000000e+00  1.2881593573922066e-03 1.1769654717121137e-03 0.0000000000000000e+00  1.1674101854023938e-03 1.1499116582988321e-03 0.0000000000000000e+00  1.0487742430617683e-03 1.1250758305819649e-03 0.0000000000000000e+00  9.2605242529032945e-04 1.1030024472381994e-03 0.0000000000000000e+00  8.0331008590938161e-04 1.0818602778050676e-03 0.0000000000000000e+00  6.7524035137354931e-04 1.0624086773273103e-03 0.0000000000000000e+00  5.4769355540898652e-04 1.0455794986846862e-03 0.0000000000000000e+00  4.1260555982328769e-04 1.0325293119848788e-03 0.0000000000000000e+00  2.7772675778680949e-04 1.0209939695930968e-03 0.0000000000000000e+00  1.3918857117993738e-04 1.0186918416714478e-03 0.0000000000000000e+00  -1.0023779828128703e-20 9.6878019772596974e-04 0.0000000000000000e+00  -9.9715726415238767e-21 9.1261053349711075e-04 0.0000000000000000e+00  9.8149510817093640e-21 8.5428016445290931e-04 0.0000000000000000e+00  1.2513066604960702e-20 7.9714993110071707e-04 0.0000000000000000e+00  -5.4234330300531192e-21 7.4114137170063117e-04 0.0000000000000000e+00  1.7209338969024143e-20 6.8608600315494021e-04 0.0000000000000000e+00  8.1254692242565371e-21 6.3230304397353333e-04 0.0000000000000000e+00  9.8602299463957069e-21 5.7993706910190691e-04 0.0000000000000000e+00  5.4295736874977174e-21 5.2908040226408892e-04 0.0000000000000000e+00  2.2425056450809925e-21 4.7981294382545966e-04 0.0000000000000000e+00  2.8727172641179906e-21 4.3214034898204093e-04 0.0000000000000000e+00  -6.9851727695226785e-21 3.8642113508964999e-04 0.0000000000000000e+00  -1.1640783924678487e-20 3.4239450845750493e-04 0.0000000000000000e+00  8.1057299908930761e-21 3.0043767448317572e-04 0.0000000000000000e+00  9.3991010885307907e-21 2.6063866720536208e-04 0.0000000000000000e+00  3.9049191772674694e-21 2.2308417098122827e-04 0.0000000000000000e+00  5.6747332439075689e-21 1.8820380042068065e-04 0.0000000000000000e+00  -3.2997962815899935e-21 1.5598344631236809e-04 0.0000000000000000e+00  2.4008368112668494e-21 1.2643888091846275e-04 0.0000000000000000e+00  5.9972873860645486e-21 9.9690274335293986e-05 0.0000000000000000e+00  1.3437584197921258e-21 7.5438992809605975e-05 0.0000000000000000e+00  -1.2439213667375192e-21 5.4510210631233583e-05 0.0000000000000000e+00  -2.8228276868898983e-21 3.7002993794959332e-05 0.0000000000000000e+00  3.6993497493778878e-22 2.2855859577639560e-05 0.0000000000000000e+00  2.0358308382651193e-22 1.2661806436241081e-05 0.0000000000000000e+00  -1.9241936075304721e-21 5.9887962172473881e-06 0.0000000000000000e+00  1.6420032854097012e-22 8.6474062182955551e-07 0.0000000000000000e+00  -7.4268099532380496e-22 1.1140214929857076e-22 0.0000000000000000e+00  -1.1221530703031364e-21 4.7924173069190187e-22 0.0000000000000000e+00  -9.6926418005215513e-21 9.6926418005215513e-22 0.0000000000000000e+00  1.8609038765857764e-21 -7.4586154541889534e-22 0.0000000000000000e+00  -4.3084102880199092e-21 1.4810160365068438e-21 0.0000000000000000e+00  4.5136665018555274e-21 6.5236586159630674e-22 0.0000000000000000e+00  -4.5148008550790432e-21 -2.8217505344244020e-22 0.0000000000000000e+00  -4.5393093273554369e-21 -8.6179461734693564e-22 0.0000000000000000e+00  9.2287622015841293e-21 2.8839881879950404e-22 0.0000000000000000e+00  2.0048992008278562e-20 -1.1138328893488089e-21 0.0000000000000000e+00  -1.8498808412210162e-20 -2.8904388144078381e-21 0.0000000000000000e+00  -7.5404627028982404e-20 -1.7604442792815192e-21 0.0000000000000000e+00  -6.2496853349094794e-21 2.9295400007388185e-22 0.0000000000000000e+00  -3.9429286783300443e-20 6.8025787744626415e-22 0.0000000000000000e+00  -2.7247940843325560e-20 -1.5965590337886070e-22 0.0000000000000000e+00  -1.9229962596327674e-20 -9.9551916193515937e-22 0.0000000000000000e+00  2.2400833702651345e-20 9.0420031872681204e-22 0.0000000000000000e+00  -2.0114528787150463e-20 9.0751096676401496e-22 0.0000000000000000e+00  1.5234600331042039e-19 -4.9591797952610803e-23 0.0000000000000000e+00  -1.3204246632157319e-20 -8.3985911493295035e-23 0.0000000000000000e+00  -1.0159791219241262e-20 -3.1749347560128945e-22 0.0000000000000000e+00  1.7204050186460224e-20 7.0305012781207649e-22 0.0000000000000000e+00  7.4978291182020635e-20 -1.1715357997190724e-21 0.0000000000000000e+00  2.3352915945255452e-20 -9.9285816518789756e-22 0.0000000000000000e+00  -6.9154234886226837e-20 9.2617278865482368e-22 0.0000000000000000e+00  6.7481420710706053e-21 -4.6393476738610415e-22 0.0000000000000000e+00  6.3802182472933858e-20 -3.9876364045583661e-22 0.0000000000000000e+00  5.1006693121336943e-20 5.8239266525191574e-22 0.0000000000000000e+00  -1.3156971972242741e-20 -1.6446214965303426e-21 0.0000000000000000e+00  -3.1100868619464412e-20 1.4292678593503865e-21 0.0000000000000000e+00  0.0000000000000000e+00 0.0000000000000000e+00 0.0000000000000000e+00  5.4373825448668154e-22 -2.1409693770413086e-21 0.0000000000000000e+00  -1.8231334502437211e-20 2.2789168128046513e-21 0.0000000000000000e+00  -8.1771156936753563e-21 -1.6062191541148022e-21 0.0000000000000000e+00  0.0000000000000000e+00 0.0000000000000000e+00 0.0000000000000000e+00  3.3638973391067512e-20 8.5386940959837902e-22 0.0000000000000000e+00  2.9990645822292536e-20 0.0000000000000000e+00 0.0000000000000000e+00  -7.3493844247892729e-21 -3.0622435103288635e-21 0.0000000000000000e+00  0.0000000000000000e+00 -1.2311733050700052e-20 0.0000000000000000e+00  3.3650231288495021e-20 -4.8633150067467762e-21 0.0000000000000000e+00  -3.2165926436196101e-21 0.0000000000000000e+00 0.0000000000000000e+00  1.0687528579490048e-21 -1.8168798585133081e-21 0.0000000000000000e+00  -7.3703639524117474e-21 -3.6851819762058737e-21 0.0000000000000000e+00  -2.9646680242356707e-21 -2.8353063486474685e-21 0.0000000000000000e+00  1.3122565323441522e-21 1.0498052258753217e-21 0.0000000000000000e+00  5.5237275084295254e-22 -4.1427956313221440e-22 0.0000000000000000e+00  5.7260001060289372e-21 4.0082000742202561e-21 0.0000000000000000e+00  3.9747688052345886e-20 1.3882748417802565e-20 0.0000000000000000e+00  -7.1317356339155432e-21 1.7829339084788858e-21 0.0000000000000000e+00  -2.5187969530359052e-20 -2.8622692648135284e-21 0.0000000000000000e+00  0.0000000000000000e+00 -2.2450920063123912e-21 0.0000000000000000e+00  -1.0308705631702060e-20 1.1966814315383525e-21 0.0000000000000000e+00  -3.6556323731877718e-20 -2.2847702332423574e-21 0.0000000000000000e+00  -2.3093258391509200e-20 9.0208040591832820e-22 0.0000000000000000e+00  0.0000000000000000e+00 -1.4026905193060369e-21 0.0000000000000000e+00  -3.3920325448715315e-20 -6.8525119845660692e-22 0.0000000000000000e+00  -3.0078660660024860e-20 3.7598325825031075e-21 0.0000000000000000e+00  -1.3741045383112241e-20 1.0428471942540540e-21 0.0000000000000000e+00  -8.1442098772294699e-21 1.0180262346536837e-21 0.0000000000000000e+00  -2.0969980647963992e-20 -3.1249742722604162e-21 0.0000000000000000e+00  8.9922282754093705e-21 5.6201426721308565e-22 0.0000000000000000e+00  -4.7345454312138547e-20 1.9973863537933447e-21 0.0000000000000000e+00  -2.9795507333546878e-20 -6.2073973611555990e-22 0.0000000000000000e+00  -1.1759633533996103e-20 -8.6768129374103201e-23 0.0000000000000000e+00  -3.3286872250965769e-20 -6.9347650522845352e-22 0.0000000000000000e+00  1.1767119593112224e-20 -3.3324850410181101e-22 0.0000000000000000e+00  1.2490705740045552e-20 1.9516727718821176e-22 0.0000000000000000e+00  1.1075970973251663e-20 -2.7000884100013098e-22 0.0000000000000000e+00  -4.0820992673997694e-20 1.5945700263280349e-22 0.0000000000000000e+00  -3.6719938697942709e-21 1.1474980843107096e-22 0.0000000000000000e+00  2.2939204993811099e-20 2.3895005201886561e-22 0.0000000000000000e+00  6.2710547901726568e-20 -4.9381779555113150e-22 0.0000000000000000e+00  8.6460619347514606e-21 -5.4037887092196629e-22 0.0000000000000000e+00  -4.4955031857229701e-20 3.8633230502306774e-22 0.0000000000000000e+00  1.9282733474223877e-20 1.5064635526737404e-21 0.0000000000000000e+00  -1.3563397406298339e-20 1.7523403577310747e-21 0.0000000000000000e+00  6.1266750368712037e-20 -6.3819531634075038e-22 0.0000000000000000e+00  2.6141491484388961e-20 1.0892288118495400e-21 0.0000000000000000e+00  -2.1127364162793635e-20 -1.3204602601746022e-21 0.0000000000000000e+00  4.7615763142500164e-21 2.7718213051827869e-21 0.0000000000000000e+00  2.8266085314590779e-20 5.8887677738730783e-22 0.0000000000000000e+00  4.3401593934109897e-21 -1.6953747630511679e-21 0.0000000000000000e+00  -3.8849489779413034e-20 3.3993303556986404e-21 0.0000000000000000e+00  -4.2508554635818486e-20 1.6378543479084349e-21 0.0000000000000000e+00  3.1528569821618996e-20 -1.6421130115426561e-21 0.0000000000000000e+00  -9.0995283590729759e-21 -1.2085311101893797e-21 0.0000000000000000e+00  -4.9208727630107917e-20 5.1259091281362411e-22 0.0000000000000000e+00  -3.1518073800298992e-20 -4.6832091684299907e-21 0.0000000000000000e+00  -1.9181475049678941e-20 1.1988421906049338e-21 0.0000000000000000e+00  -4.3678645264616373e-20 2.0159374737515250e-21 0.0000000000000000e+00  -1.2205066450567704e-20 1.5256333063209630e-21 0.0000000000000000e+00  -8.6207196940830292e-21 9.5776485924854355e-23 0.0000000000000000e+00  -1.2366370015547038e-20 1.1593471889575347e-21 0.0000000000000000e+00  -5.7013176019356659e-21 1.1199016718087915e-21 0.0000000000000000e+00  6.8568060976479630e-21 8.5710076220599537e-22 0.0000000000000000e+00  3.2941697678138865e-21 1.6882620060046169e-21 0.0000000000000000e+00  7.1694500790183228e-21 1.3442718898159355e-21 0.0000000000000000e+00  9.0033051955312943e-22 9.0033051955312943e-22 0.0000000000000000e+00  1.8086542493631144e-20 -5.4259627480893432e-21 0.0000000000000000e+00  1.9324651425185009e-20 -2.8663567371903671e-21 0.0000000000000000e+00  -2.4314569717917011e-20 3.0393212147396264e-21 0.0000000000000000e+00  1.0367342446656234e-21 6.4795890291601462e-22 0.0000000000000000e+00  7.4496361902941943e-21 -1.2416060317156992e-21 0.0000000000000000e+00  -8.9713329770136464e-21 -1.0540730651843710e-21 0.0000000000000000e+00  5.3118952758557595e-21 1.5493027887912631e-21 0.0000000000000000e+00  -2.3764440124835667e-21 1.6833145088425265e-21 0.0000000000000000e+00  -5.6071883329868838e-21 3.5044927081168024e-22 0.0000000000000000e+00  -6.5930232246134580e-21 9.3063114515473630e-22 0.0000000000000000e+00  -5.0262670051297334e-21 -8.3771116752162227e-22 0.0000000000000000e+00  4.3718764666610296e-22 1.9673444099974633e-21 0.0000000000000000e+00  -1.8540344084415823e-21 4.6350860211039557e-22 0.0000000000000000e+00  -3.7760387296936740e-21 7.9936303753595918e-22 0.0000000000000000e+00  -4.0968763762938063e-21 1.2802738675918144e-21 0.0000000000000000e+00  6.0180528683605891e-21 2.67469016