<?xml version="1.0"?>
<VTKFile type="UnstructuredGrid"  version="0.1"  >
<UnstructuredGrid>
<Piece  NumberOfPoints="18082" NumberOfCells="35500">
<Points>
<DataArray  type="Float64"  NumberOfComponents="3"  format="ascii">0 0 0  30 0 0  30 -10 0  0 -10 0  0.02360821169319077 0 0  0.04721642338638154 0 0  0.07206717063563725 0 0  0.09691791788489297 0 0  0.1230766011355843 0 0  0.1492352843862757 0 0  0.1767707375239038 0 0  0.204306190661532 0 0  0.2332908770901271 0 0  0.2622755635187223 0 0  0.2927857633803451 0 0  0.323295963241968 0 0  0.3554119623832387 0 0  0.3875279615245094 0 0  0.4213342730081758 0 0  0.4551405844918422 0 0  0.4907261762804851 0 0  0.526311768069128 0 0  0.5637702848355051 0 0  0.6012288016018821 0 0  0.6406588220121138 0 0  0.6800888424223455 0 0  0.721594129780935 0 0  0.7630994171395246 0 0  0.8067891887833475 0 0  0.8504789604271704 0 0  0.8964681941825949 0 0  0.9424574279380195 0 0  0.9908671465681095 0 0  1.039276865198199 0 0  1.090234462786975 0 0  1.141192060375751 0 0  1.194831641933244 0 0  1.248471223490737 0 0  1.304933942963653 0 0  1.361396662436569 0 0  1.420831104471586 0 0  1.480265546506604 0 0  1.542828113436244 0 0  1.605390680365884 0 0  1.671246013469327 0 0  1.73710134657277 0 0  1.806422752814762 0 0  1.875744159056755 0 0  1.948714057431306 0 0  2.021683955805857 0 0  2.098494373901932 0 0  2.175304791998006 0 0  2.256157866653476 0 0  2.337010941308945 0 0  2.422119443935387 0 0  2.50722794656183 0 0  2.596815840700639 0 0  2.686403734839449 0 0  2.780706776094687 0 0  2.875009817349925 0 0  2.974276175689285 0 0  3.073542534028646 0 0  3.178033441002704 0 0  3.282524347976761 0 0  3.392514777963501 0 0  3.502505207950242 0 0  3.618284608533553 0 0  3.734064009116865 0 0  3.855937062816526 0 0  3.977810116516187 0 0  4.106097541496641 0 0  4.234384966477093 0 0  4.369424362562147 0 0  4.5044637586472 0 0  4.646610489729194 0 0  4.788757220811188 0 0  4.938385356669961 0 0  5.088013492528733 0 0  5.24551679218304 0 0  5.403020091837347 0 0  5.568813038399614 0 0  5.73460598496188 0 0  5.909124878408681 0 0  6.083643771855482 0 0  6.267347873338513 0 0  6.451051974821543 0 0  6.644424714363561 0 0  6.83779745390558 0 0  7.041347702348167 0 0  7.244897950790754 0 0  7.459161368238869 0 0  7.673424785686984 0 0  7.898965226038037 0 0  8.124505666389089 0 0  8.361916654054033 0 0  8.599327641718979 0 0  8.849233942517035 0 0  9.099140243315093 0 0  9.362199507946787 0 0  9.625258772578484 0 0  9.902163261537794 0 0  10.1790677504971 0 0  10.47054616023911 0 0  10.76202456998112 0 0  11.06884394887334 0 0  11.37566332776555 0 0  11.69863109504192 0 0  12.02159886231829 0 0  12.3615649378891 0 0  12.7015310134599 0 0  13.05939003847426 0 0  13.41724906348862 0 0  13.79394276982091 0 0  14.1706364761532 0 0  14.5671561683298 0 0  14.96367586050641 0 0  15.38106501332897 0 0  15.79845416615153 0 0  16.23781117165827 0 0  16.677168177165 0 0  17.13964923659526 0 0  17.60213029602552 0 0  18.0889524622663 0 0  18.57577462850707 0 0  19.08821901304263 0 0  19.60066339757818 0 0  20.14007853843172 0 0  20.67949367928525 0 0  21.24729908993883 0 0  21.8151045005924 0 0  22.41279440541421 0 0  23.01048431023601 0 0  23.63963157605829 0 0  24.26877884188056 0 0  24.93103912515648 0 0  25.59329940843241 0 0  26.29041549584691 0 0  26.98753158326142 0 0  27.72133799026916 0 0  28.45514439727691 0 0  29.22757219863846 0 0  30 -0.3571428571428571 0  30 -0.7142857142857142 0  30 -1.071428571428571 0  30 -1.428571428571428 0  30 -1.785714285714286 0  30 -2.142857142857143 0  30 -2.5 0  30 -2.857142857142857 0  30 -3.214285714285714 0  30 -3.571428571428571 0  30 -3.928571428571428 0  30 -4.285714285714286 0  30 -4.642857142857142 0  30 -5 0  30 -5.357142857142857 0  30 -5.714285714285714 0  30 -6.071428571428571 0  30 -6.428571428571428 0  30 -6.785714285714285 0  30 -7.142857142857142 0  30 -7.5 0  30 -7.857142857142857 0  30 -8.214285714285714 0  30 -8.571428571428571 0  30 -8.928571428571427 0  30 -9.285714285714285 0  30 -9.642857142857142 0  29.22757220128658 -10 0  28.45514440257316 -10 0  27.72133799277628 -10 0  26.98753158297939 -10 0  26.29041549304805 -10 0  25.5932994031167 -10 0  24.93103911757599 -10 0  24.26877883203527 -10 0  23.63963156418132 -10 0  23.01048429632737 -10 0  22.41279438968936 -10 0  21.81510448305136 -10 0  21.24729907078059 -10 0  20.67949365850982 -10 0  20.14007851622273 -10 0  19.60066337393564 -10 0  19.08821898813588 -10 0  18.57577460233611 -10 0  18.08895243498708 -10 0  17.60213026763805 -10 0  17.13964920724307 -10 0  16.6771681468481 -10 0  16.2378111405086 -10 0  15.79845413416909 -10 0  15.38106498063496 -10 0  14.96367582710082 -10 0  14.56715613432376 -10 0  14.17063644154669 -10 0  13.79394273471576 -10 0  13.41724902788484 -10 0  13.05939000246495 -10 0  12.70153097704506 -10 0  12.36156490115379 -10 0  12.02159882526251 -10 0  11.69863105774323 -10 0  11.37566329022395 -10 0  11.06884391115945 -10 0  10.76202453209494 -10 0  10.47054612224479 -10 0  10.17906771239465 -10 0  9.902163223385379 -10 0  9.625258734376107 -10 0  9.362199469747061 -10 0  9.099140205118012 -10 0  8.849233904370102 -10 0  8.599327603622193 -10 0  8.361916616050124 -10 0  8.124505628478055 -10 0  7.898965188258209 -10 0  7.673424748038361 -10 0  7.459161330755727 -10 0  7.244897913473093 -10 0  7.041347665226496 -10 0  6.837797416979896 -10 0  6.644424677660922 -10 0  6.451051938341948 -10 0  6.26734783710581 -10 0  6.083643735869675 -10 0  5.90912484269068 -10 0  5.734605949511682 -10 0  5.568813003235423 -10 0  5.403020056959164 -10 0  5.24551675760658 -10 0  5.088013458254 -10 0  4.938385322710374 -10 0  4.788757187166745 -10 0  4.646610456411224 -10 0  4.504463725655707 -10 0  4.369424329906533 -10 0  4.234384934157362 -10 0  4.106097509520442 -10 0  3.977810084883522 -10 0  3.85593703153344 -10 0  3.734063978183357 -10 0  3.618284577954206 -10 0  3.502505177725055 -10 0  3.392514748095728 -10 0  3.282524318466404 -10 0  3.1780334118518 -10 0  3.073542505237196 -10 0  2.97427614725823 -10 0  2.875009789279265 -10 0  2.780706748384375 -10 0  2.686403707489482 -10 0  2.596815813710069 -10 0  2.507227919930656 -10 0  2.422119417661861 -10 0  2.337010915393062 -10 0  2.256157841092762 -10 0  2.175304766792465 -10 0  2.098494349048437 -10 0  2.021683931304413 -10 0  1.948714033278215 -10 0  1.875744135252013 -10 0  1.806422729354161 -10 0  1.737101323456312 -10 0  1.671245990692352 -10 0  1.605390657928396 -10 0  1.542828091333185 -10 0  1.480265524737977 -10 0  1.420831083031992 -10 0  1.36139664132601 -10 0  1.304933922176438 -10 0  1.248471203026863 -10 0  1.194831621786765 -10 0  1.14119204054667 -10 0  1.09023444350921 -10 0  1.039276846471754 -10 0  0.9908671279064798 -10 0  0.942457409341209 -10 0  0.8964681758842019 -10 0  0.8504789424271948 -10 0  0.8067891710751951 -10 0  0.7630993997231954 -10 0  0.7215941126497469 -10 0  0.6800888255762949 -10 0  0.6406588054444597 -10 0  0.6012287853126246 -10 0  0.5637702688178621 -10 0  0.5263117523230996 -10 0  0.4907261607992695 -10 0  0.4551405692754429 -10 0  0.4213342580497894 -10 0  0.3875279468241395 -10 0  0.3554119479341011 -10 0  0.3232959490440663 -10 0  0.2927857494269297 -10 0  0.2622755498097931 -10 0  0.2332908636189828 -10 0  0.2043061774281725 -10 0  0.1767707245216883 -10 0  0.1492352716152006 -10 0  0.1230765885890825 -10 0  0.09691790556296098 -10 0  0.0720671585317838 -10 0  0.04721641150060663 -10 0  0.02360820575030331 -10 0  0 -9.972067039106145 0  0 -9.94413407821229 0  0 -9.916201117318435 0  0 -9.888268156424582 0  0 -9.860335195530727 0  0 -9.832402234636872 0  0 -9.804469273743017 0  0 -9.776536312849162 0  0 -9.748603351955307 0  0 -9.720670391061452 0  0 -9.692737430167599 0  0 -9.664804469273744 0  0 -9.636871508379889 0  0 -9.608938547486034 0  0 -9.581005586592179 0  0 -9.553072625698324 0  0 -9.525139664804469 0  0 -9.497206703910614 0  0 -9.46927374301676 0  0 -9.441340782122905 0  0 -9.41340782122905 0  0 -9.385474860335195 0  0 -9.35754189944134 0  0 -9.329608938547485 0  0 -9.30167597765363 0  0 -9.273743016759777 0  0 -9.245810055865922 0  0 -9.217877094972067 0  0 -9.189944134078212 0  0 -9.162011173184357 0  0 -9.134078212290502 0  0 -9.106145251396647 0  0 -9.078212290502794 0  0 -9.050279329608939 0  0 -9.022346368715084 0  0 -8.994413407821229 0  0 -8.966480446927374 0  0 -8.938547486033519 0  0 -8.910614525139664 0  0 -8.882681564245811 0  0 -8.854748603351956 0  0 -8.826815642458101 0  0 -8.798882681564246 0  0 -8.770949720670391 0  0 -8.743016759776536 0  0 -8.715083798882681 0  0 -8.687150837988828 0  0 -8.659217877094973 0  0 -8.631284916201118 0  0 -8.603351955307263 0  0 -8.575418994413408 0  0 -8.547486033519553 0  0 -8.519553072625698 0  0 -8.491620111731844 0  0 -8.463687150837989 0  0 -8.435754189944134 0  0 -8.407821229050279 0  0 -8.379888268156424 0  0 -8.351955307262569 0  0 -8.324022346368714 0  0 -8.296089385474861 0  0 -8.268156424581006 0  0 -8.240223463687151 0  0 -8.212290502793296 0  0 -8.184357541899441 0  0 -8.156424581005586 0  0 -8.128491620111731 0  0 -8.100558659217878 0  0 -8.072625698324023 0  0 -8.044692737430168 0  0 -8.016759776536313 0  0 -7.988826815642458 0  0 -7.960893854748603 0  0 -7.932960893854748 0  0 -7.905027932960894 0  0 -7.877094972067039 0  0 -7.849162011173184 0  0 -7.82122905027933 0  0 -7.793296089385475 0  0 -7.76536312849162 0  0 -7.737430167597765 0  0 -7.709497206703911 0  0 -7.681564245810056 0  0 -7.653631284916202 0  0 -7.625698324022347 0  0 -7.597765363128492 0  0 -7.569832402234637 0  0 -7.541899441340782 0  0 -7.513966480446927 0  0 -7.486033519553073 0  0 -7.458100558659218 0  0 -7.430167597765363 0  0 -7.402234636871508 0  0 -7.374301675977653 0  0 -7.346368715083798 0  0 -7.318435754189944 0  0 -7.290502793296089 0  0 -7.262569832402235 0  0 -7.23463687150838 0  0 -7.206703910614525 0  0 -7.17877094972067 0  0 -7.150837988826815 0  0 -7.12290502793296 0  0 -7.094972067039106 0  0 -7.067039106145251 
[...]
<PointData  Vectors="displacement"> 
<DataArray  type="Float64"  Name="displacement"  NumberOfComponents="3" format="ascii">1.0000000000000009e-01 5.4961254088356115e-02 0.0000000000000000e+00  1.3918901643139718e-20 1.2585608283244673e-03 0.0000000000000000e+00  1.2569490553046123e-21 -2.4487489480809502e-22 0.0000000000000000e+00  -2.1562263701716950e-22 0.0000000000000000e+00 0.0000000000000000e+00  1.0000157003109694e-01 5.4878439580966422e-02 0.0000000000000000e+00  9.9989117594516341e-02 5.4686106865364154e-02 0.0000000000000000e+00  9.9953785053447791e-02 5.4367419645601885e-02 0.0000000000000000e+00  9.9898273302008525e-02 5.3921951526035211e-02 0.0000000000000000e+00  9.9795846051486739e-02 5.3329339746781772e-02 0.0000000000000000e+00  9.9655013532458134e-02 5.2611041850812543e-02 0.0000000000000000e+00  9.9455747549342971e-02 5.1730801252992176e-02 0.0000000000000000e+00  9.9197996950650902e-02 5.0733952551196941e-02 0.0000000000000000e+00  9.8859423420530293e-02 4.9569356557385369e-02 0.0000000000000000e+00  9.8444176234016675e-02 4.8302911671069697e-02 0.0000000000000000e+00  9.7923861792186984e-02 4.6871327044740188e-02 0.0000000000000000e+00  9.7312540272541354e-02 4.5359549245242513e-02 0.0000000000000000e+00  9.6572172849650542e-02 4.3698455276316467e-02 0.0000000000000000e+00  9.5732732764724854e-02 4.1983844028425060e-02 0.0000000000000000e+00  9.4746995963917752e-02 4.0155390667878925e-02 0.0000000000000000e+00  9.3664572995293655e-02 3.8304505932481192e-02 0.0000000000000000e+00  9.2427468295551901e-02 3.6364970695598242e-02 0.0000000000000000e+00  9.1101442684646053e-02 3.4446370143378292e-02 0.0000000000000000e+00  8.9628846046564292e-02 3.2475507160605592e-02 0.0000000000000000e+00  8.8086441670306465e-02 3.0557032728722011e-02 0.0000000000000000e+00  8.6402253364154580e-02 2.8611940488085137e-02 0.0000000000000000e+00  8.4671619816850896e-02 2.6752424634072573e-02 0.0000000000000000e+00  8.2826318228251414e-02 2.4896753825594288e-02 0.0000000000000000e+00  8.0964482061219076e-02 2.3145464354697078e-02 0.0000000000000000e+00  7.8986983329578653e-02 2.1417457508639874e-02 0.0000000000000000e+00  7.7022195054377338e-02 1.9810521114845804e-02 0.0000000000000000e+00  7.4989756707970007e-02 1.8236020121862713e-02 0.0000000000000000e+00  7.2988066697055529e-02 1.6788124147230400e-02 0.0000000000000000e+00  7.0942011450220485e-02 1.5374334648083993e-02 0.0000000000000000e+00  6.8950570122894794e-02 1.4076198488396524e-02 0.0000000000000000e+00  6.6909771467200868e-02 1.2830617846557047e-02 0.0000000000000000e+00  6.4942210241441783e-02 1.1691627272304977e-02 0.0000000000000000e+00  6.2949585587479553e-02 1.0602481807578277e-02 0.0000000000000000e+00  6.1040196052250466e-02 9.6140104459691740e-03 0.0000000000000000e+00  5.9122049594117404e-02 8.6572263269819091e-03 0.0000000000000000e+00  5.7289089305713907e-02 7.7889718038149890e-03 0.0000000000000000e+00  5.5449803429834063e-02 6.9592604277962100e-03 0.0000000000000000e+00  5.3699385832840084e-02 6.2079310037072488e-03 0.0000000000000000e+00  5.1947800520005680e-02 5.4887442254101908e-03 0.0000000000000000e+00  5.0286516956692243e-02 4.8483384358527365e-03 0.0000000000000000e+00  4.8628986175657550e-02 4.2184126002695315e-03 0.0000000000000000e+00  4.7057340678753175e-02 3.6537256696769797e-03 0.0000000000000000e+00  4.5489951741633193e-02 3.1252781084648283e-03 0.0000000000000000e+00  4.4007684467221600e-02 2.6435076851631361e-03 0.0000000000000000e+00  4.2531600292776452e-02 2.1847090322917465e-03 0.0000000000000000e+00  4.1135678629141283e-02 1.7702880954758580e-03 0.0000000000000000e+00  3.9746692756542662e-02 1.3749506431578597e-03 0.0000000000000000e+00  3.8433981049574593e-02 1.0189346871168439e-03 0.0000000000000000e+00  3.7128733460486334e-02 6.8630802914684493e-04 0.0000000000000000e+00  3.5897888851532223e-02 3.9086420381569088e-04 0.0000000000000000e+00  3.4672565897103623e-02 1.0177224909243246e-04 0.0000000000000000e+00  3.3516553095183414e-02 -1.5230541092638316e-04 0.0000000000000000e+00  3.2367318702304082e-02 -3.9453471196341231e-04 0.0000000000000000e+00  3.1282411572038947e-02 -6.1024487624343363e-04 0.0000000000000000e+00  3.0202543684793876e-02 -8.1082896177230609e-04 0.0000000000000000e+00  2.9184591195211163e-02 -9.8243140687399497e-04 0.0000000000000000e+00  2.8172074267508677e-02 -1.1489014950859702e-03 0.0000000000000000e+00  2.7217435936061202e-02 -1.2935769428803966e-03 0.0000000000000000e+00  2.6266602767579781e-02 -1.4267738816123600e-03 0.0000000000000000e+00  2.5369156286801014e-02 -1.5414184381112531e-03 0.0000000000000000e+00  2.4477901407672756e-02 -1.6468512185843786e-03 0.0000000000000000e+00  2.3637406969600688e-02 -1.7374429085027748e-03 0.0000000000000000e+00  2.2800586152858057e-02 -1.8153136867877593e-03 0.0000000000000000e+00  2.2013673654218004e-02 -1.8747990054055921e-03 0.0000000000000000e+00  2.1222548605049324e-02 -1.9369218810866339e-03 0.0000000000000000e+00  2.0476275003842595e-02 -1.9795242969705392e-03 0.0000000000000000e+00  1.9737734925180873e-02 -2.0116064396552384e-03 0.0000000000000000e+00  1.9040251422823597e-02 -2.0321291435220212e-03 0.0000000000000000e+00  1.8345783441104286e-02 -2.0464183919443745e-03 0.0000000000000000e+00  1.7689859461897859e-02 -2.0496428640851025e-03 0.0000000000000000e+00  1.7038284863578442e-02 -2.0425949593252724e-03 0.0000000000000000e+00  1.6423217231833369e-02 -2.0278784802387523e-03 0.0000000000000000e+00  1.5811881916431254e-02 -2.0035623774028936e-03 0.0000000000000000e+00  1.5235042967091729e-02 -1.9726914203552831e-03 0.0000000000000000e+00  1.4661782948892553e-02 -1.9329235427573998e-03 0.0000000000000000e+00  1.4121295627656490e-02 -1.8872122184565591e-03 0.0000000000000000e+00  1.3584715995411173e-02 -1.8326948915757392e-03 0.0000000000000000e+00  1.3080577433173023e-02 -1.7701169692602525e-03 0.0000000000000000e+00  1.2575042486708156e-02 -1.7056583529846416e-03 0.0000000000000000e+00  1.2099599628992942e-02 -1.6309577517661063e-03 0.0000000000000000e+00  1.1630014580279523e-02 -1.5504788095147609e-03 0.0000000000000000e+00  1.1187972081740058e-02 -1.4659373526204867e-03 0.0000000000000000e+00  1.0751401963268582e-02 -1.3713530416851374e-03 0.0000000000000000e+00  1.0341185951310514e-02 -1.2757170055580516e-03 0.0000000000000000e+00  9.9352417131415207e-03 -1.1730383631060883e-03 0.0000000000000000e+00  9.5555134468844529e-03 -1.0696931390805806e-03 0.0000000000000000e+00  9.1780295279632277e-03 -9.5927272550838454e-04 0.0000000000000000e+00  8.8263313244481400e-03 -8.4623049879672594e-04 0.0000000000000000e+00  8.4751210671308655e-03 -7.3049404533150910e-04 0.0000000000000000e+00  8.1476262640091685e-03 -6.1253182760072301e-04 0.0000000000000000e+00  7.8261869620569399e-03 -4.9006128925778935e-04 0.0000000000000000e+00  7.5247827737435595e-03 -3.7194626270803800e-04 0.0000000000000000e+00  7.2363124280973839e-03 -2.4093449998518793e-04 0.0000000000000000e+00  6.9692924865858022e-03 -1.1901128416875633e-04 0.0000000000000000e+00  6.6966518037607356e-03 4.8391960604500607e-06 0.0000000000000000e+00  6.4446065521294883e-03 1.2751789999904827e-04 0.0000000000000000e+00  6.2003757703491934e-03 2.5109323346583556e-04 0.0000000000000000e+00  5.9744186511976475e-03 3.7138327548877999e-04 0.0000000000000000e+00  5.7523584300154139e-03 4.9145570371467997e-04 0.0000000000000000e+00  5.5480099264561362e-03 6.0604015698814803e-04 0.0000000000000000e+00  5.3454440776775827e-03 7.1716071821223588e-04 0.0000000000000000e+00  5.1583215260937341e-03 8.2303872533768326e-04 0.0000000000000000e+00  4.9747962529838327e-03 9.2669255793031296e-04 0.0000000000000000e+00  4.8047767971038215e-03 1.0234815931054369e-03 0.0000000000000000e+00  4.6382050091407648e-03 1.1164235355629508e-03 0.0000000000000000e+00  4.4837348146914095e-03 1.2017705049735584e-03 0.0000000000000000e+00  4.3309966443080923e-03 1.2820055240644413e-03 0.0000000000000000e+00  4.1898659286872279e-03 1.3547797334632205e-03 0.0000000000000000e+00  4.0450652318743396e-03 1.4188984705509884e-03 0.0000000000000000e+00  3.9091098520503227e-03 1.4763826061006357e-03 0.0000000000000000e+00  3.7766409453938790e-03 1.5291362611032785e-03 0.0000000000000000e+00  3.6499960779217697e-03 1.5721518963574292e-03 0.0000000000000000e+00  3.5232183247905879e-03 1.6087991074048974e-03 0.0000000000000000e+00  3.4009644582428363e-03 1.6365509835297907e-03 0.0000000000000000e+00  3.2780029805722912e-03 1.6588953370908746e-03 0.0000000000000000e+00  3.1589261721560744e-03 1.6728433351763797e-03 0.0000000000000000e+00  3.0356540909952652e-03 1.6798863868824690e-03 0.0000000000000000e+00  2.9161724061399683e-03 1.6809376780149083e-03 0.0000000000000000e+00  2.7897954308128163e-03 1.6755503261194711e-03 0.0000000000000000e+00  2.6656515775088652e-03 1.6652422535065818e-03 0.0000000000000000e+00  2.5420260302541869e-03 1.6520112909353445e-03 0.0000000000000000e+00  2.4182910651016623e-03 1.6322789789596261e-03 0.0000000000000000e+00  2.2844201306141915e-03 1.6075115241917430e-03 0.0000000000000000e+00  2.1536352130307429e-03 1.5804289390205992e-03 0.0000000000000000e+00  2.0179479211492554e-03 1.5548174204665659e-03 0.0000000000000000e+00  1.8837441058619274e-03 1.5211636626965641e-03 0.0000000000000000e+00  1.7447984855273983e-03 1.4929809061559394e-03 0.0000000000000000e+00  1.6047405282757499e-03 1.4616690694284258e-03 0.0000000000000000e+00  1.4542587855184391e-03 1.4281505629964379e-03 0.0000000000000000e+00  1.3063675279646853e-03 1.3975048055416758e-03 0.0000000000000000e+00  1.1533378043964630e-03 1.3702250325517845e-03 0.0000000000000000e+00  1.0004268962701564e-03 1.3441581367207324e-03 0.0000000000000000e+00  8.4085012531230868e-04 1.3201297372841681e-03 0.0000000000000000e+00  6.8196817264976170e-04 1.2994210080001128e-03 0.0000000000000000e+00  5.1386062213420710e-04 1.2831646063007167e-03 0.0000000000000000e+00  3.4586776802399648e-04 1.2691591079918780e-03 0.0000000000000000e+00  1.7332373804289659e-04 1.2658598861556114e-03 0.0000000000000000e+00  -2.5059449570321757e-20 1.2055060546559103e-03 0.0000000000000000e+00  5.7427905265320351e-22 1.1365133131408505e-03 0.0000000000000000e+00  2.7147737034515260e-21 1.0640750547319820e-03 0.0000000000000000e+00  3.2931983993895455e-21 9.9276194259512217e-04 0.0000000000000000e+00  -2.7912801683842597e-21 9.2300785026071177e-04 0.0000000000000000e+00  2.0019611266052802e-20 8.5445921867986763e-04 0.0000000000000000e+00  0.0000000000000000e+00 7.8746442845619932e-04 0.0000000000000000e+00  6.3605914926794931e-21 7.2223554330807182e-04 0.0000000000000000e+00  2.7147868437488587e-21 6.5888898410897307e-04 0.0000000000000000e+00  4.7160905831162280e-21 5.9752851513466426e-04 0.0000000000000000e+00  1.5975110639485412e-20 5.3815638355228892e-04 0.0000000000000000e+00  -1.5260960929200268e-20 4.8121321650545850e-04 0.0000000000000000e+00  9.7006532705654046e-21 4.2638421371364729e-04 0.0000000000000000e+00  7.0870021581685191e-21 3.7413242208208294e-04 0.0000000000000000e+00  4.3416379230332418e-20 3.2456860051387865e-04 0.0000000000000000e+00  2.0159237269210454e-20 2.7780997598814171e-04 0.0000000000000000e+00  5.6747332439075689e-21 2.3438072580346205e-04 0.0000000000000000e+00  5.1348671857599006e-21 1.9425796601021860e-04 0.0000000000000000e+00  -1.7998007266749545e-21 1.5746782205330911e-04 0.0000000000000000e+00  -4.8698853422984194e-21 1.2416762434918575e-04 0.0000000000000000e+00  4.9666571773888489e-21 9.3988873330929244e-05 0.0000000000000000e+00  -1.7740761596625795e-21 6.7930201238085964e-05 0.0000000000000000e+00  0.0000000000000000e+00 4.6121807414833026e-05 0.0000000000000000e+00  2.6063600506980502e-21 2.8490853444067638e-05 0.0000000000000000e+00  -1.1197069610458155e-21 1.5782988462013032e-05 0.0000000000000000e+00  7.9892255228814782e-22 7.5117366322432081e-06 0.0000000000000000e+00  3.6701375781136005e-22 1.1643083125134026e-06 0.0000000000000000e+00  1.4853619906476100e-22 -8.1694909485618554e-22 0.0000000000000000e+00  -5.3690050141577132e-21 9.0285718907135082e-22 0.0000000000000000e+00  -1.1631170160625862e-20 1.3327382475717133e-21 0.0000000000000000e+00  1.9710392718687192e-20 -7.1460472102368566e-22 0.0000000000000000e+00  1.2925230864059727e-20 -6.7318910750311081e-22 0.0000000000000000e+00  3.3852498763916454e-21 4.2315623454895567e-22 0.0000000000000000e+00  4.5148008550790430e-20 -7.0543763360610047e-22 0.0000000000000000e+00  -2.8359447381794859e-20 -1.2842649903879366e-21 0.0000000000000000e+00  0.0000000000000000e+00 0.0000000000000000e+00 0.0000000000000000e+00  -3.7870318237859504e-20 1.7403638896075139e-22 0.0000000000000000e+00  -8.3244637854945734e-20 2.0233071700854864e-21 0.0000000000000000e+00  -7.4243298293911729e-20 1.6206320094248748e-21 0.0000000000000000e+00  7.4996224018913753e-20 -8.7886200022164558e-22 0.0000000000000000e+00  5.2572382377733926e-20 -6.1608260598906942e-22 0.0000000000000000e+00  2.7247940843325560e-20 2.1287453783848093e-22 0.0000000000000000e+00  -3.2758017678627962e-20 -1.0717280207891560e-21 0.0000000000000000e+00  -4.4801667405302691e-20 -7.0002605320785454e-22 0.0000000000000000e+00  4.8274869089161115e-20 -7.8572378074806501e-22 0.0000000000000000e+00  1.0156400220694692e-19 -1.2315296491565016e-21 0.0000000000000000e+00  2.0446232016674178e-20 2.6996414183227680e-22 0.0000000000000000e+00  -6.0958747315447577e-20 -7.9373368900322362e-23 0.0000000000000000e+00  4.4995208179972895e-20 8.2711779742597231e-23 0.0000000000000000e+00  0.0000000000000000e+00 0.0000000000000000e+00 0.0000000000000000e+00  7.9052073199788980e-20 -2.0817194592617118e-21 0.0000000000000000e+00  0.0000000000000000e+00 -3.0872426288494124e-22 0.0000000000000000e+00  -3.7789595597995393e-20 -6.7481420710706057e-22 0.0000000000000000e+00  0.0000000000000000e+00 -7.9752728091167323e-22 0.0000000000000000e+00  3.4504261581375455e-20 1.7912787020327708e-21 0.0000000000000000e+00  1.1841274775018468e-19 8.2231074826517129e-22 0.0000000000000000e+00  -1.0976777159810969e-20 -3.6589257199369895e-21 0.0000000000000000e+00  -8.3304777683760985e-21 1.0413097210470123e-21 0.0000000000000000e+00  7.6123355628135420e-21 -1.6991820452708800e-21 0.0000000000000000e+00  -9.1156672512186053e-21 -5.6972920320116283e-22 0.0000000000000000e+00  3.6212940929133723e-20 4.3805976930403693e-22 0.0000000000000000e+00  -3.8279105710174684e-20 1.1962220534429589e-21 0.0000000000000000e+00  -1.4589773043464201e-20 1.8626141093838549e-21 0.0000000000000000e+00  2.9990645822292536e-20 -1.2496102425955224e-21 0.0000000000000000e+00  5.2670588377656451e-20 4.5933652654932954e-21 0.0000000000000000e+00  9.8493864405600415e-20 7.3870398304200305e-21 0.0000000000000000e+00  6.6756960392041645e-20 -8.9271740673406667e-21 0.0000000000000000e+00  3.2165926436196101e-21 -3.2165926436196101e-21 0.0000000000000000e+00  -4.7025125749756213e-21 4.4887620033858205e-21 0.0000000000000000e+00  -1.6583318892926433e-20 -1.8425909881029368e-21 0.0000000000000000e+00  2.3685870064789412e-21 2.9547211125677503e-21 0.0000000000000000e+00  -5.2490261293766084e-22 6.2988313552519297e-21 0.0000000000000000e+00  -7.7332185118013363e-21 -2.4856773787932862e-21 0.0000000000000000e+00  -5.7260001060289372e-21 -3.4356000636173623e-21 0.0000000000000000e+00  6.8101856877869302e-21 1.5291731911309477e-21 0.0000000000000000e+00  -4.7544904226103626e-21 1.1886226056525907e-21 0.0000000000000000e+00  -2.1753246412582816e-20 8.5868077944405867e-22 0.0000000000000000e+00  4.4901840126247825e-21 8.9803680252495649e-21 0.0000000000000000e+00  -3.4643644539623592e-20 -3.8503154333893564e-21 0.0000000000000000e+00  -4.2649044353857341e-20 -7.6159007774745247e-22 0.0000000000000000e+00  -1.1546629195754600e-20 1.6237447306529906e-21 0.0000000000000000e+00  8.9772193235586360e-20 -2.1040357789590554e-21 0.0000000000000000e+00  1.0875624899705715e-20 -2.3586799956007808e-21 0.0000000000000000e+00  2.2558995495018645e-20 -1.4099372184386653e-21 0.0000000000000000e+00  3.5334116699431479e-20 -1.7176306728890302e-21 0.0000000000000000e+00  -3.2576839508917879e-20 -5.0901311732684187e-22 0.0000000000000000e+00  -7.4572606119225223e-20 -1.9256860210187820e-21 0.0000000000000000e+00  0.0000000000000000e+00 5.6201426721308565e-22 0.0000000000000000e+00  -2.3672727156069274e-20 1.4425568110729714e-21 0.0000000000000000e+00  7.9454686222791668e-20 -3.1036986805777995e-22 0.0000000000000000e+00  1.5679511378661472e-20 -1.6741144961591675e-21 0.0000000000000000e+00  -1.3314748900386308e-19 -8.6684563153556689e-22 0.0000000000000000e+00  2.7946909033641534e-20 -4.4816178137829758e-22 0.0000000000000000e+00  -1.2490705740045552e-20 -1.9516727718821176e-22 0.0000000000000000e+00  -2.7895038006707891e-20 -3.7657019367970787e-22 0.0000000000000000e+00  5.4427990231996929e-20 1.4616891908006989e-22 0.0000000000000000e+00  -7.3439877395885417e-21 0.0000000000000000e+00 0.0000000000000000e+00  9.1756819975244394e-20 5.9737513004716398e-22 0.0000000000000000e+00  -2.2464312037719483e-20 2.5431804726417474e-22 0.0000000000000000e+00  -6.0522433543260224e-20 2.7018943546098314e-22 0.0000000000000000e+00  4.4955031857229701e-21 1.1941180337076639e-21 0.0000000000000000e+00  -1.9282733474223877e-20 1.8077562632084885e-21 0.0000000000000000e+00  -1.0661654491953392e-19 3.5067947297405643e-21 0.0000000000000000e+00  5.1055625307260031e-20 -2.2336836071926263e-21 0.0000000000000000e+00  -6.4731312247058382e-20 1.5560411597850571e-21 0.0000000000000000e+00  -9.5073138732571362e-20 2.6409205203492043e-21 0.0000000000000000e+00  -1.2016599551809999e-19 -2.5670483073208961e-21 0.0000000000000000e+00  -1.4133042657295389e-20 1.7666303321619237e-21 0.0000000000000000e+00  1.0850398483527475e-20 5.4251992417637371e-22 0.0000000000000000e+00  -6.2159183647060854e-20 9.7123724448532584e-22 0.0000000000000000e+00  -1.8140537708777890e-20 -1.9785903270655720e-21 0.0000000000000000e+00  0.0000000000000000e+00 -1.6421130115426561e-21 0.0000000000000000e+00  -1.5924174628377708e-20 -2.1327019591577285e-21 0.0000000000000000e+00  0.0000000000000000e+00 2.0503636512544964e-21 0.0000000000000000e+00  4.4582527332018970e-20 -1.5124330400473265e-21 0.0000000000000000e+00  0.0000000000000000e+00 -1.1988421906049338e-21 0.0000000000000000e+00  -3.1583020422107226e-20 1.4279557105739969e-21 0.0000000000000000e+00  -6.1025332252838519e-21 3.8140832658024075e-22 0.0000000000000000e+00  -1.8771842924252231e-20 9.5776485924854355e-23 0.0000000000000000e+00  -1.2366370015547038e-20 1.9322453149292248e-21 0.0000000000000000e+00  8.9592133744703317e-21 2.0361848578341664e-22 0.0000000000000000e+00  -3.4284030488239815e-20 4.2855038110299769e-22 0.0000000000000000e+00  -1.3725707365891193e-21 -9.8138807666122031e-22 0.0000000000000000e+00  7.1694500790183228e-21 0.0000000000000000e+00 0.0000000000000000e+00  -1.8006610391062589e-21 -7.8778920460898828e-22 0.0000000000000000e+00  -1.0851925496178686e-20 -2.7129813740446716e-21 0.0000000000000000e+00  9.4308297002905450e-21 6.5377466176144589e-21 0.0000000000000000e+00  -6.9470199194048601e-21 -8.6837748992560751e-22 0.0000000000000000e+00  -1.3995912302985916e-20 -1.7494890378732396e-21 0.0000000000000000e+00  0.0000000000000000e+00 2.4832120634313983e-21 0.0000000000000000e+00  -8.8073660557627441e-21 3.0041082357754572e-21 0.0000000000000000e+00  -5.3118952758557595e-21 1.7706317586185864e-21 0.0000000000000000e+00  -7.5254060395312945e-21 1.5842960083223779e-21 0.0000000000000000e+00  -1.1214376665973768e-20 -7.0089854162336047e-22 0.0000000000000000e+00  -1.6708105029825225e-20 3.5441407374455491e-21 0.0000000000000000e+00  -6.7016893401729781e-21 -8.3771116752162227e-22 0.0000000000000000e+00  0.0000000000000000e+00 -1.0929691166652574e-22 0.0000000000000000e+00  1.2978240859091076e-20 -9.2701720422079113e-22 0.0000000000000000e+00  6.2578706367100807e-21 -3.3497117763411625e-22 0.0000000000000000e+00  -1.0242190940734515e-20 1.5363286411101775e-21 0.0000000000000000e+00  5.0819113110600527e-21 1.1367433195792