<?xml version="1.0"?>
<VTKFile type="UnstructuredGrid"  version="0.1"  >
<UnstructuredGrid>
<Piece  NumberOfPoints="13179" NumberOfCells="25814">
<Points>
<DataArray  type="Float64"  NumberOfComponents="3"  format="ascii">0 0 0  30 0 0  30 -10 0  0 -10 0  0.02360821169319077 0 0  0.04721642338638154 0 0  0.07206717063563725 0 0  0.09691791788489297 0 0  0.1230766011355843 0 0  0.1492352843862757 0 0  0.1767707375239038 0 0  0.204306190661532 0 0  0.2332908770901271 0 0  0.2622755635187223 0 0  0.2927857633803451 0 0  0.323295963241968 0 0  0.3554119623832387 0 0  0.3875279615245094 0 0  0.4213342730081758 0 0  0.4551405844918422 0 0  0.4907261762804851 0 0  0.526311768069128 0 0  0.5637702848355051 0 0  0.6012288016018821 0 0  0.6406588220121138 0 0  0.6800888424223455 0 0  0.721594129780935 0 0  0.7630994171395246 0 0  0.8067891887833475 0 0  0.8504789604271704 0 0  0.8964681941825949 0 0  0.9424574279380195 0 0  0.9908671465681095 0 0  1.039276865198199 0 0  1.090234462786975 0 0  1.141192060375751 0 0  1.194831641933244 0 0  1.248471223490737 0 0  1.304933942963653 0 0  1.361396662436569 0 0  1.420831104471586 0 0  1.480265546506604 0 0  1.542828113436244 0 0  1.605390680365884 0 0  1.671246013469327 0 0  1.73710134657277 0 0  1.806422752814762 0 0  1.875744159056755 0 0  1.948714057431306 0 0  2.021683955805857 0 0  2.098494373901932 0 0  2.175304791998006 0 0  2.256157866653476 0 0  2.337010941308945 0 0  2.422119443935387 0 0  2.50722794656183 0 0  2.596815840700639 0 0  2.686403734839449 0 0  2.780706776094687 0 0  2.875009817349925 0 0  2.974276175689285 0 0  3.073542534028646 0 0  3.178033441002704 0 0  3.282524347976761 0 0  3.392514777963501 0 0  3.502505207950242 0 0  3.618284608533553 0 0  3.734064009116865 0 0  3.855937062816526 0 0  3.977810116516187 0 0  4.106097541496641 0 0  4.234384966477093 0 0  4.369424362562147 0 0  4.5044637586472 0 0  4.646610489729194 0 0  4.788757220811188 0 0  4.938385356669961 0 0  5.088013492528733 0 0  5.24551679218304 0 0  5.403020091837347 0 0  5.568813038399614 0 0  5.73460598496188 0 0  5.909124878408681 0 0  6.083643771855482 0 0  6.267347873338513 0 0  6.451051974821543 0 0  6.644424714363561 0 0  6.83779745390558 0 0  7.041347702348167 0 0  7.244897950790754 0 0  7.459161368238869 0 0  7.673424785686984 0 0  7.898965226038037 0 0  8.124505666389089 0 0  8.361916654054033 0 0  8.599327641718979 0 0  8.849233942517035 0 0  9.099140243315093 0 0  9.362199507946787 0 0  9.625258772578484 0 0  9.902163261537794 0 0  10.1790677504971 0 0  10.47054616023911 0 0  10.76202456998112 0 0  11.06884394887334 0 0  11.37566332776555 0 0  11.69863109504192 0 0  12.02159886231829 0 0  12.3615649378891 0 0  12.7015310134599 0 0  13.05939003847426 0 0  13.41724906348862 0 0  13.79394276982091 0 0  14.1706364761532 0 0  14.5671561683298 0 0  14.96367586050641 0 0  15.38106501332897 0 0  15.79845416615153 0 0  16.23781117165827 0 0  16.677168177165 0 0  17.13964923659526 0 0  17.60213029602552 0 0  18.0889524622663 0 0  18.57577462850707 0 0  19.08821901304263 0 0  19.60066339757818 0 0  20.14007853843172 0 0  20.67949367928525 0 0  21.24729908993883 0 0  21.8151045005924 0 0  22.41279440541421 0 0  23.01048431023601 0 0  23.63963157605829 0 0  24.26877884188056 0 0  24.93103912515648 0 0  25.59329940843241 0 0  26.29041549584691 0 0  26.98753158326142 0 0  27.72133799026916 0 0  28.45514439727691 0 0  29.22757219863846 0 0  30 -0.3571428571428571 0  30 -0.7142857142857142 0  30 -1.071428571428571 0  30 -1.428571428571428 0  30 -1.785714285714286 0  30 -2.142857142857143 0  30 -2.5 0  30 -2.857142857142857 0  30 -3.214285714285714 0  30 -3.571428571428571 0  30 -3.928571428571428 0  30 -4.285714285714286 0  30 -4.642857142857142 0  30 -5 0  30 -5.357142857142857 0  30 -5.714285714285714 0  30 -6.071428571428571 0  30 -6.428571428571428 0  30 -6.785714285714285 0  30 -7.142857142857142 0  30 -7.5 0  30 -7.857142857142857 0  30 -8.214285714285714 0  30 -8.571428571428571 0  30 -8.928571428571427 0  30 -9.285714285714285 0  30 -9.642857142857142 0  29.22757220128658 -10 0  28.45514440257316 -10 0  27.72133799277628 -10 0  26.98753158297939 -10 0  26.29041549304805 -10 0  25.5932994031167 -10 0  24.93103911757599 -10 0  24.26877883203527 -10 0  23.63963156418132 -10 0  23.01048429632737 -10 0  22.41279438968936 -10 0  21.81510448305136 -10 0  21.24729907078059 -10 0  20.67949365850982 -10 0  20.14007851622273 -10 0  19.60066337393564 -10 0  19.08821898813588 -10 0  18.57577460233611 -10 0  18.08895243498708 -10 0  17.60213026763805 -10 0  17.13964920724307 -10 0  16.6771681468481 -10 0  16.2378111405086 -10 0  15.79845413416909 -10 0  15.38106498063496 -10 0  14.96367582710082 -10 0  14.56715613432376 -10 0  14.17063644154669 -10 0  13.79394273471576 -10 0  13.41724902788484 -10 0  13.05939000246495 -10 0  12.70153097704506 -10 0  12.36156490115379 -10 0  12.02159882526251 -10 0  11.69863105774323 -10 0  11.37566329022395 -10 0  11.06884391115945 -10 0  10.76202453209494 -10 0  10.47054612224479 -10 0  10.17906771239465 -10 0  9.902163223385379 -10 0  9.625258734376107 -10 0  9.362199469747061 -10 0  9.099140205118012 -10 0  8.849233904370102 -10 0  8.599327603622193 -10 0  8.361916616050124 -10 0  8.124505628478055 -10 0  7.898965188258209 -10 0  7.673424748038361 -10 0  7.459161330755727 -10 0  7.244897913473093 -10 0  7.041347665226496 -10 0  6.837797416979896 -10 0  6.644424677660922 -10 0  6.451051938341948 -10 0  6.26734783710581 -10 0  6.083643735869675 -10 0  5.90912484269068 -10 0  5.734605949511682 -10 0  5.568813003235423 -10 0  5.403020056959164 -10 0  5.24551675760658 -10 0  5.088013458254 -10 0  4.938385322710374 -10 0  4.788757187166745 -10 0  4.646610456411224 -10 0  4.504463725655707 -10 0  4.369424329906533 -10 0  4.234384934157362 -10 0  4.106097509520442 -10 0  3.977810084883522 -10 0  3.85593703153344 -10 0  3.734063978183357 -10 0  3.618284577954206 -10 0  3.502505177725055 -10 0  3.392514748095728 -10 0  3.282524318466404 -10 0  3.1780334118518 -10 0  3.073542505237196 -10 0  2.97427614725823 -10 0  2.875009789279265 -10 0  2.780706748384375 -10 0  2.686403707489482 -10 0  2.596815813710069 -10 0  2.507227919930656 -10 0  2.422119417661861 -10 0  2.337010915393062 -10 0  2.256157841092762 -10 0  2.175304766792465 -10 0  2.098494349048437 -10 0  2.021683931304413 -10 0  1.948714033278215 -10 0  1.875744135252013 -10 0  1.806422729354161 -10 0  1.737101323456312 -10 0  1.671245990692352 -10 0  1.605390657928396 -10 0  1.542828091333185 -10 0  1.480265524737977 -10 0  1.420831083031992 -10 0  1.36139664132601 -10 0  1.304933922176438 -10 0  1.248471203026863 -10 0  1.194831621786765 -10 0  1.14119204054667 -10 0  1.09023444350921 -10 0  1.039276846471754 -10 0  0.9908671279064798 -10 0  0.942457409341209 -10 0  0.8964681758842019 -10 0  0.8504789424271948 -10 0  0.8067891710751951 -10 0  0.7630993997231954 -10 0  0.7215941126497469 -10 0  0.6800888255762949 -10 0  0.6406588054444597 -10 0  0.6012287853126246 -10 0  0.5637702688178621 -10 0  0.5263117523230996 -10 0  0.4907261607992695 -10 0  0.4551405692754429 -10 0  0.4213342580497894 -10 0  0.3875279468241395 -10 0  0.3554119479341011 -10 0  0.3232959490440663 -10 0  0.2927857494269297 -10 0  0.2622755498097931 -10 0  0.2332908636189828 -10 0  0.2043061774281725 -10 0  0.1767707245216883 -10 0  0.1492352716152006 -10 0  0.1230765885890825 -10 0  0.09691790556296098 -10 0  0.0720671585317838 -10 0  0.04721641150060663 -10 0  0.02360820575030331 -10 0  0 -9.957983193277311 0  0 -9.915966386554622 0  0 -9.873949579831933 0  0 -9.831932773109244 0  0 -9.789915966386555 0  0 -9.747899159663866 0  0 -9.705882352941176 0  0 -9.663865546218487 0  0 -9.621848739495798 0  0 -9.579831932773109 0  0 -9.53781512605042 0  0 -9.495798319327731 0  0 -9.453781512605042 0  0 -9.411764705882353 0  0 -9.369747899159664 0  0 -9.327731092436975 0  0 -9.285714285714286 0  0 -9.243697478991596 0  0 -9.201680672268907 0  0 -9.159663865546218 0  0 -9.117647058823529 0  0 -9.07563025210084 0  0 -9.033613445378151 0  0 -8.991596638655462 0  0 -8.949579831932773 0  0 -8.907563025210084 0  0 -8.865546218487395 0  0 -8.823529411764707 0  0 -8.781512605042018 0  0 -8.739495798319329 0  0 -8.69747899159664 0  0 -8.655462184873949 0  0 -8.61344537815126 0  0 -8.571428571428571 0  0 -8.529411764705882 0  0 -8.487394957983193 0  0 -8.445378151260504 0  0 -8.403361344537815 0  0 -8.361344537815127 0  0 -8.319327731092438 0  0 -8.277310924369749 0  0 -8.235294117647058 0  0 -8.193277310924369 0  0 -8.15126050420168 0  0 -8.109243697478991 0  0 -8.067226890756302 0  0 -8.025210084033613 0  0 -7.983193277310924 0  0 -7.941176470588236 0  0 -7.899159663865547 0  0 -7.857142857142857 0  0 -7.815126050420168 0  0 -7.773109243697479 0  0 -7.73109243697479 0  0 -7.689075630252101 0  0 -7.647058823529411 0  0 -7.605042016806722 0  0 -7.563025210084033 0  0 -7.521008403361344 0  0 -7.478991596638656 0  0 -7.436974789915967 0  0 -7.394957983193278 0  0 -7.352941176470589 0  0 -7.3109243697479 0  0 -7.26890756302521 0  0 -7.226890756302521 0  0 -7.184873949579832 0  0 -7.142857142857143 0  0 -7.100840336134453 0  0 -7.058823529411764 0  0 -7.016806722689076 0  0 -6.974789915966387 0  0 -6.932773109243698 0  0 -6.890756302521009 0  0 -6.84873949579832 0  0 -6.806722689075631 0  0 -6.764705882352941 0  0 -6.722689075630252 0  0 -6.680672268907563 0  0 -6.638655462184874 0  0 -6.596638655462185 0  0 -6.554621848739496 0  0 -6.512605042016807 0  0 -6.470588235294118 0  0 -6.428571428571429 0  0 -6.38655462184874 0  0 -6.344537815126051 0  0 -6.302521008403362 0  0 -6.260504201680672 0  0 -6.218487394957983 0  0 -6.176470588235294 0  0 -6.134453781512605 0  0 -6.092436974789917 0  0 -6.050420168067227 0  0 -6.008403361344538 0  0 -5.966386554621849 0  0 -5.92436974789916 0  0 -5.882352941176471 0  0 -5.840336134453782 0  0 -5.798319327731092 0  0 -5.756302521008403 0  0 -5.714285714285714 0  0 -5.672268907563025 0  0 -5.630252100840336 0  0 -5.588235294117647 0 
[...]
<PointData  Vectors="displacement"> 
<DataArray  type="Float64"  Name="displacement"  NumberOfComponents="3" format="ascii">1.0000000000000007e-01 4.4169526976949272e-02 0.0000000000000000e+00  1.1683464164311163e-20 7.8055626935892109e-04 0.0000000000000000e+00  6.1173113128127327e-22 3.5513958853573126e-22 0.0000000000000000e+00  5.2139802831590662e-23 1.9123743713230956e-22 0.0000000000000000e+00  9.9354651499676566e-02 4.4278177728727094e-02 0.0000000000000000e+00  9.8938364213248559e-02 4.4076076257108514e-02 0.0000000000000000e+00  9.8467673119354393e-02 4.3230124388443363e-02 0.0000000000000000e+00  9.7856656460700936e-02 4.1868379805269307e-02 0.0000000000000000e+00  9.6976992826960429e-02 4.0005453510375447e-02 0.0000000000000000e+00  9.5874757731590973e-02 3.7763662812338603e-02 0.0000000000000000e+00  9.4438400853972856e-02 3.5113069341371476e-02 0.0000000000000000e+00  9.2712744869477948e-02 3.2282122330643204e-02 0.0000000000000000e+00  9.0634510956491721e-02 2.9337723711793533e-02 0.0000000000000000e+00  8.8315154685592465e-02 2.6360333789943156e-02 0.0000000000000000e+00  8.5704803306715593e-02 2.3409558911572082e-02 0.0000000000000000e+00  8.2952872463505925e-02 2.0603242850998696e-02 0.0000000000000000e+00  7.9995474675433983e-02 1.7902535303954265e-02 0.0000000000000000e+00  7.7015186515590736e-02 1.5449783708005753e-02 0.0000000000000000e+00  7.3893788050991893e-02 1.3145316778199748e-02 0.0000000000000000e+00  7.0871733812096285e-02 1.1089889026792730e-02 0.0000000000000000e+00  6.7786765957552272e-02 9.2295586927054300e-03 0.0000000000000000e+00  6.4821011078123936e-02 7.6346202919068814e-03 0.0000000000000000e+00  6.1870716000058196e-02 6.1678768086254566e-03 0.0000000000000000e+00  5.9113424444132999e-02 4.9010346007437259e-03 0.0000000000000000e+00  5.6378991691467595e-02 3.8073823783352765e-03 0.0000000000000000e+00  5.3843011131526702e-02 2.8732090194158685e-03 0.0000000000000000e+00  5.1374231170633680e-02 2.0016770868012410e-03 0.0000000000000000e+00  4.9073857736061391e-02 1.3101231168357365e-03 0.0000000000000000e+00  4.6841554301613332e-02 6.7794919445821956e-04 0.0000000000000000e+00  4.4783629840505837e-02 1.2016534145207061e-04 0.0000000000000000e+00  4.2783942643737499e-02 -3.4853341520623728e-04 0.0000000000000000e+00  4.0936660138021275e-02 -7.4718217900759552e-04 0.0000000000000000e+00  3.9152638754180139e-02 -1.1039596825831164e-03 0.0000000000000000e+00  3.7496832126307507e-02 -1.4029372718620812e-03 0.0000000000000000e+00  3.5899479326303392e-02 -1.6679724561117627e-03 0.0000000000000000e+00  3.4417413393691115e-02 -1.9026796930088621e-03 0.0000000000000000e+00  3.2976124770951638e-02 -2.0953471245843645e-03 0.0000000000000000e+00  3.1648533484810011e-02 -2.2645597443883177e-03 0.0000000000000000e+00  3.0352416901666197e-02 -2.4079412765246320e-03 0.0000000000000000e+00  2.9153298200495042e-02 -2.5230795503016702e-03 0.0000000000000000e+00  2.7984780996553611e-02 -2.6386561804675633e-03 0.0000000000000000e+00  2.6907521046868627e-02 -2.7014785037452129e-03 0.0000000000000000e+00  2.5848575516844330e-02 -2.7719557000032142e-03 0.0000000000000000e+00  2.4870005057920575e-02 -2.8182218377223473e-03 0.0000000000000000e+00  2.3909039652455923e-02 -2.8679493655134150e-03 0.0000000000000000e+00  2.3017437680683744e-02 -2.8907857126297901e-03 0.0000000000000000e+00  2.2144368550041326e-02 -2.9112623414810895e-03 0.0000000000000000e+00  2.1331095469166762e-02 -2.9190348464536832e-03 0.0000000000000000e+00  2.0535202087759580e-02 -2.9163414600273459e-03 0.0000000000000000e+00  1.9793257712050039e-02 -2.9090812075550686e-03 0.0000000000000000e+00  1.9065446409020168e-02 -2.8924631370371733e-03 0.0000000000000000e+00  1.8383626991779489e-02 -2.8717025273089251e-03 0.0000000000000000e+00  1.7717021299152282e-02 -2.8451023033517994e-03 0.0000000000000000e+00  1.7093387029006681e-02 -2.8147503190876452e-03 0.0000000000000000e+00  1.6480823934507945e-02 -2.7782269956615258e-03 0.0000000000000000e+00  1.5907205386750872e-02 -2.7375463765177462e-03 0.0000000000000000e+00  1.5341997189150859e-02 -2.6897191256144326e-03 0.0000000000000000e+00  1.4814994899680087e-02 -2.6387947202322613e-03 0.0000000000000000e+00  1.4294551612018782e-02 -2.5860108537440838e-03 0.0000000000000000e+00  1.3806237074415140e-02 -2.5336400960827188e-03 0.0000000000000000e+00  1.3326583520587645e-02 -2.4757367354742411e-03 0.0000000000000000e+00  1.2875490947820558e-02 -2.4149890144281750e-03 0.0000000000000000e+00  1.2431018168040278e-02 -2.3498449636864664e-03 0.0000000000000000e+00  1.2012729209425485e-02 -2.2877583654863443e-03 0.0000000000000000e+00  1.1600473094807722e-02 -2.2175903513978290e-03 0.0000000000000000e+00  1.1214471057711489e-02 -2.1461750223349015e-03 0.0000000000000000e+00  1.0830971380854645e-02 -2.0762405368175579e-03 0.0000000000000000e+00  1.0471432355972659e-02 -2.0030525389831523e-03 0.0000000000000000e+00  1.0116109783699824e-02 -1.9276118635172814e-03 0.0000000000000000e+00  9.7805497750834587e-03 -1.8555944917733721e-03 0.0000000000000000e+00  9.4507333200996389e-03 -1.7766600537647366e-03 0.0000000000000000e+00  9.1398860955917791e-03 -1.6986690766116379e-03 0.0000000000000000e+00  8.8318784855577603e-03 -1.6164661415260665e-03 0.0000000000000000e+00  8.5423791480648149e-03 -1.5353781472707724e-03 0.0000000000000000e+00  8.2559903285116289e-03 -1.4533130419729608e-03 0.0000000000000000e+00  7.9861880065360338e-03 -1.3714797124855850e-03 0.0000000000000000e+00  7.7196400410693014e-03 -1.2865890226018142e-03 0.0000000000000000e+00  7.4685917483640289e-03 -1.2035395676246977e-03 0.0000000000000000e+00  7.2200167201260856e-03 -1.1180706362148838e-03 0.0000000000000000e+00  6.9859097119457448e-03 -1.0347789619165456e-03 0.0000000000000000e+00  6.7544947933262101e-03 -9.4823187552234886e-04 0.0000000000000000e+00  6.5365803834507184e-03 -8.6104764517797147e-04 0.0000000000000000e+00  6.3202256160827634e-03 -7.7620672660464374e-04 0.0000000000000000e+00  6.1247009530077459e-03 -6.8838111536090741e-04 0.0000000000000000e+00  5.9220693411796916e-03 -6.0244973294024541e-04 0.0000000000000000e+00  5.7329998421277303e-03 -5.1802280973711008e-04 0.0000000000000000e+00  5.5467447794613680e-03 -4.3213609599921889e-04 0.0000000000000000e+00  5.3727214001317719e-03 -3.4682432125387384e-04 0.0000000000000000e+00  5.1988000093115506e-03 -2.6097180876822376e-04 0.0000000000000000e+00  5.0380768149502504e-03 -1.7862457409504866e-04 0.0000000000000000e+00  4.8803007386825853e-03 -9.3868224337787987e-05 0.0000000000000000e+00  4.7303621803497760e-03 -1.2526691165525602e-05 0.0000000000000000e+00  4.5818972658955319e-03 6.8934953713169339e-05 0.0000000000000000e+00  4.4429536648896142e-03 1.4728503184049179e-04 0.0000000000000000e+00  4.3064497478985699e-03 2.2634944224657834e-04 0.0000000000000000e+00  4.1783997950670740e-03 3.0079673115713347e-04 0.0000000000000000e+00  4.0521436493547646e-03 3.7506699037514329e-04 0.0000000000000000e+00  3.9346967088753002e-03 4.4656124419231540e-04 0.0000000000000000e+00  3.8160699497765097e-03 5.1585679120820787e-04 0.0000000000000000e+00  3.7074790647751831e-03 5.8187842781098377e-04 0.0000000000000000e+00  3.6004451443249008e-03 6.4624627675897962e-04 0.0000000000000000e+00  3.4985397639603474e-03 7.0628743814072075e-04 0.0000000000000000e+00  3.3978332963361139e-03 7.6463025804781248e-04 0.0000000000000000e+00  3.3028471155963457e-03 8.1807486054338472e-04 0.0000000000000000e+00  3.2096821405072874e-03 8.6985632800759029e-04 0.0000000000000000e+00  3.1220171873006424e-03 9.1432213065524505e-04 0.0000000000000000e+00  3.0356726384699541e-03 9.5945562917244755e-04 0.0000000000000000e+00  2.9517116802024045e-03 9.9667950326137950e-04 0.0000000000000000e+00  2.8667223169886219e-03 1.0322876443112114e-03 0.0000000000000000e+00  2.7908394101315466e-03 1.0627113816706064e-03 0.0000000000000000e+00  2.7087597783084440e-03 1.0893067973124252e-03 0.0000000000000000e+00  2.6329320907100633e-03 1.1137329561444688e-03 0.0000000000000000e+00  2.5554920850644862e-03 1.1299536097360355e-03 0.0000000000000000e+00  2.4797887408388591e-03 1.1449429458557428e-03 0.0000000000000000e+00  2.4045030095275052e-03 1.1548717272769344e-03 0.0000000000000000e+00  2.3311364303079717e-03 1.1610267167001982e-03 0.0000000000000000e+00  2.2521158750887847e-03 1.1632014381877803e-03 0.0000000000000000e+00  2.1772851062050323e-03 1.1620291416505593e-03 0.0000000000000000e+00  2.1013263558857416e-03 1.1579042787074139e-03 0.0000000000000000e+00  2.0269029338669618e-03 1.1500868705499932e-03 0.0000000000000000e+00  1.9498166002528336e-03 1.1382832042629643e-03 0.0000000000000000e+00  1.8700325248594972e-03 1.1251637502673441e-03 0.0000000000000000e+00  1.7894696538923193e-03 1.1086472617426043e-03 0.0000000000000000e+00  1.7102946216079943e-03 1.0911159561589399e-03 0.0000000000000000e+00  1.6276459240379929e-03 1.0711788027868254e-03 0.0000000000000000e+00  1.5454944683599996e-03 1.0500998356172625e-03 0.0000000000000000e+00  1.4599255963874509e-03 1.0274988225082904e-03 0.0000000000000000e+00  1.3746423824103826e-03 1.0045638386972514e-03 0.0000000000000000e+00  1.2854755537433172e-03 9.8035051751427975e-04 0.0000000000000000e+00  1.1971497469083138e-03 9.5749804643689750e-04 0.0000000000000000e+00  1.1057502526435627e-03 9.3460055889474012e-04 0.0000000000000000e+00  1.0149169720453713e-03 9.1217659131480040e-04 0.0000000000000000e+00  9.2061771126015720e-04 8.8945348128037060e-04 0.0000000000000000e+00  8.2629683581184044e-04 8.6933193343040978e-04 0.0000000000000000e+00  7.2916572830442625e-04 8.5047031620629485e-04 0.0000000000000000e+00  6.3353279769516992e-04 8.3255104739622578e-04 0.0000000000000000e+00  5.2952741633035193e-04 8.1699370441005461e-04 0.0000000000000000e+00  4.2638670790344979e-04 8.0266144242202597e-04 0.0000000000000000e+00  3.2222405996012727e-04 7.9396394053065104e-04 0.0000000000000000e+00  2.1796046888831796e-04 7.8559815736321868e-04 0.0000000000000000e+00  1.0573999229048281e-04 7.8196665103492816e-04 0.0000000000000000e+00  4.2100092633810913e-21 7.4495622753507830e-04 0.0000000000000000e+00  6.8716289802893636e-21 6.9819741723736945e-04 0.0000000000000000e+00  -6.0994073070020056e-21 6.5206352960010306e-04 0.0000000000000000e+00  0.0000000000000000e+00 6.0737033281565674e-04 0.0000000000000000e+00  -2.6328258036945263e-21 5.6355638746597532e-04 0.0000000000000000e+00  4.7519574195810533e-21 5.2085585373043972e-04 0.0000000000000000e+00  4.8238525069415888e-21 4.7928169276587501e-04 0.0000000000000000e+00  3.2363664896029195e-21 4.3874672944067296e-04 0.0000000000000000e+00  -1.8720365182536069e-21 3.9942480268799800e-04 0.0000000000000000e+00  7.1717448605206886e-21 3.6139497089967084e-04 0.0000000000000000e+00  3.1544804465073561e-21 3.2471124312164612e-04 0.0000000000000000e+00  2.4002870137263010e-21 2.8961289652713255e-04 0.0000000000000000e+00  4.3463795799125610e-21 2.5597261132272447e-04 0.0000000000000000e+00  3.3431886483319095e-21 2.2410504535307952e-04 0.0000000000000000e+00  -3.2176900402122034e-22 1.9390125831079887e-04 0.0000000000000000e+00  -1.8470676870720989e-22 1.6563870673261887e-04 0.0000000000000000e+00  1.3754980126534920e-21 1.3937819300750923e-04 0.0000000000000000e+00  3.0672515506409238e-21 1.1510487923073715e-04 0.0000000000000000e+00  3.4049775970522928e-21 9.2839156076612107e-05 0.0000000000000000e+00  7.6187304769586978e-21 7.2931475076974447e-05 0.0000000000000000e+00  -2.6292040867578142e-21 5.5313834672176418e-05 0.0000000000000000e+00  -1.0760987868833083e-21 4.0016726441887097e-05 0.0000000000000000e+00  2.7797342623233872e-22 2.7034842890527671e-05 0.0000000000000000e+00  1.3914331139506850e-21 1.6611711758074632e-05 0.0000000000000000e+00  -1.1291553896037281e-22 8.6639710566293053e-06 0.0000000000000000e+00  4.2760152545244131e-22 2.9042027795154163e-06 0.0000000000000000e+00  -8.1850665121069327e-22 6.3595031686382930e-07 0.0000000000000000e+00  -5.9539509038393387e-22 -3.1539602729941617e-22 0.0000000000000000e+00  -8.4574694284306098e-22 1.0571836785538262e-22 0.0000000000000000e+00  9.2352613862821304e-22 1.4430095916065829e-22 0.0000000000000000e+00  1.6706751449572750e-20 4.5682523494925488e-22 0.0000000000000000e+00  -3.2971035119354533e-21 1.5655151024850692e-21 0.0000000000000000e+00  8.8604654297260283e-21 4.1533431701840755e-22 0.0000000000000000e+00  -1.2439131907186211e-20 -1.3099071128842498e-22 0.0000000000000000e+00  1.5548712779707942e-20 4.4540583483538382e-22 0.0000000000000000e+00  1.6589105003733335e-20 5.4000992850694447e-22 0.0000000000000000e+00  -2.9202203354197823e-20 0.0000000000000000e+00 0.0000000000000000e+00  1.5254260926327135e-20 4.6125325396761251e-22 0.0000000000000000e+00  -2.6140442460033003e-21 1.3312856132682675e-23 0.0000000000000000e+00  -3.8671472543130020e-20 -1.2084835169728131e-23 0.0000000000000000e+00  6.4453685159265751e-21 7.5531662296014556e-22 0.0000000000000000e+00  3.4671935356936812e-20 -2.0048734750941475e-22 0.0000000000000000e+00  -7.1595488202901222e-21 -1.1186795031703316e-22 0.0000000000000000e+00  2.0748422956716970e-20 1.3262486264946927e-22 0.0000000000000000e+00  -1.9375924427355105e-20 -6.0919157146270700e-22 0.0000000000000000e+00  7.7311114708679634e-21 5.7215303738188713e-22 0.0000000000000000e+00  -3.6063029138874720e-20 9.1806536743376287e-22 0.0000000000000000e+00  1.9968250222741377e-20 5.5673054936983383e-23 0.0000000000000000e+00  6.7538860182223397e-20 -1.8844548041915010e-23 0.0000000000000000e+00  2.0220763453149238e-20 7.8074523092819851e-23 0.0000000000000000e+00  0.0000000000000000e+00 -4.9975452326594411e-22 0.0000000000000000e+00  -1.4481595055084592e-20 5.2163428574705250e-23 0.0000000000000000e+00  0.0000000000000000e+00 9.1632058999352063e-23 0.0000000000000000e+00  1.2693148713349363e-20 -1.1882365598545999e-21 0.0000000000000000e+00  2.7446919409639305e-20 8.5771623155122829e-22 0.0000000000000000e+00  -1.3464714833612632e-20 8.9864921244087868e-22 0.0000000000000000e+00  -3.8174188676260158e-21 -2.4475936762411087e-22 0.0000000000000000e+00  3.7111593139904594e-20 -6.9009622338731138e-22 0.0000000000000000e+00  -6.1386697146332901e-20 1.5994464048678924e-21 0.0000000000000000e+00  1.9781494806550434e-20 -2.0426483473917339e-21 0.0000000000000000e+00  1.4855139115785988e-20 3.5964198795089385e-22 0.0000000000000000e+00  2.3147348002231367e-20 -1.2944240659142542e-21 0.0000000000000000e+00  2.6474831842800750e-20 2.2227116713091912e-22 0.0000000000000000e+00  -5.6786798793818185e-20 -7.1308104404842724e-22 0.0000000000000000e+00  -8.1869059807555880e-22 1.3941162471578170e-21 0.0000000000000000e+00  3.8237779347278740e-20 -4.5521165889617550e-22 0.0000000000000000e+00  0.0000000000000000e+00 -2.6890655391887125e-21 0.0000000000000000e+00  6.2621878331928560e-21 8.0911977227378667e-22 0.0000000000000000e+00  -8.0686993140515692e-20 4.9361264002385082e-22 0.0000000000000000e+00  -2.0701395743288589e-20 -1.6161259971049269e-21 0.0000000000000000e+00  3.4123501553402767e-20 -4.2654376941753459e-21 0.0000000000000000e+00  1.0708894787955230e-20 -3.7393743739721519e-21 0.0000000000000000e+00  -2.3895512725184939e-21 -3.3388424339506140e-21 0.0000000000000000e+00  -1.3152224897161124e-20 1.6440281121451405e-21 0.0000000000000000e+00  -1.0365941561460440e-21 -6.6011383630583550e-22 0.0000000000000000e+00  -8.4179204635185122e-21 -1.2943325981215576e-21 0.0000000000000000e+00  7.1635413538921054e-21 -1.4437351175225116e-22 0.0000000000000000e+00  -3.9639950048538757e-21 -1.6516645853557816e-21 0.0000000000000000e+00  -1.1534682280098127e-21 -3.5143283299466356e-21 0.0000000000000000e+00  2.8331062250065798e-21 2.0887135778654576e-21 0.0000000000000000e+00  -8.4368350027717851e-22 1.6516010351104890e-21 0.0000000000000000e+00  -7.6268807273295581e-22 -4.1366132758397603e-22 0.0000000000000000e+00  -1.7427721511705729e-21 8.7138607558528643e-22 0.0000000000000000e+00  -9.9761176476987433e-22 6.4384872761743663e-22 0.0000000000000000e+00  1.2567175177128873e-21 4.3761150088413678e-23 0.0000000000000000e+00  -6.7902849321610485e-21 -9.7004070459443559e-22 0.0000000000000000e+00  6.2282792804111929e-21 1.3970284411192218e-21 0.0000000000000000e+00  7.4235056472911787e-21 -1.2871837913550500e-21 0.0000000000000000e+00  -7.9413000714751178e-21 -1.6807009770363901e-21 0.0000000000000000e+00  -9.9801318242320800e-21 1.1695466981521968e-21 0.0000000000000000e+00  -1.1926430737777819e-20 1.6528962058995716e-21 0.0000000000000000e+00  -6.5431838925349749e-21 -1.8977371583741144e-22 0.0000000000000000e+00  -3.2785736907937880e-22 4.1955017270211687e-22 0.0000000000000000e+00  9.0507680348228511e-21 9.4278833696071378e-22 0.0000000000000000e+00  -5.9169813792945012e-21 9.3096885525174277e-22 0.0000000000000000e+00  -1.1926819893388503e-20 4.9695587462507754e-22 0.0000000000000000e+00  1.1269510688554127e-20 -5.8695368169552751e-22 0.0000000000000000e+00  1.7060381701593150e-20 4.5132840730532024e-22 0.0000000000000000e+00  1.6932588442296485e-20 -1.5134150832332997e-22 0.0000000000000000e+00  6.7077500669534180e-21 5.3109901899587758e-23 0.0000000000000000e+00  4.3010691106049069e-21 1.0662338453965629e-22 0.0000000000000000e+00  9.6053712240911430e-21 -3.7520981344106027e-23 0.0000000000000000e+00  7.5178911192998248e-21 7.8311365826039846e-23 0.0000000000000000e+00  -4.9664480849196951e-21 -2.2899893255601172e-23 0.0000000000000000e+00  2.7388101745533425e-21 6.4190863466093958e-23 0.0000000000000000e+00  -1.0023378656612292e-20 -5.1039804822314268e-23 0.0000000000000000e+00  9.1496924230139083e-21 -9.5309296073061545e-23 0.0000000000000000e+00  1.5853871395709201e-20 1.8993592188714113e-22 0.0000000000000000e+00  -1.0094472947346028e-20 -5.2575379934093900e-23 0.0000000000000000e+00  3.5925587569698113e-21 -1.0493348921571961e-22 0.0000000000000000e+00  -1.8308184992070155e-20 1.7163923430065772e-22 0.0000000000000000e+00  -3.2845586234155885e-21 -8.6393198784418738e-23 0.0000000000000000e+00  1.7830614521223486e-20 -2.1822390106265313e-22 0.0000000000000000e+00  -6.4367152998088691e-21 2.6819647082536955e-22 0.0000000000000000e+00  -4.5985424268072582e-21 -7.1852225418863409e-23 0.0000000000000000e+00  1.1143898472772696e-21 -1.2478844643990258e-22 0.0000000000000000e+00  5.0872380926252152e-21 -5.5641666638088288e-22 0.0000000000000000e+00  -6.8442664919404384e-21 3.4848896933557788e-22 0.0000000000000000e+00  1.5940913886921405e-21 7.9524409216862683e-22 0.0000000000000000e+00  -9.8317159940967464e-21 -4.0781960300817598e-22 0.0000000000000000e+00  0.0000000000000000e+00 -3.3896972793213837e-22 0.0000000000000000e+00  1.3813239341598568e-20 8.8730877715129695e-22 0.0000000000000000e+00  1.8860286882365051e-20 1.3930893719928732e-21 0.0000000000000000e+00  1.2172354576829232e-20 8.8981717995780221e-22 0.0000000000000000e+00  -2.8051934436494780e-21 -4.4386150437762903e-22 0.0000000000000000e+00  -1.0185039958721042e-21 -3.1828249871003254e-22 0.0000000000000000e+00  -2.0780544615591049e-21 -2.5975680769488811e-22 0.0000000000000000e+00  -4.9352008490516809e-21 1.2389199106113721e-22 0.0000000000000000e+00  -1.1567731215333261e-21 -1.4459664019166577e-22 0.0000000000000000e+00  6.0586083182223385e-22 7.5732603977779231e-23 0.0000000000000000e+00  -5.1212166324372244e-21 -1.6003801976366326e-22 0.0000000000000000e+00  3.9120397842351837e-21 -7.6690193623239687e-22 0.0000000000000000e+00  1.3703538359642501e-21 8.5647114747765630e-23 0.0000000000000000e+00  7.1605705069136311e-22 2.2376782834105097e-23 0.0000000000000000e+00  -7.6933535304660270e-22 -4.8083459565412670e-22 0.0000000000000000e+00  -1.0021391936829528e-21 1.5582762401738402e-21 0.0000000000000000e+00  2.2307883391627020e-21 1.0038547526232159e-21 0.0000000000000000e+00  -7.9954432814047899e-22 -3.7121700949379385e-22 0.0000000000000000e+00  9.5827073454417640e-22 -1.1978384181802205e-22 0.0000000000000000e+00  -6.7505840785768660e-23 -6.3038542498475147e-22 0.0000000000000000e+00  -9.8974877209297245e-22 2