<?xml version="1.0"?>
<VTKFile type="UnstructuredGrid"  version="0.1"  >
<UnstructuredGrid>
<Piece  NumberOfPoints="18082" NumberOfCells="35500">
<Points>
<DataArray  type="Float64"  NumberOfComponents="3"  format="ascii">0 0 0  30 0 0  30 -10 0  0 -10 0  0.02360821169319077 0 0  0.04721642338638154 0 0  0.07206717063563725 0 0  0.09691791788489297 0 0  0.1230766011355843 0 0  0.1492352843862757 0 0  0.1767707375239038 0 0  0.204306190661532 0 0  0.2332908770901271 0 0  0.2622755635187223 0 0  0.2927857633803451 0 0  0.323295963241968 0 0  0.3554119623832387 0 0  0.3875279615245094 0 0  0.4213342730081758 0 0  0.4551405844918422 0 0  0.4907261762804851 0 0  0.526311768069128 0 0  0.5637702848355051 0 0  0.6012288016018821 0 0  0.6406588220121138 0 0  0.6800888424223455 0 0  0.721594129780935 0 0  0.7630994171395246 0 0  0.8067891887833475 0 0  0.8504789604271704 0 0  0.8964681941825949 0 0  0.9424574279380195 0 0  0.9908671465681095 0 0  1.039276865198199 0 0  1.090234462786975 0 0  1.141192060375751 0 0  1.194831641933244 0 0  1.248471223490737 0 0  1.304933942963653 0 0  1.361396662436569 0 0  1.420831104471586 0 0  1.480265546506604 0 0  1.542828113436244 0 0  1.605390680365884 0 0  1.671246013469327 0 0  1.73710134657277 0 0  1.806422752814762 0 0  1.875744159056755 0 0  1.948714057431306 0 0  2.021683955805857 0 0  2.098494373901932 0 0  2.175304791998006 0 0  2.256157866653476 0 0  2.337010941308945 0 0  2.422119443935387 0 0  2.50722794656183 0 0  2.596815840700639 0 0  2.686403734839449 0 0  2.780706776094687 0 0  2.875009817349925 0 0  2.974276175689285 0 0  3.073542534028646 0 0  3.178033441002704 0 0  3.282524347976761 0 0  3.392514777963501 0 0  3.502505207950242 0 0  3.618284608533553 0 0  3.734064009116865 0 0  3.855937062816526 0 0  3.977810116516187 0 0  4.106097541496641 0 0  4.234384966477093 0 0  4.369424362562147 0 0  4.5044637586472 0 0  4.646610489729194 0 0  4.788757220811188 0 0  4.938385356669961 0 0  5.088013492528733 0 0  5.24551679218304 0 0  5.403020091837347 0 0  5.568813038399614 0 0  5.73460598496188 0 0  5.909124878408681 0 0  6.083643771855482 0 0  6.267347873338513 0 0  6.451051974821543 0 0  6.644424714363561 0 0  6.83779745390558 0 0  7.041347702348167 0 0  7.244897950790754 0 0  7.459161368238869 0 0  7.673424785686984 0 0  7.898965226038037 0 0  8.124505666389089 0 0  8.361916654054033 0 0  8.599327641718979 0 0  8.849233942517035 0 0  9.099140243315093 0 0  9.362199507946787 0 0  9.625258772578484 0 0  9.902163261537794 0 0  10.1790677504971 0 0  10.47054616023911 0 0  10.76202456998112 0 0  11.06884394887334 0 0  11.37566332776555 0 0  11.69863109504192 0 0  12.02159886231829 0 0  12.3615649378891 0 0  12.7015310134599 0 0  13.05939003847426 0 0  13.41724906348862 0 0  13.79394276982091 0 0  14.1706364761532 0 0  14.5671561683298 0 0  14.96367586050641 0 0  15.38106501332897 0 0  15.79845416615153 0 0  16.23781117165827 0 0  16.677168177165 0 0  17.13964923659526 0 0  17.60213029602552 0 0  18.0889524622663 0 0  18.57577462850707 0 0  19.08821901304263 0 0  19.60066339757818 0 0  20.14007853843172 0 0  20.67949367928525 0 0  21.24729908993883 0 0  21.8151045005924 0 0  22.41279440541421 0 0  23.01048431023601 0 0  23.63963157605829 0 0  24.26877884188056 0 0  24.93103912515648 0 0  25.59329940843241 0 0  26.29041549584691 0 0  26.98753158326142 0 0  27.72133799026916 0 0  28.45514439727691 0 0  29.22757219863846 0 0  30 -0.3571428571428571 0  30 -0.7142857142857142 0  30 -1.071428571428571 0  30 -1.428571428571428 0  30 -1.785714285714286 0  30 -2.142857142857143 0  30 -2.5 0  30 -2.857142857142857 0  30 -3.214285714285714 0  30 -3.571428571428571 0  30 -3.928571428571428 0  30 -4.285714285714286 0  30 -4.642857142857142 0  30 -5 0  30 -5.357142857142857 0  30 -5.714285714285714 0  30 -6.071428571428571 0  30 -6.428571428571428 0  30 -6.785714285714285 0  30 -7.142857142857142 0  30 -7.5 0  30 -7.857142857142857 0  30 -8.214285714285714 0  30 -8.571428571428571 0  30 -8.928571428571427 0  30 -9.285714285714285 0  30 -9.642857142857142 0  29.22757220128658 -10 0  28.45514440257316 -10 0  27.72133799277628 -10 0  26.98753158297939 -10 0  26.29041549304805 -10 0  25.5932994031167 -10 0  24.93103911757599 -10 0  24.26877883203527 -10 0  23.63963156418132 -10 0  23.01048429632737 -10 0  22.41279438968936 -10 0  21.81510448305136 -10 0  21.24729907078059 -10 0  20.67949365850982 -10 0  20.14007851622273 -10 0  19.60066337393564 -10 0  19.08821898813588 -10 0  18.57577460233611 -10 0  18.08895243498708 -10 0  17.60213026763805 -10 0  17.13964920724307 -10 0  16.6771681468481 -10 0  16.2378111405086 -10 0  15.79845413416909 -10 0  15.38106498063496 -10 0  14.96367582710082 -10 0  14.56715613432376 -10 0  14.17063644154669 -10 0  13.79394273471576 -10 0  13.41724902788484 -10 0  13.05939000246495 -10 0  12.70153097704506 -10 0  12.36156490115379 -10 0  12.02159882526251 -10 0  11.69863105774323 -10 0  11.37566329022395 -10 0  11.06884391115945 -10 0  10.76202453209494 -10 0  10.47054612224479 -10 0  10.17906771239465 -10 0  9.902163223385379 -10 0  9.625258734376107 -10 0  9.362199469747061 -10 0  9.099140205118012 -10 0  8.849233904370102 -10 0  8.599327603622193 -10 0  8.361916616050124 -10 0  8.124505628478055 -10 0  7.898965188258209 -10 0  7.673424748038361 -10 0  7.459161330755727 -10 0  7.244897913473093 -10 0  7.041347665226496 -10 0  6.837797416979896 -10 0  6.644424677660922 -10 0  6.451051938341948 -10 0  6.26734783710581 -10 0  6.083643735869675 -10 0  5.90912484269068 -10 0  5.734605949511682 -10 0  5.568813003235423 -10 0  5.403020056959164 -10 0  5.24551675760658 -10 0  5.088013458254 -10 0  4.938385322710374 -10 0  4.788757187166745 -10 0  4.646610456411224 -10 0  4.504463725655707 -10 0  4.369424329906533 -10 0  4.234384934157362 -10 0  4.106097509520442 -10 0  3.977810084883522 -10 0  3.85593703153344 -10 0  3.734063978183357 -10 0  3.618284577954206 -10 0  3.502505177725055 -10 0  3.392514748095728 -10 0  3.282524318466404 -10 0  3.1780334118518 -10 0  3.073542505237196 -10 0  2.97427614725823 -10 0  2.875009789279265 -10 0  2.780706748384375 -10 0  2.686403707489482 -10 0  2.596815813710069 -10 0  2.507227919930656 -10 0  2.422119417661861 -10 0  2.337010915393062 -10 0  2.256157841092762 -10 0  2.175304766792465 -10 0  2.098494349048437 -10 0  2.021683931304413 -10 0  1.948714033278215 -10 0  1.875744135252013 -10 0  1.806422729354161 -10 0  1.737101323456312 -10 0  1.671245990692352 -10 0  1.605390657928396 -10 0  1.542828091333185 -10 0  1.480265524737977 -10 0  1.420831083031992 -10 0  1.36139664132601 -10 0  1.304933922176438 -10 0  1.248471203026863 -10 0  1.194831621786765 -10 0  1.14119204054667 -10 0  1.09023444350921 -10 0  1.039276846471754 -10 0  0.9908671279064798 -10 0  0.942457409341209 -10 0  0.8964681758842019 -10 0  0.8504789424271948 -10 0  0.8067891710751951 -10 0  0.7630993997231954 -10 0  0.7215941126497469 -10 0  0.6800888255762949 -10 0  0.6406588054444597 -10 0  0.6012287853126246 -10 0  0.5637702688178621 -10 0  0.5263117523230996 -10 0  0.4907261607992695 -10 0  0.4551405692754429 -10 0  0.4213342580497894 -10 0  0.3875279468241395 -10 0  0.3554119479341011 -10 0  0.3232959490440663 -10 0  0.2927857494269297 -10 0  0.2622755498097931 -10 0  0.2332908636189828 -10 0  0.2043061774281725 -10 0  0.1767707245216883 -10 0  0.1492352716152006 -10 0  0.1230765885890825 -10 0  0.09691790556296098 -10 0  0.0720671585317838 -10 0  0.04721641150060663 -10 0  0.02360820575030331 -10 0  0 -9.972067039106145 0  0 -9.94413407821229 0  0 -9.916201117318435 0  0 -9.888268156424582 0  0 -9.860335195530727 0  0 -9.832402234636872 0  0 -9.804469273743017 0  0 -9.776536312849162 0  0 -9.748603351955307 0  0 -9.720670391061452 0  0 -9.692737430167599 0  0 -9.664804469273744 0  0 -9.636871508379889 0  0 -9.608938547486034 0  0 -9.581005586592179 0  0 -9.553072625698324 0  0 -9.525139664804469 0  0 -9.497206703910614 0  0 -9.46927374301676 0  0 -9.441340782122905 0  0 -9.41340782122905 0  0 -9.385474860335195 0  0 -9.35754189944134 0  0 -9.329608938547485 0  0 -9.30167597765363 0  0 -9.273743016759777 0  0 -9.245810055865922 0  0 -9.217877094972067 0  0 -9.189944134078212 0  0 -9.162011173184357 0  0 -9.134078212290502 0  0 -9.106145251396647 0  0 -9.078212290502794 0  0 -9.050279329608939 0  0 -9.022346368715084 0  0 -8.994413407821229 0  0 -8.966480446927374 0  0 -8.938547486033519 0  0 -8.910614525139664 0  0 -8.882681564245811 0  0 -8.854748603351956 0  0 -8.826815642458101 0  0 -8.798882681564246 0  0 -8.770949720670391 0  0 -8.743016759776536 0  0 -8.715083798882681 0  0 -8.687150837988828 0  0 -8.659217877094973 0  0 -8.631284916201118 0  0 -8.603351955307263 0  0 -8.575418994413408 0  0 -8.547486033519553 0  0 -8.519553072625698 0  0 -8.491620111731844 0  0 -8.463687150837989 0  0 -8.435754189944134 0  0 -8.407821229050279 0  0 -8.379888268156424 0  0 -8.351955307262569 0  0 -8.324022346368714 0  0 -8.296089385474861 0  0 -8.268156424581006 0  0 -8.240223463687151 0  0 -8.212290502793296 0  0 -8.184357541899441 0  0 -8.156424581005586 0  0 -8.128491620111731 0  0 -8.100558659217878 0  0 -8.072625698324023 0  0 -8.044692737430168 0  0 -8.016759776536313 0  0 -7.988826815642458 0  0 -7.960893854748603 0  0 -7.932960893854748 0  0 -7.905027932960894 0  0 -7.877094972067039 0  0 -7.849162011173184 0  0 -7.82122905027933 0  0 -7.793296089385475 0  0 -7.76536312849162 0  0 -7.737430167597765 0  0 -7.709497206703911 0  0 -7.681564245810056 0  0 -7.653631284916202 0  0 -7.625698324022347 0  0 -7.597765363128492 0  0 -7.569832402234637 0  0 -7.541899441340782 0  0 -7.513966480446927 0  0 -7.486033519553073 0  0 -7.458100558659218 0  0 -7.430167597765363 0  0 -7.402234636871508 0  0 -7.374301675977653 0  0 -7.346368715083798 0  0 -7.318435754189944 0  0 -7.290502793296089 0  0 -7.262569832402235 0  0 -7.23463687150838 0  0 -7.206703910614525 0  0 -7.17877094972067 0  0 -7.150837988826815 0  0 -7.12290502793296 0  0 -7.094972067039106 0  0 -7.067039106145251 
[...]
<PointData  Vectors="displacement"> 
<DataArray  type="Float64"  Name="displacement"  NumberOfComponents="3" format="ascii">1.0000000000000006e-01 5.5099311738917925e-02 0.0000000000000000e+00  1.1488617229258185e-20 1.1839907554426366e-03 0.0000000000000000e+00  3.6580225732399362e-21 -2.0406241234007920e-23 0.0000000000000000e+00  -2.1562263701716950e-23 1.0349886576824136e-21 0.0000000000000000e+00  9.9999526015833298e-02 5.5008871567493942e-02 0.0000000000000000e+00  9.9984000491186706e-02 5.4794596957114042e-02 0.0000000000000000e+00  9.9942311662462438e-02 5.4437720674552964e-02 0.0000000000000000e+00  9.9876587165685093e-02 5.3938298528849959e-02 0.0000000000000000e+00  9.9756260238394290e-02 5.3274625326042949e-02 0.0000000000000000e+00  9.9590412160802791e-02 5.2471281850739543e-02 0.0000000000000000e+00  9.9355712800064958e-02 5.1489096674653123e-02 0.0000000000000000e+00  9.9052459032092796e-02 5.0380200471750451e-02 0.0000000000000000e+00  9.8654771978999869e-02 4.9089555782378717e-02 0.0000000000000000e+00  9.8168700040826784e-02 4.7692309506104126e-02 0.0000000000000000e+00  9.7561711804554710e-02 4.6120605297040346e-02 0.0000000000000000e+00  9.6852010253208040e-02 4.4470208341816982e-02 0.0000000000000000e+00  9.5996777317583520e-02 4.2668283122536649e-02 0.0000000000000000e+00  9.5032731479696431e-02 4.0821149589546149e-02 0.0000000000000000e+00  9.3909097910875927e-02 3.8865658177400786e-02 0.0000000000000000e+00  9.2683285567916232e-02 3.6901320726143112e-02 0.0000000000000000e+00  9.1292970543995697e-02 3.4859325101135367e-02 0.0000000000000000e+00  8.9813750606027851e-02 3.2856669018120496e-02 0.0000000000000000e+00  8.8184385064201606e-02 3.0816720090094233e-02 0.0000000000000000e+00  8.6491188780170161e-02 2.8848230165512745e-02 0.0000000000000000e+00  8.4657275262465373e-02 2.6869287487564186e-02 0.0000000000000000e+00  8.2787947638992623e-02 2.4994608060341265e-02 0.0000000000000000e+00  8.0811485147419870e-02 2.3138275238258663e-02 0.0000000000000000e+00  7.8832828167653524e-02 2.1400636593369840e-02 0.0000000000000000e+00  7.6745868171008591e-02 1.9703422150736873e-02 0.0000000000000000e+00  7.4689194188401392e-02 1.8137304975867824e-02 0.0000000000000000e+00  7.2576443784041475e-02 1.6610989257617222e-02 0.0000000000000000e+00  7.0510296124367308e-02 1.5219979856937800e-02 0.0000000000000000e+00  6.8411458902032318e-02 1.3868064018622200e-02 0.0000000000000000e+00  6.6381203380622977e-02 1.2635160268348357e-02 0.0000000000000000e+00  6.4312921955179445e-02 1.1460410506848465e-02 0.0000000000000000e+00  6.2329582353454170e-02 1.0391046424366437e-02 0.0000000000000000e+00  6.0330936749814455e-02 9.3738185561258146e-03 0.0000000000000000e+00  5.8424790029828214e-02 8.4551398750681017e-03 0.0000000000000000e+00  5.6517793565803838e-02 7.5679572218462958e-03 0.0000000000000000e+00  5.4702766897688396e-02 6.7662009560944389e-03 0.0000000000000000e+00  5.2887847436219743e-02 6.0028570075363582e-03 0.0000000000000000e+00  5.1166617608611228e-02 5.3142231418892572e-03 0.0000000000000000e+00  4.9449549336133283e-02 4.6568817212758002e-03 0.0000000000000000e+00  4.7826085383363817e-02 4.0746048233734978e-03 0.0000000000000000e+00  4.6209814477147143e-02 3.5011746953762424e-03 0.0000000000000000e+00  4.4681247905991990e-02 2.9894173408379632e-03 0.0000000000000000e+00  4.3160902267801643e-02 2.5127479892188640e-03 0.0000000000000000e+00  4.1726228653133794e-02 2.0786855383617487e-03 0.0000000000000000e+00  4.0300369302885920e-02 1.6661750174440284e-03 0.0000000000000000e+00  3.8954420443964591e-02 1.2943759006596367e-03 0.0000000000000000e+00  3.7617419202418123e-02 9.4034501572613305e-04 0.0000000000000000e+00  3.6355891283159289e-02 6.2236729241805036e-04 0.0000000000000000e+00  3.5103602323593351e-02 3.2646389463147235e-04 0.0000000000000000e+00  3.3924503199715815e-02 6.4546644808909123e-05 0.0000000000000000e+00  3.2751931880230928e-02 -1.9214409948457352e-04 0.0000000000000000e+00  3.1647202433746149e-02 -4.1670470021364884e-04 0.0000000000000000e+00  3.0550106006806538e-02 -6.3050770081355604e-04 0.0000000000000000e+00  2.9515590748129011e-02 -8.2032096703900945e-04 0.0000000000000000e+00  2.8486908001580338e-02 -9.9615251751541500e-04 0.0000000000000000e+00  2.7518223343826972e-02 -1.1454619461635221e-03 0.0000000000000000e+00  2.6555336615296209e-02 -1.2904550950029634e-03 0.0000000000000000e+00  2.5648356115000798e-02 -1.4157662407097823e-03 0.0000000000000000e+00  2.4745590499312946e-02 -1.5304933649174174e-03 0.0000000000000000e+00  2.3894144966017140e-02 -1.6285208426507715e-03 0.0000000000000000e+00  2.3049200500391789e-02 -1.7181878558063970e-03 0.0000000000000000e+00  2.2252954190461711e-02 -1.7946646361689733e-03 0.0000000000000000e+00  2.1460590812811091e-02 -1.8592886044889434e-03 0.0000000000000000e+00  2.0716030253721315e-02 -1.9072828827322037e-03 0.0000000000000000e+00  1.9967391741163611e-02 -1.9581814044083248e-03 0.0000000000000000e+00  1.9261595849719225e-02 -1.9910181224662340e-03 0.0000000000000000e+00  1.8563638871101813e-02 -2.0142015931145590e-03 0.0000000000000000e+00  1.7904767600211903e-02 -2.0269767632407447e-03 0.0000000000000000e+00  1.7248952014782392e-02 -2.0341355536547894e-03 0.0000000000000000e+00  1.6629772433915370e-02 -2.0313058398771862e-03 0.0000000000000000e+00  1.6014940286396627e-02 -2.0189306643335764e-03 0.0000000000000000e+00  1.5434746801480785e-02 -1.9997953909735690e-03 0.0000000000000000e+00  1.4858248586440652e-02 -1.9717221924151823e-03 0.0000000000000000e+00  1.4314440838044493e-02 -1.9378900609620120e-03 0.0000000000000000e+00  1.3774151709923460e-02 -1.8957756362181276e-03 0.0000000000000000e+00  1.3264894534064542e-02 -1.8484190653304637e-03 0.0000000000000000e+00  1.2759462775630899e-02 -1.7928713675201317e-03 0.0000000000000000e+00  1.2284757771981144e-02 -1.7300460856922728e-03 0.0000000000000000e+00  1.1808641674153247e-02 -1.6656167070309676e-03 0.0000000000000000e+00  1.1361000914816191e-02 -1.5916658174447128e-03 0.0000000000000000e+00  1.0919030228004657e-02 -1.5124304479608895e-03 0.0000000000000000e+00  1.0503075269520233e-02 -1.4295887872556982e-03 0.0000000000000000e+00  1.0092400907291032e-02 -1.3373380852700141e-03 0.0000000000000000e+00  9.7065823990844582e-03 -1.2443678373454869e-03 0.0000000000000000e+00  9.3248411480303418e-03 -1.1448046873311613e-03 0.0000000000000000e+00  8.9678635317321613e-03 -1.0448677839156927e-03 0.0000000000000000e+00  8.6129998454545983e-03 -9.3827961029686630e-04 0.0000000000000000e+00  8.2824989552690662e-03 -8.2944407412655302e-04 0.0000000000000000e+00  7.9523928260734813e-03 -7.1814627978873669e-04 0.0000000000000000e+00  7.6446592002261150e-03 -6.0488264104114513e-04 0.0000000000000000e+00  7.3426826420128098e-03 -4.8742614347156688e-04 0.0000000000000000e+00  7.0595357059684014e-03 -3.7419980437855820e-04 0.0000000000000000e+00  6.7888553692148010e-03 -2.4880928228857545e-04 0.0000000000000000e+00  6.5383501717810434e-03 -1.3231762519451903e-04 0.0000000000000000e+00  6.2823556804291001e-03 -1.4008952114386714e-05 0.0000000000000000e+00  6.0457719182682662e-03 1.0313303780722670e-04 0.0000000000000000e+00  5.8166559171934189e-03 2.2104525235056892e-04 0.0000000000000000e+00  5.6047550992684401e-03 3.3573617571703608e-04 0.0000000000000000e+00  5.3965155464667401e-03 4.5015009753411237e-04 0.0000000000000000e+00  5.2049581645796728e-03 5.5927795315341986e-04 0.0000000000000000e+00  5.0150630757329175e-03 6.6508869409936315e-04 0.0000000000000000e+00  4.8397050931404959e-03 7.6586533229903964e-04 0.0000000000000000e+00  4.6677463755173563e-03 8.6449267853902750e-04 0.0000000000000000e+00  4.5084775577952547e-03 9.5655657822220960e-04 0.0000000000000000e+00  4.3524667407597592e-03 1.0449399274078284e-03 0.0000000000000000e+00  4.2078247157413132e-03 1.1260809417864305e-03 0.0000000000000000e+00  4.0648127445859295e-03 1.2023513264527339e-03 0.0000000000000000e+00  3.9327137381467824e-03 1.2714965885939069e-03 0.0000000000000000e+00  3.7971038748584721e-03 1.3324380639720607e-03 0.0000000000000000e+00  3.6697904579291703e-03 1.3870861820350546e-03 0.0000000000000000e+00  3.5457916117778402e-03 1.4372219332659923e-03 0.0000000000000000e+00  3.4272171797238723e-03 1.4781124944091859e-03 0.0000000000000000e+00  3.3085146626795148e-03 1.5129635921475135e-03 0.0000000000000000e+00  3.1940196700938053e-03 1.5393768609834415e-03 0.0000000000000000e+00  3.0788614291437661e-03 1.5606658521317332e-03 0.0000000000000000e+00  2.9673088808839215e-03 1.5739861573525566e-03 0.0000000000000000e+00  2.8517847927924554e-03 1.5807763188685827e-03 0.0000000000000000e+00  2.7397997409109431e-03 1.5818742876980779e-03 0.0000000000000000e+00  2.6212680495360159e-03 1.5768884173311200e-03 0.0000000000000000e+00  2.5048004204075444e-03 1.5672617515999940e-03 0.0000000000000000e+00  2.3888751466321877e-03 1.5548860801779159e-03 0.0000000000000000e+00  2.2727786955537154e-03 1.5362642273568572e-03 0.0000000000000000e+00  2.1470716108371399e-03 1.5129731581344920e-03 0.0000000000000000e+00  2.0242753003005564e-03 1.4874387014133107e-03 0.0000000000000000e+00  1.8968407325569664e-03 1.4633574391556315e-03 0.0000000000000000e+00  1.7707946620281912e-03 1.4315977529106103e-03 0.0000000000000000e+00  1.6403102718888240e-03 1.4050734792280448e-03 0.0000000000000000e+00  1.5086982152400124e-03 1.3754809287819605e-03 0.0000000000000000e+00  1.3672395247780840e-03 1.3439150693033181e-03 0.0000000000000000e+00  1.2282269915900776e-03 1.3150197638802752e-03 0.0000000000000000e+00  1.0843972331603235e-03 1.2893115622318921e-03 0.0000000000000000e+00  9.4063929245259887e-04 1.2647279401449827e-03 0.0000000000000000e+00  7.9062177623148234e-04 1.2420799577283696e-03 0.0000000000000000e+00  6.4124570419308712e-04 1.2225382804589761e-03 0.0000000000000000e+00  4.8314873665165740e-04 1.2072536136885370e-03 0.0000000000000000e+00  3.2519973543471592e-04 1.1939857740265556e-03 0.0000000000000000e+00  1.6297090780116597e-04 1.1910022883272642e-03 0.0000000000000000e+00  -6.6825198854191354e-21 1.1337558178148822e-03 0.0000000000000000e+00  7.3090061246771440e-22 1.0686122396119384e-03 0.0000000000000000e+00  -1.6288642220709158e-20 1.0004336153012739e-03 0.0000000000000000e+00  1.0727427291251261e-20 9.3342363109439848e-04 0.0000000000000000e+00  -9.1807095544979275e-21 8.6784439909326299e-04 0.0000000000000000e+00  3.5145900314209403e-21 8.0338675950952169e-04 0.0000000000000000e+00  1.2188203836384806e-20 7.4039973006002750e-04 0.0000000000000000e+00  -7.6396386618566293e-21 6.7907309555480949e-04 0.0000000000000000e+00  1.3366950470436368e-20 6.1951528881814210e-04 0.0000000000000000e+00  1.1252768946605437e-20 5.6182309145414225e-04 0.0000000000000000e+00  7.2868925723968538e-21 5.0599970492154716e-04 0.0000000000000000e+00  6.0681565712547128e-21 4.5246118673606262e-04 0.0000000000000000e+00  1.9401306541130809e-20 4.0090872230329753e-04 0.0000000000000000e+00  1.1107731097462707e-20 3.5177951931496856e-04 0.0000000000000000e+00  1.3878415609126535e-20 3.0517742250718257e-04 0.0000000000000000e+00  5.7637746510566352e-21 2.6121024793460259e-04 0.0000000000000000e+00  -1.8915777479691895e-21 2.2037369693190869e-04 0.0000000000000000e+00  -3.9093159549869373e-21 1.8264775378804376e-04 0.0000000000000000e+00  2.1873913141482322e-21 1.4805506419556856e-04 0.0000000000000000e+00  2.3414761922547156e-21 1.1674170348487765e-04 0.0000000000000000e+00  3.6975354407437061e-21 8.8360014503698753e-05 0.0000000000000000e+00  -1.5883599648401423e-21 6.3857108553704947e-05 0.0000000000000000e+00  9.4094256229663275e-22 4.3353417898897707e-05 0.0000000000000000e+00  7.5668517600911115e-22 2.6779705190408349e-05 0.0000000000000000e+00  -5.0895770956627978e-22 1.4834089412419013e-05 0.0000000000000000e+00  2.5167915645451660e-22 7.0469248094286723e-06 0.0000000000000000e+00  1.9452380896663490e-21 1.0700977790170574e-06 0.0000000000000000e+00  2.0795067869066541e-21 7.4268099532380501e-23 0.0000000000000000e+00  -3.4252946912398883e-21 1.3264726474508000e-22 0.0000000000000000e+00  -1.9385283601043103e-21 1.5750542925847521e-21 0.0000000000000000e+00  1.4296300074983103e-20 6.4442642898563505e-23 0.0000000000000000e+00  4.3084102880199092e-21 -1.0771025720049773e-21 0.0000000000000000e+00  -4.5136665018555274e-21 -4.4078774432182885e-22 0.0000000000000000e+00  -1.3544402565237130e-20 -1.1287002137697608e-21 0.0000000000000000e+00  -1.0399962161881665e-20 -1.2078607739869045e-22 0.0000000000000000e+00  -1.8457524403168259e-20 2.8839881879950404e-22 0.0000000000000000e+00  1.5593660450883324e-20 1.4619056672703117e-21 0.0000000000000000e+00  1.2949165888547113e-19 4.0466143401709728e-21 0.0000000000000000e+00  3.5936534408695835e-20 -3.1907258174080622e-21 0.0000000000000000e+00  -8.7495594688732705e-20 -1.3671186670114485e-21 0.0000000000000000e+00  2.6286191188866963e-20 -5.9041249740619158e-22 0.0000000000000000e+00  -1.3623970421662780e-20 -6.3862361351544280e-22 0.0000000000000000e+00  -3.7789112543946249e-20 -6.2495631530125603e-22 0.0000000000000000e+00  0.0000000000000000e+00 5.8335504433987874e-22 0.0000000000000000e+00  0.0000000000000000e+00 5.6572112213860677e-22 0.0000000000000000e+00  -7.6173001655210196e-20 1.4877539385783240e-21 0.0000000000000000e+00  -1.3833578400173587e-20 1.6485673455404566e-22 0.0000000000000000e+00  6.0958747315447577e-20 -3.1749347560128945e-22 0.0000000000000000e+00  -5.2935539035262228e-21 5.3762656832688201e-22 0.0000000000000000e+00  -1.0711184454574377e-20 3.3472451420544927e-22 0.0000000000000000e+00  -9.9496404027313699e-21 1.3316563039014222e-23 0.0000000000000000e+00  0.0000000000000000e+00 6.1744852576988248e-22 0.0000000000000000e+00  -2.8342196698496546e-20 -1.5183319659908862e-21 0.0000000000000000e+00  3.8281309483760315e-20 -7.9752728091167323e-22 0.0000000000000000e+00  4.6914178723920762e-20 3.7129568840890236e-21 0.0000000000000000e+00  -3.9470915916728224e-20 1.2334661223977570e-21 0.0000000000000000e+00  -3.4759794339401398e-20 4.2306328636771445e-21 0.0000000000000000e+00  4.1652388841880492e-20 -5.2065486052350615e-22 0.0000000000000000e+00  -2.3380744942927307e-20 -5.2674643403397275e-22 0.0000000000000000e+00  -2.7347001753655813e-20 -5.6972920320116283e-22 0.0000000000000000e+00  2.4531347081026069e-20 -6.5708965395605545e-21 0.0000000000000000e+00  -1.9139552855087342e-20 -1.1962220534429589e-21 0.0000000000000000e+00  1.9226306612500347e-20 4.6512041556255167e-22 0.0000000000000000e+00  1.9993763881528358e-20 1.8744153638932835e-21 0.0000000000000000e+00  2.0823255870236272e-20 7.6556087758221586e-22 0.0000000000000000e+00  -2.9548159321680122e-20 -3.6935199152100153e-21 0.0000000000000000e+00  1.0438291373463931e-21 1.7016948717818398e-22 0.0000000000000000e+00  1.6082963218098050e-20 -8.8456297699539279e-21 0.0000000000000000e+00  8.7637734351818396e-21 7.9087711488226352e-21 0.0000000000000000e+00  -5.5277729643088109e-21 1.8425909881029368e-21 0.0000000000000000e+00  -2.5925613854656457e-21 -7.0220663713571536e-21 0.0000000000000000e+00  4.1992209035012867e-21 4.1992209035012867e-21 0.0000000000000000e+00  -1.6571182525288577e-20 -1.2428386893966431e-21 0.0000000000000000e+00  1.0306800190852087e-20 -3.4356000636173623e-21 0.0000000000000000e+00  2.8458645872744675e-20 1.5472382868569040e-20 0.0000000000000000e+00  -4.7544904226103626e-21 -2.3772452113051813e-21 0.0000000000000000e+00  2.5187969530359052e-20 -8.5868077944405867e-22 0.0000000000000000e+00  3.1431288088373477e-20 7.8578220220933691e-21 0.0000000000000000e+00  -7.7229645194476911e-20 -1.5872453082618625e-21 0.0000000000000000e+00  -6.0927206219796197e-21 -5.3311305442321676e-21 0.0000000000000000e+00  7.6496418421874224e-20 -5.4124824355099690e-22 0.0000000000000000e+00  -3.3664572463344887e-20 7.0134525965301844e-22 0.0000000000000000e+00  -5.7028388266075357e-20 3.2952290793361374e-21 0.0000000000000000e+00  -7.5196651650062151e-21 2.3498953640644424e-21 0.0000000000000000e+00  -3.9260129666034978e-20 -5.5209557342861686e-22 0.0000000000000000e+00  3.2576839508917879e-20 3.0540787039610512e-21 0.0000000000000000e+00  1.7414056134690211e-20 2.5761836995845762e-21 0.0000000000000000e+00  8.9922282754093705e-20 -1.1240285344261713e-21 0.0000000000000000e+00  -1.1836363578034637e-20 -2.4412499879696437e-21 0.0000000000000000e+00  5.9591014667093757e-20 1.2414794722311198e-21 0.0000000000000000e+00  9.4730381246079726e-20 4.2363263165003328e-22 0.0000000000000000e+00  -1.1095624083655256e-20 -3.4673825261422676e-22 0.0000000000000000e+00  -8.8253396948341675e-20 1.2065894114031088e-22 0.0000000000000000e+00  -1.2490705740045552e-20 -2.9275091578231762e-22 0.0000000000000000e+00  2.8305259153865360e-20 -3.7256412778949822e-22 0.0000000000000000e+00  4.0820992673997694e-20 4.5179484079294326e-22 0.0000000000000000e+00  -3.8555935632839844e-20 8.6062356323303223e-23 0.0000000000000000e+00  1.5292803329207399e-20 0.0000000000000000e+00 0.0000000000000000e+00  -8.3663465776609917e-21 6.1199044867058340e-22 0.0000000000000000e+00  -2.5938185804254382e-20 -1.3509471773049157e-22 0.0000000000000000e+00  -8.9910063714459402e-21 1.0536335591538211e-21 0.0000000000000000e+00  -9.6413667371119386e-21 -6.0258542106949616e-22 0.0000000000000000e+00  -4.8070474106782575e-20 -1.0988307711561866e-21 0.0000000000000000e+00  5.1055625307260031e-20 -6.3819531634075038e-22 0.0000000000000000e+00  -6.4731312247058382e-20 2.6452699716345973e-21 0.0000000000000000e+00  -2.1127364162793635e-20 0.0000000000000000e+00 0.0000000000000000e+00  -5.1927545824568774e-20 2.9099121041700456e-21 0.0000000000000000e+00  -1.4133042657295389e-20 1.7666303321619237e-21 0.0000000000000000e+00  1.1935438331880221e-20 -2.1022647061834483e-21 0.0000000000000000e+00  -1.5539795911765213e-20 3.3993303556986404e-21 0.0000000000000000e+00  1.1052136802095708e-20 5.7440301736870484e-22 0.0000000000000000e+00  4.7292854732428496e-20 -3.2842260230853122e-22 0.0000000000000000e+00  -5.6872052244206099e-21 2.5592423509892745e-21 0.0000000000000000e+00  8.2014546050179857e-21 -5.6385000409498649e-21 0.0000000000000000e+00  3.9593212072601775e-20 6.6801772966010228e-21 0.0000000000000000e+00  -2.8772212574518413e-20 3.5965265718148016e-21 0.0000000000000000e+00  4.0318749475030500e-21 8.3997394739646874e-22 0.0000000000000000e+00  -1.2205066450567704e-20 0.0000000000000000e+00 0.0000000000000000e+00  3.3710696735223783e-20 9.5776485924854355e-23 0.0000000000000000e+00  0.0000000000000000e+00 2.7051434409009144e-21 0.0000000000000000e+00  -2.8506588009678330e-20 1.7307571291590415e-21 0.0000000000000000e+00  -5.4854448781183704e-20 4.2855038110299769e-22 0.0000000000000000e+00  1.0349183353881960e-20 -1.6813991523216712e-21 0.0000000000000000e+00  2.1508350237054969e-20 0.0000000000000000e+00 0.0000000000000000e+00  3.6013220782125177e-21 -1.4630370942738354e-21 0.0000000000000000e+00  -3.2555776488536059e-20 -9.0432712468155720e-22 0.0000000000000000e+00  2.3761300153908874e-21 -8.1632516258841578e-22 0.0000000000000000e+00  3.4735099597024301e-21 0.0000000000000000e+00 0.0000000000000000e+00  -1.5551013669984352e-21 3.8877534174960881e-22 0.0000000000000000e+00  2.4832120634313983e-21 6.2080301585784959e-22 0.0000000000000000e+00  -1.7567884419739517e-20 8.5497037509398975e-22 0.0000000000000000e+00  -1.7706317586185864e-21 1.3279738189639399e-21 0.0000000000000000e+00  -1.5446886081143184e-20 1.6833145088425265e-21 0.0000000000000000e+00  2.8035941664934419e-21 -1.7522463540584010e-21 0.0000000000000000e+00  -1.8855435755340938e-20 5.5502547068270511e-21 0.0000000000000000e+00  1.6754223350432445e-21 2.0942779188040555e-21 0.0000000000000000e+00  4.1532826433279782e-21 2.1312897774972519e-21 0.0000000000000000e+00  3.7080688168831645e-21 -9.2701720422079113e-22 0.0000000000000000e+00  6.6232937395836616e-21 -1.9032453274665694e-21 0.0000000000000000e+00  0.0000000000000000e+00 5.1210954703672579e-22 0.0000000000000000e+00  0.0000000000000000e+00 8.6927430320764069e-22 0