<?xml version="1.0"?>
<VTKFile type="UnstructuredGrid"  version="0.1"  >
<UnstructuredGrid>
<Piece  NumberOfPoints="13179" NumberOfCells="25814">
<Points>
<DataArray  type="Float64"  NumberOfComponents="3"  format="ascii">0 0 0  30 0 0  30 -10 0  0 -10 0  0.02360821169319077 0 0  0.04721642338638154 0 0  0.07206717063563725 0 0  0.09691791788489297 0 0  0.1230766011355843 0 0  0.1492352843862757 0 0  0.1767707375239038 0 0  0.204306190661532 0 0  0.2332908770901271 0 0  0.2622755635187223 0 0  0.2927857633803451 0 0  0.323295963241968 0 0  0.3554119623832387 0 0  0.3875279615245094 0 0  0.4213342730081758 0 0  0.4551405844918422 0 0  0.4907261762804851 0 0  0.526311768069128 0 0  0.5637702848355051 0 0  0.6012288016018821 0 0  0.6406588220121138 0 0  0.6800888424223455 0 0  0.721594129780935 0 0  0.7630994171395246 0 0  0.8067891887833475 0 0  0.8504789604271704 0 0  0.8964681941825949 0 0  0.9424574279380195 0 0  0.9908671465681095 0 0  1.039276865198199 0 0  1.090234462786975 0 0  1.141192060375751 0 0  1.194831641933244 0 0  1.248471223490737 0 0  1.304933942963653 0 0  1.361396662436569 0 0  1.420831104471586 0 0  1.480265546506604 0 0  1.542828113436244 0 0  1.605390680365884 0 0  1.671246013469327 0 0  1.73710134657277 0 0  1.806422752814762 0 0  1.875744159056755 0 0  1.948714057431306 0 0  2.021683955805857 0 0  2.098494373901932 0 0  2.175304791998006 0 0  2.256157866653476 0 0  2.337010941308945 0 0  2.422119443935387 0 0  2.50722794656183 0 0  2.596815840700639 0 0  2.686403734839449 0 0  2.780706776094687 0 0  2.875009817349925 0 0  2.974276175689285 0 0  3.073542534028646 0 0  3.178033441002704 0 0  3.282524347976761 0 0  3.392514777963501 0 0  3.502505207950242 0 0  3.618284608533553 0 0  3.734064009116865 0 0  3.855937062816526 0 0  3.977810116516187 0 0  4.106097541496641 0 0  4.234384966477093 0 0  4.369424362562147 0 0  4.5044637586472 0 0  4.646610489729194 0 0  4.788757220811188 0 0  4.938385356669961 0 0  5.088013492528733 0 0  5.24551679218304 0 0  5.403020091837347 0 0  5.568813038399614 0 0  5.73460598496188 0 0  5.909124878408681 0 0  6.083643771855482 0 0  6.267347873338513 0 0  6.451051974821543 0 0  6.644424714363561 0 0  6.83779745390558 0 0  7.041347702348167 0 0  7.244897950790754 0 0  7.459161368238869 0 0  7.673424785686984 0 0  7.898965226038037 0 0  8.124505666389089 0 0  8.361916654054033 0 0  8.599327641718979 0 0  8.849233942517035 0 0  9.099140243315093 0 0  9.362199507946787 0 0  9.625258772578484 0 0  9.902163261537794 0 0  10.1790677504971 0 0  10.47054616023911 0 0  10.76202456998112 0 0  11.06884394887334 0 0  11.37566332776555 0 0  11.69863109504192 0 0  12.02159886231829 0 0  12.3615649378891 0 0  12.7015310134599 0 0  13.05939003847426 0 0  13.41724906348862 0 0  13.79394276982091 0 0  14.1706364761532 0 0  14.5671561683298 0 0  14.96367586050641 0 0  15.38106501332897 0 0  15.79845416615153 0 0  16.23781117165827 0 0  16.677168177165 0 0  17.13964923659526 0 0  17.60213029602552 0 0  18.0889524622663 0 0  18.57577462850707 0 0  19.08821901304263 0 0  19.60066339757818 0 0  20.14007853843172 0 0  20.67949367928525 0 0  21.24729908993883 0 0  21.8151045005924 0 0  22.41279440541421 0 0  23.01048431023601 0 0  23.63963157605829 0 0  24.26877884188056 0 0  24.93103912515648 0 0  25.59329940843241 0 0  26.29041549584691 0 0  26.98753158326142 0 0  27.72133799026916 0 0  28.45514439727691 0 0  29.22757219863846 0 0  30 -0.3571428571428571 0  30 -0.7142857142857142 0  30 -1.071428571428571 0  30 -1.428571428571428 0  30 -1.785714285714286 0  30 -2.142857142857143 0  30 -2.5 0  30 -2.857142857142857 0  30 -3.214285714285714 0  30 -3.571428571428571 0  30 -3.928571428571428 0  30 -4.285714285714286 0  30 -4.642857142857142 0  30 -5 0  30 -5.357142857142857 0  30 -5.714285714285714 0  30 -6.071428571428571 0  30 -6.428571428571428 0  30 -6.785714285714285 0  30 -7.142857142857142 0  30 -7.5 0  30 -7.857142857142857 0  30 -8.214285714285714 0  30 -8.571428571428571 0  30 -8.928571428571427 0  30 -9.285714285714285 0  30 -9.642857142857142 0  29.22757220128658 -10 0  28.45514440257316 -10 0  27.72133799277628 -10 0  26.98753158297939 -10 0  26.29041549304805 -10 0  25.5932994031167 -10 0  24.93103911757599 -10 0  24.26877883203527 -10 0  23.63963156418132 -10 0  23.01048429632737 -10 0  22.41279438968936 -10 0  21.81510448305136 -10 0  21.24729907078059 -10 0  20.67949365850982 -10 0  20.14007851622273 -10 0  19.60066337393564 -10 0  19.08821898813588 -10 0  18.57577460233611 -10 0  18.08895243498708 -10 0  17.60213026763805 -10 0  17.13964920724307 -10 0  16.6771681468481 -10 0  16.2378111405086 -10 0  15.79845413416909 -10 0  15.38106498063496 -10 0  14.96367582710082 -10 0  14.56715613432376 -10 0  14.17063644154669 -10 0  13.79394273471576 -10 0  13.41724902788484 -10 0  13.05939000246495 -10 0  12.70153097704506 -10 0  12.36156490115379 -10 0  12.02159882526251 -10 0  11.69863105774323 -10 0  11.37566329022395 -10 0  11.06884391115945 -10 0  10.76202453209494 -10 0  10.47054612224479 -10 0  10.17906771239465 -10 0  9.902163223385379 -10 0  9.625258734376107 -10 0  9.362199469747061 -10 0  9.099140205118012 -10 0  8.849233904370102 -10 0  8.599327603622193 -10 0  8.361916616050124 -10 0  8.124505628478055 -10 0  7.898965188258209 -10 0  7.673424748038361 -10 0  7.459161330755727 -10 0  7.244897913473093 -10 0  7.041347665226496 -10 0  6.837797416979896 -10 0  6.644424677660922 -10 0  6.451051938341948 -10 0  6.26734783710581 -10 0  6.083643735869675 -10 0  5.90912484269068 -10 0  5.734605949511682 -10 0  5.568813003235423 -10 0  5.403020056959164 -10 0  5.24551675760658 -10 0  5.088013458254 -10 0  4.938385322710374 -10 0  4.788757187166745 -10 0  4.646610456411224 -10 0  4.504463725655707 -10 0  4.369424329906533 -10 0  4.234384934157362 -10 0  4.106097509520442 -10 0  3.977810084883522 -10 0  3.85593703153344 -10 0  3.734063978183357 -10 0  3.618284577954206 -10 0  3.502505177725055 -10 0  3.392514748095728 -10 0  3.282524318466404 -10 0  3.1780334118518 -10 0  3.073542505237196 -10 0  2.97427614725823 -10 0  2.875009789279265 -10 0  2.780706748384375 -10 0  2.686403707489482 -10 0  2.596815813710069 -10 0  2.507227919930656 -10 0  2.422119417661861 -10 0  2.337010915393062 -10 0  2.256157841092762 -10 0  2.175304766792465 -10 0  2.098494349048437 -10 0  2.021683931304413 -10 0  1.948714033278215 -10 0  1.875744135252013 -10 0  1.806422729354161 -10 0  1.737101323456312 -10 0  1.671245990692352 -10 0  1.605390657928396 -10 0  1.542828091333185 -10 0  1.480265524737977 -10 0  1.420831083031992 -10 0  1.36139664132601 -10 0  1.304933922176438 -10 0  1.248471203026863 -10 0  1.194831621786765 -10 0  1.14119204054667 -10 0  1.09023444350921 -10 0  1.039276846471754 -10 0  0.9908671279064798 -10 0  0.942457409341209 -10 0  0.8964681758842019 -10 0  0.8504789424271948 -10 0  0.8067891710751951 -10 0  0.7630993997231954 -10 0  0.7215941126497469 -10 0  0.6800888255762949 -10 0  0.6406588054444597 -10 0  0.6012287853126246 -10 0  0.5637702688178621 -10 0  0.5263117523230996 -10 0  0.4907261607992695 -10 0  0.4551405692754429 -10 0  0.4213342580497894 -10 0  0.3875279468241395 -10 0  0.3554119479341011 -10 0  0.3232959490440663 -10 0  0.2927857494269297 -10 0  0.2622755498097931 -10 0  0.2332908636189828 -10 0  0.2043061774281725 -10 0  0.1767707245216883 -10 0  0.1492352716152006 -10 0  0.1230765885890825 -10 0  0.09691790556296098 -10 0  0.0720671585317838 -10 0  0.04721641150060663 -10 0  0.02360820575030331 -10 0  0 -9.957983193277311 0  0 -9.915966386554622 0  0 -9.873949579831933 0  0 -9.831932773109244 0  0 -9.789915966386555 0  0 -9.747899159663866 0  0 -9.705882352941176 0  0 -9.663865546218487 0  0 -9.621848739495798 0  0 -9.579831932773109 0  0 -9.53781512605042 0  0 -9.495798319327731 0  0 -9.453781512605042 0  0 -9.411764705882353 0  0 -9.369747899159664 0  0 -9.327731092436975 0  0 -9.285714285714286 0  0 -9.243697478991596 0  0 -9.201680672268907 0  0 -9.159663865546218 0  0 -9.117647058823529 0  0 -9.07563025210084 0  0 -9.033613445378151 0  0 -8.991596638655462 0  0 -8.949579831932773 0  0 -8.907563025210084 0  0 -8.865546218487395 0  0 -8.823529411764707 0  0 -8.781512605042018 0  0 -8.739495798319329 0  0 -8.69747899159664 0  0 -8.655462184873949 0  0 -8.61344537815126 0  0 -8.571428571428571 0  0 -8.529411764705882 0  0 -8.487394957983193 0  0 -8.445378151260504 0  0 -8.403361344537815 0  0 -8.361344537815127 0  0 -8.319327731092438 0  0 -8.277310924369749 0  0 -8.235294117647058 0  0 -8.193277310924369 0  0 -8.15126050420168 0  0 -8.109243697478991 0  0 -8.067226890756302 0  0 -8.025210084033613 0  0 -7.983193277310924 0  0 -7.941176470588236 0  0 -7.899159663865547 0  0 -7.857142857142857 0  0 -7.815126050420168 0  0 -7.773109243697479 0  0 -7.73109243697479 0  0 -7.689075630252101 0  0 -7.647058823529411 0  0 -7.605042016806722 0  0 -7.563025210084033 0  0 -7.521008403361344 0  0 -7.478991596638656 0  0 -7.436974789915967 0  0 -7.394957983193278 0  0 -7.352941176470589 0  0 -7.3109243697479 0  0 -7.26890756302521 0  0 -7.226890756302521 0  0 -7.184873949579832 0  0 -7.142857142857143 0  0 -7.100840336134453 0  0 -7.058823529411764 0  0 -7.016806722689076 0  0 -6.974789915966387 0  0 -6.932773109243698 0  0 -6.890756302521009 0  0 -6.84873949579832 0  0 -6.806722689075631 0  0 -6.764705882352941 0  0 -6.722689075630252 0  0 -6.680672268907563 0  0 -6.638655462184874 0  0 -6.596638655462185 0  0 -6.554621848739496 0  0 -6.512605042016807 0  0 -6.470588235294118 0  0 -6.428571428571429 0  0 -6.38655462184874 0  0 -6.344537815126051 0  0 -6.302521008403362 0  0 -6.260504201680672 0  0 -6.218487394957983 0  0 -6.176470588235294 0  0 -6.134453781512605 0  0 -6.092436974789917 0  0 -6.050420168067227 0  0 -6.008403361344538 0  0 -5.966386554621849 0  0 -5.92436974789916 0  0 -5.882352941176471 0  0 -5.840336134453782 0  0 -5.798319327731092 0  0 -5.756302521008403 0  0 -5.714285714285714 0  0 -5.672268907563025 0  0 -5.630252100840336 0  0 -5.588235294117647 0 
[...]
<PointData  Vectors="displacement"> 
<DataArray  type="Float64"  Name="displacement"  NumberOfComponents="3" format="ascii">2.1600000000000413e-01 -2.5201405040749680e-01 0.0000000000000000e+00  3.2110949935625200e-19 5.7326804597782142e-03 0.0000000000000000e+00  3.4331713712890055e-21 -2.7494677822121129e-22 0.0000000000000000e+00  6.0394806571033809e-22 1.5754705065075073e-21 0.0000000000000000e+00  1.8181651951615463e-01 -2.4604001297759176e-01 0.0000000000000000e+00  1.5468388615711040e-01 -2.4492506841311806e-01 0.0000000000000000e+00  1.3351459632784671e-01 -2.3853767908125537e-01 0.0000000000000000e+00  1.1697537258971967e-01 -2.3218196458275642e-01 0.0000000000000000e+00  1.0270700822197040e-01 -2.2589792008460929e-01 0.0000000000000000e+00  9.1003234661585497e-02 -2.1912725790215973e-01 0.0000000000000000e+00  8.0740230828980339e-02 -2.1213650783847454e-01 0.0000000000000000e+00  7.2303516068646878e-02 -2.0516517745183022e-01 0.0000000000000000e+00  6.4811174890923848e-02 -1.9874417547076917e-01 0.0000000000000000e+00  5.8624337879420861e-02 -1.9214698786174877e-01 0.0000000000000000e+00  5.3075575204266388e-02 -1.8594262204820394e-01 0.0000000000000000e+00  4.8434311743324972e-02 -1.7975492581815172e-01 0.0000000000000000e+00  4.4243919990593780e-02 -1.7388235195383181e-01 0.0000000000000000e+00  4.0698429996490003e-02 -1.6829452486774299e-01 0.0000000000000000e+00  3.7563284729399266e-02 -1.6270274360092529e-01 0.0000000000000000e+00  3.4862727432017793e-02 -1.5754843643492811e-01 0.0000000000000000e+00  3.2447819001786914e-02 -1.5238064376484831e-01 0.0000000000000000e+00  3.0416119690039482e-02 -1.4749379771622989e-01 0.0000000000000000e+00  2.8518009127986525e-02 -1.4272299971197416e-01 0.0000000000000000e+00  2.6826062082794807e-02 -1.3824730434425334e-01 0.0000000000000000e+00  2.5323493132149811e-02 -1.3375243922728045e-01 0.0000000000000000e+00  2.4027197534854005e-02 -1.2950723326670105e-01 0.0000000000000000e+00  2.2800228871872493e-02 -1.2536608973613070e-01 0.0000000000000000e+00  2.1758206464943319e-02 -1.2138189683625597e-01 0.0000000000000000e+00  2.0781068781516695e-02 -1.1742754010860997e-01 0.0000000000000000e+00  1.9888591535095031e-02 -1.1369415052743750e-01 0.0000000000000000e+00  1.9099231527028377e-02 -1.0995503531694231e-01 0.0000000000000000e+00  1.8397067390496451e-02 -1.0640936189666224e-01 0.0000000000000000e+00  1.7752121279462772e-02 -1.0284633655277069e-01 0.0000000000000000e+00  1.7170529484147767e-02 -9.9459535434687107e-02 0.0000000000000000e+00  1.6639398446616500e-02 -9.6047689167950284e-02 0.0000000000000000e+00  1.6172135149322822e-02 -9.2814954751029230e-02 0.0000000000000000e+00  1.5750204935692340e-02 -8.9564816870987857e-02 0.0000000000000000e+00  1.5384072329982162e-02 -8.6463596246261418e-02 0.0000000000000000e+00  1.5053246177920454e-02 -8.3353244596303167e-02 0.0000000000000000e+00  1.4763633355075171e-02 -8.0362680263350236e-02 0.0000000000000000e+00  1.4497999994567726e-02 -7.7378890019132979e-02 0.0000000000000000e+00  1.4303204152906160e-02 -7.4504780956105562e-02 0.0000000000000000e+00  1.4102167832584741e-02 -7.1616165170644522e-02 0.0000000000000000e+00  1.3948313221082311e-02 -6.8855730798583245e-02 0.0000000000000000e+00  1.3798647376456828e-02 -6.6067428224661481e-02 0.0000000000000000e+00  1.3700240330373925e-02 -6.3395877153930622e-02 0.0000000000000000e+00  1.3625342573425287e-02 -6.0711304190842731e-02 0.0000000000000000e+00  1.3576174492672580e-02 -5.8140040337553239e-02 0.0000000000000000e+00  1.3544815636716443e-02 -5.5535337653496865e-02 0.0000000000000000e+00  1.3534572729312307e-02 -5.3046341315389052e-02 0.0000000000000000e+00  1.3549068014311128e-02 -5.0536257645512929e-02 0.0000000000000000e+00  1.3571374024961827e-02 -4.8125644962367695e-02 0.0000000000000000e+00  1.3626175509838852e-02 -4.5698041970311035e-02 0.0000000000000000e+00  1.3695752634564394e-02 -4.3376634105962368e-02 0.0000000000000000e+00  1.3785920134002826e-02 -4.1035893643188465e-02 0.0000000000000000e+00  1.3890267313423530e-02 -3.8792918445991413e-02 0.0000000000000000e+00  1.4010907780682862e-02 -3.6529069080903628e-02 0.0000000000000000e+00  1.4145810376101256e-02 -3.4360324993292300e-02 0.0000000000000000e+00  1.4296772418854181e-02 -3.2175641641942920e-02 0.0000000000000000e+00  1.4457715149913146e-02 -3.0089818092845378e-02 0.0000000000000000e+00  1.4639725775148597e-02 -2.7988272999454542e-02 0.0000000000000000e+00  1.4830438843335824e-02 -2.5981130108059910e-02 0.0000000000000000e+00  1.5036097156409607e-02 -2.3955840890770512e-02 0.0000000000000000e+00  1.5248557000043707e-02 -2.2029775274685904e-02 0.0000000000000000e+00  1.5479320647135081e-02 -2.0094869526611579e-02 0.0000000000000000e+00  1.5713872428200760e-02 -1.8241452760329353e-02 0.0000000000000000e+00  1.5963722308488141e-02 -1.6387116482447835e-02 0.0000000000000000e+00  1.6218954844619240e-02 -1.4624005425202674e-02 0.0000000000000000e+00  1.6487717554769986e-02 -1.2854675008862082e-02 0.0000000000000000e+00  1.6756319572549670e-02 -1.1176472922273027e-02 0.0000000000000000e+00  1.7042521537203256e-02 -9.5013595916839787e-03 0.0000000000000000e+00  1.7328582885490412e-02 -7.9135772475074449e-03 0.0000000000000000e+00  1.7624754934131320e-02 -6.3236791769308498e-03 0.0000000000000000e+00  1.7919524900719477e-02 -4.8249894036028109e-03 0.0000000000000000e+00  1.8225225624816790e-02 -3.3347248981806859e-03 0.0000000000000000e+00  1.8526470951454096e-02 -1.9300775900985170e-03 0.0000000000000000e+00  1.8837370872791089e-02 -5.3670095821873622e-04 0.0000000000000000e+00  1.9142097456684309e-02 7.7140118648773564e-04 0.0000000000000000e+00  1.9454459130769514e-02 2.0590492634836250e-03 0.0000000000000000e+00  1.9757363096658074e-02 3.2627551367898047e-03 0.0000000000000000e+00  2.0067008714558219e-02 4.4445799572582637e-03 0.0000000000000000e+00  2.0366070798890787e-02 5.5455463743847517e-03 0.0000000000000000e+00  2.0668492708759728e-02 6.6210655335996963e-03 0.0000000000000000e+00  2.0958335380210261e-02 7.6083761627701403e-03 0.0000000000000000e+00  2.1247144274778914e-02 8.5764657965014916e-03 0.0000000000000000e+00  2.1519967761995773e-02 9.4580620638278351e-03 0.0000000000000000e+00  2.1788561373749904e-02 1.0304586074116365e-02 0.0000000000000000e+00  2.2041553831424577e-02 1.1073301359716728e-02 0.0000000000000000e+00  2.2287341779934782e-02 1.1807090395225794e-02 0.0000000000000000e+00  2.2513072398863257e-02 1.2459272807530905e-02 0.0000000000000000e+00  2.2730346108337567e-02 1.3067214599991772e-02 0.0000000000000000e+00  2.2920992003640978e-02 1.3609777674212382e-02 0.0000000000000000e+00  2.3099538089219964e-02 1.4106373763994519e-02 0.0000000000000000e+00  2.3253557162976932e-02 1.4528827758510035e-02 0.0000000000000000e+00  2.3387790419281379e-02 1.4908172317914435e-02 0.0000000000000000e+00  2.3495862048542468e-02 1.5224245133825242e-02 0.0000000000000000e+00  2.3582514089632165e-02 1.5490014790552654e-02 0.0000000000000000e+00  2.3642140370278775e-02 1.5691751867792994e-02 0.0000000000000000e+00  2.3669259712880614e-02 1.5850684609053374e-02 0.0000000000000000e+00  2.3670317551211691e-02 1.5946630807500958e-02 0.0000000000000000e+00  2.3645023640713705e-02 1.5992034582373128e-02 0.0000000000000000e+00  2.3582408631463502e-02 1.5995150496213858e-02 0.0000000000000000e+00  2.3488285218108317e-02 1.5950724349395325e-02 0.0000000000000000e+00  2.3362817870268129e-02 1.5859253531626646e-02 0.0000000000000000e+00  2.3200150730319741e-02 1.5723745856689349e-02 0.0000000000000000e+00  2.3005150925428007e-02 1.5552809889718600e-02 0.0000000000000000e+00  2.2769592045709632e-02 1.5345977823803687e-02 0.0000000000000000e+00  2.2511845976671697e-02 1.5091207311941510e-02 0.0000000000000000e+00  2.2196791259456092e-02 1.4822805340305901e-02 0.0000000000000000e+00  2.1882068851749852e-02 1.4511527286695698e-02 0.0000000000000000e+00  2.1490813597853511e-02 1.4182025653888274e-02 0.0000000000000000e+00  2.1087023101560385e-02 1.3846114904116528e-02 0.0000000000000000e+00  2.0654175124111319e-02 1.3456241973462672e-02 0.0000000000000000e+00  2.0187745086878456e-02 1.3088375967193767e-02 0.0000000000000000e+00  1.9687624198631407e-02 1.2684373656933741e-02 0.0000000000000000e+00  1.9168010315272977e-02 1.2283079771817543e-02 0.0000000000000000e+00  1.8576618808947627e-02 1.1867356944067067e-02 0.0000000000000000e+00  1.7992520073940897e-02 1.1461696584081126e-02 0.0000000000000000e+00  1.7378702533390789e-02 1.1051302596035343e-02 0.0000000000000000e+00  1.6758415380062640e-02 1.0650715110352368e-02 0.0000000000000000e+00  1.6103036551151910e-02 1.0238407623053612e-02 0.0000000000000000e+00  1.5412112604181172e-02 9.8546657837075922e-03 0.0000000000000000e+00  1.4708736525442532e-02 9.4693826531704554e-03 0.0000000000000000e+00  1.4014213629224019e-02 9.1095067183912925e-03 0.0000000000000000e+00  1.3286010995906681e-02 8.7539149241017012e-03 0.0000000000000000e+00  1.2563641686140242e-02 8.4220815569607029e-03 0.0000000000000000e+00  1.1814193291638506e-02 8.1000254728959015e-03 0.0000000000000000e+00  1.1071860087699791e-02 7.8014651066996531e-03 0.0000000000000000e+00  1.0302329618012697e-02 7.5100500492699803e-03 0.0000000000000000e+00  9.5473109093844894e-03 7.2569492681527001e-03 0.0000000000000000e+00  8.7749469420764156e-03 7.0194230564454441e-03 0.0000000000000000e+00  8.0155899099416741e-03 6.8015899352635474e-03 0.0000000000000000e+00  7.2378832072746988e-03 6.5920242958291495e-03 0.0000000000000000e+00  6.4685575416000935e-03 6.4137866129402206e-03 0.0000000000000000e+00  5.6855742846165539e-03 6.2567839048846413e-03 0.0000000000000000e+00  4.9233470911621592e-03 6.1124574146434758e-03 0.0000000000000000e+00  4.0982676726502992e-03 5.9906944017621084e-03 0.0000000000000000e+00  3.2886592241010773e-03 5.8820198377041140e-03 0.0000000000000000e+00  2.4799230396560738e-03 5.8202877966321018e-03 0.0000000000000000e+00  1.6733957609690363e-03 5.7604176385529044e-03 0.0000000000000000e+00  8.0725394834792131e-04 5.7355730196054742e-03 0.0000000000000000e+00  -8.0277374839062987e-20 5.4358060397723760e-03 0.0000000000000000e+00  0.0000000000000000e+00 5.0613025214914821e-03 0.0000000000000000e+00  3.5725099941011749e-20 4.7200154903068786e-03 0.0000000000000000e+00  7.1049162589203506e-20 4.3730566945773168e-03 0.0000000000000000e+00  1.2011715806933287e-19 4.0394871108423410e-03 0.0000000000000000e+00  8.4479243014774287e-20 3.7156940563656776e-03 0.0000000000000000e+00  3.5209335805584312e-20 3.4019091758843954e-03 0.0000000000000000e+00  8.9597118083663533e-21 3.0976143512188681e-03 0.0000000000000000e+00  -9.3346636855058807e-21 2.8041443838779053e-03 0.0000000000000000e+00  8.6060938326248258e-20 2.5225774170688480e-03 0.0000000000000000e+00  -1.0869155022491941e-19 2.2525018562012246e-03 0.0000000000000000e+00  -2.5246191737216536e-20 1.9966318364433950e-03 0.0000000000000000e+00  3.8634485154778319e-21 1.7529347532194710e-03 0.0000000000000000e+00  -3.9059061808920763e-20 1.5245720381235109e-03 0.0000000000000000e+00  3.7582619669678532e-20 1.3096634274249491e-03 0.0000000000000000e+00  4.6544223041631792e-20 1.1107565001604017e-03 0.0000000000000000e+00  1.1920982776330265e-20 9.2768640883239800e-04 0.0000000000000000e+00  -1.5386458284058596e-20 7.5996335047041268e-04 0.0000000000000000e+00  -1.3303288433264891e-20 6.0748347952784443e-04 0.0000000000000000e+00  2.4889655737674965e-21 4.7297218290903411e-04 0.0000000000000000e+00  -2.1033632694062513e-21 3.5486856552131109e-04 0.0000000000000000e+00  -2.9832755967070859e-20 2.5353517232131812e-04 0.0000000000000000e+00  2.0480468542882478e-20 1.6874153347841954e-04 0.0000000000000000e+00  8.0886847227680417e-21 1.0126187326922427e-04 0.0000000000000000e+00  -7.2265944934638600e-21 5.0899400921345881e-05 0.0000000000000000e+00  6.8416244072390609e-21 1.5153227185158071e-05 0.0000000000000000e+00  6.3700768478042163e-21 1.8264582324976635e-06 0.0000000000000000e+00  1.8123245678028035e-20 1.7952614158222881e-21 0.0000000000000000e+00  -3.3829877713722441e-20 -1.8500714374691958e-21 0.0000000000000000e+00  -4.6176306931410649e-20 -4.4444695421482756e-21 0.0000000000000000e+00  1.6706751449572750e-20 1.5662579483974454e-21 0.0000000000000000e+00  1.7438300459352051e-20 3.6634350413179915e-22 0.0000000000000000e+00  1.7720930859452057e-20 2.0766715850920380e-21 0.0000000000000000e+00  -5.4728006644216258e-20 -1.3187510661696906e-21 0.0000000000000000e+00  2.0731617039610590e-20 2.1055548555854506e-21 0.0000000000000000e+00  -3.3178210007466670e-20 -1.2960238284166666e-21 0.0000000000000000e+00  -2.3361762683358258e-20 -1.8251377096373639e-22 0.0000000000000000e+00  2.5768445733872801e-19 1.7080379074484264e-21 0.0000000000000000e+00  2.6770928543023493e-20 -2.1398067552210768e-21 0.0000000000000000e+00  -8.6624098496611247e-20 -8.2176879154151296e-21 0.0000000000000000e+00  -1.0312589625482520e-19 3.6255197902086985e-21 0.0000000000000000e+00  5.9192445513232319e-20 -5.1483170718467004e-22 0.0000000000000000e+00  -1.1455278112464196e-19 -2.2373590063406631e-21 0.0000000000000000e+00  2.0371178902958481e-19 6.3659934071745252e-21 0.0000000000000000e+00  1.5449516776755690e-19 -6.0346597363191209e-21 0.0000000000000000e+00  2.8842151475052536e-19 8.6508788641400273e-21 0.0000000000000000e+00  -3.9723226241948255e-19 6.0956985006973747e-21 0.0000000000000000e+00  -6.6145257892318045e-20 -1.5374333052737989e-20 0.0000000000000000e+00  0.0000000000000000e+00 -3.6181532240476820e-21 0.0000000000000000e+00  -4.1228955538023711e-19 1.5053548918473825e-21 0.0000000000000000e+00  3.4116575454955120e-19 1.3326787287091844e-21 0.0000000000000000e+00  2.9168793974808715e-19 -9.9999843615918333e-21 0.0000000000000000e+00  -3.7532491366134605e-19 -7.3305647199481646e-21 0.0000000000000000e+00  4.2161706838483787e-19 3.9788695833776290e-21 0.0000000000000000e+00  1.6468151645783583e-19 2.5731486946536849e-21 0.0000000000000000e+00  -1.3228610652480583e-19 -1.4391872859110027e-20 0.0000000000000000e+00  2.6467432746811259e-19 -5.1788773492801263e-21 0.0000000000000000e+00  -4.4110932263832970e-19 7.4437792297862291e-21 0.0000000000000000e+00  -3.1307131706270516e-19 1.9992057291698327e-20 0.0000000000000000e+00  1.8906638198151869e-19 1.2734315016218799e-20 0.0000000000000000e+00  -4.7340021412561452e-19 -1.0264960702989208e-20 0.0000000000000000e+00  1.0525951933646264e-18 0.0000000000000000e+00 0.0000000000000000e+00  4.6884500057672362e-19 -1.2687318042534612e-21 0.0000000000000000e+00  2.0873362422370990e-19 -4.7152014411092632e-21 0.0000000000000000e+00  6.0135959100513681e-20 1.8546258900487261e-21 0.0000000000000000e+00  2.0393482318548663e-19 4.3245107595136671e-21 0.0000000000000000e+00  0.0000000000000000e+00 4.0335983087830690e-21 0.0000000000000000e+00  -1.7268401042903763e-19 2.8511932063404079e-21 0.0000000000000000e+00  -2.9537137417330054e-19 -6.8153811834626197e-21 0.0000000000000000e+00  -9.8727147430426790e-19 -2.9033168729995827e-21 0.0000000000000000e+00  7.2796803313925904e-19 2.8436251294502306e-21 0.0000000000000000e+00  -2.9236162509206171e-20 1.5908035415861391e-21 0.0000000000000000e+00  2.1479636963001242e-19 -3.4041362873615992e-21 0.0000000000000000e+00  8.4174239341831193e-19 1.0960187414300936e-21 0.0000000000000000e+00  -1.3638468781561036e-19 2.2697090691377109e-21 0.0000000000000000e+00  -5.8473378550432728e-20 6.4799904981324672e-21 0.0000000000000000e+00  2.9458153437406875e-19 7.1344869813478883e-21 0.0000000000000000e+00  -2.5369568031064804e-19 -3.9639950048538757e-21 0.0000000000000000e+00  3.0491638580233547e-19 7.1029239103853965e-21 0.0000000000000000e+00  5.8624796789352773e-19 1.1868848259270152e-20 0.0000000000000000e+00  6.5732598758649455e-20 -1.1930647015751256e-20 0.0000000000000000e+00  -4.2358919944599146e-19 3.3092906206718083e-21 0.0000000000000000e+00  5.5768708837458337e-19 1.3942177209364583e-20 0.0000000000000000e+00  7.3356303383929485e-20 -4.2168554028570578e-21 0.0000000000000000e+00  -1.5301819761189146e-19 1.1978914481977841e-20 0.0000000000000000e+00  1.2416521018808776e-19 -2.3280976910266456e-20 0.0000000000000000e+00  1.8621745890004013e-19 -1.0121583177222460e-20 0.0000000000000000e+00  3.5144126963968741e-19 -1.3733342171997692e-20 0.0000000000000000e+00  -1.8093913480720470e-19 -1.6235271743176409e-20 0.0000000000000000e+00  -2.9940395472696238e-19 1.1851406541275594e-20 0.0000000000000000e+00  -2.6122941245687450e-19 5.3635637751742391e-21 0.0000000000000000e+00  5.9119590934904248e-19 -1.0691476948586561e-21 0.0000000000000000e+00  -8.6147206582550541e-20 9.7295628269792074e-21 0.0000000000000000e+00  -9.6541525704777086e-20 1.2067690713097136e-20 0.0000000000000000e+00  1.3572015885204550e-19 -4.3798288179288878e-20 0.0000000000000000e+00  -1.2721941202084469e-19 -1.1926627448285301e-20 0.0000000000000000e+00  -6.0104057005622013e-20 3.7565035628513758e-21 0.0000000000000000e+00  -8.3663163720504998e-20 -2.4279925770975942e-20 0.0000000000000000e+00  -7.5611208560027448e-20 1.3839525969197933e-20 0.0000000000000000e+00  -2.7146583936811743e-19 1.7746173856934121e-20 0.0000000000000000e+00  2.2283771837258510e-19 -3.1104570912529463e-21 0.0000000000000000e+00  3.0737187917091657e-19 0.0000000000000000e+00 0.0000000000000000e+00  -1.2028625790879720e-19 1.5035782238599650e-20 0.0000000000000000e+00  -3.8198821156272920e-20 -4.0435913827486188e-20 0.0000000000000000e+00  -8.7641925585706959e-20 0.0000000000000000e+00 0.0000000000000000e+00  5.0403275530393237e-19 -3.7229692153131373e-20 0.0000000000000000e+00  9.7596719178815022e-20 6.0997949486759389e-21 0.0000000000000000e+00  -1.8367228360196434e-19 -3.8686480439290400e-21 0.0000000000000000e+00  -5.3837189052512154e-20 -1.3459297263128038e-20 0.0000000000000000e+00  2.0706708706074328e-19 -8.9839255299029631e-21 0.0000000000000000e+00  2.9293095987312248e-19 1.4646547993656125e-20 0.0000000000000000e+00  -9.1841653985918149e-20 -6.1272663950638074e-20 0.0000000000000000e+00  -1.7391082852472626e-19 -2.7284896066777910e-20 0.0000000000000000e+00  1.7164574132823650e-19 8.5822870664118255e-21 0.0000000000000000e+00  7.3576678828916131e-20 3.2189796987650810e-20 0.0000000000000000e+00  7.9344557126141597e-20 1.4115604732178748e-20 0.0000000000000000e+00  -1.2209371422300517e-19 1.0174476185250430e-20 0.0000000000000000e+00  7.1696022272136751e-20 1.2801685623306676e-20 0.0000000000000000e+00  6.6233412832101363e-20 7.0354334331253066e-22 0.0000000000000000e+00  1.6710552324324014e-19 -2.2326880356430974e-20 0.0000000000000000e+00  -2.1694062587656856e-20 -3.2541093881485283e-20 0.0000000000000000e+00  -1.6575887209918282e-19 2.3022065569330946e-20 0.0000000000000000e+00  2.7433144556167348e-20 1.0287429208562756e-20 0.0000000000000000e+00  -2.0298899312513547e-19 -2.9011681590475355e-20 0.0000000000000000e+00  3.8955268768101609e-21 1.3006223593135902e-20 0.0000000000000000e+00  -2.4444095900930501e-20 -7.1295279711047286e-21 0.0000000000000000e+00  -1.6624435692472839e-20 0.0000000000000000e+00 0.0000000000000000e+00  9.3488845807130652e-20 1.0224955851281179e-20 0.0000000000000000e+00  0.0000000000000000e+00 0.0000000000000000e+00 0.0000000000000000e+00  4.8468866545778709e-20 -1.4540659963733612e-20 0.0000000000000000e+00  3.0727299794623347e-20 -7.6818249486558366e-21 0.0000000000000000e+00  -6.0607865909089033e-20 1.8485760909419833e-20 0.0000000000000000e+00  7.6739814813998001e-20 1.3703538359642502e-20 0.0000000000000000e+00  5.7284564055309049e-21 -9.3087416589877201e-21 0.0000000000000000e+00  2.4618731297491286e-20 -1.2309365648745643e-20 0.0000000000000000e+00  4.5200356953070488e-20 -7.6630912404675227e-22 0.0000000000000000e+00  7.1385226853206460e-21 5.3538920139904841e-21 0.0000000000000000e+00  0.0000000000000000e+00 -1.8275298928925235e-21 0.0000000000000000e+00  3.8330829381767058e-20 1.1499248814530116e-20 0.0000000000000000e+00  -2.8050662312392346e-20 4.7492344458693721e-21 0.0000000000000000e+00  1.1984497297765817e-