<?xml version="1.0"?>
<VTKFile type="UnstructuredGrid"  version="0.1"  >
<UnstructuredGrid>
<Piece  NumberOfPoints="1691" NumberOfCells="3204">
<Points>
<DataArray  type="Float64"  NumberOfComponents="3"  format="ascii">0 0 0  30 0 0  30 -10 0  0 -10 0  0.1391574078963744 0 0  0.2856388821882616 0 0  0.4398299073010886 0 0  0.6021362569539473 0 0  0.7729850389704483 0 0  0.9528258543586996 0 0  1.142131984380316 0 0  1.34140159760994 0 0  1.551159074717981 0 0  1.771956417032531 0 0  2.004374674080994 0 0  2.249025475789527 0 0  2.506552636773105 0 0  2.777633857742732 0 0  3.062982518028728 0 0  3.363349525995907 0 0  3.679525322337712 0 0  4.01234195575742 0 0  4.362675247811097 0 0  4.731447135329707 0 0  5.119628065610077 0 0  5.528239565804708 0 0  5.958356943167011 0 0  6.411112081475485 0 0  6.887696441559404 0 0  7.389364184530748 0 0  7.917435485335147 0 0  8.473300005202017 0 0  9.058420557070402 0 0  9.674336929103793 0 0  10.32266995225095 0 0  11.00512576896296 0 0  11.72350030646412 0 0  12.47968402994705 0 0  13.27566689579597 0 0  14.1135435963616 0 0  14.9955190732806 0 0  15.92391430904694 0 0  16.90117245730496 0 0  17.92986524844506 0 0  19.01269976086341 0 0  20.15252556282024 0 0  21.35234220269763 0 0  22.61530708683689 0 0  23.94474379751883 0 0  25.34415086349739 0 0  26.81721093579712 0 0  28.3678004819169 0 0  30 -1.111111111111111 0  30 -2.222222222222222 0  30 -3.333333333333333 0  30 -4.444444444444445 0  30 -5.555555555555555 0  30 -6.666666666666666 0  30 -7.777777777777777 0  30 -8.888888888888889 0  28.36780047917311 -10 0  26.8172109305839 -10 0  25.34415085606858 -10 0  23.94474378810899 -10 0  22.61530707566275 -10 0  21.3523421899591 -10 0  20.15252554870171 -10 0  19.01269974553473 -10 0  17.92986523206254 -10 0  16.90117244001232 -10 0  15.92391429097614 -10 0  14.99551905455266 -10 0  14.11354357708742 -10 0  13.27566687607703 -10 0  12.47968400987599 -10 0  11.72350028612546 -10 0  11.00512574843363 -10 0  10.32266993160086 -10 0  9.674336908396342 -10 0  9.058420536362949 -10 0  8.473299984546333 -10 0  7.917435464777824 -10 0  7.389364164113587 -10 0  6.887696420787165 -10 0  6.411112061446698 -10 0  5.95835692337857 -10 0  5.528239546282652 -10 0  5.119628046377237 -10 0  4.731447115907979 -10 0  4.362675229213632 -10 0  4.012341937260036 -10 0  3.679525304434552 -10 0  3.363349508456405 -10 0  3.062982500861274 -10 0  2.777633840953978 -10 0  2.506552620368097 -10 0  2.249025459771861 -10 0  2.004374658452946 -10 0  1.771956401795187 -10 0  1.551159059871345 -10 0  1.341401583153029 -10 0  1.142131970307521 -10 0  0.9528258406748833 -10 0  0.7729850256685147 -10 0  0.6021362439621285 -10 0  0.4398298947504031 -10 0  0.2856388700059078 -10 0  0.1391573960769001 -10 0  0 -9.855072463768115 0  0 -9.710144927536232 0  0 -9.565217391304348 0  0 -9.420289855072463 0  0 -9.27536231884058 0  0 -9.130434782608695 0  0 -8.985507246376812 0  0 -8.840579710144928 0  0 -8.695652173913043 0  0 -8.55072463768116 0  0 -8.405797101449275 0  0 -8.260869565217391 0  0 -8.115942028985508 0  0 -7.971014492753623 0  0 -7.826086956521739 0  0 -7.681159420289855 0  0 -7.536231884057971 0  0 -7.391304347826087 0  0 -7.246376811594203 0  0 -7.101449275362318 0  0 -6.956521739130435 0  0 -6.811594202898551 0  0 -6.666666666666667 0  0 -6.521739130434783 0  0 -6.376811594202898 0  0 -6.231884057971015 0  0 -6.086956521739131 0  0 -5.942028985507246 0  0 -5.797101449275362 0  0 -5.652173913043478 0  0 -5.507246376811594 0  0 -5.36231884057971 0  0 -5.217391304347826 0  0 -5.072463768115941 0  0 -4.927536231884058 0  0 -4.782608695652174 0  0 -4.637681159420289 0  0 -4.492753623188406 0  0 -4.347826086956522 0  0 -4.202898550724638 0  0 -4.057971014492754 0  0 -3.913043478260869 0  0 -3.768115942028985 0  0 -3.623188405797101 0  0 -3.478260869565217 0  0 -3.333333333333334 0  0 -3.188405797101449 0  0 -3.043478260869565 0  0 -2.898550724637681 0  0 -2.753623188405797 0  0 -2.608695652173912 0  0 -2.463768115942029 0  0 -2.318840579710145 0  0 -2.173913043478261 0  0 -2.028985507246377 0  0 -1.884057971014492 0  0 -1.739130434782609 0  0 -1.594202898550725 0  0 -1.44927536231884 0  0 -1.304347826086957 0  0 -1.159420289855072 0  0 -1.014492753623188 0  0 -0.8695652173913047 0  0 -0.72463768115942 0  0 -0.579710144927537 0  0 -0.4347826086956523 0  0 -0.2898550724637676 0  0 -0.1449275362318829 0  0.1309460514202492 -4.990980414828784 0  0.1171526873513358 -5.869565217391296 0  0.1344252986967795 -6.716855800502001 0  0.1221309018586645 -4.161899358592938 0  0.1166997684017801 -3.25954604704229 0  4.961569127360256 -0.3118894787216622 0  4.923897360678746 -9.687537149351071 0  0.1228405945134021 -2.536958536012416 0  0.1335945686177435 -7.466846676638523 0  3.206461751753455 -0.2806173508164562 0  3.213166004658842 -9.746377676274168 0  0.1155250883680452 -8.186784073011673 0  0.1359204609538445 -1.804202625344072 0  6.662432263484016 -9.600124945047963 0  6.631056521209421 -0.3942868763482545 0  2.126700074935258 -0.2065769621215452 0  2.120437876630353 -9.808537401472012 0  8.761385473272522 -9.4914222957189 0  8.786076048231736 -0.4923064159810888 0  0.1195911345135556 -8.749677128895598 0  0.1117474302775605 -1.230589418769438 0  11.3907841305612 -9.402816705944797 0  11.36435727088349 -0.618365439918426 0  1.211504568109637 -0.1471532661956818 0  1.239596144827807 -9.832618358594059 0  13.75158625181508 -9.315497816134139 0  13.7500399625954 -0.6902569910160397 0  0.131402377539402 -3.696772604078816 0  0.1204853385030979 -6.307560917781178 0  0.1346483804691658 -4.550944754283819 0  0.1255109280847009 -5.434782608695652 0  16.39894095075685 -9.180198571581517 0  16.44068234362399 -0.8166544577416346 0  0.1255109280847009 -0.7971014492753632 0  0.1162877148651766 -9.206770243020259 0  19.56645066956165 -9.043742294716539 0  29.11731382843969 -5.098539983867493 0  19.50527862123305 -0.9323941524176265 0  23.28904960561395 -8.8608997858633 0  0.6875606479622149 -0.1442604037134076 0  0.6875606348153145 -9.855739596611892 0  23.37074358394081 -1.15131614182933 0  10.00852704311311 -9.475417469395781 0  10.01049631493635 -0.5545437343697674 0  7.639131123468924 -9.543000896765111 0  7.693537846067955 -0.4574302764599576 0  5.733194300659633 -9.66079268774309 0  5.731454990332523 -0.3687808037058806 0  3.803630689980224 -9.686555789708486 0  3.834043646352164 -0.2754981925697493 0  2.618022704128803 -9.787800068206256 0  2.634320277618269 -0.2392104743186785 0  1.65952286941916 -9.813294854785646 0  1.665360553377539 -0.1820878093930922 0  0.1365068028365961 -1.543352471920677 0  0.1128108295274224 -8.471115901500411 0  0.1249192863256123 -0.5070564851587012 0  0.1172626025927563 -9.49200175151447 0  0.1255109280847009 -2.101449275362318 0  0.1255109280847009 -7.898550724637682 0  0.1247535864599936 -2.824177050114505 0  0.1155424837078822 -7.17494363557847 0  26.05192393553612 -8.777856070543081 0  26.00031291598836 -1.159065252957426 0  0.3627343947446455 -0.1301950113519217 0  0.3690141220077834 -9.868919517536135 0  28.90574865438674 -7.135369011630129 0  29.02069681040884 -2.861993939893059 0  0.1397555488250113 -0.2163338956475025 0  0.1255109280847009 -9.782608695652172 0  24.67098979274125 -8.799958058548517 0  23.93395881668722 -7.700959994796646 0  22.61396570077244 -7.764517377391733 0  23.2032949615693 -6.630776985250927 0  21.94857473380583 -6.690613342424633 0  24.50398505507967 -6.535933305198952 0  22.51489076809043 -5.580432145971667 0  21.29537841406989 -5.639199768252479 0  21.84985259542567 -4.547213342284197 0  20.65342988351128 -4.619546679988924 0  20.11277906893955 -5.663225279336593 0  19.49454290958806 -4.673886314669294 0  18.97860072994828 -5.624185949902217 0  18.40383886642446 -4.729683279047542 0  17.90575400337286 -5.630456854950327 0  17.35903168001753 -4.836859475002379 0  16.91444903556046 -5.680257663405808 0  16.36114434035519 -4.898890029095359 0  15.89440836794127 -5.835214594829282 0  15.41608945577568 -4.979845093198404 0  14.9809818125648 -5.732909169427192 0  14.51777858619734 -4.988431190461874 0  14.14039496103406 -5.776391085527889 0  13.67321261031888 -5.031745046943032 0  13.26988611760758 -5.891550007816156 0  12.85732927991246 -5.095735823822261 0  12.46423889659403 -5.760519953635332 0  12.07741841933393 -5.116608846746942 0  11.73131647445202 -5.75987862647932 0  11.35222911621012 -5.158061768105265 0  11.01225658271747 -5.784828178519854 0  10.65393216495117 -5.205808407572067 0  10.33042159780337 -5.788944717060055 0  9.98551374198097 -5.24118342090078 0  9.687616112021921 -5.812725728827915 0  9.357518717034999 -5.284717467130579 0  9.08157001076583 -5.820057568121996 0  8.766199932316585 -5.320212662582848 0  8.494748056481422 -5.830095453943056 0  8.194406727465122 -5.347802431655208 0  7.942610344706003 -5.833678024304247 0  7.660825631728443 -5.380025954369014 0  7.416702921751611 -5.83684433397813 0  7.147290851157173 -5.413787279190068 0  6.91632006965034 -5.851605397483334 0  6.658527053286988 -5.437627383845131 0  6.441897327469297 -5.862220684948111 0  6.194860224019926 -5.464520225953867 0  5.988748643021736 -5.866336295550595 0  5.755042825355586 -5.482399938780632 0  5.555770501455733 -5.867908174086599 0  5.334991086231989 -5.504761241472904 0  5.145076642106908 -5.873191062890511 0  4.935013388047023 -5.544035964184449 0  4.754345788811499 -5.880090917794126 0  4.554437025256316 -5.569020251233177 0  4.382470744799432 -5.88665007327689 0  4.192208958329529 -5.585677590398814 0  4.029485566904095 -5.896175760774888 0  4.354949258143058 -5.270074521138358 0  4.004482386201769 -5.289207815434526 0  4.158655721068861 -4.98145486433833 0  3.821444856080801 -5.001169872115685 0  3.97033944278737 -4.700814034221719 0  3.642688047138773 -4.720140385706738 0  3.788830742180677 -4.426816067812119 0  3.467446796449556 -4.450112744784491 0  3.325275354457695 -4.730293981808933 0  3.158439978631689 -4.466074367009679 0  3.294707394527546 -4
[...]
<PointData  Vectors="displacement"> 
<DataArray  type="Float64"  Name="displacement"  NumberOfComponents="3" format="ascii">3.0000000000000027e-01 1.6376853869000732e-01 0.0000000000000000e+00  -2.8510454394408668e-19 4.0891493705714019e-03 0.0000000000000000e+00  -2.9677785259342531e-20 -1.6463013471517244e-20 0.0000000000000000e+00  2.8963290667107898e-21 -3.4755948800529474e-20 0.0000000000000000e+00  2.9867889623215627e-01 1.5722812150991466e-01 0.0000000000000000e+00  2.9439846496764954e-01 1.4195247117704216e-01 0.0000000000000000e+00  2.8379945016452940e-01 1.2008567236971701e-01 0.0000000000000000e+00  2.6767133558803435e-01 9.5720166686554600e-02 0.0000000000000000e+00  2.4698479123595593e-01 7.2557553010058187e-02 0.0000000000000000e+00  2.2495567136328087e-01 5.3497032110199676e-02 0.0000000000000000e+00  2.0283668960866563e-01 3.8868379232126486e-02 0.0000000000000000e+00  1.8234669526941680e-01 2.7613788666866219e-02 0.0000000000000000e+00  1.6379003052705890e-01 1.8536209458747666e-02 0.0000000000000000e+00  1.4705286343798182e-01 1.1985654591409111e-02 0.0000000000000000e+00  1.3214714859718280e-01 7.0276636212111077e-03 0.0000000000000000e+00  1.1903925762728781e-01 3.1842379038586467e-03 0.0000000000000000e+00  1.0735151846781829e-01 2.4666482584976082e-04 0.0000000000000000e+00  9.6968822033163066e-02 -1.8472298856218564e-03 0.0000000000000000e+00  8.7711155757820722e-02 -3.5781221647480776e-03 0.0000000000000000e+00  7.9441490223103775e-02 -4.7148376110095497e-03 0.0000000000000000e+00  7.1970333193690506e-02 -5.5413869057453612e-03 0.0000000000000000e+00  6.5261545979958452e-02 -6.1371705694735126e-03 0.0000000000000000e+00  5.9360189902356808e-02 -6.2245338287304011e-03 0.0000000000000000e+00  5.3807487961538988e-02 -6.2310795510027933e-03 0.0000000000000000e+00  4.8810097139694732e-02 -6.0028337651167000e-03 0.0000000000000000e+00  4.4327431686312237e-02 -5.6052352219026881e-03 0.0000000000000000e+00  4.0225477872231047e-02 -5.1423249303770291e-03 0.0000000000000000e+00  3.6528486246966162e-02 -4.5241550415699829e-03 0.0000000000000000e+00  3.3192244157006286e-02 -3.7698836147768062e-03 0.0000000000000000e+00  3.0105912207835164e-02 -2.9987480378540678e-03 0.0000000000000000e+00  2.7389157324140212e-02 -2.0846759882768512e-03 0.0000000000000000e+00  2.4952038648002346e-02 -1.1780437664968139e-03 0.0000000000000000e+00  2.2753370722874134e-02 -2.4502406911125718e-04 0.0000000000000000e+00  2.0796813091088787e-02 6.7932028892045805e-04 0.0000000000000000e+00  1.9073558887826959e-02 1.5672070031124414e-03 0.0000000000000000e+00  1.7534666582785914e-02 2.3901206079717826e-03 0.0000000000000000e+00  1.6169757790067445e-02 3.1352078982907891e-03 0.0000000000000000e+00  1.4957177668239629e-02 3.8189054662086486e-03 0.0000000000000000e+00  1.3816257889854409e-02 4.3731544473473655e-03 0.0000000000000000e+00  1.2818222902400459e-02 4.8339957424595971e-03 0.0000000000000000e+00  1.1881759352826388e-02 5.1668274030188081e-03 0.0000000000000000e+00  1.0995649410637753e-02 5.3602992343343226e-03 0.0000000000000000e+00  1.0118936079636529e-02 5.4624152101220083e-03 0.0000000000000000e+00  9.2345963134897509e-03 5.4440953467658117e-03 0.0000000000000000e+00  8.3435527524026790e-03 5.3518184901519723e-03 0.0000000000000000e+00  7.4375397984887699e-03 5.1795836462079151e-03 0.0000000000000000e+00  6.5195751770838559e-03 5.0064752094900744e-03 0.0000000000000000e+00  5.5235143352138673e-03 4.7714278860939837e-03 0.0000000000000000e+00  4.4992097023503442e-03 4.5498592480413989e-03 0.0000000000000000e+00  3.4453507086706879e-03 4.3572298786528612e-03 0.0000000000000000e+00  2.3419327031165855e-03 4.2108958002672068e-03 0.0000000000000000e+00  1.1494917182476526e-03 4.1126032576317053e-03 0.0000000000000000e+00  0.0000000000000000e+00 3.4464730610798259e-03 0.0000000000000000e+00  1.7029713228365542e-19 2.7201529922266723e-03 0.0000000000000000e+00  3.2193396932319774e-20 2.0702181182333111e-03 0.0000000000000000e+00  8.9541357126947071e-20 1.4798765351586023e-03 0.0000000000000000e+00  -9.9104981759029605e-20 9.7795109587314115e-04 0.0000000000000000e+00  2.6660722163362011e-20 5.5551026716390043e-04 0.0000000000000000e+00  8.1929186715150579e-20 2.4428094051107466e-04 0.0000000000000000e+00  -1.4944858520518220e-20 5.0552087593129086e-05 0.0000000000000000e+00  4.5167642893265461e-20 2.0248721012494725e-20 0.0000000000000000e+00  1.4369159201599433e-19 -4.9892913894442474e-20 0.0000000000000000e+00  9.8762721378756171e-20 -3.0088545340252379e-20 0.0000000000000000e+00  6.7652189103956417e-20 3.3826094551978209e-20 0.0000000000000000e+00  5.6496290999583105e-20 5.2965272812109165e-21 0.0000000000000000e+00  0.0000000000000000e+00 1.3134566760685288e-20 0.0000000000000000e+00  -8.4513338783390721e-20 -2.5499714288092029e-21 0.0000000000000000e+00  -1.0412621242082296e-19 -1.9523664828904304e-20 0.0000000000000000e+00  -1.1502326154422995e-19 8.7580272690690218e-21 0.0000000000000000e+00  -3.2035283865875927e-19 7.0077183456603595e-21 0.0000000000000000e+00  -1.5523033206235394e-19 -1.1087880861596709e-21 0.0000000000000000e+00  -5.5455210656169338e-19 1.1140555712176877e-20 0.0000000000000000e+00  1.1254172665281354e-19 -7.7372437073809302e-21 0.0000000000000000e+00  2.9753282106129610e-19 -1.5496501096942505e-20 0.0000000000000000e+00  -2.3838495471577400e-19 2.5807938827440804e-20 0.0000000000000000e+00  2.1502215508261382e-19 -2.0158327038995047e-20 0.0000000000000000e+00  -1.5328643636895135e-20 9.5804022730594597e-21 0.0000000000000000e+00  -2.0293890691756340e-19 5.0734726729390850e-20 0.0000000000000000e+00  2.3436996700732021e-21 -9.2756412392008391e-20 0.0000000000000000e+00  6.6091219467606931e-20 6.6091219467606931e-20 0.0000000000000000e+00  -1.2482984690088627e-19 2.9721392119258637e-20 0.0000000000000000e+00  2.1199983470829532e-19 1.3249989669268457e-20 0.0000000000000000e+00  -2.2623786217037617e-19 1.0039678577146040e-19 0.0000000000000000e+00  -2.7091306098777716e-19 5.0796198935208217e-20 0.0000000000000000e+00  -2.8063380258488502e-19 -1.3702822391840089e-19 0.0000000000000000e+00  -3.2043422470848973e-19 -4.0054278088561216e-20 0.0000000000000000e+00  -5.4952850050729168e-20 2.2556922746790819e-20 0.0000000000000000e+00  -1.0937605088730641e-19 -2.0508009541369951e-20 0.0000000000000000e+00  7.4275634122345156e-20 -3.1153696147995355e-21 0.0000000000000000e+00  -8.2688037712508146e-19 1.9876932142429844e-21 0.0000000000000000e+00  -5.9575306204334558e-19 -2.8121628299280830e-21 0.0000000000000000e+00  5.9596941047625230e-19 2.6605777253404122e-21 0.0000000000000000e+00  -5.0230995415922804e-19 -1.1934980692333637e-20 0.0000000000000000e+00  -2.7678143702769549e-19 1.4415699845192475e-20 0.0000000000000000e+00  -1.5734391713617297e-19 1.6022695464068666e-20 0.0000000000000000e+00  -3.1652205124971367e-19 3.9565256406214212e-21 0.0000000000000000e+00  -2.5001037115547478e-19 2.7486891454470721e-20 0.0000000000000000e+00  -1.4966844778890111e-19 -1.4031416980209480e-20 0.0000000000000000e+00  2.3982656642100309e-19 1.3740063701203300e-20 0.0000000000000000e+00  -1.3058703040654726e-19 3.8087883868576288e-20 0.0000000000000000e+00  -6.5656022499280095e-20 4.0621752517062054e-20 0.0000000000000000e+00  -1.5296134214407687e-19 4.4613724792022415e-20 0.0000000000000000e+00  6.9909416274101517e-21 -2.2720560289082993e-20 0.0000000000000000e+00  4.9727608693833418e-20 -8.2879347823055701e-21 0.0000000000000000e+00  7.5270133485408647e-21 -2.3160041072433429e-21 0.0000000000000000e+00  -8.0913909041302655e-20 -3.0342715890488497e-20 0.0000000000000000e+00  -5.2912542201525943e-21 2.6967641619862773e-20 0.0000000000000000e+00  0.0000000000000000e+00 -7.2177495455198713e-21 0.0000000000000000e+00  1.0552934549690063e-20 1.3054945536923617e-04 0.0000000000000000e+00  -2.5044941330150384e-20 3.0983054157283143e-04 0.0000000000000000e+00  1.3399299213163174e-20 5.3911132714240181e-04 0.0000000000000000e+00  -2.5231954305509314e-20 8.1780952713470748e-04 0.0000000000000000e+00  -1.3011005491768626e-19 1.1444703778156005e-03 0.0000000000000000e+00  -7.3503394816569474e-20 1.5125433845671109e-03 0.0000000000000000e+00  1.5780634071770441e-20 1.9225391889372853e-03 0.0000000000000000e+00  6.4143303002625303e-20 2.3732489864695507e-03 0.0000000000000000e+00  6.1744148735238618e-20 2.8595210001734900e-03 0.0000000000000000e+00  -1.0388032173154020e-19 3.3768310601991524e-03 0.0000000000000000e+00  1.9549412700330122e-20 3.9286822718639846e-03 0.0000000000000000e+00  -2.5766081344073881e-20 4.5105638421613515e-03 0.0000000000000000e+00  2.1683458661150480e-19 5.1223511685749819e-03 0.0000000000000000e+00  2.5888103990174603e-19 5.7620422145071336e-03 0.0000000000000000e+00  -8.5623990410213040e-20 6.4273210981581307e-03 0.0000000000000000e+00  -4.5417016445441114e-20 7.1208518448964376e-03 0.0000000000000000e+00  7.3815159187056609e-20 7.8392680358473892e-03 0.0000000000000000e+00  -4.4805751807705523e-20 8.5859730312874954e-03 0.0000000000000000e+00  -2.3698128958749817e-19 9.3586392735244082e-03 0.0000000000000000e+00  -2.5957076203481943e-20 1.0157425432842140e-02 0.0000000000000000e+00  1.6296189521354262e-19 1.0983689491652331e-02 0.0000000000000000e+00  -5.1815060523405127e-19 1.1837253998030406e-02 0.0000000000000000e+00  -2.0919782049006391e-19 1.2718973623314631e-02 0.0000000000000000e+00  -1.1512755047221209e-19 1.3626577792273140e-02 0.0000000000000000e+00  -9.9748438868971618e-20 1.4563854670639051e-02 0.0000000000000000e+00  3.4350055153596654e-19 1.5530169497717102e-02 0.0000000000000000e+00  4.1074397118168398e-20 1.6532611374321979e-02 0.0000000000000000e+00  0.0000000000000000e+00 1.7565192254805507e-02 0.0000000000000000e+00  1.3023549464385244e-19 1.8633988592248778e-02 0.0000000000000000e+00  4.1852760991221293e-19 1.9740398992571129e-02 0.0000000000000000e+00  5.9439090981590915e-20 2.0881077742095178e-02 0.0000000000000000e+00  1.0951698210402742e-19 2.2071356949615636e-02 0.0000000000000000e+00  -3.3694767788045621e-20 2.3306426039747603e-02 0.0000000000000000e+00  5.2112118371278146e-20 2.4576959787181694e-02 0.0000000000000000e+00  -6.4181595351124911e-20 2.5904553588967174e-02 0.0000000000000000e+00  -1.9441769490546900e-19 2.7282001329977688e-02 0.0000000000000000e+00  6.1512857056703346e-20 2.8715262054416383e-02 0.0000000000000000e+00  -5.1721068009047393e-19 3.0219349734436789e-02 0.0000000000000000e+00  -5.1066870120276129e-19 3.1788349695466303e-02 0.0000000000000000e+00  3.1623645452862217e-19 3.3433017004775210e-02 0.0000000000000000e+00  -3.7105785994530116e-19 3.5149671189834746e-02 0.0000000000000000e+00  -4.0176300351393888e-19 3.6947725035905404e-02 0.0000000000000000e+00  2.7258276330624083e-19 3.8835039407905364e-02 0.0000000000000000e+00  2.9144727891385740e-19 4.0820624556724597e-02 0.0000000000000000e+00  0.0000000000000000e+00 4.2910063727599465e-02 0.0000000000000000e+00  -1.0115301877182148e-19 4.5116570602015196e-02 0.0000000000000000e+00  4.1251036916914310e-19 4.7449510962641939e-02 0.0000000000000000e+00  2.3291904722127926e-19 4.9943152049303351e-02 0.0000000000000000e+00  -7.6159010767418858e-19 5.2600791451663381e-02 0.0000000000000000e+00  -3.8815597110130051e-19 5.5408342058037088e-02 0.0000000000000000e+00  2.9468356215282575e-19 5.8395650013474569e-02 0.0000000000000000e+00  1.8926984573522831e-19 6.1601279327658409e-02 0.0000000000000000e+00  3.4636721184668670e-19 6.5071658521638751e-02 0.0000000000000000e+00  -5.6336286637924121e-19 6.8755066164409850e-02 0.0000000000000000e+00  -8.4110226518336662e-19 7.2715371006514332e-02 0.0000000000000000e+00  -3.3822587934823895e-19 7.6891376795787211e-02 0.0000000000000000e+00  -3.2116424515324977e-19 8.1343745043588739e-02 0.0000000000000000e+00  0.0000000000000000e+00 8.6159131074339104e-02 0.0000000000000000e+00  0.0000000000000000e+00 9.0749521301881686e-02 0.0000000000000000e+00  -7.9282404577021101e-19 9.5110004242568283e-02 0.0000000000000000e+00  5.3902728177463439e-19 1.0155164167223033e-01 0.0000000000000000e+00  1.6831101988905305e-17 1.2003052709147913e-01 0.0000000000000000e+00  1.3043478260869534e-01 1.4146891028961994e-01 0.0000000000000000e+00  2.7536231884058010e-01 1.5339121782926912e-01 0.0000000000000000e+00  2.9999999999999999e-01 1.5644389046745300e-01 0.0000000000000000e+00  3.0000000000000027e-01 1.5786879107682392e-01 0.0000000000000000e+00  3.0000000000000004e-01 1.5935937621762999e-01 0.0000000000000000e+00  2.9999999999999999e-01 1.6156857608758451e-01 0.0000000000000000e+00  -1.1113740572664841e-03 2.5223936610328769e-02 0.0000000000000000e+00  -7.9984202064662497e-04 1.8057401529670735e-02 0.0000000000000000e+00  -7.5748283489359260e-04 1.2378882250105241e-02 0.0000000000000000e+00  -1.3088678991441441e-03 3.3771179694983743e-02 0.0000000000000000e+00  -1.6884815552709776e-03 4.6045117090074021e-02 0.0000000000000000e+00  5.0309696177242541e-02 -8.4544167846541604e-03 0.0000000000000000e+00  -1.6977009663428565e-03 -5.3955010420868718e-05 0.0000000000000000e+00  -2.3614099075810482e-03 5.9399273857448809e-02 0.0000000000000000e+00  -6.3154532831859905e-04 8.1758035336503554e-03 0.0000000000000000e+00  8.1029463321146342e-02 -8.4325399554272609e-03 0.0000000000000000e+00  -1.6329252669906970e-03 7.3345511586145920e-05 0.0000000000000000e+00  -4.3988517315142944e-04 4.8125294423885540e-03 0.0000000000000000e+00  -3.4287238506777464e-03 7.7322504410062332e-02 0.0000000000000000e+00  -1.1516753290091314e-03 -1.7302617005288370e-04 0.0000000000000000e+00  3.5038955601144423e-02 -5.9629374901436138e-03 0.0000000000000000e+00  1.2009824169403360e-01 -6.2125232005294279e-04 0.0000000000000000e+00  -1.0505187360242694e-03 1.1245657545843532e-04 0.0000000000000000e+00  1.1943777385803090e-05 -2.1687968780918535e-04 0.0000000000000000e+00  2.4178306525246395e-02 -1.9210341235661164e-03 0.0000000000000000e+00  -3.5388828000961842e-04 2.6685827263401678e-03 0.0000000000000000e+00  1.5456412002016035e-03 8.9067014299762368e-02 0.0000000000000000e+00  1.1557881862658472e-03 -1.4941668234121229e-04 0.0000000000000000e+00  1.7238767771207499e-02 1.9197593264125032e-03 0.0000000000000000e+00  1.8484540484751671e-01 2.7516608375570371e-02 0.0000000000000000e+00  -6.1325173661910641e-04 1.3032067868184449e-04 0.0000000000000000e+00  1.6210538090457157e-03 -6.8236844929875443e-05 0.0000000000000000e+00  1.3498960345890000e-02 4.0305278807609363e-03 0.0000000000000000e+00  -1.6462893963344722e-03 3.9591460308135998e-02 0.0000000000000000e+00  -7.4207753377400357e-04 1.4989475238637050e-02 0.0000000000000000e+00  -1.2942311421043292e-03 2.9484470821743523e-02 0.0000000000000000e+00  -9.5364887828574760e-04 2.1408286375974556e-02 0.0000000000000000e+00  1.7314196657792517e-03 -3.4814492855123912e-07 0.0000000000000000e+00  1.0524140737897810e-02 4.8582821680334745e-03 0.0000000000000000e+00  1.8904304864241786e-01 8.3119503007502982e-02 0.0000000000000000e+00  -2.4175966987710347e-04 1.3116616771867086e-03 0.0000000000000000e+00  1.4540130756503535e-03 4.3699167952481366e-05 0.0000000000000000e+00  4.2803626512005489e-04 1.1721815726173424e-03 0.0000000000000000e+00  7.8094598718061858e-03 4.7180353249281553e-03 0.0000000000000000e+00  9.8764854924605818e-04 5.7135406301983968e-05 0.0000000000000000e+00  2.3989243689919179e-01 7.5499949787496023e-02 0.0000000000000000e+00  -3.1163530457618252e-04 1.1929150539299844e-04 0.0000000000000000e+00  4.7265812519561475e-03 3.9697853694545199e-03 0.0000000000000000e+00  6.2575177092913153e-04 -1.7922392564287488e-04 0.0000000000000000e+00  2.0340669577078630e-02 1.1964518875100576e-04 0.0000000000000000e+00  -6.4934143896145855e-04 -2.0367718817775130e-04 0.0000000000000000e+00  2.8863898959420362e-02 -3.9886066396535398e-03 0.0000000000000000e+00  -1.4564762209105173e-03 -1.0633321120469825e-04 0.0000000000000000e+00  4.2136712179373939e-02 -7.5874161497861085e-03 0.0000000000000000e+00  -1.9908570080896964e-03 3.2128558097988459e-05 0.0000000000000000e+00  6.7394974184781825e-02 -8.9902029161062266e-03 0.0000000000000000e+00  -1.2931838132987624e-03 1.0033593290569792e-04 0.0000000000000000e+00  9.8535470147800383e-02 -5.8304212472558917e-03 0.0000000000000000e+00  -8.6178584147943551e-04 1.3128887620265556e-04 0.0000000000000000e+00  1.4707494145490232e-01 8.3433055380896012e-03 0.0000000000000000e+00  -2.8934946349606807e-03 8.3878248270177508e-02 0.0000000000000000e+00  -3.8348037564079186e-04 3.6699042461442615e-03 0.0000000000000000e+00  2.8295399832062135e-01 1.4074283777866650e-01 0.0000000000000000e+00  -1.6857221537176494e-04 6.7360490790492752e-04 0.0000000000000000e+00  -2.8522125190363705e-03 6.9631897115640703e-02 0.0000000000000000e+00  -5.2280082578867618e-04 6.0794669618388477e-03 0.0000000000000000e+00  -2.1483283244049245e-03 5.3581446097117152e-02 0.0000000000000000e+00  -5.8610364932063256e-04 9.7325775193153451e-03 0.0000000000000000e+00  5.9148425368778896e-04 4.8140279704871843e-05 0.0000000000000000e+00  2.8199170076841436e-03 3.6289249425432170e-03 0.0000000000000000e+00  2.7549804275528389e-01 1.2675006820730131e-01 0.0000000000000000e+00  -1.5647181611991992e-04 1.0940703703864737e-04 0.0000000000000000e+00  3.4211861926240441e-04 4.0476961800603667e-04 0.0000000000000000e+00  6.1243899439887345e-04 2.3529212990190578e-03 0.0000000000000000e+00  2.8940154036309912e-01 1.5355660655574460e-01 0.0000000000000000e+00  -8.6980720748986614e-05 2.1094238965426788e-04 0.0000000000000000e+00  7.9833177858870338e-04 5.6043088096975107e-05 0.0000000000000000e+00  1.6909028744144354e-03 3.0324745260502700e-04 0.0000000000000000e+00  2.0679983375325650e-03 3.1620867879937094e-04 0.0000000000000000e+00  2.6651057180303471e-03 6.9696219780944176e-04 0.0000000000000000e+00  3.1956897576764808e-03 7.2570071230554497e-04 0.0000000000000000e+00  2.1518802941840852e-03 6.8356836938880347e-04 0.0000000000000000e+00  3.6667215785569371e-03 1.2220178948821976e-03 0.0000000000000000e+00  4.3254181695524781e-03 1.2545170514379111e-03 0.0000000000000000e+00  4.6552793362542927e-03 1.8484159882654970e-03 0.0000000000000000e+00  5.4127129395059965e-03 1.8919202774707702e-03 0.0000000000000000e+00  5.0031106408723255e-03 1.2968673513758776e-03 0.0000000000000000e+00  6.1766865392679842e-03 1.9091664410589579e-03 0.0000000000000000e+00  5.7399251232560780e-03 1.3262828980126963e-03 0.0000000000000000e+00  6.9059659885444980e-03 1.8538553056700535e-03 0.0000000000000000e+00  6.4109336680610793e-03 1.2646188474749256e-03 0.0000000000000000e+00  7.5606778480779421e-03 1.6832380135343048e-03 0.0000000000000000e+00  6.9649198253253853e-03 1.1077121286730885e-03 0.0000000000000000e+00  8.2005178100533344e-03 1.4293265672569860e-03 0.0000000000000000e+00  7.3553553106673218e-03 7.9865922197768857e-04 0.0000000000000000e+00  8.7216361315331000e-03 1.0625324191858882e-03 0.0000000000000000e+00  7.9538436216769308e-03 5.1898766632654206e-04 0.0000000000000000e+00  9.2564892203746158e-03 5.9813688757285612e-04 0.0000000000000000e+00  8.2312523435477264e-03 7.8874245230274270e-05 0.0000000000000000e+00  9.6368275171901194e-03 -1.1020549956780353e-05 0.0000000000000000e+00  8.2707847182280358e-03 -5.0840292519865676e-04 0.0000000000000000e+00  9.8345833874508050e-03 -7.5670199136820989e-04 0.0000000000000000e+00  8.6143085673941085e-03 -1.1865165003780757e-03 0.0000000000000000e+00  9.9678802426379377e-03 -1.6332615243973133e-03 0.0000000000000000e+00  8.5536835017283389e-03 -1.9545386143331980e-03 0.0000000000000000e+00  9.8991545310047613e-03 -2.5933358077840003e-03 0.0000000000000000e+00  8.2664093310917865e-03 -2.8187236552800624e-03 0.0000000000000000e+00  9.6349696075266333e-03 -3.6418343209729774e-03 0.0000000000000000e+00  7.8475994377734878e-03 -3.7483930330547977e-03 0.0000000000000000e+00  9.2062710007678981e-03 -4.7452678207618058e-03 0.0000000000000000e+00  7.1988545743990788e-03 -4.6721238620640888e-03 0.0000000000000000e+00  8.5611498068761359e-03 -5.8284824606305