<?xml version="1.0"?>
<VTKFile type="UnstructuredGrid"  version="0.1"  >
<UnstructuredGrid>
<Piece  NumberOfPoints="1691" NumberOfCells="3204">
<Points>
<DataArray  type="Float64"  NumberOfComponents="3"  format="ascii">0 0 0  30 0 0  30 -10 0  0 -10 0  0.1391574078963744 0 0  0.2856388821882616 0 0  0.4398299073010886 0 0  0.6021362569539473 0 0  0.7729850389704483 0 0  0.9528258543586996 0 0  1.142131984380316 0 0  1.34140159760994 0 0  1.551159074717981 0 0  1.771956417032531 0 0  2.004374674080994 0 0  2.249025475789527 0 0  2.506552636773105 0 0  2.777633857742732 0 0  3.062982518028728 0 0  3.363349525995907 0 0  3.679525322337712 0 0  4.01234195575742 0 0  4.362675247811097 0 0  4.731447135329707 0 0  5.119628065610077 0 0  5.528239565804708 0 0  5.958356943167011 0 0  6.411112081475485 0 0  6.887696441559404 0 0  7.389364184530748 0 0  7.917435485335147 0 0  8.473300005202017 0 0  9.058420557070402 0 0  9.674336929103793 0 0  10.32266995225095 0 0  11.00512576896296 0 0  11.72350030646412 0 0  12.47968402994705 0 0  13.27566689579597 0 0  14.1135435963616 0 0  14.9955190732806 0 0  15.92391430904694 0 0  16.90117245730496 0 0  17.92986524844506 0 0  19.01269976086341 0 0  20.15252556282024 0 0  21.35234220269763 0 0  22.61530708683689 0 0  23.94474379751883 0 0  25.34415086349739 0 0  26.81721093579712 0 0  28.3678004819169 0 0  30 -1.111111111111111 0  30 -2.222222222222222 0  30 -3.333333333333333 0  30 -4.444444444444445 0  30 -5.555555555555555 0  30 -6.666666666666666 0  30 -7.777777777777777 0  30 -8.888888888888889 0  28.36780047917311 -10 0  26.8172109305839 -10 0  25.34415085606858 -10 0  23.94474378810899 -10 0  22.61530707566275 -10 0  21.3523421899591 -10 0  20.15252554870171 -10 0  19.01269974553473 -10 0  17.92986523206254 -10 0  16.90117244001232 -10 0  15.92391429097614 -10 0  14.99551905455266 -10 0  14.11354357708742 -10 0  13.27566687607703 -10 0  12.47968400987599 -10 0  11.72350028612546 -10 0  11.00512574843363 -10 0  10.32266993160086 -10 0  9.674336908396342 -10 0  9.058420536362949 -10 0  8.473299984546333 -10 0  7.917435464777824 -10 0  7.389364164113587 -10 0  6.887696420787165 -10 0  6.411112061446698 -10 0  5.95835692337857 -10 0  5.528239546282652 -10 0  5.119628046377237 -10 0  4.731447115907979 -10 0  4.362675229213632 -10 0  4.012341937260036 -10 0  3.679525304434552 -10 0  3.363349508456405 -10 0  3.062982500861274 -10 0  2.777633840953978 -10 0  2.506552620368097 -10 0  2.249025459771861 -10 0  2.004374658452946 -10 0  1.771956401795187 -10 0  1.551159059871345 -10 0  1.341401583153029 -10 0  1.142131970307521 -10 0  0.9528258406748833 -10 0  0.7729850256685147 -10 0  0.6021362439621285 -10 0  0.4398298947504031 -10 0  0.2856388700059078 -10 0  0.1391573960769001 -10 0  0 -9.855072463768115 0  0 -9.710144927536232 0  0 -9.565217391304348 0  0 -9.420289855072463 0  0 -9.27536231884058 0  0 -9.130434782608695 0  0 -8.985507246376812 0  0 -8.840579710144928 0  0 -8.695652173913043 0  0 -8.55072463768116 0  0 -8.405797101449275 0  0 -8.260869565217391 0  0 -8.115942028985508 0  0 -7.971014492753623 0  0 -7.826086956521739 0  0 -7.681159420289855 0  0 -7.536231884057971 0  0 -7.391304347826087 0  0 -7.246376811594203 0  0 -7.101449275362318 0  0 -6.956521739130435 0  0 -6.811594202898551 0  0 -6.666666666666667 0  0 -6.521739130434783 0  0 -6.376811594202898 0  0 -6.231884057971015 0  0 -6.086956521739131 0  0 -5.942028985507246 0  0 -5.797101449275362 0  0 -5.652173913043478 0  0 -5.507246376811594 0  0 -5.36231884057971 0  0 -5.217391304347826 0  0 -5.072463768115941 0  0 -4.927536231884058 0  0 -4.782608695652174 0  0 -4.637681159420289 0  0 -4.492753623188406 0  0 -4.347826086956522 0  0 -4.202898550724638 0  0 -4.057971014492754 0  0 -3.913043478260869 0  0 -3.768115942028985 0  0 -3.623188405797101 0  0 -3.478260869565217 0  0 -3.333333333333334 0  0 -3.188405797101449 0  0 -3.043478260869565 0  0 -2.898550724637681 0  0 -2.753623188405797 0  0 -2.608695652173912 0  0 -2.463768115942029 0  0 -2.318840579710145 0  0 -2.173913043478261 0  0 -2.028985507246377 0  0 -1.884057971014492 0  0 -1.739130434782609 0  0 -1.594202898550725 0  0 -1.44927536231884 0  0 -1.304347826086957 0  0 -1.159420289855072 0  0 -1.014492753623188 0  0 -0.8695652173913047 0  0 -0.72463768115942 0  0 -0.579710144927537 0  0 -0.4347826086956523 0  0 -0.2898550724637676 0  0 -0.1449275362318829 0  0.1309460514202492 -4.990980414828784 0  0.1171526873513358 -5.869565217391296 0  0.1344252986967795 -6.716855800502001 0  0.1221309018586645 -4.161899358592938 0  0.1166997684017801 -3.25954604704229 0  4.961569127360256 -0.3118894787216622 0  4.923897360678746 -9.687537149351071 0  0.1228405945134021 -2.536958536012416 0  0.1335945686177435 -7.466846676638523 0  3.206461751753455 -0.2806173508164562 0  3.213166004658842 -9.746377676274168 0  0.1155250883680452 -8.186784073011673 0  0.1359204609538445 -1.804202625344072 0  6.662432263484016 -9.600124945047963 0  6.631056521209421 -0.3942868763482545 0  2.126700074935258 -0.2065769621215452 0  2.120437876630353 -9.808537401472012 0  8.761385473272522 -9.4914222957189 0  8.786076048231736 -0.4923064159810888 0  0.1195911345135556 -8.749677128895598 0  0.1117474302775605 -1.230589418769438 0  11.3907841305612 -9.402816705944797 0  11.36435727088349 -0.618365439918426 0  1.211504568109637 -0.1471532661956818 0  1.239596144827807 -9.832618358594059 0  13.75158625181508 -9.315497816134139 0  13.7500399625954 -0.6902569910160397 0  0.131402377539402 -3.696772604078816 0  0.1204853385030979 -6.307560917781178 0  0.1346483804691658 -4.550944754283819 0  0.1255109280847009 -5.434782608695652 0  16.39894095075685 -9.180198571581517 0  16.44068234362399 -0.8166544577416346 0  0.1255109280847009 -0.7971014492753632 0  0.1162877148651766 -9.206770243020259 0  19.56645066956165 -9.043742294716539 0  29.11731382843969 -5.098539983867493 0  19.50527862123305 -0.9323941524176265 0  23.28904960561395 -8.8608997858633 0  0.6875606479622149 -0.1442604037134076 0  0.6875606348153145 -9.855739596611892 0  23.37074358394081 -1.15131614182933 0  10.00852704311311 -9.475417469395781 0  10.01049631493635 -0.5545437343697674 0  7.639131123468924 -9.543000896765111 0  7.693537846067955 -0.4574302764599576 0  5.733194300659633 -9.66079268774309 0  5.731454990332523 -0.3687808037058806 0  3.803630689980224 -9.686555789708486 0  3.834043646352164 -0.2754981925697493 0  2.618022704128803 -9.787800068206256 0  2.634320277618269 -0.2392104743186785 0  1.65952286941916 -9.813294854785646 0  1.665360553377539 -0.1820878093930922 0  0.1365068028365961 -1.543352471920677 0  0.1128108295274224 -8.471115901500411 0  0.1249192863256123 -0.5070564851587012 0  0.1172626025927563 -9.49200175151447 0  0.1255109280847009 -2.101449275362318 0  0.1255109280847009 -7.898550724637682 0  0.1247535864599936 -2.824177050114505 0  0.1155424837078822 -7.17494363557847 0  26.05192393553612 -8.777856070543081 0  26.00031291598836 -1.159065252957426 0  0.3627343947446455 -0.1301950113519217 0  0.3690141220077834 -9.868919517536135 0  28.90574865438674 -7.135369011630129 0  29.02069681040884 -2.861993939893059 0  0.1397555488250113 -0.2163338956475025 0  0.1255109280847009 -9.782608695652172 0  24.67098979274125 -8.799958058548517 0  23.93395881668722 -7.700959994796646 0  22.61396570077244 -7.764517377391733 0  23.2032949615693 -6.630776985250927 0  21.94857473380583 -6.690613342424633 0  24.50398505507967 -6.535933305198952 0  22.51489076809043 -5.580432145971667 0  21.29537841406989 -5.639199768252479 0  21.84985259542567 -4.547213342284197 0  20.65342988351128 -4.619546679988924 0  20.11277906893955 -5.663225279336593 0  19.49454290958806 -4.673886314669294 0  18.97860072994828 -5.624185949902217 0  18.40383886642446 -4.729683279047542 0  17.90575400337286 -5.630456854950327 0  17.35903168001753 -4.836859475002379 0  16.91444903556046 -5.680257663405808 0  16.36114434035519 -4.898890029095359 0  15.89440836794127 -5.835214594829282 0  15.41608945577568 -4.979845093198404 0  14.9809818125648 -5.732909169427192 0  14.51777858619734 -4.988431190461874 0  14.14039496103406 -5.776391085527889 0  13.67321261031888 -5.031745046943032 0  13.26988611760758 -5.891550007816156 0  12.85732927991246 -5.095735823822261 0  12.46423889659403 -5.760519953635332 0  12.07741841933393 -5.116608846746942 0  11.73131647445202 -5.75987862647932 0  11.35222911621012 -5.158061768105265 0  11.01225658271747 -5.784828178519854 0  10.65393216495117 -5.205808407572067 0  10.33042159780337 -5.788944717060055 0  9.98551374198097 -5.24118342090078 0  9.687616112021921 -5.812725728827915 0  9.357518717034999 -5.284717467130579 0  9.08157001076583 -5.820057568121996 0  8.766199932316585 -5.320212662582848 0  8.494748056481422 -5.830095453943056 0  8.194406727465122 -5.347802431655208 0  7.942610344706003 -5.833678024304247 0  7.660825631728443 -5.380025954369014 0  7.416702921751611 -5.83684433397813 0  7.147290851157173 -5.413787279190068 0  6.91632006965034 -5.851605397483334 0  6.658527053286988 -5.437627383845131 0  6.441897327469297 -5.862220684948111 0  6.194860224019926 -5.464520225953867 0  5.988748643021736 -5.866336295550595 0  5.755042825355586 -5.482399938780632 0  5.555770501455733 -5.867908174086599 0  5.334991086231989 -5.504761241472904 0  5.145076642106908 -5.873191062890511 0  4.935013388047023 -5.544035964184449 0  4.754345788811499 -5.880090917794126 0  4.554437025256316 -5.569020251233177 0  4.382470744799432 -5.88665007327689 0  4.192208958329529 -5.585677590398814 0  4.029485566904095 -5.896175760774888 0  4.354949258143058 -5.270074521138358 0  4.004482386201769 -5.289207815434526 0  4.158655721068861 -4.98145486433833 0  3.821444856080801 -5.001169872115685 0  3.97033944278737 -4.700814034221719 0  3.642688047138773 -4.720140385706738 0  3.788830742180677 -4.426816067812119 0  3.467446796449556 -4.450112744784491 0  3.325275354457695 -4.730293981808933 0  3.158439978631689 -4.466074367009679 0  3.294707394527546 -4
[...]
<PointData  Vectors="displacement"> 
<DataArray  type="Float64"  Name="displacement"  NumberOfComponents="3" format="ascii">3.0000000000000016e-01 1.6382186891434125e-01 0.0000000000000000e+00  9.4205008386580243e-20 4.0668241605984114e-03 0.0000000000000000e+00  9.9133694418945811e-21 7.0555772020788183e-21 0.0000000000000000e+00  0.0000000000000000e+00 -3.4755948800529474e-20 0.0000000000000000e+00  2.9878083215351109e-01 1.5720658672071430e-01 0.0000000000000000e+00  2.9455191080486659e-01 1.4186578683673715e-01 0.0000000000000000e+00  2.8392157104827392e-01 1.1995385416137726e-01 0.0000000000000000e+00  2.6779519026512860e-01 9.5592738972382227e-02 0.0000000000000000e+00  2.4718324255887725e-01 7.2405718097308280e-02 0.0000000000000000e+00  2.2518723287787393e-01 5.3243005513417402e-02 0.0000000000000000e+00  2.0303014072282105e-01 3.8499750337377105e-02 0.0000000000000000e+00  1.8243411737495752e-01 2.7167052409715363e-02 0.0000000000000000e+00  1.6378405386444309e-01 1.8064068234972929e-02 0.0000000000000000e+00  1.4696354801087286e-01 1.1542701035189572e-02 0.0000000000000000e+00  1.3199587211720187e-01 6.6229697291282181e-03 0.0000000000000000e+00  1.1884530265752567e-01 2.8281128784707838e-03 0.0000000000000000e+00  1.0713112654039586e-01 -6.4076868688605018e-05 0.0000000000000000e+00  9.6733048340230887e-02 -2.1067368712157928e-03 0.0000000000000000e+00  8.7485191686435301e-02 -3.7995230249688681e-03 0.0000000000000000e+00  7.9216136518155414e-02 -4.9054651995328541e-03 0.0000000000000000e+00  7.1750206850366469e-02 -5.7046361246185645e-03 0.0000000000000000e+00  6.5047370937902776e-02 -6.2728044944224803e-03 0.0000000000000000e+00  5.9147543717688052e-02 -6.3411347716359132e-03 0.0000000000000000e+00  5.3611326506075148e-02 -6.3259492071002805e-03 0.0000000000000000e+00  4.8624654055227895e-02 -6.0865789181387304e-03 0.0000000000000000e+00  4.4151462734131550e-02 -5.6732957648025165e-03 0.0000000000000000e+00  4.0062653704658530e-02 -5.1983833674867797e-03 0.0000000000000000e+00  3.6375385496927121e-02 -4.5728336417581823e-03 0.0000000000000000e+00  3.3048214506195224e-02 -3.8104697614516569e-03 0.0000000000000000e+00  2.9978001669078325e-02 -3.0318130611005651e-03 0.0000000000000000e+00  2.7270311156956623e-02 -2.1163136487928808e-03 0.0000000000000000e+00  2.4840771018952146e-02 -1.2061258204412383e-03 0.0000000000000000e+00  2.2650735919696088e-02 -2.7024439760668889e-04 0.0000000000000000e+00  2.0703168789561809e-02 6.5629376101360225e-04 0.0000000000000000e+00  1.8987263158194569e-02 1.5450587990657875e-03 0.0000000000000000e+00  1.7455701303888533e-02 2.3683355455370843e-03 0.0000000000000000e+00  1.6097090794723379e-02 3.1139384021683183e-03 0.0000000000000000e+00  1.4890623533034403e-02 3.7973378062652603e-03 0.0000000000000000e+00  1.3757730731014222e-02 4.3518446332395386e-03 0.0000000000000000e+00  1.2764641661200846e-02 4.8110957800219815e-03 0.0000000000000000e+00  1.1833027726880663e-02 5.1427559518749562e-03 0.0000000000000000e+00  1.0951164709728140e-02 5.3367950684310491e-03 0.0000000000000000e+00  1.0078458570402562e-02 5.4376860058711531e-03 0.0000000000000000e+00  9.1985762732816299e-03 5.4195929617570932e-03 0.0000000000000000e+00  8.3114375854241793e-03 5.3275643196670358e-03 0.0000000000000000e+00  7.4096914268272562e-03 5.1544481085157206e-03 0.0000000000000000e+00  6.4932375492352179e-03 4.9823917156428341e-03 0.0000000000000000e+00  5.5019381707595728e-03 4.7481775153670200e-03 0.0000000000000000e+00  4.4821961816058405e-03 4.5272100680332711e-03 0.0000000000000000e+00  3.4320665254019269e-03 4.3348509344185646e-03 0.0000000000000000e+00  2.3328883274559894e-03 4.1888357810671139e-03 0.0000000000000000e+00  1.1470184076364342e-03 4.0905791684519664e-03 0.0000000000000000e+00  2.0957787623372108e-19 3.4347164479922128e-03 0.0000000000000000e+00  2.3111753667067522e-19 2.7088500368838034e-03 0.0000000000000000e+00  7.1249395135273120e-20 2.0636815207308941e-03 0.0000000000000000e+00  -5.8219418965369099e-20 1.4740718000307803e-03 0.0000000000000000e+00  -1.2235204174608746e-19 9.7407274944593292e-04 0.0000000000000000e+00  5.3321444326724021e-20 5.5317168118249526e-04 0.0000000000000000e+00  9.9485441011254267e-20 2.4289637518804820e-04 0.0000000000000000e+00  -6.7251863342331992e-20 5.0267536303091832e-05 0.0000000000000000e+00  4.4612013025150289e-20 1.0508537884352493e-20 0.0000000000000000e+00  1.4369159201599433e-19 -2.5944315225110087e-20 0.0000000000000000e+00  8.3298411382542952e-20 -1.1591488778621818e-20 0.0000000000000000e+00  -6.7652189103956417e-20 3.3826094551978209e-20 0.0000000000000000e+00  1.2240863049909674e-19 1.0887306078044661e-20 0.0000000000000000e+00  8.4061227268385843e-20 1.0507653408548230e-20 0.0000000000000000e+00  -7.2856326537405794e-19 -2.4315798981859186e-20 0.0000000000000000e+00  0.0000000000000000e+00 -1.3015776552602870e-20 0.0000000000000000e+00  4.4571513848389102e-19 1.0688654522771612e-20 0.0000000000000000e+00  -1.2814113546350371e-19 -1.0011026208086228e-21 0.0000000000000000e+00  1.2196668947756381e-19 -1.0186990541591977e-20 0.0000000000000000e+00  3.1688691803525337e-19 6.1891976178760428e-21 0.0000000000000000e+00  -1.2379589931809488e-19 -1.8991416372662283e-20 0.0000000000000000e+00  0.0000000000000000e+00 1.2397200877554005e-20 0.0000000000000000e+00  -3.5188739887713257e-19 -1.8847489414077407e-21 0.0000000000000000e+00  3.2253323262392075e-19 -1.3438884692663364e-20 0.0000000000000000e+00  1.9160804546118918e-19 -4.4069850456073516e-20 0.0000000000000000e+00  0.0000000000000000e+00 -2.5367363364695425e-20 0.0000000000000000e+00  -1.4135419444195529e-19 -1.5125821634141320e-20 0.0000000000000000e+00  -6.6091219467606931e-20 6.6091219467606931e-20 0.0000000000000000e+00  -5.9442784238517275e-20 5.3498505814665546e-20 0.0000000000000000e+00  0.0000000000000000e+00 -6.6249948346342281e-20 0.0000000000000000e+00  1.0362325984331536e-19 1.0680431788968578e-19 0.0000000000000000e+00  2.0318479574083287e-19 1.1852446418215250e-19 0.0000000000000000e+00  -1.7539612661555315e-19 -1.4360557866648413e-19 0.0000000000000000e+00  -8.8119411794834671e-19 -1.5020354283210455e-19 0.0000000000000000e+00  7.2754477531951301e-20 7.5798637462344556e-20 0.0000000000000000e+00  -2.1875210177461281e-19 0.0000000000000000e+00 0.0000000000000000e+00  4.1594355108513287e-19 5.2515194438064352e-21 0.0000000000000000e+00  -1.2721236571155100e-19 4.9692330356074611e-21 0.0000000000000000e+00  7.0254085970214576e-19 7.5872930270604749e-22 0.0000000000000000e+00  1.7027697442178638e-19 -9.3120220386914422e-21 0.0000000000000000e+00  -2.5644535906350661e-19 2.3965741812314868e-21 0.0000000000000000e+00  -3.6904191603692735e-19 8.6494199071154840e-21 0.0000000000000000e+00  -2.4819959586667887e-19 -2.2821273806058817e-20 0.0000000000000000e+00  -1.8991323074982822e-19 1.9782628203107104e-20 0.0000000000000000e+00  0.0000000000000000e+00 -5.4523466924785073e-22 0.0000000000000000e+00  7.4834223894450557e-20 -4.2094250940628438e-20 0.0000000000000000e+00  6.9949415206125900e-20 -4.1220191103609907e-20 0.0000000000000000e+00  -8.7058020271031510e-20 -1.6323378800818408e-20 0.0000000000000000e+00  2.8625559242045218e-21 -3.5704636639926742e-20 0.0000000000000000e+00  -1.0197422809605124e-19 3.1866946280016012e-20 0.0000000000000000e+00  1.4331430336190811e-19 2.8837634213066874e-20 0.0000000000000000e+00  -4.9727608693833418e-20 8.2879347823055701e-21 0.0000000000000000e+00  -2.2002039018811756e-20 3.3582059555028469e-20 0.0000000000000000e+00  2.0228477260325664e-20 -5.0571193150814158e-20 0.0000000000000000e+00  -2.5716715723296726e-20 -2.2433512329278813e-20 0.0000000000000000e+00  -3.6088747727599357e-21 -1.4435499091039743e-20 0.0000000000000000e+00  3.9573504561337732e-21 1.3254864639603776e-04 0.0000000000000000e+00  3.5934046256302723e-20 3.1303437535720030e-04 0.0000000000000000e+00  2.0519203996014071e-20 5.4277392737730806e-04 0.0000000000000000e+00  -1.0092781722203725e-19 8.2141398163287709e-04 0.0000000000000000e+00  -3.6053545780954317e-20 1.1476585781078051e-03 0.0000000000000000e+00  0.0000000000000000e+00 1.5151050899572293e-03 0.0000000000000000e+00  -3.1561268143540883e-20 1.9243293065348613e-03 0.0000000000000000e+00  4.2762202001750200e-20 2.3741691051967061e-03 0.0000000000000000e+00  -1.2724835781012317e-19 2.8595282781042112e-03 0.0000000000000000e+00  -1.0388032173154020e-19 3.3758982970761068e-03 0.0000000000000000e+00  3.9098825400660244e-20 3.9267519739224392e-03 0.0000000000000000e+00  -1.0306432537629552e-19 4.5075738728731427e-03 0.0000000000000000e+00  -2.4062664582732983e-19 5.1182515048658322e-03 0.0000000000000000e+00  -1.4120783994640692e-19 5.7568103273640450e-03 0.0000000000000000e+00  -1.1416532054695073e-19 6.4209535144044254e-03 0.0000000000000000e+00  -1.1354254111360279e-19 7.1133303264002933e-03 0.0000000000000000e+00  1.0646417190440856e-19 7.8305538379522498e-03 0.0000000000000000e+00  -8.9611503615411046e-20 8.5760178782476899e-03 0.0000000000000000e+00  6.0764433227563629e-21 9.3474134681164681e-03 0.0000000000000000e+00  0.0000000000000000e+00 1.0144904823781175e-02 0.0000000000000000e+00  -1.0028424320833393e-19 1.0969833365511978e-02 0.0000000000000000e+00  1.2953765130851282e-19 1.1822033962541527e-02 0.0000000000000000e+00  2.1479503272212374e-19 1.2702398394144982e-02 0.0000000000000000e+00  -2.3025510094442417e-19 1.3608647840812635e-02 0.0000000000000000e+00  -7.4811329151728719e-20 1.4544544093266788e-02 0.0000000000000000e+00  0.0000000000000000e+00 1.5509456098996632e-02 0.0000000000000000e+00  -1.6589335358658672e-19 1.6510471462531137e-02 0.0000000000000000e+00  2.0035392045841889e-19 1.7541601085631651e-02 0.0000000000000000e+00  3.2652165562570455e-20 1.8608903540707804e-02 0.0000000000000000e+00  -1.8601227107209463e-19 1.9713789225254765e-02 0.0000000000000000e+00  -2.2669986892170523e-19 2.0852952892005755e-02 0.0000000000000000e+00  -5.4758491052013709e-20 2.2041713374004526e-02 0.0000000000000000e+00  -1.5348151849059173e-19 2.3275183689360244e-02 0.0000000000000000e+00  -5.2112118371278146e-20 2.4543991869683823e-02 0.0000000000000000e+00  -6.4181595351124911e-21 2.5869840415859175e-02 0.0000000000000000e+00  -2.9394498959518931e-20 2.7245553194153099e-02 0.0000000000000000e+00  1.5181839754093591e-19 2.8676983998087494e-02 0.0000000000000000e+00  -8.0097100128229931e-20 3.0179141305206412e-02 0.0000000000000000e+00  -7.5098338412170774e-20 3.1746162860279342e-02 0.0000000000000000e+00  4.3097448730967227e-19 3.3388682406944717e-02 0.0000000000000000e+00  -3.4813775841278672e-19 3.5102948163289821e-02 0.0000000000000000e+00  -4.4640333723770983e-19 3.6898377403623811e-02 0.0000000000000000e+00  -2.3148464145022140e-19 3.8782788096811065e-02 0.0000000000000000e+00  0.0000000000000000e+00 4.0765043240895360e-02 0.0000000000000000e+00  -1.1072968685969667e-18 4.2850644130920476e-02 0.0000000000000000e+00  -1.0115301877182148e-18 4.5052773120235860e-02 0.0000000000000000e+00  -6.4454745182678605e-20 4.7380599041604035e-02 0.0000000000000000e+00  -4.8040956127905172e-19 4.9867604190482140e-02 0.0000000000000000e+00  -2.0414532065252729e-19 5.2516451335502763e-02 0.0000000000000000e+00  3.8815597110130051e-19 5.5313156487979014e-02 0.0000000000000000e+00  -6.0766083531576565e-21 5.8287159542072822e-02 0.0000000000000000e+00  -9.4634922867614155e-19 6.1474786453161977e-02 0.0000000000000000e+00  -3.8240373426538605e-19 6.4919574116965348e-02 0.0000000000000000e+00  -1.8778762212641374e-19 6.8568277013910398e-02 0.0000000000000000e+00  7.3477945842201500e-19 7.2478792879418399e-02 0.0000000000000000e+00  -1.6911293967411948e-18 7.6582284483251301e-02 0.0000000000000000e+00  -3.2116424515324977e-19 8.0911972878921185e-02 0.0000000000000000e+00  -1.0956218347029242e-19 8.5509868805854497e-02 0.0000000000000000e+00  -4.5672399976904968e-19 8.9849519026378902e-02 0.0000000000000000e+00  9.9103005721276376e-20 9.4532778333657905e-02 0.0000000000000000e+00  8.6838586874938791e-19 1.0321569951755960e-01 0.0000000000000000e+00  -1.3464881591124243e-17 1.2465711016953789e-01 0.0000000000000000e+00  1.3043478260869540e-01 1.4565380020380819e-01 0.0000000000000000e+00  2.7536231884058010e-01 1.5363239239108639e-01 0.0000000000000000e+00  3.0000000000000010e-01 1.5409993189307028e-01 0.0000000000000000e+00  3.0000000000000004e-01 1.5597497230435955e-01 0.0000000000000000e+00  3.0000000000000010e-01 1.5857476170230705e-01 0.0000000000000000e+00  3.0000000000000010e-01 1.6139566655644508e-01 0.0000000000000000e+00  -1.1099708021728620e-03 2.5190064885154642e-02 0.0000000000000000e+00  -7.9874799725222312e-04 1.8033088479230287e-02 0.0000000000000000e+00  -7.5633069801556163e-04 1.2362797397223634e-02 0.0000000000000000e+00  -1.3069842859989389e-03 3.3726334492125462e-02 0.0000000000000000e+00  -1.6843265259707605e-03 4.5979227201920651e-02 0.0000000000000000e+00  5.0135690937215371e-02 -8.4855822455072692e-03 0.0000000000000000e+00  -1.6937891854552217e-03 -5.5866090407594825e-05 0.0000000000000000e+00  -2.3463852718568542e-03 5.9284833000444466e-02 0.0000000000000000e+00  -6.3053335087040181e-04 8.1665108698234356e-03 0.0000000000000000e+00  8.0828167098632719e-02 -8.5424350807020294e-03 0.0000000000000000e+00  -1.6294501452450464e-03 7.3517031001750071e-05 0.0000000000000000e+00  -4.3914301252776693e-04 4.8089783225557714e-03 0.0000000000000000e+00  -3.3196151428494507e-03 7.6982108448119327e-02 0.0000000000000000e+00  -1.1484061486311597e-03 -1.7633991407686636e-04 0.0000000000000000e+00  3.4899648156008461e-02 -5.9644503055168059e-03 0.0000000000000000e+00  1.1995120068270652e-01 -9.1048155079213801e-04 0.0000000000000000e+00  -1.0483264367049413e-03 1.1377947646961807e-04 0.0000000000000000e+00  1.3205028751272352e-05 -2.1956513189532131e-04 0.0000000000000000e+00  2.4075792924041571e-02 -1.9168736387836015e-03 0.0000000000000000e+00  -3.5327689847289425e-04 2.6689355129985359e-03 0.0000000000000000e+00  2.2783376836934743e-03 8.9357881636257200e-02 0.0000000000000000e+00  1.1538674646479157e-03 -1.5031648213727986e-04 0.0000000000000000e+00  1.7164810818561482e-02 1.9174308971308316e-03 0.0000000000000000e+00  1.8496905969800015e-01 2.7123127887292039e-02 0.0000000000000000e+00  -6.1197141197084004e-04 1.3221563164698348e-04 0.0000000000000000e+00  1.6177424779469454e-03 -6.7921155258779089e-05 0.0000000000000000e+00  1.3442889522599564e-02 4.0213634434873805e-03 0.0000000000000000e+00  -1.6433311758910897e-03 3.9537846801972532e-02 0.0000000000000000e+00  -7.4098227488578325e-04 1.4969521945188793e-02 0.0000000000000000e+00  -1.2925271944314619e-03 2.9445148783707704e-02 0.0000000000000000e+00  -9.5242485384083885e-04 2.1379446974860793e-02 0.0000000000000000e+00  1.7268112074429749e-03 5.5055998301996633e-07 0.0000000000000000e+00  1.0482495567793640e-02 4.8447955869749537e-03 0.0000000000000000e+00  1.8772149833128374e-01 8.5412959258167914e-02 0.0000000000000000e+00  -2.4131222518198906e-04 1.3145615457294114e-03 0.0000000000000000e+00  1.4494729952107526e-03 4.4510190781249894e-05 0.0000000000000000e+00  4.2682180141527092e-04 1.1673719267273320e-03 0.0000000000000000e+00  7.7791565171622208e-03 4.7035504984250555e-03 0.0000000000000000e+00  9.8399329278575729e-04 5.7838865246111410e-05 0.0000000000000000e+00  2.4001985733530612e-01 7.5288444906266253e-02 0.0000000000000000e+00  -3.1100675876611977e-04 1.2121279234644227e-04 0.0000000000000000e+00  4.7088368983056747e-03 3.9566131156001912e-03 0.0000000000000000e+00  6.2566483071551542e-04 -1.8110208502187698e-04 0.0000000000000000e+00  2.0253537574362952e-02 1.2117942746023033e-04 0.0000000000000000e+00  -6.4661990107609966e-04 -2.0710356724701765e-04 0.0000000000000000e+00  2.8745298929793526e-02 -3.9839990756092535e-03 0.0000000000000000e+00  -1.4526667951328368e-03 -1.0890642505627187e-04 0.0000000000000000e+00  4.1981345474468135e-02 -7.5939894509238623e-03 0.0000000000000000e+00  -1.9864173944602751e-03 3.1452772649039506e-05 0.0000000000000000e+00  6.7192942627708918e-02 -9.0655436349174872e-03 0.0000000000000000e+00  -1.2904556110686625e-03 1.0125190403475824e-04 0.0000000000000000e+00  9.8347576825806055e-02 -6.0196658146154354e-03 0.0000000000000000e+00  -8.5999456950547370e-04 1.3306584345247418e-04 0.0000000000000000e+00  1.4702548874701749e-01 7.9587990321582751e-03 0.0000000000000000e+00  -2.6147647308404328e-03 8.3227625259613192e-02 0.0000000000000000e+00  -3.8282149778111200e-04 3.6684325413788459e-03 0.0000000000000000e+00  2.8269440110165034e-01 1.3866052820350466e-01 0.0000000000000000e+00  -1.6822249946106863e-04 6.7727649072674210e-04 0.0000000000000000e+00  -2.8104481498247287e-03 6.9430728519704998e-02 0.0000000000000000e+00  -5.2193137954144005e-04 6.0736735634375648e-03 0.0000000000000000e+00  -2.1393798570241433e-03 5.3493158148829621e-02 0.0000000000000000e+00  -5.8518409049039544e-04 9.7207281158348622e-03 0.0000000000000000e+00  5.8867757126640800e-04 4.8662991045211570e-05 0.0000000000000000e+00  2.8085840600951010e-03 3.6167803863650068e-03 0.0000000000000000e+00  2.7559876092157576e-01 1.2642990289137462e-01 0.0000000000000000e+00  -1.5611408901467066e-04 1.1120436459794057e-04 0.0000000000000000e+00  3.4085127075517770e-04 4.0325710768821524e-04 0.0000000000000000e+00  6.1001946809203741e-04 2.3434741866850380e-03 0.0000000000000000e+00  2.8953710834394769e-01 1.5308974671648362e-01 0.0000000000000000e+00  -8.6763893795846684e-05 2.1365136239136180e-04 0.0000000000000000e+00  7.9514764106155178e-04 5.7084379847846771e-05 0.0000000000000000e+00  1.6846729662794769e-03 3.0224526281500606e-04 0.0000000000000000e+00  2.0605839757837649e-03 3.1498534220934218e-04 0.0000000000000000e+00  2.6552492582597531e-03 6.9590995264534161e-04 0.0000000000000000e+00  3.1841130027406750e-03 7.2434719956532615e-04 0.0000000000000000e+00  2.1438356116574683e-03 6.8222138461735749e-04 0.0000000000000000e+00  3.6534300591951605e-03 1.2179773487809304e-03 0.0000000000000000e+00  4.3098164743487219e-03 1.2508392411837135e-03 0.0000000000000000e+00  4.6378897997177296e-03 1.8435628254700616e-03 0.0000000000000000e+00  5.3924374261148595e-03 1.8869295403275785e-03 0.0000000000000000e+00  4.9855256656723065e-03 1.2940609269498150e-03 0.0000000000000000e+00  6.1542883325143207e-03 1.9040979449689167e-03 0.0000000000000000e+00  5.7199342131200228e-03 1.3238874110362670e-03 0.0000000000000000e+00  6.8816453977305417e-03 1.8497388370870228e-03 0.0000000000000000e+00  6.3893723984579497e-03 1.2628644596147558e-03 0.0000000000000000e+00  7.5346179588707610e-03 1.6805654088929368e-03 0.0000000000000000e+00  6.9417300194959189e-03 1.1067002655019244e-03 0.0000000000000000e+00  8.1729663928595871e-03 1.4283505619692642e-03 0.0000000000000000e+00  7.3319533096787232e-03 7.9904415594584375e-04 0.0000000000000000e+00  8.6932053845508398e-03 1.0632160475120892e-03 0.0000000000000000e+00  7.9294107169659185e-03 5.2072343762623208e-04 0.0000000000000000e+00  9.2273080429447884e-03 6.0060640733668983e-04 0.0000000000000000e+00  8.2066130847371493e-03 8.2173017482524015e-05 0.0000000000000000e+00  9.6074481258288970e-03 -6.4694859345841212e-06 0.0000000000000000e+00  8.2475554604068586e-03 -5.0343311841149227e-04 0.0000000000000000e+00  9.8059685751837340e-03 -7.4969312551683342e-04 0.0000000000000000e+00  8.5910531004704076e-03 -1.1796549328519864e-03 0.0000000000000000e+00  9.9400394769094836e-03 -1.6238230416161887e-03 0.0000000000000000e+00  8.5316915785696064e-03 -1.9458367696732592e-03 0.0000000000000000e+00  9.8730288350658887e-03 -2.5819375611149981e-03 0.0000000000000000e+00  8.2465481142400092e-03 -2.8082943756662917e-03 0.0000000000000000e+00  9.6109099288525391e-03 -3.6282939612275380e-03 0.0000000000000000e+00  7.8302241089672747e-03 -3.7362921773186784e-03 0.0000000000000000e+00  9.1852930845550303e-03 -4.7298852834287333e-03 0.0000000000000000e+00  7.1845484311266559e-03 -4.6587795336680421e-03 0.0000000000000000e+00  8.5432882255892777e-03 -5.8118713