<?xml version="1.0"?>
<VTKFile type="UnstructuredGrid"  version="0.1"  >
<UnstructuredGrid>
<Piece  NumberOfPoints="1691" NumberOfCells="3204">
<Points>
<DataArray  type="Float64"  NumberOfComponents="3"  format="ascii">0 0 0  30 0 0  30 -10 0  0 -10 0  0.1391574078963744 0 0  0.2856388821882616 0 0  0.4398299073010886 0 0  0.6021362569539473 0 0  0.7729850389704483 0 0  0.9528258543586996 0 0  1.142131984380316 0 0  1.34140159760994 0 0  1.551159074717981 0 0  1.771956417032531 0 0  2.004374674080994 0 0  2.249025475789527 0 0  2.506552636773105 0 0  2.777633857742732 0 0  3.062982518028728 0 0  3.363349525995907 0 0  3.679525322337712 0 0  4.01234195575742 0 0  4.362675247811097 0 0  4.731447135329707 0 0  5.119628065610077 0 0  5.528239565804708 0 0  5.958356943167011 0 0  6.411112081475485 0 0  6.887696441559404 0 0  7.389364184530748 0 0  7.917435485335147 0 0  8.473300005202017 0 0  9.058420557070402 0 0  9.674336929103793 0 0  10.32266995225095 0 0  11.00512576896296 0 0  11.72350030646412 0 0  12.47968402994705 0 0  13.27566689579597 0 0  14.1135435963616 0 0  14.9955190732806 0 0  15.92391430904694 0 0  16.90117245730496 0 0  17.92986524844506 0 0  19.01269976086341 0 0  20.15252556282024 0 0  21.35234220269763 0 0  22.61530708683689 0 0  23.94474379751883 0 0  25.34415086349739 0 0  26.81721093579712 0 0  28.3678004819169 0 0  30 -1.111111111111111 0  30 -2.222222222222222 0  30 -3.333333333333333 0  30 -4.444444444444445 0  30 -5.555555555555555 0  30 -6.666666666666666 0  30 -7.777777777777777 0  30 -8.888888888888889 0  28.36780047917311 -10 0  26.8172109305839 -10 0  25.34415085606858 -10 0  23.94474378810899 -10 0  22.61530707566275 -10 0  21.3523421899591 -10 0  20.15252554870171 -10 0  19.01269974553473 -10 0  17.92986523206254 -10 0  16.90117244001232 -10 0  15.92391429097614 -10 0  14.99551905455266 -10 0  14.11354357708742 -10 0  13.27566687607703 -10 0  12.47968400987599 -10 0  11.72350028612546 -10 0  11.00512574843363 -10 0  10.32266993160086 -10 0  9.674336908396342 -10 0  9.058420536362949 -10 0  8.473299984546333 -10 0  7.917435464777824 -10 0  7.389364164113587 -10 0  6.887696420787165 -10 0  6.411112061446698 -10 0  5.95835692337857 -10 0  5.528239546282652 -10 0  5.119628046377237 -10 0  4.731447115907979 -10 0  4.362675229213632 -10 0  4.012341937260036 -10 0  3.679525304434552 -10 0  3.363349508456405 -10 0  3.062982500861274 -10 0  2.777633840953978 -10 0  2.506552620368097 -10 0  2.249025459771861 -10 0  2.004374658452946 -10 0  1.771956401795187 -10 0  1.551159059871345 -10 0  1.341401583153029 -10 0  1.142131970307521 -10 0  0.9528258406748833 -10 0  0.7729850256685147 -10 0  0.6021362439621285 -10 0  0.4398298947504031 -10 0  0.2856388700059078 -10 0  0.1391573960769001 -10 0  0 -9.855072463768115 0  0 -9.710144927536232 0  0 -9.565217391304348 0  0 -9.420289855072463 0  0 -9.27536231884058 0  0 -9.130434782608695 0  0 -8.985507246376812 0  0 -8.840579710144928 0  0 -8.695652173913043 0  0 -8.55072463768116 0  0 -8.405797101449275 0  0 -8.260869565217391 0  0 -8.115942028985508 0  0 -7.971014492753623 0  0 -7.826086956521739 0  0 -7.681159420289855 0  0 -7.536231884057971 0  0 -7.391304347826087 0  0 -7.246376811594203 0  0 -7.101449275362318 0  0 -6.956521739130435 0  0 -6.811594202898551 0  0 -6.666666666666667 0  0 -6.521739130434783 0  0 -6.376811594202898 0  0 -6.231884057971015 0  0 -6.086956521739131 0  0 -5.942028985507246 0  0 -5.797101449275362 0  0 -5.652173913043478 0  0 -5.507246376811594 0  0 -5.36231884057971 0  0 -5.217391304347826 0  0 -5.072463768115941 0  0 -4.927536231884058 0  0 -4.782608695652174 0  0 -4.637681159420289 0  0 -4.492753623188406 0  0 -4.347826086956522 0  0 -4.202898550724638 0  0 -4.057971014492754 0  0 -3.913043478260869 0  0 -3.768115942028985 0  0 -3.623188405797101 0  0 -3.478260869565217 0  0 -3.333333333333334 0  0 -3.188405797101449 0  0 -3.043478260869565 0  0 -2.898550724637681 0  0 -2.753623188405797 0  0 -2.608695652173912 0  0 -2.463768115942029 0  0 -2.318840579710145 0  0 -2.173913043478261 0  0 -2.028985507246377 0  0 -1.884057971014492 0  0 -1.739130434782609 0  0 -1.594202898550725 0  0 -1.44927536231884 0  0 -1.304347826086957 0  0 -1.159420289855072 0  0 -1.014492753623188 0  0 -0.8695652173913047 0  0 -0.72463768115942 0  0 -0.579710144927537 0  0 -0.4347826086956523 0  0 -0.2898550724637676 0  0 -0.1449275362318829 0  0.1309460514202492 -4.990980414828784 0  0.1171526873513358 -5.869565217391296 0  0.1344252986967795 -6.716855800502001 0  0.1221309018586645 -4.161899358592938 0  0.1166997684017801 -3.25954604704229 0  4.961569127360256 -0.3118894787216622 0  4.923897360678746 -9.687537149351071 0  0.1228405945134021 -2.536958536012416 0  0.1335945686177435 -7.466846676638523 0  3.206461751753455 -0.2806173508164562 0  3.213166004658842 -9.746377676274168 0  0.1155250883680452 -8.186784073011673 0  0.1359204609538445 -1.804202625344072 0  6.662432263484016 -9.600124945047963 0  6.631056521209421 -0.3942868763482545 0  2.126700074935258 -0.2065769621215452 0  2.120437876630353 -9.808537401472012 0  8.761385473272522 -9.4914222957189 0  8.786076048231736 -0.4923064159810888 0  0.1195911345135556 -8.749677128895598 0  0.1117474302775605 -1.230589418769438 0  11.3907841305612 -9.402816705944797 0  11.36435727088349 -0.618365439918426 0  1.211504568109637 -0.1471532661956818 0  1.239596144827807 -9.832618358594059 0  13.75158625181508 -9.315497816134139 0  13.7500399625954 -0.6902569910160397 0  0.131402377539402 -3.696772604078816 0  0.1204853385030979 -6.307560917781178 0  0.1346483804691658 -4.550944754283819 0  0.1255109280847009 -5.434782608695652 0  16.39894095075685 -9.180198571581517 0  16.44068234362399 -0.8166544577416346 0  0.1255109280847009 -0.7971014492753632 0  0.1162877148651766 -9.206770243020259 0  19.56645066956165 -9.043742294716539 0  29.11731382843969 -5.098539983867493 0  19.50527862123305 -0.9323941524176265 0  23.28904960561395 -8.8608997858633 0  0.6875606479622149 -0.1442604037134076 0  0.6875606348153145 -9.855739596611892 0  23.37074358394081 -1.15131614182933 0  10.00852704311311 -9.475417469395781 0  10.01049631493635 -0.5545437343697674 0  7.639131123468924 -9.543000896765111 0  7.693537846067955 -0.4574302764599576 0  5.733194300659633 -9.66079268774309 0  5.731454990332523 -0.3687808037058806 0  3.803630689980224 -9.686555789708486 0  3.834043646352164 -0.2754981925697493 0  2.618022704128803 -9.787800068206256 0  2.634320277618269 -0.2392104743186785 0  1.65952286941916 -9.813294854785646 0  1.665360553377539 -0.1820878093930922 0  0.1365068028365961 -1.543352471920677 0  0.1128108295274224 -8.471115901500411 0  0.1249192863256123 -0.5070564851587012 0  0.1172626025927563 -9.49200175151447 0  0.1255109280847009 -2.101449275362318 0  0.1255109280847009 -7.898550724637682 0  0.1247535864599936 -2.824177050114505 0  0.1155424837078822 -7.17494363557847 0  26.05192393553612 -8.777856070543081 0  26.00031291598836 -1.159065252957426 0  0.3627343947446455 -0.1301950113519217 0  0.3690141220077834 -9.868919517536135 0  28.90574865438674 -7.135369011630129 0  29.02069681040884 -2.861993939893059 0  0.1397555488250113 -0.2163338956475025 0  0.1255109280847009 -9.782608695652172 0  24.67098979274125 -8.799958058548517 0  23.93395881668722 -7.700959994796646 0  22.61396570077244 -7.764517377391733 0  23.2032949615693 -6.630776985250927 0  21.94857473380583 -6.690613342424633 0  24.50398505507967 -6.535933305198952 0  22.51489076809043 -5.580432145971667 0  21.29537841406989 -5.639199768252479 0  21.84985259542567 -4.547213342284197 0  20.65342988351128 -4.619546679988924 0  20.11277906893955 -5.663225279336593 0  19.49454290958806 -4.673886314669294 0  18.97860072994828 -5.624185949902217 0  18.40383886642446 -4.729683279047542 0  17.90575400337286 -5.630456854950327 0  17.35903168001753 -4.836859475002379 0  16.91444903556046 -5.680257663405808 0  16.36114434035519 -4.898890029095359 0  15.89440836794127 -5.835214594829282 0  15.41608945577568 -4.979845093198404 0  14.9809818125648 -5.732909169427192 0  14.51777858619734 -4.988431190461874 0  14.14039496103406 -5.776391085527889 0  13.67321261031888 -5.031745046943032 0  13.26988611760758 -5.891550007816156 0  12.85732927991246 -5.095735823822261 0  12.46423889659403 -5.760519953635332 0  12.07741841933393 -5.116608846746942 0  11.73131647445202 -5.75987862647932 0  11.35222911621012 -5.158061768105265 0  11.01225658271747 -5.784828178519854 0  10.65393216495117 -5.205808407572067 0  10.33042159780337 -5.788944717060055 0  9.98551374198097 -5.24118342090078 0  9.687616112021921 -5.812725728827915 0  9.357518717034999 -5.284717467130579 0  9.08157001076583 -5.820057568121996 0  8.766199932316585 -5.320212662582848 0  8.494748056481422 -5.830095453943056 0  8.194406727465122 -5.347802431655208 0  7.942610344706003 -5.833678024304247 0  7.660825631728443 -5.380025954369014 0  7.416702921751611 -5.83684433397813 0  7.147290851157173 -5.413787279190068 0  6.91632006965034 -5.851605397483334 0  6.658527053286988 -5.437627383845131 0  6.441897327469297 -5.862220684948111 0  6.194860224019926 -5.464520225953867 0  5.988748643021736 -5.866336295550595 0  5.755042825355586 -5.482399938780632 0  5.555770501455733 -5.867908174086599 0  5.334991086231989 -5.504761241472904 0  5.145076642106908 -5.873191062890511 0  4.935013388047023 -5.544035964184449 0  4.754345788811499 -5.880090917794126 0  4.554437025256316 -5.569020251233177 0  4.382470744799432 -5.88665007327689 0  4.192208958329529 -5.585677590398814 0  4.029485566904095 -5.896175760774888 0  4.354949258143058 -5.270074521138358 0  4.004482386201769 -5.289207815434526 0  4.158655721068861 -4.98145486433833 0  3.821444856080801 -5.001169872115685 0  3.97033944278737 -4.700814034221719 0  3.642688047138773 -4.720140385706738 0  3.788830742180677 -4.426816067812119 0  3.467446796449556 -4.450112744784491 0  3.325275354457695 -4.730293981808933 0  3.158439978631689 -4.466074367009679 0  3.294707394527546 -4
[...]
<PointData  Vectors="displacement"> 
<DataArray  type="Float64"  Name="displacement"  NumberOfComponents="3" format="ascii">3.0000000000000004e-01 1.6313836581343397e-01 0.0000000000000000e+00  2.7906113599590383e-19 4.0150402850309356e-03 0.0000000000000000e+00  -3.4381503394061745e-20 -2.3518590673596063e-21 0.0000000000000000e+00  1.1585316266843159e-20 1.7377974400264737e-20 0.0000000000000000e+00  2.9881420643481499e-01 1.5644060373924976e-01 0.0000000000000000e+00  2.9454037241048148e-01 1.4105914018900154e-01 0.0000000000000000e+00  2.8380383255930131e-01 1.1916514250767822e-01 0.0000000000000000e+00  2.6763641513729125e-01 9.4898979641492548e-02 0.0000000000000000e+00  2.4711739033475513e-01 7.1785579036677052e-02 0.0000000000000000e+00  2.2521123572782409e-01 5.2565246858997446e-02 0.0000000000000000e+00  2.0304364543773060e-01 3.7684960577861012e-02 0.0000000000000000e+00  1.8231836285616548e-01 2.6232877251813103e-02 0.0000000000000000e+00  1.6352856347689756e-01 1.7089705582921118e-02 0.0000000000000000e+00  1.4656903608984506e-01 1.0628326070552696e-02 0.0000000000000000e+00  1.3150023343100450e-01 5.7960120039847601e-03 0.0000000000000000e+00  1.1828570377273503e-01 2.1006942150401083e-03 0.0000000000000000e+00  1.0653534686422046e-01 -6.9582395383856015e-04 0.0000000000000000e+00  9.6123446577643712e-02 -2.6353078084437776e-03 0.0000000000000000e+00  8.6900671375424218e-02 -4.2491782644813857e-03 0.0000000000000000e+00  7.8646378704426242e-02 -5.2871185227075660e-03 0.0000000000000000e+00  7.1201424244447822e-02 -6.0283157484651269e-03 0.0000000000000000e+00  6.4521271936616290e-02 -6.5370053019565251e-03 0.0000000000000000e+00  5.8639171461576017e-02 -6.5692327306609939e-03 0.0000000000000000e+00  5.3139582829378841e-02 -6.5111922229474511e-03 0.0000000000000000e+00  4.8181231206450029e-02 -6.2466307072935583e-03 0.0000000000000000e+00  4.3733976686481657e-02 -5.8052273960975051e-03 0.0000000000000000e+00  3.9677273588281790e-02 -5.3060381449071149e-03 0.0000000000000000e+00  3.6015570192511601e-02 -4.6661602498867406e-03 0.0000000000000000e+00  3.2711329997035278e-02 -3.8885039179135028e-03 0.0000000000000000e+00  2.9676037734253435e-02 -3.0968767836440582e-03 0.0000000000000000e+00  2.6990474294776790e-02 -2.1779590526128960e-03 0.0000000000000000e+00  2.4580775538542422e-02 -1.2613966888625993e-03 0.0000000000000000e+00  2.2411807291221660e-02 -3.2172377551576282e-04 0.0000000000000000e+00  2.0484558816760874e-02 6.0725041416033628e-04 0.0000000000000000e+00  1.8786170675839403e-02 1.4973741284527887e-03 0.0000000000000000e+00  1.7271611109208905e-02 2.3206003236378612e-03 0.0000000000000000e+00  1.5927915174308010e-02 3.0656335349673047e-03 0.0000000000000000e+00  1.4735313967419377e-02 3.7477867850092472e-03 0.0000000000000000e+00  1.3620022891303504e-02 4.3013068476231786e-03 0.0000000000000000e+00  1.2638160565126190e-02 4.7570290531540804e-03 0.0000000000000000e+00  1.1718136758167887e-02 5.0861088546731905e-03 0.0000000000000000e+00  1.0845923345966823e-02 5.2804641080147399e-03 0.0000000000000000e+00  9.9828556277653975e-03 5.3791582929386961e-03 0.0000000000000000e+00  9.1129554880446609e-03 5.3612262429652930e-03 0.0000000000000000e+00  8.2349971517562716e-03 5.2695683121294452e-03 0.0000000000000000e+00  7.3426192419767042e-03 5.0955359195998303e-03 0.0000000000000000e+00  6.4312596557385034e-03 4.9254248248681637e-03 0.0000000000000000e+00  5.4509540109209369e-03 4.6930550445831538e-03 0.0000000000000000e+00  4.4412472510997622e-03 4.4733924521708898e-03 0.0000000000000000e+00  3.4001311385095552e-03 4.2821923297211495e-03 0.0000000000000000e+00  2.3110164027112527e-03 4.1374249230174444e-03 0.0000000000000000e+00  1.1403514499806386e-03 4.0391996532966132e-03 0.0000000000000000e+00  2.6197234529215135e-20 3.4056691356980392e-03 0.0000000000000000e+00  1.1555876833533761e-19 2.6831168306408822e-03 0.0000000000000000e+00  1.3776867076564854e-19 2.0467476675116703e-03 0.0000000000000000e+00  -3.8250237777239338e-20 1.4606938466850620e-03 0.0000000000000000e+00  -1.5731314317996891e-19 9.6485682009167929e-04 0.0000000000000000e+00  5.3321444326724021e-20 5.4816231541200168e-04 0.0000000000000000e+00  5.8520847653678984e-20 2.4006012793793640e-04 0.0000000000000000e+00  -1.4944858520518220e-20 5.0056700535753020e-05 0.0000000000000000e+00  1.3495079667948708e-19 1.4336297399381764e-20 0.0000000000000000e+00  1.5965732446221591e-20 -1.9957165557776989e-21 0.0000000000000000e+00  4.9252266648791707e-20 -6.4123129413652613e-21 0.0000000000000000e+00  2.0295656731186925e-19 0.0000000000000000e+00 0.0000000000000000e+00  -2.3540121249826293e-19 -3.5310181874739441e-21 0.0000000000000000e+00  1.6812245453677169e-19 1.0507653408548230e-20 0.0000000000000000e+00  2.8559680002663071e-19 -2.0217630614130110e-20 0.0000000000000000e+00  3.1237863726246886e-19 -1.3015776552602870e-20 0.0000000000000000e+00  -1.2940116923725869e-19 5.6444520435522997e-21 0.0000000000000000e+00  -6.4070567731751857e-20 3.0033078624258685e-21 0.0000000000000000e+00  1.7075336526858932e-19 2.0096784061644034e-21 0.0000000000000000e+00  3.1688691803525337e-19 2.4756790471504170e-21 0.0000000000000000e+00  3.0386266196259654e-19 1.3364330040021608e-20 0.0000000000000000e+00  5.9506564212259220e-19 -3.0993002193885012e-21 0.0000000000000000e+00  -8.4360408314149008e-20 8.3501535378823956e-22 0.0000000000000000e+00  -1.0751107754130691e-19 4.0316654077990094e-20 0.0000000000000000e+00  -9.9636183639818373e-20 2.6825126364566485e-20 0.0000000000000000e+00  -1.3529260461170894e-19 -2.5367363364695425e-20 0.0000000000000000e+00  -8.6361834972360546e-20 -9.9419969230823857e-21 0.0000000000000000e+00  4.4060812978404621e-20 -1.1015203244601155e-20 0.0000000000000000e+00  -2.9721392119258637e-20 1.0402487241740522e-20 0.0000000000000000e+00  -6.6249948346342281e-20 7.9499938015610745e-20 0.0000000000000000e+00  1.9320439448271160e-19 -6.8461904216305054e-20 0.0000000000000000e+00  6.7728265246944289e-20 3.3864132623472145e-20 0.0000000000000000e+00  -4.0341109121577224e-19 1.6443386870208108e-20 0.0000000000000000e+00  -4.0054278088561215e-19 -8.0108556177122432e-20 0.0000000000000000e+00  -2.1091058646230562e-19 1.5441883892721128e-20 0.0000000000000000e+00  2.1875210177461281e-19 -1.0254004770684976e-20 0.0000000000000000e+00  2.6739228284044256e-19 -1.0793178083403280e-20 0.0000000000000000e+00  -1.2721236571155100e-19 7.9507728569719374e-21 0.0000000000000000e+00  6.8833773190143484e-19 6.6446653007118357e-22 0.0000000000000000e+00  8.5138487210893191e-20 1.3302888626702061e-21 0.0000000000000000e+00  -3.4454526086105980e-19 -5.8479643414480613e-21 0.0000000000000000e+00  -9.2260479009231837e-20 -2.3065119752307959e-20 0.0000000000000000e+00  1.1646856364123849e-19 1.1841498605337035e-20 0.0000000000000000e+00  -3.1652205124971367e-19 2.3739153843728527e-20 0.0000000000000000e+00  -2.1552618203058169e-19 1.0231976236974285e-20 0.0000000000000000e+00  -1.4966844778890111e-19 -4.2094250940628438e-20 0.0000000000000000e+00  3.6473623643194217e-19 -1.1241870300984520e-20 0.0000000000000000e+00  -4.3529010135515755e-20 -5.4411262669394693e-21 0.0000000000000000e+00  -9.5158253423277376e-20 -3.0688663029164526e-20 0.0000000000000000e+00  -4.0789691238420496e-19 1.2746778512006405e-20 0.0000000000000000e+00  -6.9909416274101517e-21 -4.1945649764460907e-20 0.0000000000000000e+00  -1.6575869564611140e-20 0.0000000000000000e+00 0.0000000000000000e+00  -1.0769419098681544e-19 -8.6850154021625354e-21 0.0000000000000000e+00  5.0571193150814158e-20 -3.0342715890488497e-20 0.0000000000000000e+00  1.2970212974512945e-20 3.2991903757749071e-20 0.0000000000000000e+00  -3.6088747727599357e-21 -7.2177495455198713e-21 0.0000000000000000e+00  -2.6382336374225157e-21 1.3661656615787955e-04 0.0000000000000000e+00  4.3556419704609362e-21 3.1991207413473806e-04 0.0000000000000000e+00  -3.7590290511908955e-21 5.5089994571968592e-04 0.0000000000000000e+00  -6.3079885763773283e-20 8.2940742614260048e-04 0.0000000000000000e+00  -3.4665232094221823e-20 1.1545275476467910e-03 0.0000000000000000e+00  0.0000000000000000e+00 1.5202252912520622e-03 0.0000000000000000e+00  -1.8410739750398849e-20 1.9272677340557906e-03 0.0000000000000000e+00  -6.4143303002625303e-20 2.3746370382251763e-03 0.0000000000000000e+00  -7.2925380797869975e-20 2.8573368764334777e-03 0.0000000000000000e+00  -2.5970080432885050e-20 3.3709042679513656e-03 0.0000000000000000e+00  1.1729647620198074e-19 3.9187903750424998e-03 0.0000000000000000e+00  -1.2883040672036941e-19 4.4964893597092721e-03 0.0000000000000000e+00  -1.3085691657230223e-19 5.1039060003083038e-03 0.0000000000000000e+00  -4.7069279982135639e-20 5.7391051433965746e-03 0.0000000000000000e+00  -6.8499192328170434e-20 6.3998153759432241e-03 0.0000000000000000e+00  9.0834032890882228e-20 7.0886670305326718e-03 0.0000000000000000e+00  -1.0930321648852613e-19 7.8022573948069423e-03 0.0000000000000000e+00  -2.9123738675008592e-19 8.5439538719885733e-03 0.0000000000000000e+00  -1.4583463974615270e-19 9.3114598168480105e-03 0.0000000000000000e+00  -2.5957076203481943e-20 1.0104946344682899e-02 0.0000000000000000e+00  -1.6296189521354262e-19 1.0925756800005583e-02 0.0000000000000000e+00  -2.5907530261702563e-19 1.1773745644758216e-02 0.0000000000000000e+00  1.8586400627971913e-19 1.2649823497076582e-02 0.0000000000000000e+00  -8.6345662854159070e-20 1.3551723149701111e-02 0.0000000000000000e+00  -5.4549927506468854e-20 1.4483173337365086e-02 0.0000000000000000e+00  -9.8143014724561872e-20 1.5443529678072903e-02 0.0000000000000000e+00  -1.4221830816803884e-20 1.6439848174958655e-02 0.0000000000000000e+00  -5.0088480114604722e-20 1.7466157443310232e-02 0.0000000000000000e+00  -2.2222130962869379e-19 1.8528497842040938e-02 0.0000000000000000e+00  -1.3950920330407096e-19 1.9628290695114636e-02 0.0000000000000000e+00  -5.4488335047927829e-20 2.0762256423875941e-02 0.0000000000000000e+00  1.6427547315604113e-19 2.1945624895723909e-02 0.0000000000000000e+00  -1.7443490528569503e-19 2.3173467601815458e-02 0.0000000000000000e+00  0.0000000000000000e+00 2.4436390740541922e-02 0.0000000000000000e+00  -4.2038944954986819e-19 2.5756084854319510e-02 0.0000000000000000e+00  1.6037094583551889e-19 2.7125423696364170e-02 0.0000000000000000e+00  -3.6470246266017005e-20 2.8550205931790865e-02 0.0000000000000000e+00  3.1112408713599022e-19 3.0045321912578162e-02 0.0000000000000000e+00  6.0078670729736620e-20 3.1604870594373953e-02 0.0000000000000000e+00  -1.3465698528632306e-19 3.3239341188338802e-02 0.0000000000000000e+00  -2.1433392243918896e-19 3.4944916249740082e-02 0.0000000000000000e+00  -4.4640333723770984e-20 3.6730763127478798e-02 0.0000000000000000e+00  1.4393255986181309e-19 3.8604557778804539e-02 0.0000000000000000e+00  -4.8574546485642894e-19 4.0574980912271956e-02 0.0000000000000000e+00  -1.5818526694242381e-19 4.2647311976381511e-02 0.0000000000000000e+00  -3.0345905631546447e-19 4.4834292447195376e-02 0.0000000000000000e+00  1.2890949036535722e-20 4.7144400254884603e-02 0.0000000000000000e+00  8.4123807730633347e-20 4.9609844725365004e-02 0.0000000000000000e+00  -1.0975635874196763e-18 5.2232257222707891e-02 0.0000000000000000e+00  7.7631194220260103e-19 5.4996619043612117e-02 0.0000000000000000e+00  1.8703582988332797e-19 5.7930527474620741e-02 0.0000000000000000e+00  -3.7853969147045661e-19 6.1066524983279212e-02 0.0000000000000000e+00  3.5508996806205453e-19 6.4441623195665820e-02 0.0000000000000000e+00  5.6336286637924121e-19 6.7996817254723577e-02 0.0000000000000000e+00  -1.8858198894481098e-19 7.1775173896881053e-02 0.0000000000000000e+00  -1.0146776380447168e-18 7.5688962200144372e-02 0.0000000000000000e+00  -5.6203742901818709e-19 7.9723791079279738e-02 0.0000000000000000e+00  -1.0956218347029242e-19 8.4047666886878980e-02 0.0000000000000000e+00  -2.7185952367205336e-19 8.8697675175253454e-02 0.0000000000000000e+00  -1.7838541029829746e-18 9.5152861693763177e-02 0.0000000000000000e+00  1.0845114274579022e-17 1.0707225148648689e-01 0.0000000000000000e+00  -1.0098661193343182e-17 1.3100982954179977e-01 0.0000000000000000e+00  1.3043478260869529e-01 1.5118526945433161e-01 0.0000000000000000e+00  2.7536231884058021e-01 1.5534257295170587e-01 0.0000000000000000e+00  3.0000000000000004e-01 1.5210449677852025e-01 0.0000000000000000e+00  3.0000000000000010e-01 1.5273727505902243e-01 0.0000000000000000e+00  3.0000000000000004e-01 1.5615453888808400e-01 0.0000000000000000e+00  3.0000000000000010e-01 1.6017013691189350e-01 0.0000000000000000e+00  -1.1048452113665294e-03 2.5079347925433895e-02 0.0000000000000000e+00  -7.9503936306751289e-04 1.7955283650220980e-02 0.0000000000000000e+00  -7.5266968472655104e-04 1.2311813332182814e-02 0.0000000000000000e+00  -1.3000802105686837e-03 3.3575166235796303e-02 0.0000000000000000e+00  -1.6705784656819223e-03 4.5753361438931994e-02 0.0000000000000000e+00  4.9712397512696994e-02 -8.5587869722426168e-03 0.0000000000000000e+00  -1.6827485257921943e-03 -5.9704097911258301e-05 0.0000000000000000e+00  -2.3047884311714539e-03 5.8909960516743055e-02 0.0000000000000000e+00  -6.2739346137074355e-04 8.1364703096908006e-03 0.0000000000000000e+00  8.0305152453116771e-02 -8.7918452967409369e-03 0.0000000000000000e+00  -1.6194245165433857e-03 7.3881808840044210e-05 0.0000000000000000e+00  -4.3688615488709224e-04 4.7962517402979719e-03 0.0000000000000000e+00  -3.0421209972520736e-03 7.5999838447116858e-02 0.0000000000000000e+00  -1.1395133452112179e-03 -1.8307105390181276e-04 0.0000000000000000e+00  3.4569400871425078e-02 -5.9729485587329155e-03 0.0000000000000000e+00  1.1947929742661065e-01 -1.5315183962632047e-03 0.0000000000000000e+00  -1.0419905839666706e-03 1.1645761072173742e-04 0.0000000000000000e+00  1.5854689657064154e-05 -2.2491198297851673e-04 0.0000000000000000e+00  2.3834581629603842e-02 -1.9138186677912139e-03 0.0000000000000000e+00  -3.5141955292125078e-04 2.6677591928951625e-03 0.0000000000000000e+00  3.0251189144851025e-03 9.1434231124610438e-02 0.0000000000000000e+00  1.1484141500041046e-03 -1.5206363350367551e-04 0.0000000000000000e+00  1.6990973807331472e-02 1.9065792848365728e-03 0.0000000000000000e+00  1.8491801166014288e-01 2.6310530854237426e-02 0.0000000000000000e+00  -6.0827305085588037e-04 1.3604480014290239e-04 0.0000000000000000e+00  1.6081151186529211e-03 -6.7188672677377431e-05 0.0000000000000000e+00  1.3310512925875038e-02 3.9946686989548166e-03 0.0000000000000000e+00  -1.6329489480486812e-03 3.9354812825782674e-02 0.0000000000000000e+00  -7.3743632301545732e-04 1.4906084438040302e-02 0.0000000000000000e+00  -1.2862489472633212e-03 2.9314617352018964e-02 0.0000000000000000e+00  -9.4809405250240988e-04 2.1286268717537461e-02 0.0000000000000000e+00  1.7146677343479692e-03 2.4817922796285198e-06 0.0000000000000000e+00  1.0384013436678203e-02 4.8092920962257884e-03 0.0000000000000000e+00  1.8649918323370743e-01 8.9104024813657437e-02 0.0000000000000000e+00  -2.3997763361524656e-04 1.3206463054459831e-03 0.0000000000000000e+00  1.4381367390597242e-03 4.6348364413666930e-05 0.0000000000000000e+00  4.2344922133417934e-04 1.1560936294898385e-03 0.0000000000000000e+00  7.7069854037619548e-03 4.6661401032451885e-03 0.0000000000000000e+00  9.7536212448904160e-04 5.9485846172605329e-05 0.0000000000000000e+00  2.3990969439822038e-01 7.4595743515908780e-02 0.0000000000000000e+00  -3.0913880979902697e-04 1.2507153933619448e-04 0.0000000000000000e+00  4.6662169138113529e-03 3.9235866536972020e-03 0.0000000000000000e+00  6.2449633811722041e-04 -1.8495347457356270e-04 0.0000000000000000e+00  2.0049095825508869e-02 1.1925703520732543e-04 0.0000000000000000e+00  -6.3978582080665293e-04 -2.1385130628644178e-04 0.0000000000000000e+00  2.8464234579032084e-02 -3.9790493886845786e-03 0.0000000000000000e+00  -1.4421984278095322e-03 -1.1405257599304811e-04 0.0000000000000000e+00  4.1607751855522249e-02 -7.6150996378228737e-03 0.0000000000000000e+00  -1.9738730672631925e-03 2.9995459735685342e-05 0.0000000000000000e+00  6.6690790737460301e-02 -9.2365948871914651e-03 0.0000000000000000e+00  -1.2825733821345796e-03 1.0300218624065156e-04 0.0000000000000000e+00  9.7827126459065758e-02 -6.4366933660905739e-03 0.0000000000000000e+00  -8.5481096078406115e-04 1.3659664785879155e-04 0.0000000000000000e+00  1.4671386076298193e-01 7.1459084640161903e-03 0.0000000000000000e+00  -1.9683534671347800e-03 8.1882086742391419e-02 0.0000000000000000e+00  -3.8082949455835841e-04 3.6618362204661509e-03 0.0000000000000000e+00  2.8192298155542722e-01 1.3595425683753545e-01 0.0000000000000000e+00  -1.6723068840276644e-04 6.8544943879509789e-04 0.0000000000000000e+00  -2.7047729095905563e-03 6.8817825234324406e-02 0.0000000000000000e+00  -5.1927696613951902e-04 6.0542865701991916e-03 0.0000000000000000e+00  -2.1128167071483451e-03 5.3196861309760243e-02 0.0000000000000000e+00  -5.8230865248730325e-04 9.6828589535558184e-03 0.0000000000000000e+00  5.8233597440880388e-04 4.9925993168814531e-05 0.0000000000000000e+00  2.7816256682150656e-03 3.5860783283317072e-03 0.0000000000000000e+00  2.7551855584400120e-01 1.2537001609799323e-01 0.0000000000000000e+00  -1.5513651913396899e-04 1.1489885733904504e-04 0.0000000000000000e+00  3.3781256487001534e-04 3.9943389998023973e-04 0.0000000000000000e+00  6.0459464361901027e-04 2.3209193773527960e-03 0.0000000000000000e+00  2.8949666676328439e-01 1.5138651205471892e-01 0.0000000000000000e+00  -8.6192790769346926e-05 2.1931639868368884e-04 0.0000000000000000e+00  7.8782945116429341e-04 5.9041748517996208e-05 0.0000000000000000e+00  1.6696513598851296e-03 3.0002027921933934e-04 0.0000000000000000e+00  2.0423266797999010e-03 3.1253014883708523e-04 0.0000000000000000e+00  2.6318406316028823e-03 6.9237123537943253e-04 0.0000000000000000e+00  3.1562970366669570e-03 7.2046119729068654e-04 0.0000000000000000e+00  2.1245741411049907e-03 6.7843004945461439e-04 0.0000000000000000e+00  3.6212460857548809e-03 1.2085834542426485e-03 0.0000000000000000e+00  4.2720725949319761e-03 1.2418930631119540e-03 0.0000000000000000e+00  4.5965192039971285e-03 1.8311211293629717e-03 0.0000000000000000e+00  5.3443042114678582e-03 1.8743268328661660e-03 0.0000000000000000e+00  4.9426847887308898e-03 1.2861055069459766e-03 0.0000000000000000e+00  6.1001948708661055e-03 1.8918047833947679e-03 0.0000000000000000e+00  5.6716216476243872e-03 1.3168772366099252e-03 0.0000000000000000e+00  6.8224558705210691e-03 1.8390435073951706e-03 0.0000000000000000e+00  6.3366650876198298e-03 1.2574775370571309e-03 0.0000000000000000e+00  7.4712212162110422e-03 1.6728081881068298e-03 0.0000000000000000e+00  6.8852499892921096e-03 1.1033319547174949e-03 0.0000000000000000e+00  8.1055720921606612e-03 1.4242755627569953e-03 0.0000000000000000e+00  7.2741832013436388e-03 7.9890876479310642e-04 0.0000000000000000e+00  8.6236993949438713e-03 1.0633122617456831e-03 0.0000000000000000e+00  7.8685669959150488e-03 5.2371778234134290e-04 0.0000000000000000e+00  9.1553654522497554e-03 6.0546847378876762e-04 0.0000000000000000e+00  8.1455351121750685e-03 8.8887711400255603e-05 0.0000000000000000e+00  9.5346624950019415e-03 3.2641779579382169e-06 0.0000000000000000e+00  8.1891633194507828e-03 -4.9256009253599250e-04 0.0000000000000000e+00  9.7344047562744618e-03 -7.3426293747070367e-04 0.0000000000000000e+00  8.5321759108482383e-03 -1.1636966039073860e-03 0.0000000000000000e+00  9.8701415783675819e-03 -1.6020596308687202e-03 0.0000000000000000e+00  8.4756922343731268e-03 -1.9250917390560966e-03 0.0000000000000000e+00  9.8067922326157166e-03 -2.5546167812790536e-03 0.0000000000000000e+00  8.1952768593042697e-03 -2.7827921643283175e-03 0.0000000000000000e+00  9.5496854114967607e-03 -3.5952444113212939e-03 0.0000000000000000e+00  7.7849225919473927e-03 -3.7060843305044243e-03 0.0000000000000000e+00  9.1309115247538517e-03 -4.6914838854530665e-03 0.0000000000000000e+00  7.1466297208652718e-03 -4.6248402723569476e-03 0.0000000000000000e+00  8.4965194766297471e-03 -5.76