<?xml version="1.0"?>
<VTKFile type="UnstructuredGrid"  version="0.1"  >
<UnstructuredGrid>
<Piece  NumberOfPoints="18082" NumberOfCells="35500">
<Points>
<DataArray  type="Float64"  NumberOfComponents="3"  format="ascii">0 0 0  30 0 0  30 -10 0  0 -10 0  0.02360821169319077 0 0  0.04721642338638154 0 0  0.07206717063563725 0 0  0.09691791788489297 0 0  0.1230766011355843 0 0  0.1492352843862757 0 0  0.1767707375239038 0 0  0.204306190661532 0 0  0.2332908770901271 0 0  0.2622755635187223 0 0  0.2927857633803451 0 0  0.323295963241968 0 0  0.3554119623832387 0 0  0.3875279615245094 0 0  0.4213342730081758 0 0  0.4551405844918422 0 0  0.4907261762804851 0 0  0.526311768069128 0 0  0.5637702848355051 0 0  0.6012288016018821 0 0  0.6406588220121138 0 0  0.6800888424223455 0 0  0.721594129780935 0 0  0.7630994171395246 0 0  0.8067891887833475 0 0  0.8504789604271704 0 0  0.8964681941825949 0 0  0.9424574279380195 0 0  0.9908671465681095 0 0  1.039276865198199 0 0  1.090234462786975 0 0  1.141192060375751 0 0  1.194831641933244 0 0  1.248471223490737 0 0  1.304933942963653 0 0  1.361396662436569 0 0  1.420831104471586 0 0  1.480265546506604 0 0  1.542828113436244 0 0  1.605390680365884 0 0  1.671246013469327 0 0  1.73710134657277 0 0  1.806422752814762 0 0  1.875744159056755 0 0  1.948714057431306 0 0  2.021683955805857 0 0  2.098494373901932 0 0  2.175304791998006 0 0  2.256157866653476 0 0  2.337010941308945 0 0  2.422119443935387 0 0  2.50722794656183 0 0  2.596815840700639 0 0  2.686403734839449 0 0  2.780706776094687 0 0  2.875009817349925 0 0  2.974276175689285 0 0  3.073542534028646 0 0  3.178033441002704 0 0  3.282524347976761 0 0  3.392514777963501 0 0  3.502505207950242 0 0  3.618284608533553 0 0  3.734064009116865 0 0  3.855937062816526 0 0  3.977810116516187 0 0  4.106097541496641 0 0  4.234384966477093 0 0  4.369424362562147 0 0  4.5044637586472 0 0  4.646610489729194 0 0  4.788757220811188 0 0  4.938385356669961 0 0  5.088013492528733 0 0  5.24551679218304 0 0  5.403020091837347 0 0  5.568813038399614 0 0  5.73460598496188 0 0  5.909124878408681 0 0  6.083643771855482 0 0  6.267347873338513 0 0  6.451051974821543 0 0  6.644424714363561 0 0  6.83779745390558 0 0  7.041347702348167 0 0  7.244897950790754 0 0  7.459161368238869 0 0  7.673424785686984 0 0  7.898965226038037 0 0  8.124505666389089 0 0  8.361916654054033 0 0  8.599327641718979 0 0  8.849233942517035 0 0  9.099140243315093 0 0  9.362199507946787 0 0  9.625258772578484 0 0  9.902163261537794 0 0  10.1790677504971 0 0  10.47054616023911 0 0  10.76202456998112 0 0  11.06884394887334 0 0  11.37566332776555 0 0  11.69863109504192 0 0  12.02159886231829 0 0  12.3615649378891 0 0  12.7015310134599 0 0  13.05939003847426 0 0  13.41724906348862 0 0  13.79394276982091 0 0  14.1706364761532 0 0  14.5671561683298 0 0  14.96367586050641 0 0  15.38106501332897 0 0  15.79845416615153 0 0  16.23781117165827 0 0  16.677168177165 0 0  17.13964923659526 0 0  17.60213029602552 0 0  18.0889524622663 0 0  18.57577462850707 0 0  19.08821901304263 0 0  19.60066339757818 0 0  20.14007853843172 0 0  20.67949367928525 0 0  21.24729908993883 0 0  21.8151045005924 0 0  22.41279440541421 0 0  23.01048431023601 0 0  23.63963157605829 0 0  24.26877884188056 0 0  24.93103912515648 0 0  25.59329940843241 0 0  26.29041549584691 0 0  26.98753158326142 0 0  27.72133799026916 0 0  28.45514439727691 0 0  29.22757219863846 0 0  30 -0.3571428571428571 0  30 -0.7142857142857142 0  30 -1.071428571428571 0  30 -1.428571428571428 0  30 -1.785714285714286 0  30 -2.142857142857143 0  30 -2.5 0  30 -2.857142857142857 0  30 -3.214285714285714 0  30 -3.571428571428571 0  30 -3.928571428571428 0  30 -4.285714285714286 0  30 -4.642857142857142 0  30 -5 0  30 -5.357142857142857 0  30 -5.714285714285714 0  30 -6.071428571428571 0  30 -6.428571428571428 0  30 -6.785714285714285 0  30 -7.142857142857142 0  30 -7.5 0  30 -7.857142857142857 0  30 -8.214285714285714 0  30 -8.571428571428571 0  30 -8.928571428571427 0  30 -9.285714285714285 0  30 -9.642857142857142 0  29.22757220128658 -10 0  28.45514440257316 -10 0  27.72133799277628 -10 0  26.98753158297939 -10 0  26.29041549304805 -10 0  25.5932994031167 -10 0  24.93103911757599 -10 0  24.26877883203527 -10 0  23.63963156418132 -10 0  23.01048429632737 -10 0  22.41279438968936 -10 0  21.81510448305136 -10 0  21.24729907078059 -10 0  20.67949365850982 -10 0  20.14007851622273 -10 0  19.60066337393564 -10 0  19.08821898813588 -10 0  18.57577460233611 -10 0  18.08895243498708 -10 0  17.60213026763805 -10 0  17.13964920724307 -10 0  16.6771681468481 -10 0  16.2378111405086 -10 0  15.79845413416909 -10 0  15.38106498063496 -10 0  14.96367582710082 -10 0  14.56715613432376 -10 0  14.17063644154669 -10 0  13.79394273471576 -10 0  13.41724902788484 -10 0  13.05939000246495 -10 0  12.70153097704506 -10 0  12.36156490115379 -10 0  12.02159882526251 -10 0  11.69863105774323 -10 0  11.37566329022395 -10 0  11.06884391115945 -10 0  10.76202453209494 -10 0  10.47054612224479 -10 0  10.17906771239465 -10 0  9.902163223385379 -10 0  9.625258734376107 -10 0  9.362199469747061 -10 0  9.099140205118012 -10 0  8.849233904370102 -10 0  8.599327603622193 -10 0  8.361916616050124 -10 0  8.124505628478055 -10 0  7.898965188258209 -10 0  7.673424748038361 -10 0  7.459161330755727 -10 0  7.244897913473093 -10 0  7.041347665226496 -10 0  6.837797416979896 -10 0  6.644424677660922 -10 0  6.451051938341948 -10 0  6.26734783710581 -10 0  6.083643735869675 -10 0  5.90912484269068 -10 0  5.734605949511682 -10 0  5.568813003235423 -10 0  5.403020056959164 -10 0  5.24551675760658 -10 0  5.088013458254 -10 0  4.938385322710374 -10 0  4.788757187166745 -10 0  4.646610456411224 -10 0  4.504463725655707 -10 0  4.369424329906533 -10 0  4.234384934157362 -10 0  4.106097509520442 -10 0  3.977810084883522 -10 0  3.85593703153344 -10 0  3.734063978183357 -10 0  3.618284577954206 -10 0  3.502505177725055 -10 0  3.392514748095728 -10 0  3.282524318466404 -10 0  3.1780334118518 -10 0  3.073542505237196 -10 0  2.97427614725823 -10 0  2.875009789279265 -10 0  2.780706748384375 -10 0  2.686403707489482 -10 0  2.596815813710069 -10 0  2.507227919930656 -10 0  2.422119417661861 -10 0  2.337010915393062 -10 0  2.256157841092762 -10 0  2.175304766792465 -10 0  2.098494349048437 -10 0  2.021683931304413 -10 0  1.948714033278215 -10 0  1.875744135252013 -10 0  1.806422729354161 -10 0  1.737101323456312 -10 0  1.671245990692352 -10 0  1.605390657928396 -10 0  1.542828091333185 -10 0  1.480265524737977 -10 0  1.420831083031992 -10 0  1.36139664132601 -10 0  1.304933922176438 -10 0  1.248471203026863 -10 0  1.194831621786765 -10 0  1.14119204054667 -10 0  1.09023444350921 -10 0  1.039276846471754 -10 0  0.9908671279064798 -10 0  0.942457409341209 -10 0  0.8964681758842019 -10 0  0.8504789424271948 -10 0  0.8067891710751951 -10 0  0.7630993997231954 -10 0  0.7215941126497469 -10 0  0.6800888255762949 -10 0  0.6406588054444597 -10 0  0.6012287853126246 -10 0  0.5637702688178621 -10 0  0.5263117523230996 -10 0  0.4907261607992695 -10 0  0.4551405692754429 -10 0  0.4213342580497894 -10 0  0.3875279468241395 -10 0  0.3554119479341011 -10 0  0.3232959490440663 -10 0  0.2927857494269297 -10 0  0.2622755498097931 -10 0  0.2332908636189828 -10 0  0.2043061774281725 -10 0  0.1767707245216883 -10 0  0.1492352716152006 -10 0  0.1230765885890825 -10 0  0.09691790556296098 -10 0  0.0720671585317838 -10 0  0.04721641150060663 -10 0  0.02360820575030331 -10 0  0 -9.972067039106145 0  0 -9.94413407821229 0  0 -9.916201117318435 0  0 -9.888268156424582 0  0 -9.860335195530727 0  0 -9.832402234636872 0  0 -9.804469273743017 0  0 -9.776536312849162 0  0 -9.748603351955307 0  0 -9.720670391061452 0  0 -9.692737430167599 0  0 -9.664804469273744 0  0 -9.636871508379889 0  0 -9.608938547486034 0  0 -9.581005586592179 0  0 -9.553072625698324 0  0 -9.525139664804469 0  0 -9.497206703910614 0  0 -9.46927374301676 0  0 -9.441340782122905 0  0 -9.41340782122905 0  0 -9.385474860335195 0  0 -9.35754189944134 0  0 -9.329608938547485 0  0 -9.30167597765363 0  0 -9.273743016759777 0  0 -9.245810055865922 0  0 -9.217877094972067 0  0 -9.189944134078212 0  0 -9.162011173184357 0  0 -9.134078212290502 0  0 -9.106145251396647 0  0 -9.078212290502794 0  0 -9.050279329608939 0  0 -9.022346368715084 0  0 -8.994413407821229 0  0 -8.966480446927374 0  0 -8.938547486033519 0  0 -8.910614525139664 0  0 -8.882681564245811 0  0 -8.854748603351956 0  0 -8.826815642458101 0  0 -8.798882681564246 0  0 -8.770949720670391 0  0 -8.743016759776536 0  0 -8.715083798882681 0  0 -8.687150837988828 0  0 -8.659217877094973 0  0 -8.631284916201118 0  0 -8.603351955307263 0  0 -8.575418994413408 0  0 -8.547486033519553 0  0 -8.519553072625698 0  0 -8.491620111731844 0  0 -8.463687150837989 0  0 -8.435754189944134 0  0 -8.407821229050279 0  0 -8.379888268156424 0  0 -8.351955307262569 0  0 -8.324022346368714 0  0 -8.296089385474861 0  0 -8.268156424581006 0  0 -8.240223463687151 0  0 -8.212290502793296 0  0 -8.184357541899441 0  0 -8.156424581005586 0  0 -8.128491620111731 0  0 -8.100558659217878 0  0 -8.072625698324023 0  0 -8.044692737430168 0  0 -8.016759776536313 0  0 -7.988826815642458 0  0 -7.960893854748603 0  0 -7.932960893854748 0  0 -7.905027932960894 0  0 -7.877094972067039 0  0 -7.849162011173184 0  0 -7.82122905027933 0  0 -7.793296089385475 0  0 -7.76536312849162 0  0 -7.737430167597765 0  0 -7.709497206703911 0  0 -7.681564245810056 0  0 -7.653631284916202 0  0 -7.625698324022347 0  0 -7.597765363128492 0  0 -7.569832402234637 0  0 -7.541899441340782 0  0 -7.513966480446927 0  0 -7.486033519553073 0  0 -7.458100558659218 0  0 -7.430167597765363 0  0 -7.402234636871508 0  0 -7.374301675977653 0  0 -7.346368715083798 0  0 -7.318435754189944 0  0 -7.290502793296089 0  0 -7.262569832402235 0  0 -7.23463687150838 0  0 -7.206703910614525 0  0 -7.17877094972067 0  0 -7.150837988826815 0  0 -7.12290502793296 0  0 -7.094972067039106 0  0 -7.067039106145251 
[...]
<PointData  Vectors="displacement"> 
<DataArray  type="Float64"  Name="displacement"  NumberOfComponents="3" format="ascii">1.0000000000000003e-01 5.7886584713468213e-02 0.0000000000000000e+00  2.7064530972771684e-21 8.6517972690446375e-05 0.0000000000000000e+00  1.0893231227230123e-22 -5.7392553470647271e-24 0.0000000000000000e+00  2.6952829627146187e-24 -8.6249054806867800e-23 0.0000000000000000e+00  8.8234922223111287e-02 4.1731272256306511e-02 0.0000000000000000e+00  7.6129810095603989e-02 2.8083902845852354e-02 0.0000000000000000e+00  6.4495595058895933e-02 1.7915270965287011e-02 0.0000000000000000e+00  5.4577476260142345e-02 1.1487140086261418e-02 0.0000000000000000e+00  4.6429514079116337e-02 7.2664629440062946e-03 0.0000000000000000e+00  3.9940079335837007e-02 4.7101833750188794e-03 0.0000000000000000e+00  3.4526571811696813e-02 3.0131252536630395e-03 0.0000000000000000e+00  3.0224996197625253e-02 1.9346277164549923e-03 0.0000000000000000e+00  2.6600310484190426e-02 1.2147209065006847e-03 0.0000000000000000e+00  2.3688705640299502e-02 7.4535643469812144e-04 0.0000000000000000e+00  2.1201818110556343e-02 4.5353529459304129e-04 0.0000000000000000e+00  1.9174846408708115e-02 2.5920542454877394e-04 0.0000000000000000e+00  1.7415305403230462e-02 1.2556034752576699e-04 0.0000000000000000e+00  1.5952540853956171e-02 4.0338946802672084e-05 0.0000000000000000e+00  1.4652986974912373e-02 -4.5046269737674920e-05 0.0000000000000000e+00  1.3550521522854493e-02 -8.9365851990164843e-05 0.0000000000000000e+00  1.2561043914866146e-02 -1.3443267695124449e-04 0.0000000000000000e+00  1.1707697958540077e-02 -1.6782736851585746e-04 0.0000000000000000e+00  1.0919882074848855e-02 -2.0424107244664547e-04 0.0000000000000000e+00  1.0231361907458278e-02 -2.2408250355050542e-04 0.0000000000000000e+00  9.5964996826780682e-03 -2.4211506056787254e-04 0.0000000000000000e+00  9.0369400032463462e-03 -2.5337106519038132e-04 0.0000000000000000e+00  8.5115856996361584e-03 -2.7425494258597751e-04 0.0000000000000000e+00  8.0427741298005045e-03 -2.9048303559446234e-04 0.0000000000000000e+00  7.6037275311201472e-03 -2.8931281667978848e-04 0.0000000000000000e+00  7.2132370206202962e-03 -2.9440067150383621e-04 0.0000000000000000e+00  6.8365553060331851e-03 -3.0708424720171906e-04 0.0000000000000000e+00  6.4993991443931861e-03 -3.1227591577666694e-04 0.0000000000000000e+00  6.1740241230989444e-03 -3.1998922400611489e-04 0.0000000000000000e+00  5.8796997534646851e-03 -3.2350274490456358e-04 0.0000000000000000e+00  5.6007420907664730e-03 -3.2532372787968955e-04 0.0000000000000000e+00  5.3463798293759265e-03 -3.2812156348780547e-04 0.0000000000000000e+00  5.1019354564955629e-03 -3.3000693073353640e-04 0.0000000000000000e+00  4.8788417110860087e-03 -3.3116764116300848e-04 0.0000000000000000e+00  4.6623963277986772e-03 -3.3474155150786281e-04 0.0000000000000000e+00  4.4641487105598300e-03 -3.3769846744868723e-04 0.0000000000000000e+00  4.2715611851400857e-03 -3.3903513982357845e-04 0.0000000000000000e+00  4.0947938419569115e-03 -3.3998134194606743e-04 0.0000000000000000e+00  3.9229169377068577e-03 -3.4107292548744307e-04 0.0000000000000000e+00  3.7654000046954809e-03 -3.4010461693718605e-04 0.0000000000000000e+00  3.6094382227902979e-03 -3.4223808694882311e-04 0.0000000000000000e+00  3.4654079975330525e-03 -3.4194467451284185e-04 0.0000000000000000e+00  3.3266678389972343e-03 -3.4040481340683699e-04 0.0000000000000000e+00  3.1979679176385861e-03 -3.3967979689192898e-04 0.0000000000000000e+00  3.0720381346162114e-03 -3.3887643437152356e-04 0.0000000000000000e+00  2.9547998844721033e-03 -3.3809990033124642e-04 0.0000000000000000e+00  2.8397602097813574e-03 -3.3736240394396477e-04 0.0000000000000000e+00  2.7325791156765544e-03 -3.3619703468005689e-04 0.0000000000000000e+00  2.6278944966776881e-03 -3.3412164311478532e-04 0.0000000000000000e+00  2.5306840024860331e-03 -3.3171767285229968e-04 0.0000000000000000e+00  2.4341457530866954e-03 -3.3042188139331907e-04 0.0000000000000000e+00  2.3444916460848972e-03 -3.2835122444967158e-04 0.0000000000000000e+00  2.2559503444682526e-03 -3.2622488172285793e-04 0.0000000000000000e+00  2.1732773283381530e-03 -3.2391301620794276e-04 0.0000000000000000e+00  2.0917268560719502e-03 -3.2113124286089296e-04 0.0000000000000000e+00  2.0157642978224162e-03 -3.1761262647556922e-04 0.0000000000000000e+00  1.9401802186674514e-03 -3.1468363779021247e-04 0.0000000000000000e+00  1.8697613223049442e-03 -3.1156688639873397e-04 0.0000000000000000e+00  1.7998590098787437e-03 -3.0784196694070637e-04 0.0000000000000000e+00  1.7342842103299375e-03 -3.0386757487308423e-04 0.0000000000000000e+00  1.6697088837373320e-03 -2.9977819729058800e-04 0.0000000000000000e+00  1.6093757713889455e-03 -2.9582125668356702e-04 0.0000000000000000e+00  1.5494627415858395e-03 -2.9101955669261990e-04 0.0000000000000000e+00  1.4937172160440291e-03 -2.8611980548419978e-04 0.0000000000000000e+00  1.4367308751856126e-03 -2.8198784923291347e-04 0.0000000000000000e+00  1.3833329097271416e-03 -2.7647989083692966e-04 0.0000000000000000e+00  1.3312700921766600e-03 -2.7078587722136359e-04 0.0000000000000000e+00  1.2822931615933783e-03 -2.6479656642511371e-04 0.0000000000000000e+00  1.2335682372003336e-03 -2.5879873419814697e-04 0.0000000000000000e+00  1.1877018055764708e-03 -2.5249810683975436e-04 0.0000000000000000e+00  1.1423430515518180e-03 -2.4563923033492710e-04 0.0000000000000000e+00  1.0996284418809369e-03 -2.3885004055728339e-04 0.0000000000000000e+00  1.0572802179247530e-03 -2.3145942823738167e-04 0.0000000000000000e+00  1.0174054908721668e-03 -2.2414417739061122e-04 0.0000000000000000e+00  9.7787262856220431e-04 -2.1627007573462684e-04 0.0000000000000000e+00  9.4069626815793345e-04 -2.0840184077967894e-04 0.0000000000000000e+00  9.0393204568125888e-04 -2.0002532752278219e-04 0.0000000000000000e+00  8.6960854665677531e-04 -1.9150272386818555e-04 0.0000000000000000e+00  8.3477788365534571e-04 -1.8314379763596431e-04 0.0000000000000000e+00  8.0214699120232638e-04 -1.7393905691082579e-04 0.0000000000000000e+00  7.7014366176196103e-04 -1.6462684123620135e-04 0.0000000000000000e+00  7.4011389795266874e-04 -1.5519933140175013e-04 0.0000000000000000e+00  7.1062757983512872e-04 -1.4514379103473864e-04 0.0000000000000000e+00  6.8291611192362650e-04 -1.3539400292781730e-04 0.0000000000000000e+00  6.5551661028011483e-04 -1.2510051348433627e-04 0.0000000000000000e+00  6.3005799907175409e-04 -1.1514767296136970e-04 0.0000000000000000e+00  6.0466250326585982e-04 -1.0462289820831988e-04 0.0000000000000000e+00  5.8117713296351433e-04 -9.4252242732055110e-05 0.0000000000000000e+00  5.5750689597706970e-04 -8.3766064765688442e-05 0.0000000000000000e+00  5.3552733520910336e-04 -7.3165761649564539e-05 0.0000000000000000e+00  5.1404402592957268e-04 -6.2328247042935998e-05 0.0000000000000000e+00  4.9379120104157395e-04 -5.1869468797292565e-05 0.0000000000000000e+00  4.7506818480414701e-04 -4.0376610327193049e-05 0.0000000000000000e+00  4.5778072693350409e-04 -3.0232220737933755e-05 0.0000000000000000e+00  4.3958566602533231e-04 -1.9889491040936630e-05 0.0000000000000000e+00  4.2284127434361870e-04 -9.5389550804107180e-06 0.0000000000000000e+00  4.0686343515805080e-04 7.6939800069064128e-07 0.0000000000000000e+00  3.9219393485917319e-04 1.0705689986451052e-05 0.0000000000000000e+00  3.7772687250862155e-04 2.0521305009513732e-05 0.0000000000000000e+00  3.6451735834048263e-04 2.9852229031230584e-05 0.0000000000000000e+00  3.5137926583695247e-04 3.8864430042778242e-05 0.0000000000000000e+00  3.3931873275917101e-04 4.7424216455381470e-05 0.0000000000000000e+00  3.2752337917407151e-04 5.5757211595133920e-05 0.0000000000000000e+00  3.1661795780943262e-04 6.3515879467360934e-05 0.0000000000000000e+00  3.0597702666521434e-04 7.0939542683007953e-05 0.0000000000000000e+00  2.9614916188725691e-04 7.7736999761132065e-05 0.0000000000000000e+00  2.8642976017432663e-04 8.4111918770262719e-05 0.0000000000000000e+00  2.7751982709211891e-04 8.9854620979755895e-05 0.0000000000000000e+00  2.6825596957350304e-04 9.4924906778347248e-05 0.0000000000000000e+00  2.5956024823126257e-04 9.9521134579194100e-05 0.0000000000000000e+00  2.5118188388699539e-04 1.0372150239833779e-04 0.0000000000000000e+00  2.4312261886026126e-04 1.0714509617348045e-04 0.0000000000000000e+00  2.3505825444195558e-04 1.1008771163907183e-04 0.0000000000000000e+00  2.2724075455842938e-04 1.1233824839932851e-04 0.0000000000000000e+00  2.1940314310966161e-04 1.1418359122551996e-04 0.0000000000000000e+00  2.1175686646225195e-04 1.1535004682970447e-04 0.0000000000000000e+00  2.0379965134626881e-04 1.1602105164105633e-04 0.0000000000000000e+00  1.9608010079010996e-04 1.1619974031155871e-04 0.0000000000000000e+00  1.8779076951426439e-04 1.1592783936987081e-04 0.0000000000000000e+00  1.7962390919079997e-04 1.1528874512644603e-04 0.0000000000000000e+00  1.7157990519380502e-04 1.1455510338473116e-04 0.0000000000000000e+00  1.6347513481594468e-04 1.1300688781168593e-04 0.0000000000000000e+00  1.5451063030947086e-04 1.1140596987657672e-04 0.0000000000000000e+00  1.4581413324960135e-04 1.0943793510269579e-04 0.0000000000000000e+00  1.3671537434062811e-04 1.0775298194477191e-04 0.0000000000000000e+00  1.2774865722190248e-04 1.0525150500231546e-04 0.0000000000000000e+00  1.1850627231211910e-04 1.0340637498486927e-04 0.0000000000000000e+00  1.0905277748106762e-04 1.0096637346621667e-04 0.0000000000000000e+00  9.8862155115236102e-05 9.8708625549055309e-05 0.0000000000000000e+00  8.8807020406128737e-05 9.6492030088444361e-05 0.0000000000000000e+00  7.8473376983695107e-05 9.4600020253995403e-05 0.0000000000000000e+00  6.8074074190607839e-05 9.2719089590863758e-05 0.0000000000000000e+00  5.7240939966483440e-05 9.1054491038335589e-05 0.0000000000000000e+00  4.6465658881186213e-05 8.9507949836888974e-05 0.0000000000000000e+00  3.4908824819614517e-05 8.8475947838138701e-05 0.0000000000000000e+00  2.3541035691769111e-05 8.7280718879970625e-05 0.0000000000000000e+00  1.1789750699183968e-05 8.7428099159404189e-05 0.0000000000000000e+00  -4.1765749283869596e-22 8.2163678387638049e-05 0.0000000000000000e+00  8.7120742646821809e-22 7.7250071843779780e-05 0.0000000000000000e+00  -5.6122725600199823e-22 7.2465605392029616e-05 0.0000000000000000e+00  -1.1811953771974694e-21 6.7573604732096957e-05 0.0000000000000000e+00  1.5234099510547895e-22 6.2828709976741842e-05 0.0000000000000000e+00  5.4418406702565624e-22 5.8153377216934992e-05 0.0000000000000000e+00  -5.0784182651603357e-22 5.3591653602479636e-05 0.0000000000000000e+00  3.9198409313139468e-22 4.9155523445466191e-05 0.0000000000000000e+00  1.7353637448715079e-21 4.4847848830253454e-05 0.0000000000000000e+00  2.9357435239437104e-22 4.0672796324337078e-05 0.0000000000000000e+00  -4.3791421709115715e-22 3.6631264286077488e-05 0.0000000000000000e+00  -2.6887820628227457e-22 3.2760276144114463e-05 0.0000000000000000e+00  3.6377449764620271e-22 2.9026533825458582e-05 0.0000000000000000e+00  -5.9991871602868224e-22 2.5469873074899543e-05 0.0000000000000000e+00  7.6607643792114361e-22 2.2098347698632019e-05 0.0000000000000000e+00  -1.6900263722938629e-22 1.8911470527359096e-05 0.0000000000000000e+00  2.3644721849614869e-22 1.5952356136295892e-05 0.0000000000000000e+00  6.1561918336562023e-22 1.3222911247411624e-05 0.0000000000000000e+00  -3.0986713557089570e-22 1.0718593603293472e-05 0.0000000000000000e+00  2.4982978788228732e-22 8.4503008831955631e-06 0.0000000000000000e+00  1.1155591855189179e-22 6.3845552776512389e-06 0.0000000000000000e+00  -5.3996609881936613e-22 4.6134485064331338e-06 0.0000000000000000e+00  -4.1166237100477685e-22 3.1319058253010036e-06 0.0000000000000000e+00  -1.6815226133535731e-23 1.9316448894146183e-06 0.0000000000000000e+00  -1.5268731286988394e-22 1.0829284943951151e-06 0.0000000000000000e+00  8.9252836211129983e-23 5.0637726702273844e-07 0.0000000000000000e+00  1.0105059376513098e-22 3.6110976232346409e-08 0.0000000000000000e+00  9.2835124415475621e-23 -3.7134049766190251e-23 0.0000000000000000e+00  -6.4999834065104214e-22 -7.4881520420609667e-24 0.0000000000000000e+00  -6.0579011253259696e-22 3.7861882033287310e-23 0.0000000000000000e+00  6.4334207811135748e-22 -1.3036248590329535e-22 0.0000000000000000e+00  1.6156538580074659e-21 -2.1037159609472213e-23 0.0000000000000000e+00  -1.8336770163788081e-21 1.3113435393574409e-22 0.0000000000000000e+00  -2.8217505344244020e-22 -2.2044926050190640e-23 0.0000000000000000e+00  -5.4157106331319813e-22 -4.0238617645028856e-23 0.0000000000000000e+00  -5.7679763759900808e-22 3.6049852349938005e-23 0.0000000000000000e+00  -1.2530620005174101e-21 3.0456368068131492e-23 0.0000000000000000e+00  3.4685265772894051e-21 -1.8065242590048987e-23 0.0000000000000000e+00  3.5859669794842822e-21 4.2432923026837979e-23 0.0000000000000000e+00  -8.5933173355005338e-21 4.8825666678980308e-23 0.0000000000000000e+00  1.1294847776466273e-21 2.0054772330373355e-24 0.0000000000000000e+00  1.7029963027078475e-21 7.9827951689430350e-23 0.0000000000000000e+00  -4.9332680207148764e-21 2.8305367704725822e-23 0.0000000000000000e+00  9.3336807094380606e-22 -8.5452399073224426e-23 0.0000000000000000e+00  0.0000000000000000e+00 7.4643759171066170e-23 0.0000000000000000e+00  2.1159167126447276e-21 3.3061198635073868e-23 0.0000000000000000e+00  -1.5932381781196168e-21 -4.3445440975854383e-23 0.0000000000000000e+00  -5.0798956096206312e-21 -9.9216711125402953e-24 0.0000000000000000e+00  -2.3159298327927226e-21 -3.1016917403473960e-23 0.0000000000000000e+00  1.3388980568217971e-21 -3.1380423206760868e-23 0.0000000000000000e+00  -5.2646877130986458e-23 -8.9228714549208667e-23 0.0000000000000000e+00  -2.4697941030795299e-21 3.8590532860617655e-23 0.0000000000000000e+00  -6.7481420710706057e-22 7.9079789895358656e-23 0.0000000000000000e+00  -1.5950545618233465e-21 -7.4768182585469365e-23 0.0000000000000000e+00  1.8124728477482614e-21 1.0869742594734485e-22 0.0000000000000000e+00  6.5784859861213703e-21 7.7091632649859812e-23 0.0000000000000000e+00  -2.6298528612047113e-21 7.1463392967519324e-23 0.0000000000000000e+00  1.0413097210470123e-21 -1.9524557269631481e-22 0.0000000000000000e+00  -8.4959102263544000e-22 -2.5487730679063197e-23 0.0000000000000000e+00  -5.6972920320116283e-22 3.5608075200072677e-23 0.0000000000000000e+00  3.6504980775336410e-21 -1.0038869713217514e-22 0.0000000000000000e+00  -5.9811102672147944e-22 -7.4763878340184930e-23 0.0000000000000000e+00  7.7094553587483426e-23 -1.4038806328689446e-22 0.0000000000000000e+00  1.2496102425955224e-21 -7.0290576145998131e-22 0.0000000000000000e+00  9.1867305309865911e-22 -2.1052924133510936e-22 0.0000000000000000e+00  1.8467599576050076e-21 -4.6168998940125191e-22 0.0000000000000000e+00  1.9455446858215472e-21 -5.7883544102492496e-22 0.0000000000000000e+00  0.0000000000000000e+00 -4.0207408045245126e-22 0.0000000000000000e+00  5.7445466114759007e-22 2.2710998231416351e-22 0.0000000000000000e+00  -1.0364574308079020e-21 5.7580968378216776e-23 0.0000000000000000e+00  3.5508012493150068e-22 1.9223904355957652e-22 0.0000000000000000e+00  4.9209619962905701e-23 -1.3122565323441521e-22 0.0000000000000000e+00  -3.7975626620452989e-22 -1.6398566040650154e-22 0.0000000000000000e+00  1.5746500291579577e-21 4.2945000795217029e-22 0.0000000000000000e+00  3.4810785239359153e-21 6.2081056428457703e-22 0.0000000000000000e+00  1.4857782570657384e-21 7.4288912853286916e-23 0.0000000000000000e+00  -4.2934038972202934e-22 -1.4311346324067643e-22 0.0000000000000000e+00  1.6838190047342933e-21 0.0000000000000000e+00 0.0000000000000000e+00  -4.4205622686899899e-21 9.3633170848302270e-23 0.0000000000000000e+00  -2.6655652721160838e-21 0.0000000000000000e+00 0.0000000000000000e+00  4.1495698672243092e-21 -1.3531206088774922e-22 0.0000000000000000e+00  -3.5067262982650925e-21 0.0000000000000000e+00 0.0000000000000000e+00  -4.2068194917806773e-21 -2.5374241723671446e-23 0.0000000000000000e+00  -9.3995814562577689e-22 1.1749476820322211e-22 0.0000000000000000e+00  -3.6806371561907788e-22 -9.9683922980166927e-23 0.0000000000000000e+00  -3.0540787039610512e-21 1.5906659916463807e-22 0.0000000000000000e+00  2.2962936609775990e-21 2.7120245852845486e-22 0.0000000000000000e+00  2.2480570688523426e-21 7.0251783401635707e-23 0.0000000000000000e+00  -3.5509090734103904e-21 -1.2714843687341895e-22 0.0000000000000000e+00  3.7244384166933598e-21 1.5518493402888998e-22 0.0000000000000000e+00  -2.4499236529158551e-22 5.3592079907534322e-23 0.0000000000000000e+00  2.0804295156853605e-21 -5.4177851970972931e-23 0.0000000000000000e+00  -1.1031674618542710e-21 5.6109998670159452e-23 0.0000000000000000e+00  1.5613382175056940e-21 9.1484661181974257e-24 0.0000000000000000e+00  4.7944596574029187e-21 -3.3050043594229681e-23 0.0000000000000000e+00  -2.5513120421248559e-21 -6.6440417763668126e-24 0.0000000000000000e+00  -2.1802463601903483e-21 -1.7929657567354838e-24 0.0000000000000000e+00  -9.5580020807546244e-22 -3.7335945627947749e-23 0.0000000000000000e+00  3.3626704632070818e-21 -4.2610140212760085e-23 0.0000000000000000e+00  3.2422732255317977e-21 -6.7547358865245786e-23 0.0000000000000000e+00  1.4048447455384282e-22 1.7560559319230352e-23 0.0000000000000000e+00  -1.8077562632084885e-21 1.1298476645053053e-22 0.0000000000000000e+00  -4.6611792100018736e-21 1.9386754898599384e-22 0.0000000000000000e+00  4.4673672143852527e-21 -2.5926684726342984e-22 0.0000000000000000e+00  1.5560411597850571e-22 6.8076800740596249e-23 0.0000000000000000e+00  0.0000000000000000e+00 4.1264383130456318e-23 0.0000000000000000e+00  -3.1154439889912765e-21 -7.3879559351398339e-23 0.0000000000000000e+00  0.0000000000000000e+00 9.2011996466766842e-23 0.0000000000000000e+00  1.4919297914850276e-21 -1.4834529176697718e-22 0.0000000000000000e+00  -1.4568558667279888e-21 1.8210698334099859e-22 0.0000000000000000e+00  -3.5843513061956792e-21 9.6689808915131488e-23 0.0000000000000000e+00  6.5684520461706244e-22 -1.2315847586569920e-22 0.0000000000000000e+00  -1.1374410448841220e-21 -3.2879155203681652e-22 0.0000000000000000e+00  -5.1259091281362411e-22 6.4073864101703013e-23 0.0000000000000000e+00  8.4903421493054408e-21 2.2400770208438921e-22 0.0000000000000000e+00  -3.5965265718148016e-21 -3.7463818456404181e-23 0.0000000000000000e+00  0.0000000000000000e+00 7.8747557568418945e-23 0.0000000000000000e+00  -1.9070416329012039e-21 2.6221822452391553e-22 0.0000000000000000e+00  1.7955774802732350e-21 7.7818394813944167e-23 0.0000000000000000e+00  3.8644906298584493e-22 2.4153066436615308e-23 0.0000000000000000e+00  -1.0180924289170832e-22 1.9089233042195310e-23 0.0000000000000000e+00  0.0000000000000000e+00 1.6070639291362413e-22 0.0000000000000000e+00  9.1275953983176438e-22 -1.5226956609035543e-22 0.0000000000000000e+00  -2.2404531496932261e-21 -8.4016993113495971e-23 0.0000000000000000e+00  1.4067664368017647e-21 -2.1804879770427352e-22 0.0000000000000000e+00  0.0000000000000000e+00 3.1086244910928529e-22 0.0000000000000000e+00  -1.3371938680813426e-21 4.6404401957724753e-22 0.0000000000000000e+00  -4.3418874496280376e-22 2.7136796560175234e-22 0.0000000000000000e+00  -3.2397945145800732e-23 8.0994862864501828e-23 0.0000000000000000e+00  1.2416060317156992e-21 3.8800188491115599e-23 0.0000000000000000e+00  -1.5811095977765564e-22 -8.7839422098697579e-24 0.0000000000000000e+00  0.0000000000000000e+00 -1.9366284859890789e-22 0.0000000000000000e+00  4.4558325234066881e-22 -1.0520715680265790e-22 0.0000000000000000e+00  0.0000000000000000e+00 -8.7612317702920059e-23 0.0000000000000000e+00  -2.9904056644057694e-22 1.9225902557509629e-22 0.0000000000000000e+00  2.0942779188040557e-22 2.0942779188040557e-22 0.0000000000000000e+00  -2.7324227916631435e-23 -1.3662113958315718e-22 0.0000000000000000e+00  5.7938575263799443e-22 8.6907862895699174e-23 0.0000000000000000e+00  -1.7890506078185752e-22 4.2823019867997814e-24 0.0000000000000000e+00  -7.6816432055508873e-22 0.0000000000000000e+00 0.0000000000000000e+00  2.