<?xml version="1.0"?>
<VTKFile type="UnstructuredGrid"  version="0.1"  >
<UnstructuredGrid>
<Piece  NumberOfPoints="13179" NumberOfCells="25814">
<Points>
<DataArray  type="Float64"  NumberOfComponents="3"  format="ascii">0 0 0  30 0 0  30 -10 0  0 -10 0  0.02360821169319077 0 0  0.04721642338638154 0 0  0.07206717063563725 0 0  0.09691791788489297 0 0  0.1230766011355843 0 0  0.1492352843862757 0 0  0.1767707375239038 0 0  0.204306190661532 0 0  0.2332908770901271 0 0  0.2622755635187223 0 0  0.2927857633803451 0 0  0.323295963241968 0 0  0.3554119623832387 0 0  0.3875279615245094 0 0  0.4213342730081758 0 0  0.4551405844918422 0 0  0.4907261762804851 0 0  0.526311768069128 0 0  0.5637702848355051 0 0  0.6012288016018821 0 0  0.6406588220121138 0 0  0.6800888424223455 0 0  0.721594129780935 0 0  0.7630994171395246 0 0  0.8067891887833475 0 0  0.8504789604271704 0 0  0.8964681941825949 0 0  0.9424574279380195 0 0  0.9908671465681095 0 0  1.039276865198199 0 0  1.090234462786975 0 0  1.141192060375751 0 0  1.194831641933244 0 0  1.248471223490737 0 0  1.304933942963653 0 0  1.361396662436569 0 0  1.420831104471586 0 0  1.480265546506604 0 0  1.542828113436244 0 0  1.605390680365884 0 0  1.671246013469327 0 0  1.73710134657277 0 0  1.806422752814762 0 0  1.875744159056755 0 0  1.948714057431306 0 0  2.021683955805857 0 0  2.098494373901932 0 0  2.175304791998006 0 0  2.256157866653476 0 0  2.337010941308945 0 0  2.422119443935387 0 0  2.50722794656183 0 0  2.596815840700639 0 0  2.686403734839449 0 0  2.780706776094687 0 0  2.875009817349925 0 0  2.974276175689285 0 0  3.073542534028646 0 0  3.178033441002704 0 0  3.282524347976761 0 0  3.392514777963501 0 0  3.502505207950242 0 0  3.618284608533553 0 0  3.734064009116865 0 0  3.855937062816526 0 0  3.977810116516187 0 0  4.106097541496641 0 0  4.234384966477093 0 0  4.369424362562147 0 0  4.5044637586472 0 0  4.646610489729194 0 0  4.788757220811188 0 0  4.938385356669961 0 0  5.088013492528733 0 0  5.24551679218304 0 0  5.403020091837347 0 0  5.568813038399614 0 0  5.73460598496188 0 0  5.909124878408681 0 0  6.083643771855482 0 0  6.267347873338513 0 0  6.451051974821543 0 0  6.644424714363561 0 0  6.83779745390558 0 0  7.041347702348167 0 0  7.244897950790754 0 0  7.459161368238869 0 0  7.673424785686984 0 0  7.898965226038037 0 0  8.124505666389089 0 0  8.361916654054033 0 0  8.599327641718979 0 0  8.849233942517035 0 0  9.099140243315093 0 0  9.362199507946787 0 0  9.625258772578484 0 0  9.902163261537794 0 0  10.1790677504971 0 0  10.47054616023911 0 0  10.76202456998112 0 0  11.06884394887334 0 0  11.37566332776555 0 0  11.69863109504192 0 0  12.02159886231829 0 0  12.3615649378891 0 0  12.7015310134599 0 0  13.05939003847426 0 0  13.41724906348862 0 0  13.79394276982091 0 0  14.1706364761532 0 0  14.5671561683298 0 0  14.96367586050641 0 0  15.38106501332897 0 0  15.79845416615153 0 0  16.23781117165827 0 0  16.677168177165 0 0  17.13964923659526 0 0  17.60213029602552 0 0  18.0889524622663 0 0  18.57577462850707 0 0  19.08821901304263 0 0  19.60066339757818 0 0  20.14007853843172 0 0  20.67949367928525 0 0  21.24729908993883 0 0  21.8151045005924 0 0  22.41279440541421 0 0  23.01048431023601 0 0  23.63963157605829 0 0  24.26877884188056 0 0  24.93103912515648 0 0  25.59329940843241 0 0  26.29041549584691 0 0  26.98753158326142 0 0  27.72133799026916 0 0  28.45514439727691 0 0  29.22757219863846 0 0  30 -0.3571428571428571 0  30 -0.7142857142857142 0  30 -1.071428571428571 0  30 -1.428571428571428 0  30 -1.785714285714286 0  30 -2.142857142857143 0  30 -2.5 0  30 -2.857142857142857 0  30 -3.214285714285714 0  30 -3.571428571428571 0  30 -3.928571428571428 0  30 -4.285714285714286 0  30 -4.642857142857142 0  30 -5 0  30 -5.357142857142857 0  30 -5.714285714285714 0  30 -6.071428571428571 0  30 -6.428571428571428 0  30 -6.785714285714285 0  30 -7.142857142857142 0  30 -7.5 0  30 -7.857142857142857 0  30 -8.214285714285714 0  30 -8.571428571428571 0  30 -8.928571428571427 0  30 -9.285714285714285 0  30 -9.642857142857142 0  29.22757220128658 -10 0  28.45514440257316 -10 0  27.72133799277628 -10 0  26.98753158297939 -10 0  26.29041549304805 -10 0  25.5932994031167 -10 0  24.93103911757599 -10 0  24.26877883203527 -10 0  23.63963156418132 -10 0  23.01048429632737 -10 0  22.41279438968936 -10 0  21.81510448305136 -10 0  21.24729907078059 -10 0  20.67949365850982 -10 0  20.14007851622273 -10 0  19.60066337393564 -10 0  19.08821898813588 -10 0  18.57577460233611 -10 0  18.08895243498708 -10 0  17.60213026763805 -10 0  17.13964920724307 -10 0  16.6771681468481 -10 0  16.2378111405086 -10 0  15.79845413416909 -10 0  15.38106498063496 -10 0  14.96367582710082 -10 0  14.56715613432376 -10 0  14.17063644154669 -10 0  13.79394273471576 -10 0  13.41724902788484 -10 0  13.05939000246495 -10 0  12.70153097704506 -10 0  12.36156490115379 -10 0  12.02159882526251 -10 0  11.69863105774323 -10 0  11.37566329022395 -10 0  11.06884391115945 -10 0  10.76202453209494 -10 0  10.47054612224479 -10 0  10.17906771239465 -10 0  9.902163223385379 -10 0  9.625258734376107 -10 0  9.362199469747061 -10 0  9.099140205118012 -10 0  8.849233904370102 -10 0  8.599327603622193 -10 0  8.361916616050124 -10 0  8.124505628478055 -10 0  7.898965188258209 -10 0  7.673424748038361 -10 0  7.459161330755727 -10 0  7.244897913473093 -10 0  7.041347665226496 -10 0  6.837797416979896 -10 0  6.644424677660922 -10 0  6.451051938341948 -10 0  6.26734783710581 -10 0  6.083643735869675 -10 0  5.90912484269068 -10 0  5.734605949511682 -10 0  5.568813003235423 -10 0  5.403020056959164 -10 0  5.24551675760658 -10 0  5.088013458254 -10 0  4.938385322710374 -10 0  4.788757187166745 -10 0  4.646610456411224 -10 0  4.504463725655707 -10 0  4.369424329906533 -10 0  4.234384934157362 -10 0  4.106097509520442 -10 0  3.977810084883522 -10 0  3.85593703153344 -10 0  3.734063978183357 -10 0  3.618284577954206 -10 0  3.502505177725055 -10 0  3.392514748095728 -10 0  3.282524318466404 -10 0  3.1780334118518 -10 0  3.073542505237196 -10 0  2.97427614725823 -10 0  2.875009789279265 -10 0  2.780706748384375 -10 0  2.686403707489482 -10 0  2.596815813710069 -10 0  2.507227919930656 -10 0  2.422119417661861 -10 0  2.337010915393062 -10 0  2.256157841092762 -10 0  2.175304766792465 -10 0  2.098494349048437 -10 0  2.021683931304413 -10 0  1.948714033278215 -10 0  1.875744135252013 -10 0  1.806422729354161 -10 0  1.737101323456312 -10 0  1.671245990692352 -10 0  1.605390657928396 -10 0  1.542828091333185 -10 0  1.480265524737977 -10 0  1.420831083031992 -10 0  1.36139664132601 -10 0  1.304933922176438 -10 0  1.248471203026863 -10 0  1.194831621786765 -10 0  1.14119204054667 -10 0  1.09023444350921 -10 0  1.039276846471754 -10 0  0.9908671279064798 -10 0  0.942457409341209 -10 0  0.8964681758842019 -10 0  0.8504789424271948 -10 0  0.8067891710751951 -10 0  0.7630993997231954 -10 0  0.7215941126497469 -10 0  0.6800888255762949 -10 0  0.6406588054444597 -10 0  0.6012287853126246 -10 0  0.5637702688178621 -10 0  0.5263117523230996 -10 0  0.4907261607992695 -10 0  0.4551405692754429 -10 0  0.4213342580497894 -10 0  0.3875279468241395 -10 0  0.3554119479341011 -10 0  0.3232959490440663 -10 0  0.2927857494269297 -10 0  0.2622755498097931 -10 0  0.2332908636189828 -10 0  0.2043061774281725 -10 0  0.1767707245216883 -10 0  0.1492352716152006 -10 0  0.1230765885890825 -10 0  0.09691790556296098 -10 0  0.0720671585317838 -10 0  0.04721641150060663 -10 0  0.02360820575030331 -10 0  0 -9.957983193277311 0  0 -9.915966386554622 0  0 -9.873949579831933 0  0 -9.831932773109244 0  0 -9.789915966386555 0  0 -9.747899159663866 0  0 -9.705882352941176 0  0 -9.663865546218487 0  0 -9.621848739495798 0  0 -9.579831932773109 0  0 -9.53781512605042 0  0 -9.495798319327731 0  0 -9.453781512605042 0  0 -9.411764705882353 0  0 -9.369747899159664 0  0 -9.327731092436975 0  0 -9.285714285714286 0  0 -9.243697478991596 0  0 -9.201680672268907 0  0 -9.159663865546218 0  0 -9.117647058823529 0  0 -9.07563025210084 0  0 -9.033613445378151 0  0 -8.991596638655462 0  0 -8.949579831932773 0  0 -8.907563025210084 0  0 -8.865546218487395 0  0 -8.823529411764707 0  0 -8.781512605042018 0  0 -8.739495798319329 0  0 -8.69747899159664 0  0 -8.655462184873949 0  0 -8.61344537815126 0  0 -8.571428571428571 0  0 -8.529411764705882 0  0 -8.487394957983193 0  0 -8.445378151260504 0  0 -8.403361344537815 0  0 -8.361344537815127 0  0 -8.319327731092438 0  0 -8.277310924369749 0  0 -8.235294117647058 0  0 -8.193277310924369 0  0 -8.15126050420168 0  0 -8.109243697478991 0  0 -8.067226890756302 0  0 -8.025210084033613 0  0 -7.983193277310924 0  0 -7.941176470588236 0  0 -7.899159663865547 0  0 -7.857142857142857 0  0 -7.815126050420168 0  0 -7.773109243697479 0  0 -7.73109243697479 0  0 -7.689075630252101 0  0 -7.647058823529411 0  0 -7.605042016806722 0  0 -7.563025210084033 0  0 -7.521008403361344 0  0 -7.478991596638656 0  0 -7.436974789915967 0  0 -7.394957983193278 0  0 -7.352941176470589 0  0 -7.3109243697479 0  0 -7.26890756302521 0  0 -7.226890756302521 0  0 -7.184873949579832 0  0 -7.142857142857143 0  0 -7.100840336134453 0  0 -7.058823529411764 0  0 -7.016806722689076 0  0 -6.974789915966387 0  0 -6.932773109243698 0  0 -6.890756302521009 0  0 -6.84873949579832 0  0 -6.806722689075631 0  0 -6.764705882352941 0  0 -6.722689075630252 0  0 -6.680672268907563 0  0 -6.638655462184874 0  0 -6.596638655462185 0  0 -6.554621848739496 0  0 -6.512605042016807 0  0 -6.470588235294118 0  0 -6.428571428571429 0  0 -6.38655462184874 0  0 -6.344537815126051 0  0 -6.302521008403362 0  0 -6.260504201680672 0  0 -6.218487394957983 0  0 -6.176470588235294 0  0 -6.134453781512605 0  0 -6.092436974789917 0  0 -6.050420168067227 0  0 -6.008403361344538 0  0 -5.966386554621849 0  0 -5.92436974789916 0  0 -5.882352941176471 0  0 -5.840336134453782 0  0 -5.798319327731092 0  0 -5.756302521008403 0  0 -5.714285714285714 0  0 -5.672268907563025 0  0 -5.630252100840336 0  0 -5.588235294117647 0 
[...]
<PointData  Vectors="displacement"> 
<DataArray  type="Float64"  Name="displacement"  NumberOfComponents="3" format="ascii">2.7400000000000257e-01 -4.3677686155272399e-01 0.0000000000000000e+00  -9.4328784349412225e-20 9.5365813252704223e-03 0.0000000000000000e+00  -3.9262152179955113e-22 6.4154248251615969e-22 0.0000000000000000e+00  -1.0474314469843341e-21 -1.9720578609866098e-20 0.0000000000000000e+00  2.3125370825833427e-01 -4.2333691404153351e-01 0.0000000000000000e+00  1.9764192860291926e-01 -4.1632575868930455e-01 0.0000000000000000e+00  1.7153136979404726e-01 -4.0325223628827012e-01 0.0000000000000000e+00  1.5115646326891782e-01 -3.9082427137671738e-01 0.0000000000000000e+00  1.3349708673405067e-01 -3.7885256086313673e-01 0.0000000000000000e+00  1.1898150188661122e-01 -3.6677625631860861e-01 0.0000000000000000e+00  1.0616261091829039e-01 -3.5467281696890862e-01 0.0000000000000000e+00  9.5546297115411849e-02 -3.4289475305232830e-01 0.0000000000000000e+00  8.6027990559333384e-02 -3.3191432820213412e-01 0.0000000000000000e+00  7.8123466174888787e-02 -3.2096819724330039e-01 0.0000000000000000e+00  7.0941151607552627e-02 -3.1057959550898345e-01 0.0000000000000000e+00  6.4888548268732624e-02 -3.0037451600417786e-01 0.0000000000000000e+00  5.9389480290183781e-02 -2.9058748083389746e-01 0.0000000000000000e+00  5.4709860928619049e-02 -2.8132326247554790e-01 0.0000000000000000e+00  5.0558833612794486e-02 -2.7207044700254635e-01 0.0000000000000000e+00  4.6966527652869537e-02 -2.6349644208270606e-01 0.0000000000000000e+00  4.3748671969746522e-02 -2.5492408412062795e-01 0.0000000000000000e+00  4.1039586402297858e-02 -2.4680911268475414e-01 0.0000000000000000e+00  3.8513819334480712e-02 -2.3885095282751018e-01 0.0000000000000000e+00  3.6260866634590161e-02 -2.3137643871282268e-01 0.0000000000000000e+00  3.4268791354025753e-02 -2.2387951878739631e-01 0.0000000000000000e+00  3.2558305176478487e-02 -2.1678840957930404e-01 0.0000000000000000e+00  3.0947042137198177e-02 -2.0984972528963181e-01 0.0000000000000000e+00  2.9582739661146482e-02 -2.0318998739758673e-01 0.0000000000000000e+00  2.8313995141119760e-02 -1.9656964553076575e-01 0.0000000000000000e+00  2.7159385662767866e-02 -1.9031390574514823e-01 0.0000000000000000e+00  2.6150935254516471e-02 -1.8405316067398320e-01 0.0000000000000000e+00  2.5260817959803145e-02 -1.7811443674755836e-01 0.0000000000000000e+00  2.4451122763473585e-02 -1.7214361771974726e-01 0.0000000000000000e+00  2.3727251758574867e-02 -1.6646889534835568e-01 0.0000000000000000e+00  2.3074653869008824e-02 -1.6075101261670266e-01 0.0000000000000000e+00  2.2511354268654239e-02 -1.5533124745180008e-01 0.0000000000000000e+00  2.2013360863700458e-02 -1.4988497700381612e-01 0.0000000000000000e+00  2.1591033226397268e-02 -1.4468519347131267e-01 0.0000000000000000e+00  2.1221450921570042e-02 -1.3947181420996338e-01 0.0000000000000000e+00  2.0906740743397892e-02 -1.3445808221423311e-01 0.0000000000000000e+00  2.0629780003064781e-02 -1.2945309798734284e-01 0.0000000000000000e+00  2.0447664138609378e-02 -1.2463750524929515e-01 0.0000000000000000e+00  2.0262720738750153e-02 -1.1979398261624932e-01 0.0000000000000000e+00  2.0139287518431314e-02 -1.1516579665780781e-01 0.0000000000000000e+00  2.0026284137142084e-02 -1.1048732236117498e-01 0.0000000000000000e+00  1.9984192544447624e-02 -1.0601105078352410e-01 0.0000000000000000e+00  1.9978008489704296e-02 -1.0150981628095483e-01 0.0000000000000000e+00  2.0007512692007838e-02 -9.7200147637944379e-02 0.0000000000000000e+00  2.0062962594012228e-02 -9.2831182885915881e-02 0.0000000000000000e+00  2.0148169255361073e-02 -8.8658472579675893e-02 0.0000000000000000e+00  2.0270978116670724e-02 -8.4449655636104001e-02 0.0000000000000000e+00  2.0404161532216327e-02 -8.0408234251691357e-02 0.0000000000000000e+00  2.0586719615952584e-02 -7.6338564800359485e-02 0.0000000000000000e+00  2.0788024236785951e-02 -7.2446960745148156e-02 0.0000000000000000e+00  2.1022383142201558e-02 -6.8522861528436591e-02 0.0000000000000000e+00  2.1275759126699149e-02 -6.4762654034422412e-02 0.0000000000000000e+00  2.1556762325673551e-02 -6.0968501657925007e-02 0.0000000000000000e+00  2.1853896906214539e-02 -5.7333485095205167e-02 0.0000000000000000e+00  2.2177989055940640e-02 -5.3670905755850207e-02 0.0000000000000000e+00  2.2514678421072201e-02 -5.0175495887883635e-02 0.0000000000000000e+00  2.2884883816481044e-02 -4.6653598225209626e-02 0.0000000000000000e+00  2.3266367840445636e-02 -4.3290830270959757e-02 0.0000000000000000e+00  2.3672398625143354e-02 -3.9894287059511015e-02 0.0000000000000000e+00  2.4087011782811477e-02 -3.6668006303151889e-02 0.0000000000000000e+00  2.4529633307944190e-02 -3.3428149674527063e-02 0.0000000000000000e+00  2.4975947942129345e-02 -3.0321210949150582e-02 0.0000000000000000e+00  2.5448191611325496e-02 -2.7215427407266828e-02 0.0000000000000000e+00  2.5925153261151156e-02 -2.4263044832383302e-02 0.0000000000000000e+00  2.6425004128247331e-02 -2.1298265964448466e-02 0.0000000000000000e+00  2.6922309377631463e-02 -1.8488230245774704e-02 0.0000000000000000e+00  2.7447363934963168e-02 -1.5683888054354299e-02 0.0000000000000000e+00  2.7970774586082076e-02 -1.3026617505524736e-02 0.0000000000000000e+00  2.8510030596787313e-02 -1.0363483002208181e-02 0.0000000000000000e+00  2.9045364712803588e-02 -7.8559598716228217e-03 0.0000000000000000e+00  2.9597435738131686e-02 -5.3625515447502355e-03 0.0000000000000000e+00  3.0140336813187178e-02 -3.0125105356851980e-03 0.0000000000000000e+00  3.0699014479716093e-02 -6.8166677627090751e-04 0.0000000000000000e+00  3.1245234059272417e-02 1.5056917256005805e-03 0.0000000000000000e+00  3.1803910516828918e-02 3.6588622438715876e-03 0.0000000000000000e+00  3.2345016690955346e-02 5.6706714978679174e-03 0.0000000000000000e+00  3.2896401445364251e-02 7.6457498270711593e-03 0.0000000000000000e+00  3.3428938628048181e-02 9.4849420250993025e-03 0.0000000000000000e+00  3.3967304974759076e-02 1.1280196149750165e-02 0.0000000000000000e+00  3.4479497565043718e-02 1.2927607865244934e-02 0.0000000000000000e+00  3.4993039530776669e-02 1.4544627185959011e-02 0.0000000000000000e+00  3.5477584495897420e-02 1.6014571753599140e-02 0.0000000000000000e+00  3.5953892021464338e-02 1.7425299664975757e-02 0.0000000000000000e+00  3.6402609302098196e-02 1.8705520028809510e-02 0.0000000000000000e+00  3.6839429782011414e-02 1.9927427395895078e-02 0.0000000000000000e+00  3.7240515496187836e-02 2.1011817353545695e-02 0.0000000000000000e+00  3.7626440542621868e-02 2.2021291241828264e-02 0.0000000000000000e+00  3.7966872531373763e-02 2.2922775913273966e-02 0.0000000000000000e+00  3.8287043950620089e-02 2.3745422655015880e-02 0.0000000000000000e+00  3.8563997779261061e-02 2.4444012002467048e-02 0.0000000000000000e+00  3.8807869103534058e-02 2.5070539801955827e-02 0.0000000000000000e+00  3.9006265471356993e-02 2.5590710233248090e-02 0.0000000000000000e+00  3.9168329835189981e-02 2.6026780616949848e-02 0.0000000000000000e+00  3.9283847161692829e-02 2.6355320809431138e-02 0.0000000000000000e+00  3.9344994662557559e-02 2.6612208139028596e-02 0.0000000000000000e+00  3.9360678387142752e-02 2.6763426529467015e-02 0.0000000000000000e+00  3.9331581153541940e-02 2.6829659295936926e-02 0.0000000000000000e+00  3.9239098955556259e-02 2.6826169046694166e-02 0.0000000000000000e+00  3.9093589349181543e-02 2.6742383808759911e-02 0.0000000000000000e+00  3.8894394341548864e-02 2.6580160006487937e-02 0.0000000000000000e+00  3.8632302530019189e-02 2.6344273542973633e-02 0.0000000000000000e+00  3.8315349212743800e-02 2.6049707582518927e-02 0.0000000000000000e+00  3.7929512926479961e-02 2.5694302329762265e-02 0.0000000000000000e+00  3.7505783195127956e-02 2.5260211074188434e-02 0.0000000000000000e+00  3.6987045824184488e-02 2.4802896620838604e-02 0.0000000000000000e+00  3.6465561630038487e-02 2.4274569228134871e-02 0.0000000000000000e+00  3.5818416970680868e-02 2.3715993847691644e-02 0.0000000000000000e+00  3.5148338308071118e-02 2.3146219377608947e-02 0.0000000000000000e+00  3.4428838189817866e-02 2.2487614976173360e-02 0.0000000000000000e+00  3.3653352118694843e-02 2.1866080111632734e-02 0.0000000000000000e+00  3.2820363357559182e-02 2.1184644844317941e-02 0.0000000000000000e+00  3.1954753505411937e-02 2.0508668161563274e-02 0.0000000000000000e+00  3.0970578454351434e-02 1.9808640300333809e-02 0.0000000000000000e+00  2.9996849555208389e-02 1.9125465274287254e-02 0.0000000000000000e+00  2.8972908750700653e-02 1.8435013337558970e-02 0.0000000000000000e+00  2.7937887570389574e-02 1.7761748322444808e-02 0.0000000000000000e+00  2.6844181467599388e-02 1.7070250465907637e-02 0.0000000000000000e+00  2.5692897988440808e-02 1.6426307661309692e-02 0.0000000000000000e+00  2.4519247651549510e-02 1.5779535616572971e-02 0.0000000000000000e+00  2.3360143452916600e-02 1.5176579272046907e-02 0.0000000000000000e+00  2.2145255563862015e-02 1.4580858816432169e-02 0.0000000000000000e+00  2.0939977600471713e-02 1.4025042883731558e-02 0.0000000000000000e+00  1.9689377550164061e-02 1.3486346299967160e-02 0.0000000000000000e+00  1.8451349758803085e-02 1.2987541936361558e-02 0.0000000000000000e+00  1.7167969197873549e-02 1.2501007979377622e-02 0.0000000000000000e+00  1.5908896168568179e-02 1.2077746379740630e-02 0.0000000000000000e+00  1.4620698876203221e-02 1.1681056051247411e-02 0.0000000000000000e+00  1.3354742281429129e-02 1.1317633028433947e-02 0.0000000000000000e+00  1.2058094590474428e-02 1.0968431920176925e-02 0.0000000000000000e+00  1.0775872870871270e-02 1.0671517343945936e-02 0.0000000000000000e+00  9.4704965907116585e-03 1.0409712941890201e-02 0.0000000000000000e+00  8.2001337007685388e-03 1.0170047532878248e-02 0.0000000000000000e+00  6.8264807581468407e-03 9.9675289081984173e-03 0.0000000000000000e+00  5.4784021871424129e-03 9.7866781275150541e-03 0.0000000000000000e+00  4.1308047382159797e-03 9.6834821803450967e-03 0.0000000000000000e+00  2.7873970664299042e-03 9.5841439449539378e-03 0.0000000000000000e+00  1.3455510793786427e-03 9.5427280335338149e-03 0.0000000000000000e+00  -9.7383437764278410e-20 9.0475497787978337e-03 0.0000000000000000e+00  -8.2459547763472364e-20 8.4287077730593810e-03 0.0000000000000000e+00  -2.2654941426007448e-20 7.8564397293561482e-03 0.0000000000000000e+00  -2.8419665035681402e-20 7.2798409083560346e-03 0.0000000000000000e+00  1.4599287438578718e-19 6.7242498721424458e-03 0.0000000000000000e+00  1.6895848602954857e-20 6.1849062564582457e-03 0.0000000000000000e+00  5.5366847949373876e-20 5.6623447858060753e-03 0.0000000000000000e+00  1.2438188157496818e-19 5.1556567195614579e-03 0.0000000000000000e+00  -1.2495630573107819e-19 4.6668523232887031e-03 0.0000000000000000e+00  -1.7212187665249652e-19 4.1980416105325729e-03 0.0000000000000000e+00  9.0783782776827345e-20 3.7483415485387176e-03 0.0000000000000000e+00  -4.2610937201393547e-20 3.3223975601134460e-03 0.0000000000000000e+00  -1.5453794061911328e-20 2.9166603940250922e-03 0.0000000000000000e+00  -3.1465539838878147e-20 2.5365454485269290e-03 0.0000000000000000e+00  1.1326268941546955e-20 2.1788332375944318e-03 0.0000000000000000e+00  8.4272457836550548e-20 1.8478071417355408e-03 0.0000000000000000e+00  -4.7683931105321059e-20 1.5430964404731821e-03 0.0000000000000000e+00  -9.5675577534384795e-20 1.2640411551214546e-03 0.0000000000000000e+00  7.1130339954982181e-20 1.0103630687496000e-03 0.0000000000000000e+00  -2.4005158003877698e-20 7.8647765637565245e-04 0.0000000000000000e+00  -6.3100898082187539e-20 5.9005202779748229e-04 0.0000000000000000e+00  2.2206430353353399e-20 4.2164747391599177e-04 0.0000000000000000e+00  6.7185874022454523e-21 2.8046574547689037e-04 0.0000000000000000e+00  6.5482995306803381e-21 1.6835452838270885e-04 0.0000000000000000e+00  -2.0776459168708597e-20 8.4479845488640121e-05 0.0000000000000000e+00  3.4208122036195305e-21 2.5011735912609729e-05 0.0000000000000000e+00  -3.7366396012670725e-21 3.2833534451930881e-06 0.0000000000000000e+00  8.8292735354495547e-21 -2.4215153980858774e-21 0.0000000000000000e+00  5.4127804341955903e-20 3.1715510356614785e-22 0.0000000000000000e+00  -1.4776418218051409e-20 2.7994386077167707e-21 0.0000000000000000e+00  2.0048101739487301e-19 1.0441719655982969e-21 0.0000000000000000e+00  1.4900362521245400e-19 1.2425718317830965e-21 0.0000000000000000e+00  -1.0632558515671233e-19 -3.3226745361472604e-21 0.0000000000000000e+00  -9.1348974387491407e-20 -4.2281393712582583e-21 0.0000000000000000e+00  2.4877940447532707e-19 -2.2675206137074085e-21 0.0000000000000000e+00  2.2118806671644445e-20 -3.3696619538833335e-21 0.0000000000000000e+00  2.8034115220029910e-19 2.3726790225285731e-21 0.0000000000000000e+00  4.9229162460107675e-19 9.2218718316268086e-21 0.0000000000000000e+00  -2.2621946154995937e-19 1.6151942447270759e-20 0.0000000000000000e+00  -2.4749742427603212e-20 1.0054582861213804e-20 0.0000000000000000e+00  2.0625179250965040e-19 5.6396974514357531e-21 0.0000000000000000e+00  1.0993637070343415e-19 -1.0059019509608168e-20 0.0000000000000000e+00  -1.1455278112464196e-19 0.0000000000000000e+00 0.0000000000000000e+00  1.2071809720271691e-19 1.6975982419132066e-20 0.0000000000000000e+00  -3.3680813706264427e-19 1.1887085156776232e-20 0.0000000000000000e+00  1.0131944405239987e-19 7.1353637846716053e-21 0.0000000000000000e+00  -2.9534757200397992e-19 -1.4258100734235973e-20 0.0000000000000000e+00  -1.2978934244370224e-19 -1.3091498444179487e-20 0.0000000000000000e+00  0.0000000000000000e+00 2.4121021493651213e-21 0.0000000000000000e+00  -6.8970671948035738e-20 1.4698855173400838e-21 0.0000000000000000e+00  3.4116575454955120e-19 1.8657502201928582e-20 0.0000000000000000e+00  -3.3383995074162395e-20 -1.4632695584461464e-20 0.0000000000000000e+00  -4.6915614207668254e-19 -3.2254484767771927e-20 0.0000000000000000e+00  -4.3808246524633991e-19 -5.3914527027945805e-21 0.0000000000000000e+00  -4.3915071055422888e-19 8.5771623155122829e-21 0.0000000000000000e+00  9.4387234690035292e-20 -1.3775176264391893e-21 0.0000000000000000e+00  -2.0982970407934073e-19 -1.2862877008900850e-21 0.0000000000000000e+00  -1.6750441486611962e-18 1.1432245986911257e-20 0.0000000000000000e+00  -1.7546687105755606e-19 -4.2880389783928869e-20 0.0000000000000000e+00  6.2485677816856294e-19 -2.3211406218642332e-20 0.0000000000000000e+00  -6.9683229770153087e-19 1.8986374981898828e-20 0.0000000000000000e+00  7.7970014323305661e-19 1.9492503580826415e-20 0.0000000000000000e+00  1.1652956762955085e-18 -5.8846058900078225e-21 0.0000000000000000e+00  -1.0885599165828585e-19 -3.9157091008905841e-21 0.0000000000000000e+00  8.6924222657163629e-19 7.4598605243758119e-21 0.0000000000000000e+00  6.4093801572581506e-19 -1.3656349766885266e-21 0.0000000000000000e+00  -1.9668593658066012e-19 -1.1524566596523053e-21 0.0000000000000000e+00  4.6037302749629054e-20 -4.7248655599756301e-21 0.0000000000000000e+00  -7.6730391900312254e-20 -1.3464421208944855e-20 0.0000000000000000e+00  -9.1522850658934715e-19 -6.6850649762407700e-21 0.0000000000000000e+00  1.4559360662785181e-18 0.0000000000000000e+00 0.0000000000000000e+00  -2.2023909245967790e-19 2.8569176337691503e-21 0.0000000000000000e+00  -1.4069480428654849e-19 -5.1511728671936688e-21 0.0000000000000000e+00  -7.0145199451525988e-19 -4.3840749657203744e-21 0.0000000000000000e+00  -1.0935484554628772e-18 -8.3966830289550983e-21 0.0000000000000000e+00  1.0963758478206136e-19 1.3232409456715153e-20 0.0000000000000000e+00  4.1512380986000032e-19 2.3674190571030064e-21 0.0000000000000000e+00  -6.7652181416172814e-19 2.6426633365692506e-21 0.0000000000000000e+00  3.5217215957219772e-19 -2.3949473640762375e-20 0.0000000000000000e+00  -3.5885441934785371e-19 -9.1255380274847780e-21 0.0000000000000000e+00  -1.4317946484192658e-18 2.0802884226139467e-20 0.0000000000000000e+00  -6.3538379916898719e-19 -3.3092906206718083e-21 0.0000000000000000e+00  -6.6922450604949998e-19 0.0000000000000000e+00 0.0000000000000000e+00  6.4481096307849128e-19 7.8393889032980194e-21 0.0000000000000000e+00  -1.5099073038471575e-19 1.1756441144399316e-20 0.0000000000000000e+00  2.4833042037617551e-19 -3.4921465365399683e-20 0.0000000000000000e+00  -2.7522545839197511e-19 3.1805239509278739e-20 0.0000000000000000e+00  6.4724162792177989e-19 -6.1010331561672136e-21 0.0000000000000000e+00  9.7471027884196948e-19 -2.3172694833443796e-20 0.0000000000000000e+00  -3.5928474567235488e-19 5.4890725033276434e-20 0.0000000000000000e+00  -2.6710100890513313e-19 -2.4811329837017125e-20 0.0000000000000000e+00  -4.0507867862804759e-19 2.5146353783075590e-20 0.0000000000000000e+00  -6.8075376079755099e-19 1.9540963261657233e-20 0.0000000000000000e+00  9.6541525704777086e-20 3.0169226782742841e-20 0.0000000000000000e+00  -8.1831815025810940e-19 7.2658319941313387e-21 0.0000000000000000e+00  -2.5443882436451346e-18 -3.9755743153910717e-20 0.0000000000000000e+00  2.4041622802248805e-19 -4.5078042754216510e-20 0.0000000000000000e+00  2.2341038488594294e-19 7.7244439118103101e-21 0.0000000000000000e+00  -1.2114080478320305e-19 1.2942228317445467e-20 0.0000000000000000e+00  -3.1480616784304987e-19 1.5325852314036599e-20 0.0000000000000000e+00  -4.9428783943336984e-19 -5.0337279471414327e-20 0.0000000000000000e+00  6.1474375834183315e-19 4.8026856120455715e-21 0.0000000000000000e+00  -2.4057251581759439e-19 3.0071564477199299e-20 0.0000000000000000e+00  -8.6509275597723230e-19 6.0620925281530257e-20 0.0000000000000000e+00  -3.5056770234282784e-19 6.0253823840173533e-20 0.0000000000000000e+00  3.2074811701159336e-19 -6.0140271939673749e-20 0.0000000000000000e+00  0.0000000000000000e+00 0.0000000000000000e+00 0.0000000000000000e+00  -2.8076776392018337e-19 -2.9432067471460144e-20 0.0000000000000000e+00  -5.3837189052512154e-20 6.7296486315640192e-21 0.0000000000000000e+00  -9.3776159221087404e-20 -9.7740813491379712e-21 0.0000000000000000e+00  -5.8586191974624501e-20 -1.4646547993656125e-20 0.0000000000000000e+00  5.0095878084169728e-19 -5.0577678976357227e-20 0.0000000000000000e+00  -6.5829608818968866e-20 -6.7167884515050357e-20 0.0000000000000000e+00  2.7463318612517842e-19 6.8658296531294604e-20 0.0000000000000000e+00  3.6788339414458067e-19 -9.1970848536145164e-21 0.0000000000000000e+00  3.4650094984674569e-19 1.5155701922970866e-20 0.0000000000000000e+00  4.0697904741001722e-20 2.5436190463126075e-20 0.0000000000000000e+00  2.0749957931036500e-19 2.8335225618645733e-21 0.0000000000000000e+00  -1.1880786212810394e-19 -1.0676144083024021e-20 0.0000000000000000e+00  -1.3065073495970815e-19 -4.2080071549754463e-20 0.0000000000000000e+00  2.1694062587656856e-19 -3.7964609528399497e-20 0.0000000000000000e+00  4.4202365893115419e-19 1.6882848084176028e-20 0.0000000000000000e+00  2.1946515644933879e-19 -6.8582861390418371e-21 0.0000000000000000e+00  -2.4615262160302772e-19 -3.1086911617828625e-20 0.0000000000000000e+00  2.4559627648289973e-19 5.8032751111053437e-21 0.0000000000000000e+00  -1.5073859138907141e-19 1.3240551946337354e-20 0.0000000000000000e+00  -9.9746614154837029e-20 -3.3248871384945678e-20 0.0000000000000000e+00  1.8954836305119952e-19 2.4600436765128594e-20 0.0000000000000000e+00  -1.2955858961173253e-19 7.4033479778132872e-20 0.0000000000000000e+00  1.5025348629191401e-19 -2.6657876600178290e-20 0.0000000000000000e+00  -1.6387893223799118e-19 -5.1212166324372244e-21 0.0000000000000000e+00  -1.4631481051974182e-19 3.2965799826724363e-20 0.0000000000000000e+00  1.3155396825256800e-19 2.7407076719285003e-20 0.0000000000000000e+00  5.1556107649778141e-20 -2.1481711520740894e-20 0.0000000000000000e+00  8.6165559541219507e-20 1.2309365648745643e-20 0.0000000000000000e+00  8.3260870959349968e-20 -5.5620473104548876e-21 0.0000000000000000e+00  -5.7108181482565168e-20 -3.2123352083942908e-20 0.0000000000000000e+00  -3.6550597857850470e-21 -2.4671653554049069e-20 0.0000000000000000e+00  1.5332331752706822e-20 -3.8330829381767056e-21 0.0000000000000000e+00  -2.1856008687345337e-20 1.6598494969677236e-20 0.0000000000000000e+0