<?xml version="1.0"?>
<VTKFile type="UnstructuredGrid"  version="0.1"  >
<UnstructuredGrid>
<Piece  NumberOfPoints="18082" NumberOfCells="35500">
<Points>
<DataArray  type="Float64"  NumberOfComponents="3"  format="ascii">0 0 0  30 0 0  30 -10 0  0 -10 0  0.02360821169319077 0 0  0.04721642338638154 0 0  0.07206717063563725 0 0  0.09691791788489297 0 0  0.1230766011355843 0 0  0.1492352843862757 0 0  0.1767707375239038 0 0  0.204306190661532 0 0  0.2332908770901271 0 0  0.2622755635187223 0 0  0.2927857633803451 0 0  0.323295963241968 0 0  0.3554119623832387 0 0  0.3875279615245094 0 0  0.4213342730081758 0 0  0.4551405844918422 0 0  0.4907261762804851 0 0  0.526311768069128 0 0  0.5637702848355051 0 0  0.6012288016018821 0 0  0.6406588220121138 0 0  0.6800888424223455 0 0  0.721594129780935 0 0  0.7630994171395246 0 0  0.8067891887833475 0 0  0.8504789604271704 0 0  0.8964681941825949 0 0  0.9424574279380195 0 0  0.9908671465681095 0 0  1.039276865198199 0 0  1.090234462786975 0 0  1.141192060375751 0 0  1.194831641933244 0 0  1.248471223490737 0 0  1.304933942963653 0 0  1.361396662436569 0 0  1.420831104471586 0 0  1.480265546506604 0 0  1.542828113436244 0 0  1.605390680365884 0 0  1.671246013469327 0 0  1.73710134657277 0 0  1.806422752814762 0 0  1.875744159056755 0 0  1.948714057431306 0 0  2.021683955805857 0 0  2.098494373901932 0 0  2.175304791998006 0 0  2.256157866653476 0 0  2.337010941308945 0 0  2.422119443935387 0 0  2.50722794656183 0 0  2.596815840700639 0 0  2.686403734839449 0 0  2.780706776094687 0 0  2.875009817349925 0 0  2.974276175689285 0 0  3.073542534028646 0 0  3.178033441002704 0 0  3.282524347976761 0 0  3.392514777963501 0 0  3.502505207950242 0 0  3.618284608533553 0 0  3.734064009116865 0 0  3.855937062816526 0 0  3.977810116516187 0 0  4.106097541496641 0 0  4.234384966477093 0 0  4.369424362562147 0 0  4.5044637586472 0 0  4.646610489729194 0 0  4.788757220811188 0 0  4.938385356669961 0 0  5.088013492528733 0 0  5.24551679218304 0 0  5.403020091837347 0 0  5.568813038399614 0 0  5.73460598496188 0 0  5.909124878408681 0 0  6.083643771855482 0 0  6.267347873338513 0 0  6.451051974821543 0 0  6.644424714363561 0 0  6.83779745390558 0 0  7.041347702348167 0 0  7.244897950790754 0 0  7.459161368238869 0 0  7.673424785686984 0 0  7.898965226038037 0 0  8.124505666389089 0 0  8.361916654054033 0 0  8.599327641718979 0 0  8.849233942517035 0 0  9.099140243315093 0 0  9.362199507946787 0 0  9.625258772578484 0 0  9.902163261537794 0 0  10.1790677504971 0 0  10.47054616023911 0 0  10.76202456998112 0 0  11.06884394887334 0 0  11.37566332776555 0 0  11.69863109504192 0 0  12.02159886231829 0 0  12.3615649378891 0 0  12.7015310134599 0 0  13.05939003847426 0 0  13.41724906348862 0 0  13.79394276982091 0 0  14.1706364761532 0 0  14.5671561683298 0 0  14.96367586050641 0 0  15.38106501332897 0 0  15.79845416615153 0 0  16.23781117165827 0 0  16.677168177165 0 0  17.13964923659526 0 0  17.60213029602552 0 0  18.0889524622663 0 0  18.57577462850707 0 0  19.08821901304263 0 0  19.60066339757818 0 0  20.14007853843172 0 0  20.67949367928525 0 0  21.24729908993883 0 0  21.8151045005924 0 0  22.41279440541421 0 0  23.01048431023601 0 0  23.63963157605829 0 0  24.26877884188056 0 0  24.93103912515648 0 0  25.59329940843241 0 0  26.29041549584691 0 0  26.98753158326142 0 0  27.72133799026916 0 0  28.45514439727691 0 0  29.22757219863846 0 0  30 -0.3571428571428571 0  30 -0.7142857142857142 0  30 -1.071428571428571 0  30 -1.428571428571428 0  30 -1.785714285714286 0  30 -2.142857142857143 0  30 -2.5 0  30 -2.857142857142857 0  30 -3.214285714285714 0  30 -3.571428571428571 0  30 -3.928571428571428 0  30 -4.285714285714286 0  30 -4.642857142857142 0  30 -5 0  30 -5.357142857142857 0  30 -5.714285714285714 0  30 -6.071428571428571 0  30 -6.428571428571428 0  30 -6.785714285714285 0  30 -7.142857142857142 0  30 -7.5 0  30 -7.857142857142857 0  30 -8.214285714285714 0  30 -8.571428571428571 0  30 -8.928571428571427 0  30 -9.285714285714285 0  30 -9.642857142857142 0  29.22757220128658 -10 0  28.45514440257316 -10 0  27.72133799277628 -10 0  26.98753158297939 -10 0  26.29041549304805 -10 0  25.5932994031167 -10 0  24.93103911757599 -10 0  24.26877883203527 -10 0  23.63963156418132 -10 0  23.01048429632737 -10 0  22.41279438968936 -10 0  21.81510448305136 -10 0  21.24729907078059 -10 0  20.67949365850982 -10 0  20.14007851622273 -10 0  19.60066337393564 -10 0  19.08821898813588 -10 0  18.57577460233611 -10 0  18.08895243498708 -10 0  17.60213026763805 -10 0  17.13964920724307 -10 0  16.6771681468481 -10 0  16.2378111405086 -10 0  15.79845413416909 -10 0  15.38106498063496 -10 0  14.96367582710082 -10 0  14.56715613432376 -10 0  14.17063644154669 -10 0  13.79394273471576 -10 0  13.41724902788484 -10 0  13.05939000246495 -10 0  12.70153097704506 -10 0  12.36156490115379 -10 0  12.02159882526251 -10 0  11.69863105774323 -10 0  11.37566329022395 -10 0  11.06884391115945 -10 0  10.76202453209494 -10 0  10.47054612224479 -10 0  10.17906771239465 -10 0  9.902163223385379 -10 0  9.625258734376107 -10 0  9.362199469747061 -10 0  9.099140205118012 -10 0  8.849233904370102 -10 0  8.599327603622193 -10 0  8.361916616050124 -10 0  8.124505628478055 -10 0  7.898965188258209 -10 0  7.673424748038361 -10 0  7.459161330755727 -10 0  7.244897913473093 -10 0  7.041347665226496 -10 0  6.837797416979896 -10 0  6.644424677660922 -10 0  6.451051938341948 -10 0  6.26734783710581 -10 0  6.083643735869675 -10 0  5.90912484269068 -10 0  5.734605949511682 -10 0  5.568813003235423 -10 0  5.403020056959164 -10 0  5.24551675760658 -10 0  5.088013458254 -10 0  4.938385322710374 -10 0  4.788757187166745 -10 0  4.646610456411224 -10 0  4.504463725655707 -10 0  4.369424329906533 -10 0  4.234384934157362 -10 0  4.106097509520442 -10 0  3.977810084883522 -10 0  3.85593703153344 -10 0  3.734063978183357 -10 0  3.618284577954206 -10 0  3.502505177725055 -10 0  3.392514748095728 -10 0  3.282524318466404 -10 0  3.1780334118518 -10 0  3.073542505237196 -10 0  2.97427614725823 -10 0  2.875009789279265 -10 0  2.780706748384375 -10 0  2.686403707489482 -10 0  2.596815813710069 -10 0  2.507227919930656 -10 0  2.422119417661861 -10 0  2.337010915393062 -10 0  2.256157841092762 -10 0  2.175304766792465 -10 0  2.098494349048437 -10 0  2.021683931304413 -10 0  1.948714033278215 -10 0  1.875744135252013 -10 0  1.806422729354161 -10 0  1.737101323456312 -10 0  1.671245990692352 -10 0  1.605390657928396 -10 0  1.542828091333185 -10 0  1.480265524737977 -10 0  1.420831083031992 -10 0  1.36139664132601 -10 0  1.304933922176438 -10 0  1.248471203026863 -10 0  1.194831621786765 -10 0  1.14119204054667 -10 0  1.09023444350921 -10 0  1.039276846471754 -10 0  0.9908671279064798 -10 0  0.942457409341209 -10 0  0.8964681758842019 -10 0  0.8504789424271948 -10 0  0.8067891710751951 -10 0  0.7630993997231954 -10 0  0.7215941126497469 -10 0  0.6800888255762949 -10 0  0.6406588054444597 -10 0  0.6012287853126246 -10 0  0.5637702688178621 -10 0  0.5263117523230996 -10 0  0.4907261607992695 -10 0  0.4551405692754429 -10 0  0.4213342580497894 -10 0  0.3875279468241395 -10 0  0.3554119479341011 -10 0  0.3232959490440663 -10 0  0.2927857494269297 -10 0  0.2622755498097931 -10 0  0.2332908636189828 -10 0  0.2043061774281725 -10 0  0.1767707245216883 -10 0  0.1492352716152006 -10 0  0.1230765885890825 -10 0  0.09691790556296098 -10 0  0.0720671585317838 -10 0  0.04721641150060663 -10 0  0.02360820575030331 -10 0  0 -9.972067039106145 0  0 -9.94413407821229 0  0 -9.916201117318435 0  0 -9.888268156424582 0  0 -9.860335195530727 0  0 -9.832402234636872 0  0 -9.804469273743017 0  0 -9.776536312849162 0  0 -9.748603351955307 0  0 -9.720670391061452 0  0 -9.692737430167599 0  0 -9.664804469273744 0  0 -9.636871508379889 0  0 -9.608938547486034 0  0 -9.581005586592179 0  0 -9.553072625698324 0  0 -9.525139664804469 0  0 -9.497206703910614 0  0 -9.46927374301676 0  0 -9.441340782122905 0  0 -9.41340782122905 0  0 -9.385474860335195 0  0 -9.35754189944134 0  0 -9.329608938547485 0  0 -9.30167597765363 0  0 -9.273743016759777 0  0 -9.245810055865922 0  0 -9.217877094972067 0  0 -9.189944134078212 0  0 -9.162011173184357 0  0 -9.134078212290502 0  0 -9.106145251396647 0  0 -9.078212290502794 0  0 -9.050279329608939 0  0 -9.022346368715084 0  0 -8.994413407821229 0  0 -8.966480446927374 0  0 -8.938547486033519 0  0 -8.910614525139664 0  0 -8.882681564245811 0  0 -8.854748603351956 0  0 -8.826815642458101 0  0 -8.798882681564246 0  0 -8.770949720670391 0  0 -8.743016759776536 0  0 -8.715083798882681 0  0 -8.687150837988828 0  0 -8.659217877094973 0  0 -8.631284916201118 0  0 -8.603351955307263 0  0 -8.575418994413408 0  0 -8.547486033519553 0  0 -8.519553072625698 0  0 -8.491620111731844 0  0 -8.463687150837989 0  0 -8.435754189944134 0  0 -8.407821229050279 0  0 -8.379888268156424 0  0 -8.351955307262569 0  0 -8.324022346368714 0  0 -8.296089385474861 0  0 -8.268156424581006 0  0 -8.240223463687151 0  0 -8.212290502793296 0  0 -8.184357541899441 0  0 -8.156424581005586 0  0 -8.128491620111731 0  0 -8.100558659217878 0  0 -8.072625698324023 0  0 -8.044692737430168 0  0 -8.016759776536313 0  0 -7.988826815642458 0  0 -7.960893854748603 0  0 -7.932960893854748 0  0 -7.905027932960894 0  0 -7.877094972067039 0  0 -7.849162011173184 0  0 -7.82122905027933 0  0 -7.793296089385475 0  0 -7.76536312849162 0  0 -7.737430167597765 0  0 -7.709497206703911 0  0 -7.681564245810056 0  0 -7.653631284916202 0  0 -7.625698324022347 0  0 -7.597765363128492 0  0 -7.569832402234637 0  0 -7.541899441340782 0  0 -7.513966480446927 0  0 -7.486033519553073 0  0 -7.458100558659218 0  0 -7.430167597765363 0  0 -7.402234636871508 0  0 -7.374301675977653 0  0 -7.346368715083798 0  0 -7.318435754189944 0  0 -7.290502793296089 0  0 -7.262569832402235 0  0 -7.23463687150838 0  0 -7.206703910614525 0  0 -7.17877094972067 0  0 -7.150837988826815 0  0 -7.12290502793296 0  0 -7.094972067039106 0  0 -7.067039106145251 
[...]
<PointData  Vectors="displacement"> 
<DataArray  type="Float64"  Name="displacement"  NumberOfComponents="3" format="ascii">1.0000000000000003e-01 5.4535802906139262e-02 0.0000000000000000e+00  6.1861785080620995e-20 1.5066775556699652e-03 0.0000000000000000e+00  7.0987676237257436e-22 -6.5299971948825343e-22 0.0000000000000000e+00  -8.6249054806867800e-23 0.0000000000000000e+00 0.0000000000000000e+00  1.0000838134605772e-01 5.4468900396238112e-02 0.0000000000000000e+00  1.0000404984074519e-01 5.4325617727245624e-02 0.0000000000000000e+00  9.9983343757686943e-02 5.4093880162026188e-02 0.0000000000000000e+00  9.9949926846943413e-02 5.3772729026820024e-02 0.0000000000000000e+00  9.9886011393170743e-02 5.3345850351533247e-02 0.0000000000000000e+00  9.9798557199061458e-02 5.2827991968822673e-02 0.0000000000000000e+00  9.9674993758120001e-02 5.2190975834645860e-02 0.0000000000000000e+00  9.9515029996583571e-02 5.1465224644653425e-02 0.0000000000000000e+00  9.9304522615208515e-02 5.0610602044347953e-02 0.0000000000000000e+00  9.9044599980099457e-02 4.9671922359400551e-02 0.0000000000000000e+00  9.8716802631216766e-02 4.8598996705954640e-02 0.0000000000000000e+00  9.8327572166721985e-02 4.7450970305846212e-02 0.0000000000000000e+00  9.7851018422062730e-02 4.6170474448869653e-02 0.0000000000000000e+00  9.7303456862744511e-02 4.4826646295666114e-02 0.0000000000000000e+00  9.6648459570200948e-02 4.3367576477919084e-02 0.0000000000000000e+00  9.5917889625451239e-02 4.1862557124515996e-02 0.0000000000000000e+00  9.5066817806761073e-02 4.0253288894988942e-02 0.0000000000000000e+00  9.4137484043426006e-02 3.8626307591635455e-02 0.0000000000000000e+00  9.3083202437574938e-02 3.6917717415338912e-02 0.0000000000000000e+00  9.1955978192471172e-02 3.5216239418205682e-02 0.0000000000000000e+00  9.0698355879630849e-02 3.3451492344792923e-02 0.0000000000000000e+00  8.9377525645229772e-02 3.1722271783699962e-02 0.0000000000000000e+00  8.7935608031946652e-02 2.9958478378342760e-02 0.0000000000000000e+00  8.6448566503228977e-02 2.8255026884108816e-02 0.0000000000000000e+00  8.4838107467431076e-02 2.6526663889829650e-02 0.0000000000000000e+00  8.3199577898548746e-02 2.4882162991789428e-02 0.0000000000000000e+00  8.1468940480137142e-02 2.3242428988624407e-02 0.0000000000000000e+00  7.9728289072012209e-02 2.1694833408333711e-02 0.0000000000000000e+00  7.7914217292071777e-02 2.0159519134242705e-02 0.0000000000000000e+00  7.6114495403295221e-02 1.8720096626496461e-02 0.0000000000000000e+00  7.4235923104393961e-02 1.7308888380307155e-02 0.0000000000000000e+00  7.2393045538290901e-02 1.5997960929634448e-02 0.0000000000000000e+00  7.0496177876065755e-02 1.4722496520522878e-02 0.0000000000000000e+00  6.8649962286661023e-02 1.3545860994447472e-02 0.0000000000000000e+00  6.6769061112112296e-02 1.2396011891970957e-02 0.0000000000000000e+00  6.4947303914578466e-02 1.1337810401177139e-02 0.0000000000000000e+00  6.3097116443318571e-02 1.0313892446443644e-02 0.0000000000000000e+00  6.1315244827746425e-02 9.3748669125139281e-03 0.0000000000000000e+00  5.9512950210198617e-02 8.4669878544575659e-03 0.0000000000000000e+00  5.7785082187370856e-02 7.6454134728396713e-03 0.0000000000000000e+00  5.6047167369134031e-02 6.8376077863316819e-03 0.0000000000000000e+00  5.4384341090514439e-02 6.1035855486820875e-03 0.0000000000000000e+00  5.2710711210089967e-02 5.4066741472435197e-03 0.0000000000000000e+00  5.1115698012141476e-02 4.7679692493989984e-03 0.0000000000000000e+00  4.9516003489473326e-02 4.1552385119758891e-03 0.0000000000000000e+00  4.7993122340615639e-02 3.5975532861878532e-03 0.0000000000000000e+00  4.6468481684023871e-02 3.0620471128118333e-03 0.0000000000000000e+00  4.5019044421178107e-02 2.5757367835532920e-03 0.0000000000000000e+00  4.3569358675368028e-02 2.1160190900580992e-03 0.0000000000000000e+00  4.2194753875339407e-02 1.7034176118934337e-03 0.0000000000000000e+00  4.0820660552778429e-02 1.3006107608476778e-03 0.0000000000000000e+00  3.9517924863410381e-02 9.4195466595137418e-04 0.0000000000000000e+00  3.8217667773198551e-02 5.9847337199444325e-04 0.0000000000000000e+00  3.6985111357378010e-02 2.8984932433350819e-04 0.0000000000000000e+00  3.5753763810282974e-02 -1.9551314941958351e-07 0.0000000000000000e+00  3.4588599981855012e-02 -2.5316285624820111e-04 0.0000000000000000e+00  3.3426553255532891e-02 -4.9825803531831090e-04 0.0000000000000000e+00  3.2327187692006647e-02 -7.1437235682779074e-04 0.0000000000000000e+00  3.1229407305752542e-02 -9.1604725590573542e-04 0.0000000000000000e+00  3.0190383594070912e-02 -1.0927592082732405e-03 0.0000000000000000e+00  2.9155729459574283e-02 -1.2574463550653410e-03 0.0000000000000000e+00  2.8177467890367808e-02 -1.4014912963566716e-03 0.0000000000000000e+00  2.7201555275977465e-02 -1.5299133097461668e-03 0.0000000000000000e+00  2.6281463817015308e-02 -1.6339278626060297e-03 0.0000000000000000e+00  2.5356277638235562e-02 -1.7394257229216797e-03 0.0000000000000000e+00  2.4481735927222300e-02 -1.8202466555586267e-03 0.0000000000000000e+00  2.3614095722363761e-02 -1.8876983721383411e-03 0.0000000000000000e+00  2.2793356462396764e-02 -1.9394115522054559e-03 0.0000000000000000e+00  2.1975120094055875e-02 -1.9827605571632375e-03 0.0000000000000000e+00  2.1201181562697714e-02 -2.0111502463612376e-03 0.0000000000000000e+00  2.0431270935463007e-02 -2.0268039494806067e-03 0.0000000000000000e+00  1.9703583606867515e-02 -2.0314649778049262e-03 0.0000000000000000e+00  1.8979482203538119e-02 -2.0242538103431035e-03 0.0000000000000000e+00  1.8295467685386868e-02 -2.0075566350472988e-03 0.0000000000000000e+00  1.7615011915143912e-02 -1.9798452936957266e-03 0.0000000000000000e+00  1.6972771462289305e-02 -1.9435871702185934e-03 0.0000000000000000e+00  1.6334535071359197e-02 -1.8964203177211532e-03 0.0000000000000000e+00  1.5734150990318697e-02 -1.8383832951520433e-03 0.0000000000000000e+00  1.5132285220673398e-02 -1.7774558780794915e-03 0.0000000000000000e+00  1.4565637086777893e-02 -1.7036537084081653e-03 0.0000000000000000e+00  1.4005333651713373e-02 -1.6223848074043157e-03 0.0000000000000000e+00  1.3477469584874908e-02 -1.5353126884638999e-03 0.0000000000000000e+00  1.2955587932681662e-02 -1.4360659529650786e-03 0.0000000000000000e+00  1.2464877963736709e-02 -1.3344777984626831e-03 0.0000000000000000e+00  1.1978977741114841e-02 -1.2242808283126321e-03 0.0000000000000000e+00  1.1524000750081259e-02 -1.1122808099824396e-03 0.0000000000000000e+00  1.1071622064619289e-02 -9.9173693073048423e-04 0.0000000000000000e+00  1.0649643999599834e-02 -8.6719383674106190e-04 0.0000000000000000e+00  1.0228402934863184e-02 -7.3911968734509316e-04 0.0000000000000000e+00  9.8352446950195314e-03 -6.0779338917793144e-04 0.0000000000000000e+00  9.4490610541046460e-03 -4.7086804738386034e-04 0.0000000000000000e+00  9.0868416721954174e-03 -3.3854985078478382e-04 0.0000000000000000e+00  8.7390440353814734e-03 -1.9086214615777881e-04 0.0000000000000000e+00  8.4168906284984839e-03 -5.2801709739242981e-05 0.0000000000000000e+00  8.0886331796593252e-03 8.7605582821009186e-05 0.0000000000000000e+00  7.7848506388639993e-03 2.2698130319498121e-04 0.0000000000000000e+00  7.4899955441466107e-03 3.6772005155314325e-04 0.0000000000000000e+00  7.2169079354982291e-03 5.0507415031489085e-04 0.0000000000000000e+00  6.9484517536370066e-03 6.4245613901379702e-04 0.0000000000000000e+00  6.7011079285303485e-03 7.7380714079587935e-04 0.0000000000000000e+00  6.4559196549901473e-03 9.0125410970005122e-04 0.0000000000000000e+00  6.2291729494867261e-03 1.0228823199602856e-03 0.0000000000000000e+00  6.0066585953125664e-03 1.1420823335049387e-03 0.0000000000000000e+00  5.8003547457499572e-03 1.2535257897357320e-03 0.0000000000000000e+00  5.5981099376532705e-03 1.3606209144277136e-03 0.0000000000000000e+00  5.4104099602194497e-03 1.4590493039896692e-03 0.0000000000000000e+00  5.2247634257857559e-03 1.5516171281683803e-03 0.0000000000000000e+00  5.0530475172948482e-03 1.6357061979351141e-03 0.0000000000000000e+00  4.8771380494347137e-03 1.7096913014378690e-03 0.0000000000000000e+00  4.7119119898842042e-03 1.7759961561881932e-03 0.0000000000000000e+00  4.5507407779005948e-03 1.8369024167509994e-03 0.0000000000000000e+00  4.3967484317500244e-03 1.8865052653387099e-03 0.0000000000000000e+00  4.2426118011685519e-03 1.9287021071497600e-03 0.0000000000000000e+00  4.0940839195751514e-03 1.9605487040640903e-03 0.0000000000000000e+00  3.9447118079318560e-03 1.9860951048781511e-03 0.0000000000000000e+00  3.8001835991387663e-03 2.0018761737147180e-03 0.0000000000000000e+00  3.6507326558201376e-03 2.0095528483487480e-03 0.0000000000000000e+00  3.5059444597502465e-03 2.0102873150179518e-03 0.0000000000000000e+00  3.3531201672193293e-03 2.0034419518304247e-03 0.0000000000000000e+00  3.2031311703375658e-03 1.9907710095224533e-03 0.0000000000000000e+00  3.0535812890800694e-03 1.9746602774575396e-03 0.0000000000000000e+00  2.9041814011904372e-03 1.9511747320761998e-03 0.0000000000000000e+00  2.7429085108149846e-03 1.9215156367168623e-03 0.0000000000000000e+00  2.5853350460321198e-03 1.8892845648722522e-03 0.0000000000000000e+00  2.4219864108169335e-03 1.8586119153199926e-03 0.0000000000000000e+00  2.2604733333350816e-03 1.8186897593689968e-03 0.0000000000000000e+00  2.0932219200812019e-03 1.7850562354999658e-03 0.0000000000000000e+00  1.9249363202665012e-03 1.7480554251402441e-03 0.0000000000000000e+00  1.7443394113448114e-03 1.7081174057587763e-03 0.0000000000000000e+00  1.5668039525297498e-03 1.6716915936137065e-03 0.0000000000000000e+00  1.3830777925319809e-03 1.6392436633022520e-03 0.0000000000000000e+00  1.1996423470266328e-03 1.6082891122930934e-03 0.0000000000000000e+00  1.0081939574694116e-03 1.5797251499095465e-03 0.0000000000000000e+00  8.1763642417077690e-04 1.5551629972899968e-03 0.0000000000000000e+00  6.1616043334713393e-04 1.5357180532613957e-03 0.0000000000000000e+00  4.1472612198844357e-04 1.5192624731150976e-03 0.0000000000000000e+00  2.0780767882975530e-04 1.5149590845785661e-03 0.0000000000000000e+00  -2.6730079541676542e-20 1.4442515020833279e-03 0.0000000000000000e+00  5.5861689667175602e-21 1.3625961291617993e-03 0.0000000000000000e+00  4.3854036748063112e-21 1.2761158841459251e-03 0.0000000000000000e+00  1.2541608563849345e-20 1.1904605390289321e-03 0.0000000000000000e+00  6.1030002340259464e-22 1.1067761454339696e-03 0.0000000000000000e+00  -1.1830883713662640e-20 1.0245850321752323e-03 0.0000000000000000e+00  0.0000000000000000e+00 9.4423961921652336e-04 0.0000000000000000e+00  -2.2996027610448199e-20 8.6600443217730617e-04 0.0000000000000000e+00  -5.5615633240998717e-21 7.9003232542674173e-04 0.0000000000000000e+00  9.1687873547384317e-21 7.1644933486028249e-04 0.0000000000000000e+00  -1.7376436134177113e-20 6.4525257350531281e-04 0.0000000000000000e+00  -1.9019595223335623e-21 5.7696714453433150e-04 0.0000000000000000e+00  1.9401306541130810e-21 5.1122207429042546e-04 0.0000000000000000e+00  3.5303202956327252e-21 4.4856842917768720e-04 0.0000000000000000e+00  1.5047360407434609e-20 3.8914031538609436e-04 0.0000000000000000e+00  1.3781159723337119e-20 3.3308541227847818e-04 0.0000000000000000e+00  1.8915777479691894e-20 2.8102258584560149e-04 0.0000000000000000e+00  9.0287462907270470e-21 2.3291945814817009e-04 0.0000000000000000e+00  7.7819956406356053e-21 1.8881246599175319e-04 0.0000000000000000e+00  3.8594611984835172e-21 1.4889886356875924e-04 0.0000000000000000e+00  1.3689811802443316e-21 1.1273739696133894e-04 0.0000000000000000e+00  -2.0032906870745242e-22 8.1501501569198289e-05 0.0000000000000000e+00  3.7637702491865310e-21 5.5347564700043180e-05 0.0000000000000000e+00  -8.0376780918301189e-21 3.4195630469892168e-05 0.0000000000000000e+00  -3.4609124250507024e-21 1.8953479037488042e-05 0.0000000000000000e+00  4.6361175700873376e-21 9.0739747172219196e-06 0.0000000000000000e+00  4.4604181920464344e-21 1.4851390358883167e-06 0.0000000000000000e+00  2.0795067869066541e-21 -7.4268099532380496e-22 0.0000000000000000e+00  4.4415438969481618e-21 9.1997296516749022e-22 0.0000000000000000e+00  2.1323811961147413e-20 -2.4231604501303878e-22 0.0000000000000000e+00  -4.9197437926093228e-21 -2.3757551646255894e-21 0.0000000000000000e+00  -8.6168205760398183e-21 5.3855128600248865e-22 0.0000000000000000e+00  -5.6420831273194095e-21 -4.2315623454895567e-22 0.0000000000000000e+00  9.0296017101580864e-21 -7.0543763360610047e-22 0.0000000000000000e+00  -8.4763736548439139e-21 -4.1348164169970316e-22 0.0000000000000000e+00  3.6915048806336517e-20 8.6519645639851203e-22 0.0000000000000000e+00  -5.1236312910045212e-20 -2.7845822233720222e-21 0.0000000000000000e+00  9.2494042061050818e-20 -2.6013949329670542e-21 0.0000000000000000e+00  1.1536222932159163e-19 -4.0959144338089371e-22 0.0000000000000000e+00  -8.7495594688732705e-20 -9.7651333357960625e-22 0.0000000000000000e+00  4.2715060681908812e-20 1.0268043433151158e-21 0.0000000000000000e+00  1.3623970421662780e-20 1.1708099581116452e-21 0.0000000000000000e+00  -1.1739221352409338e-19 -1.6180734788198137e-22 0.0000000000000000e+00  2.9867778270201794e-20 -6.4169054877386669e-22 0.0000000000000000e+00  -1.6091623029720371e-20 -3.2214675010670665e-22 0.0000000000000000e+00  1.6927333701157821e-20 -1.9010189215167474e-22 0.0000000000000000e+00  -4.9551997458099124e-20 1.3258655990163633e-22 0.0000000000000000e+00  -7.1118538534688838e-20 4.7624021340193420e-22 0.0000000000000000e+00  7.1462977697604010e-20 -7.0305012781207649e-22 0.0000000000000000e+00  -2.1422368909148753e-20 1.6736225710272464e-22 0.0000000000000000e+00  -1.1143795451067157e-19 -1.3431147418652251e-21 0.0000000000000000e+00  5.9275058473908716e-20 -9.2617278865482368e-22 0.0000000000000000e+00  -3.2391081941138910e-20 -2.6992568284282423e-21 0.0000000000000000e+00  -2.5520872989173543e-20 7.9752728091167323e-22 0.0000000000000000e+00  3.1578780780484162e-20 -1.1167438440157981e-20 0.0000000000000000e+00  -2.6313943944485481e-20 -1.3156971972242741e-20 0.0000000000000000e+00  -5.4883885799054847e-21 5.6027300086535149e-21 0.0000000000000000e+00  6.6643822147008788e-20 2.0826194420940246e-21 0.0000000000000000e+00  5.5461301957641522e-20 4.7577097267584637e-22 0.0000000000000000e+00  9.1156672512186053e-21 -2.2789168128046513e-21 0.0000000000000000e+00  1.8690550156972244e-20 -6.5708965395605545e-21 0.0000000000000000e+00  3.8279105710174684e-20 -5.9811102672147946e-21 0.0000000000000000e+00  4.2170045276789397e-20 -3.4875102031395990e-21 0.0000000000000000e+00  4.9984409703820898e-20 0.0000000000000000e+00 0.0000000000000000e+00  -1.9598358466104727e-20 0.0000000000000000e+00 0.0000000000000000e+00  4.9246932202800208e-20 -1.2311733050700052e-20 0.0000000000000000e+00  1.9359347941784603e-20 -5.2993399558567400e-21 0.0000000000000000e+00  -6.4331852872392202e-21 1.6082963218098051e-21 0.0000000000000000e+00  -9.8325262931308440e-21 -2.5650068590776117e-21 0.0000000000000000e+00  1.1055545928617622e-20 5.5277729643088109e-21 0.0000000000000000e+00  1.4525877912388825e-21 1.7223217639668929e-21 0.0000000000000000e+00  -5.2490261293766084e-22 4.1992209035012867e-21 0.0000000000000000e+00  8.2855912626442884e-21 -5.5237275084295254e-21 0.0000000000000000e+00  -1.1452000212057874e-20 -1.2597200233263662e-20 0.0000000000000000e+00  -2.4172794856186975e-20 6.1436981724872149e-21 0.0000000000000000e+00  3.3281432958272537e-20 4.7544904226103626e-21 0.0000000000000000e+00  -1.4883800177030350e-20 1.3738892471104939e-20 0.0000000000000000e+00  -2.6941104075748693e-20 1.4593098041030544e-20 0.0000000000000000e+00  -4.6893283682437282e-20 -1.1964928292638784e-20 0.0000000000000000e+00  2.4370882487918479e-20 -7.6159007774745247e-22 0.0000000000000000e+00  -5.4846488679834349e-20 -9.0208040591832820e-22 0.0000000000000000e+00  2.2443048308896590e-20 -1.4026905193060369e-21 0.0000000000000000e+00  3.0084561462834070e-20 1.4829508669795806e-21 0.0000000000000000e+00  1.5039330330012430e-20 9.3995814562577689e-22 0.0000000000000000e+00  4.3186142632638476e-20 2.4537581041271861e-21 0.0000000000000000e+00  -6.5153679017835759e-20 4.0721049386147349e-21 0.0000000000000000e+00  -1.2310398553174935e-19 2.9127663768635669e-21 0.0000000000000000e+00  1.4387565240654993e-19 2.2480570688523426e-21 0.0000000000000000e+00  -4.7345454312138544e-21 -1.1096590854407471e-21 0.0000000000000000e+00  1.9863671555697917e-20 3.1036986805777995e-22 0.0000000000000000e+00  -2.5805862477380339e-20 -1.1126736590326175e-21 0.0000000000000000e+00  -5.5478120418276281e-20 -1.3869530104569070e-21 0.0000000000000000e+00  -4.7068478372448895e-20 -2.2982655455297312e-23 0.0000000000000000e+00  7.4944234440273311e-20 1.9516727718821176e-22 0.0000000000000000e+00  -5.3738970277628440e-20 -3.5093137198236608e-22 0.0000000000000000e+00  -4.0820992673997694e-20 7.0426842829488210e-22 0.0000000000000000e+00  -4.2227929502634115e-20 2.2949961686214193e-22 0.0000000000000000e+00  7.6464016646036989e-20 -2.3895005201886561e-22 0.0000000000000000e+00  4.7296590714234564e-20 3.2218663975371031e-22 0.0000000000000000e+00  5.1876371608508763e-20 1.3509471773049157e-21 0.0000000000000000e+00  4.7202783450091186e-20 7.0242237276921408e-22 0.0000000000000000e+00  -3.8565466948447754e-20 -1.5064635526737404e-21 0.0000000000000000e+00  -1.2020635708335478e-19 3.9297972119189604e-21 0.0000000000000000e+00  2.0422250122904012e-20 -3.1909765817037519e-21 0.0000000000000000e+00  4.4813985401809645e-20 3.1898843775593672e-21 0.0000000000000000e+00  -9.5073138732571362e-20 3.3011506504365054e-21 0.0000000000000000e+00  -1.4060764093100642e-20 5.5943282709656991e-22 0.0000000000000000e+00  2.8266085314590779e-20 2.0610687208555775e-21 0.0000000000000000e+00  -2.8211036057171431e-20 0.0000000000000000e+00 0.0000000000000000e+00  -3.8849489779413034e-20 1.9424744889706517e-21 0.0000000000000000e+00  1.0728307882746048e-19 -2.8449747165536994e-21 0.0000000000000000e+00  1.5764284910809498e-20 -1.3136904092341249e-21 0.0000000000000000e+00  0.0000000000000000e+00 6.2559257468626709e-21 0.0000000000000000e+00  -1.1482036447025180e-19 1.5377727384408724e-21 0.0000000000000000e+00  1.4357012349598856e-19 6.1556314702446040e-21 0.0000000000000000e+00  1.9181475049678941e-20 -1.1988421906049338e-21 0.0000000000000000e+00  -5.7790207580877052e-20 8.3997394739646874e-23 0.0000000000000000e+00  -3.0512666126419262e-20 2.2884499594814446e-21 0.0000000000000000e+00  1.3798431996544289e-20 2.1070826903467959e-21 0.0000000000000000e+00  -3.0915925038867596e-20 -7.7289812597168986e-22 0.0000000000000000e+00  -1.4660530976405998e-20 -1.0180924289170833e-21 0.0000000000000000e+00  6.8568060976479630e-21 4.2855038110299769e-21 0.0000000000000000e+00  -2.6078843995193268e-20 2.2784674227379380e-21 0.0000000000000000e+00  -7.1694500790183228e-21 1.7923625197545807e-21 0.0000000000000000e+00  -1.8906940910615719e-20 -2.2508262988828235e-21 0.0000000000000000e+00  -1.4469233994904915e-20 6.3302898727709004e-21 0.0000000000000000e+00  3.4407188870534846e-20 -2.6371984361239774e-21 0.0000000000000000e+00  1.3894039838809720e-20 0.0000000000000000e+00 0.0000000000000000e+00  4.1469369786624937e-21 -6.4795890291601465e-23 0.0000000000000000e+00  -1.4899272380588389e-20 6.2080301585784959e-22 0.0000000000000000e+00  -6.6523722336080301e-21 1.9500351705910862e-21 0.0000000000000000e+00  -3.5412635172371727e-21 1.7706317586185864e-21 0.0000000000000000e+00  -6.3371840332895115e-21 1.2872405067619319e-21 0.0000000000000000e+00  -1.9625159165454093e-20 1.4017970832467209e-21 0.0000000000000000e+00  -2.7193221990106816e-20 3.6869023358283331e-21 0.0000000000000000e+00  1.6754223350432444e-20 -2.5131335025648667e-21 0.0000000000000000e+00  -4.3718764666610296e-22 1.7487505866644119e-21 0.0000000000000000e+00  2.0394378492857404e-20 1.3905258063311868e-21 0.0000000000000000e+00  2.5884136453545346e-21 -1.1419471964799417e-21 0.0000000000000000e+00  -1.6387505505175225e-20 1.0242190940734516e-21 0.0000000000000000e+00  0.0000000000000000e+00 6.6867254092895435e-22 