<?xml version="1.0"?>
<VTKFile type="UnstructuredGrid"  version="0.1"  >
<UnstructuredGrid>
<Piece  NumberOfPoints="1691" NumberOfCells="3204">
<Points>
<DataArray  type="Float64"  NumberOfComponents="3"  format="ascii">0 0 0  30 0 0  30 -10 0  0 -10 0  0.1391574078963744 0 0  0.2856388821882616 0 0  0.4398299073010886 0 0  0.6021362569539473 0 0  0.7729850389704483 0 0  0.9528258543586996 0 0  1.142131984380316 0 0  1.34140159760994 0 0  1.551159074717981 0 0  1.771956417032531 0 0  2.004374674080994 0 0  2.249025475789527 0 0  2.506552636773105 0 0  2.777633857742732 0 0  3.062982518028728 0 0  3.363349525995907 0 0  3.679525322337712 0 0  4.01234195575742 0 0  4.362675247811097 0 0  4.731447135329707 0 0  5.119628065610077 0 0  5.528239565804708 0 0  5.958356943167011 0 0  6.411112081475485 0 0  6.887696441559404 0 0  7.389364184530748 0 0  7.917435485335147 0 0  8.473300005202017 0 0  9.058420557070402 0 0  9.674336929103793 0 0  10.32266995225095 0 0  11.00512576896296 0 0  11.72350030646412 0 0  12.47968402994705 0 0  13.27566689579597 0 0  14.1135435963616 0 0  14.9955190732806 0 0  15.92391430904694 0 0  16.90117245730496 0 0  17.92986524844506 0 0  19.01269976086341 0 0  20.15252556282024 0 0  21.35234220269763 0 0  22.61530708683689 0 0  23.94474379751883 0 0  25.34415086349739 0 0  26.81721093579712 0 0  28.3678004819169 0 0  30 -1.111111111111111 0  30 -2.222222222222222 0  30 -3.333333333333333 0  30 -4.444444444444445 0  30 -5.555555555555555 0  30 -6.666666666666666 0  30 -7.777777777777777 0  30 -8.888888888888889 0  28.36780047917311 -10 0  26.8172109305839 -10 0  25.34415085606858 -10 0  23.94474378810899 -10 0  22.61530707566275 -10 0  21.3523421899591 -10 0  20.15252554870171 -10 0  19.01269974553473 -10 0  17.92986523206254 -10 0  16.90117244001232 -10 0  15.92391429097614 -10 0  14.99551905455266 -10 0  14.11354357708742 -10 0  13.27566687607703 -10 0  12.47968400987599 -10 0  11.72350028612546 -10 0  11.00512574843363 -10 0  10.32266993160086 -10 0  9.674336908396342 -10 0  9.058420536362949 -10 0  8.473299984546333 -10 0  7.917435464777824 -10 0  7.389364164113587 -10 0  6.887696420787165 -10 0  6.411112061446698 -10 0  5.95835692337857 -10 0  5.528239546282652 -10 0  5.119628046377237 -10 0  4.731447115907979 -10 0  4.362675229213632 -10 0  4.012341937260036 -10 0  3.679525304434552 -10 0  3.363349508456405 -10 0  3.062982500861274 -10 0  2.777633840953978 -10 0  2.506552620368097 -10 0  2.249025459771861 -10 0  2.004374658452946 -10 0  1.771956401795187 -10 0  1.551159059871345 -10 0  1.341401583153029 -10 0  1.142131970307521 -10 0  0.9528258406748833 -10 0  0.7729850256685147 -10 0  0.6021362439621285 -10 0  0.4398298947504031 -10 0  0.2856388700059078 -10 0  0.1391573960769001 -10 0  0 -9.855072463768115 0  0 -9.710144927536232 0  0 -9.565217391304348 0  0 -9.420289855072463 0  0 -9.27536231884058 0  0 -9.130434782608695 0  0 -8.985507246376812 0  0 -8.840579710144928 0  0 -8.695652173913043 0  0 -8.55072463768116 0  0 -8.405797101449275 0  0 -8.260869565217391 0  0 -8.115942028985508 0  0 -7.971014492753623 0  0 -7.826086956521739 0  0 -7.681159420289855 0  0 -7.536231884057971 0  0 -7.391304347826087 0  0 -7.246376811594203 0  0 -7.101449275362318 0  0 -6.956521739130435 0  0 -6.811594202898551 0  0 -6.666666666666667 0  0 -6.521739130434783 0  0 -6.376811594202898 0  0 -6.231884057971015 0  0 -6.086956521739131 0  0 -5.942028985507246 0  0 -5.797101449275362 0  0 -5.652173913043478 0  0 -5.507246376811594 0  0 -5.36231884057971 0  0 -5.217391304347826 0  0 -5.072463768115941 0  0 -4.927536231884058 0  0 -4.782608695652174 0  0 -4.637681159420289 0  0 -4.492753623188406 0  0 -4.347826086956522 0  0 -4.202898550724638 0  0 -4.057971014492754 0  0 -3.913043478260869 0  0 -3.768115942028985 0  0 -3.623188405797101 0  0 -3.478260869565217 0  0 -3.333333333333334 0  0 -3.188405797101449 0  0 -3.043478260869565 0  0 -2.898550724637681 0  0 -2.753623188405797 0  0 -2.608695652173912 0  0 -2.463768115942029 0  0 -2.318840579710145 0  0 -2.173913043478261 0  0 -2.028985507246377 0  0 -1.884057971014492 0  0 -1.739130434782609 0  0 -1.594202898550725 0  0 -1.44927536231884 0  0 -1.304347826086957 0  0 -1.159420289855072 0  0 -1.014492753623188 0  0 -0.8695652173913047 0  0 -0.72463768115942 0  0 -0.579710144927537 0  0 -0.4347826086956523 0  0 -0.2898550724637676 0  0 -0.1449275362318829 0  0.1309460514202492 -4.990980414828784 0  0.1171526873513358 -5.869565217391296 0  0.1344252986967795 -6.716855800502001 0  0.1221309018586645 -4.161899358592938 0  0.1166997684017801 -3.25954604704229 0  4.961569127360256 -0.3118894787216622 0  4.923897360678746 -9.687537149351071 0  0.1228405945134021 -2.536958536012416 0  0.1335945686177435 -7.466846676638523 0  3.206461751753455 -0.2806173508164562 0  3.213166004658842 -9.746377676274168 0  0.1155250883680452 -8.186784073011673 0  0.1359204609538445 -1.804202625344072 0  6.662432263484016 -9.600124945047963 0  6.631056521209421 -0.3942868763482545 0  2.126700074935258 -0.2065769621215452 0  2.120437876630353 -9.808537401472012 0  8.761385473272522 -9.4914222957189 0  8.786076048231736 -0.4923064159810888 0  0.1195911345135556 -8.749677128895598 0  0.1117474302775605 -1.230589418769438 0  11.3907841305612 -9.402816705944797 0  11.36435727088349 -0.618365439918426 0  1.211504568109637 -0.1471532661956818 0  1.239596144827807 -9.832618358594059 0  13.75158625181508 -9.315497816134139 0  13.7500399625954 -0.6902569910160397 0  0.131402377539402 -3.696772604078816 0  0.1204853385030979 -6.307560917781178 0  0.1346483804691658 -4.550944754283819 0  0.1255109280847009 -5.434782608695652 0  16.39894095075685 -9.180198571581517 0  16.44068234362399 -0.8166544577416346 0  0.1255109280847009 -0.7971014492753632 0  0.1162877148651766 -9.206770243020259 0  19.56645066956165 -9.043742294716539 0  29.11731382843969 -5.098539983867493 0  19.50527862123305 -0.9323941524176265 0  23.28904960561395 -8.8608997858633 0  0.6875606479622149 -0.1442604037134076 0  0.6875606348153145 -9.855739596611892 0  23.37074358394081 -1.15131614182933 0  10.00852704311311 -9.475417469395781 0  10.01049631493635 -0.5545437343697674 0  7.639131123468924 -9.543000896765111 0  7.693537846067955 -0.4574302764599576 0  5.733194300659633 -9.66079268774309 0  5.731454990332523 -0.3687808037058806 0  3.803630689980224 -9.686555789708486 0  3.834043646352164 -0.2754981925697493 0  2.618022704128803 -9.787800068206256 0  2.634320277618269 -0.2392104743186785 0  1.65952286941916 -9.813294854785646 0  1.665360553377539 -0.1820878093930922 0  0.1365068028365961 -1.543352471920677 0  0.1128108295274224 -8.471115901500411 0  0.1249192863256123 -0.5070564851587012 0  0.1172626025927563 -9.49200175151447 0  0.1255109280847009 -2.101449275362318 0  0.1255109280847009 -7.898550724637682 0  0.1247535864599936 -2.824177050114505 0  0.1155424837078822 -7.17494363557847 0  26.05192393553612 -8.777856070543081 0  26.00031291598836 -1.159065252957426 0  0.3627343947446455 -0.1301950113519217 0  0.3690141220077834 -9.868919517536135 0  28.90574865438674 -7.135369011630129 0  29.02069681040884 -2.861993939893059 0  0.1397555488250113 -0.2163338956475025 0  0.1255109280847009 -9.782608695652172 0  24.67098979274125 -8.799958058548517 0  23.93395881668722 -7.700959994796646 0  22.61396570077244 -7.764517377391733 0  23.2032949615693 -6.630776985250927 0  21.94857473380583 -6.690613342424633 0  24.50398505507967 -6.535933305198952 0  22.51489076809043 -5.580432145971667 0  21.29537841406989 -5.639199768252479 0  21.84985259542567 -4.547213342284197 0  20.65342988351128 -4.619546679988924 0  20.11277906893955 -5.663225279336593 0  19.49454290958806 -4.673886314669294 0  18.97860072994828 -5.624185949902217 0  18.40383886642446 -4.729683279047542 0  17.90575400337286 -5.630456854950327 0  17.35903168001753 -4.836859475002379 0  16.91444903556046 -5.680257663405808 0  16.36114434035519 -4.898890029095359 0  15.89440836794127 -5.835214594829282 0  15.41608945577568 -4.979845093198404 0  14.9809818125648 -5.732909169427192 0  14.51777858619734 -4.988431190461874 0  14.14039496103406 -5.776391085527889 0  13.67321261031888 -5.031745046943032 0  13.26988611760758 -5.891550007816156 0  12.85732927991246 -5.095735823822261 0  12.46423889659403 -5.760519953635332 0  12.07741841933393 -5.116608846746942 0  11.73131647445202 -5.75987862647932 0  11.35222911621012 -5.158061768105265 0  11.01225658271747 -5.784828178519854 0  10.65393216495117 -5.205808407572067 0  10.33042159780337 -5.788944717060055 0  9.98551374198097 -5.24118342090078 0  9.687616112021921 -5.812725728827915 0  9.357518717034999 -5.284717467130579 0  9.08157001076583 -5.820057568121996 0  8.766199932316585 -5.320212662582848 0  8.494748056481422 -5.830095453943056 0  8.194406727465122 -5.347802431655208 0  7.942610344706003 -5.833678024304247 0  7.660825631728443 -5.380025954369014 0  7.416702921751611 -5.83684433397813 0  7.147290851157173 -5.413787279190068 0  6.91632006965034 -5.851605397483334 0  6.658527053286988 -5.437627383845131 0  6.441897327469297 -5.862220684948111 0  6.194860224019926 -5.464520225953867 0  5.988748643021736 -5.866336295550595 0  5.755042825355586 -5.482399938780632 0  5.555770501455733 -5.867908174086599 0  5.334991086231989 -5.504761241472904 0  5.145076642106908 -5.873191062890511 0  4.935013388047023 -5.544035964184449 0  4.754345788811499 -5.880090917794126 0  4.554437025256316 -5.569020251233177 0  4.382470744799432 -5.88665007327689 0  4.192208958329529 -5.585677590398814 0  4.029485566904095 -5.896175760774888 0  4.354949258143058 -5.270074521138358 0  4.004482386201769 -5.289207815434526 0  4.158655721068861 -4.98145486433833 0  3.821444856080801 -5.001169872115685 0  3.97033944278737 -4.700814034221719 0  3.642688047138773 -4.720140385706738 0  3.788830742180677 -4.426816067812119 0  3.467446796449556 -4.450112744784491 0  3.325275354457695 -4.730293981808933 0  3.158439978631689 -4.466074367009679 0  3.294707394527546 -4
[...]
<PointData  Vectors="displacement"> 
<DataArray  type="Float64"  Name="displacement"  NumberOfComponents="3" format="ascii">3.0000000000000004e-01 1.6288601658310886e-01 0.0000000000000000e+00  2.6093091215135516e-19 4.0052356426412486e-03 0.0000000000000000e+00  9.4074362694384254e-21 9.4074362694384254e-21 0.0000000000000000e+00  8.6889872001323686e-21 -1.1585316266843159e-20 0.0000000000000000e+00  2.9878062983677006e-01 1.5619181478238178e-01 0.0000000000000000e+00  2.9447531327630561e-01 1.4083076182678697e-01 0.0000000000000000e+00  2.8371765394552101e-01 1.1896682560144300e-01 0.0000000000000000e+00  2.6754631886555635e-01 9.4733727066860951e-02 0.0000000000000000e+00  2.4704436026282922e-01 7.1646292388187094e-02 0.0000000000000000e+00  2.2515734790129646e-01 5.2430556115590311e-02 0.0000000000000000e+00  2.0299660211220655e-01 3.7538420853744876e-02 0.0000000000000000e+00  1.8226034034891264e-01 2.6071012022457637e-02 0.0000000000000000e+00  1.6345425305945840e-01 1.6922074014491421e-02 0.0000000000000000e+00  1.4647525973577774e-01 1.0469866387601818e-02 0.0000000000000000e+00  1.3139198915721417e-01 5.6525962816829029e-03 0.0000000000000000e+00  1.1816888191989960e-01 1.9743509391614688e-03 0.0000000000000000e+00  1.0641417044593518e-01 -8.0544277125612230e-04 0.0000000000000000e+00  9.6001741823482617e-02 -2.7271495168741094e-03 0.0000000000000000e+00  8.6784166409302851e-02 -4.3272134870436492e-03 0.0000000000000000e+00  7.8533837120262656e-02 -5.3529262502087617e-03 0.0000000000000000e+00  7.1093703940086073e-02 -6.0837351389240769e-03 0.0000000000000000e+00  6.4418762420563588e-02 -6.5819139036577094e-03 0.0000000000000000e+00  5.8541141780946965e-02 -6.6080101286603308e-03 0.0000000000000000e+00  5.3048396736701968e-02 -6.5426095158859533e-03 0.0000000000000000e+00  4.8095807956197070e-02 -6.2733572280474813e-03 0.0000000000000000e+00  4.3653907590566879e-02 -5.8273534513772606e-03 0.0000000000000000e+00  3.9603405346379232e-02 -5.3240978524128060e-03 0.0000000000000000e+00  3.5946824091192035e-02 -4.6817472496345639e-03 0.0000000000000000e+00  3.2647166040749222e-02 -3.9016053860094859e-03 0.0000000000000000e+00  2.9618229399810323e-02 -3.1079355880123203e-03 0.0000000000000000e+00  2.6937004975073221e-02 -2.1883697613862413e-03 0.0000000000000000e+00  2.4531284534145621e-02 -1.2708606219373473e-03 0.0000000000000000e+00  2.2366363720860188e-02 -3.3075334787763120e-04 0.0000000000000000e+00  2.0442936200620977e-02 5.9846470871114494e-04 0.0000000000000000e+00  1.8747912919707489e-02 1.4887296867615370e-03 0.0000000000000000e+00  1.7236590071446335e-02 2.3118422161779108e-03 0.0000000000000000e+00  1.5895756997132124e-02 3.0566013412686175e-03 0.0000000000000000e+00  1.4705750187777662e-02 3.7384150670045808e-03 0.0000000000000000e+00  1.3593658598109504e-02 4.2916341807735393e-03 0.0000000000000000e+00  1.2613944606974853e-02 4.7467057371892527e-03 0.0000000000000000e+00  1.1696118888039985e-02 5.0752827809756674e-03 0.0000000000000000e+00  1.0825735029580045e-02 5.2696158800254111e-03 0.0000000000000000e+00  9.9645142064505778e-03 5.3679465104148928e-03 0.0000000000000000e+00  9.0964782695104242e-03 5.3500268354072268e-03 0.0000000000000000e+00  8.2202801927698695e-03 5.2584189664506027e-03 0.0000000000000000e+00  7.3296270801563417e-03 5.0843364164374931e-03 0.0000000000000000e+00  6.4194191125465641e-03 4.9145327671104829e-03 0.0000000000000000e+00  5.4411814972241592e-03 4.6825043329069638e-03 0.0000000000000000e+00  4.4333284083723076e-03 4.4630820486767512e-03 0.0000000000000000e+00  3.3939588049659688e-03 4.2721519655878563e-03 0.0000000000000000e+00  2.3067852716629061e-03 4.1276753276379358e-03 0.0000000000000000e+00  1.1389743668038248e-03 4.0294516307125090e-03 0.0000000000000000e+00  1.0478893811686054e-19 3.3999272297064375e-03 0.0000000000000000e+00  7.9066525703125731e-20 2.6783148535271975e-03 0.0000000000000000e+00  -7.7146357640853755e-20 2.0433199216041056e-03 0.0000000000000000e+00  -7.1351717172019430e-20 1.4581846868798312e-03 0.0000000000000000e+00  -2.4330808411553592e-19 9.6308349543944608e-04 0.0000000000000000e+00  -5.3321444326724021e-20 5.4725184427003486e-04 0.0000000000000000e+00  -2.3408339061471593e-20 2.3955259744201272e-04 0.0000000000000000e+00  0.0000000000000000e+00 5.0060940708481549e-05 0.0000000000000000e+00  -5.0828549833582661e-20 9.7667669643441038e-21 0.0000000000000000e+00  1.5965732446221591e-20 -3.3927181448220883e-20 0.0000000000000000e+00  2.0702059845914937e-19 -1.7757174299165338e-20 0.0000000000000000e+00  1.0147828365593463e-19 4.2282618189972761e-21 0.0000000000000000e+00  -5.6496290999583105e-20 6.4735333437022314e-21 0.0000000000000000e+00  -8.4061227268385843e-20 2.8896046873507633e-20 0.0000000000000000e+00  -2.5354001635017216e-19 3.0963938778397462e-21 0.0000000000000000e+00  -3.1237863726246886e-19 -2.2777608967055023e-20 0.0000000000000000e+00  -4.3133723079086230e-20 -1.7466911298952887e-20 0.0000000000000000e+00  -3.8442340639051116e-19 -9.0099235872776047e-21 0.0000000000000000e+00  -4.2577462508531363e-19 -1.0533486818516874e-20 0.0000000000000000e+00  7.9221729508813343e-20 1.2378395235752085e-21 0.0000000000000000e+00  -1.2379589931809488e-19 3.5169289579004230e-21 0.0000000000000000e+00  -4.9588803510216015e-19 -9.2979006581655032e-21 0.0000000000000000e+00  -2.7229850687034495e-19 -7.5747821379361734e-22 0.0000000000000000e+00  3.2253323262392075e-19 -2.6877769385326727e-20 0.0000000000000000e+00  4.2153770001461620e-19 -2.1076885000730812e-20 0.0000000000000000e+00  2.0293890691756340e-19 -1.6911575576463618e-20 0.0000000000000000e+00  7.2428619011777786e-21 1.9663529268415455e-20 0.0000000000000000e+00  6.6091219467606931e-20 -9.9136829201410403e-20 0.0000000000000000e+00  -8.3219897933924178e-20 -9.9566663599516429e-20 0.0000000000000000e+00  5.2999958677073830e-20 6.6249948346342281e-20 0.0000000000000000e+00  5.3125027370295507e-20 8.6804077392647781e-20 0.0000000000000000e+00  -4.0636959148166574e-19 -1.1852446418215250e-19 0.0000000000000000e+00  -9.4713908372398704e-19 -5.9196192732749190e-20 0.0000000000000000e+00  -4.0054278088561215e-19 -1.0013569522140304e-20 0.0000000000000000e+00  1.3583415751976014e-19 2.6050904074719844e-20 0.0000000000000000e+00  -5.4688025443653203e-19 -2.3926011131598276e-20 0.0000000000000000e+00  0.0000000000000000e+00 -1.0445011048454787e-21 0.0000000000000000e+00  0.0000000000000000e+00 7.9507728569719374e-21 0.0000000000000000e+00  2.1972373487447704e-19 2.4799592259285625e-21 0.0000000000000000e+00  8.5138487210893191e-20 -2.6605777253404122e-21 0.0000000000000000e+00  -1.4770343375366586e-19 -1.3483314149256430e-20 0.0000000000000000e+00  -2.7678143702769549e-19 2.8831399690384951e-20 0.0000000000000000e+00  4.8595535131560133e-20 6.6025417848003613e-20 0.0000000000000000e+00  1.2660882049988548e-19 -3.9565256406214212e-21 0.0000000000000000e+00  1.8966304018691189e-19 3.1786055514904364e-20 0.0000000000000000e+00  1.4966844778890111e-19 2.8062833960418960e-20 0.0000000000000000e+00  -7.4945802006563458e-20 -3.7472901003281732e-21 0.0000000000000000e+00  0.0000000000000000e+00 -6.5293515203273632e-20 0.0000000000000000e+00  -7.4768578867909874e-20 -2.2561944397797688e-20 0.0000000000000000e+00  2.5493557024012810e-20 3.1866946280016012e-20 0.0000000000000000e+00  -6.9909416274101520e-20 2.4468295695935530e-20 0.0000000000000000e+00  1.6575869564611140e-20 1.6575869564611140e-20 0.0000000000000000e+00  8.6850154021625354e-21 -3.7635066742704323e-21 0.0000000000000000e+00  1.0114238630162832e-20 -3.0342715890488497e-20 0.0000000000000000e+00  3.3584464918145974e-20 5.4196424715719237e-21 0.0000000000000000e+00  -3.6088747727599355e-20 -2.1653248636559616e-20 0.0000000000000000e+00  6.5955840935562889e-21 1.3732752600932482e-04 0.0000000000000000e+00  1.2340985582972654e-20 3.2113586500814547e-04 0.0000000000000000e+00  1.8724687508891481e-20 5.5237372434805657e-04 0.0000000000000000e+00  -6.3079885763773283e-20 8.3087099119789215e-04 0.0000000000000000e+00  5.2289727148853084e-20 1.1557732334774161e-03 0.0000000000000000e+00  0.0000000000000000e+00 1.5211153416769549e-03 0.0000000000000000e+00  -2.3670951107655664e-20 1.9277048989638846e-03 0.0000000000000000e+00  -4.2762202001750200e-20 2.3745548856012448e-03 0.0000000000000000e+00  5.5312466575317929e-20 2.8566897586583288e-03 0.0000000000000000e+00  5.1940160865770101e-20 3.3696572206401870e-03 0.0000000000000000e+00  -6.1906473551045390e-20 3.9169069868750387e-03 0.0000000000000000e+00  0.0000000000000000e+00 4.4939380222352599e-03 0.0000000000000000e+00  -5.0403493997878865e-20 5.1006577153308629e-03 0.0000000000000000e+00  1.8827711992854256e-19 5.7351359336222018e-03 0.0000000000000000e+00  -5.7082660273475360e-21 6.3951049083192501e-03 0.0000000000000000e+00  9.0834032890882228e-20 7.0831920092620290e-03 0.0000000000000000e+00  1.5614745212646589e-20 7.7959940627118796e-03 0.0000000000000000e+00  -6.7208627711558291e-20 8.5368733267458825e-03 0.0000000000000000e+00  -2.4305773291025452e-20 9.3035342820010896e-03 0.0000000000000000e+00  5.1914152406963886e-20 1.0096149100126895e-02 0.0000000000000000e+00  -1.2535530401041742e-19 1.0916062121703183e-02 0.0000000000000000e+00  2.1589608551418803e-19 1.1763130536838994e-02 0.0000000000000000e+00  2.3776548920947842e-19 1.2638265551878794e-02 0.0000000000000000e+00  -2.5903698856247721e-19 1.3539202445510859e-02 0.0000000000000000e+00  -8.5721314653022483e-20 1.4469664595163891e-02 0.0000000000000000e+00  0.0000000000000000e+00 1.5429005742227560e-02 0.0000000000000000e+00  1.0443806174938834e-19 1.6424273967420369e-02 0.0000000000000000e+00  0.0000000000000000e+00 1.7449502560648315e-02 0.0000000000000000e+00  -1.3863176578851340e-19 1.8510727798570454e-02 0.0000000000000000e+00  -1.3950920330407096e-19 1.9609370384224608e-02 0.0000000000000000e+00  -1.3518806261753586e-19 2.0742152350603796e-02 0.0000000000000000e+00  1.6427547315604113e-19 2.1924284002700207e-02 0.0000000000000000e+00  -5.5715525966916048e-20 2.3150836360666359e-02 0.0000000000000000e+00  1.0422423674255629e-19 2.4412412503599698e-02 0.0000000000000000e+00  -1.9254478605337473e-20 2.5730689730792795e-02 0.0000000000000000e+00  4.4994237147445909e-20 2.7098549714392534e-02 0.0000000000000000e+00  -2.1240041997682861e-19 2.8521781101114269e-02 0.0000000000000000e+00  -2.9744220416390784e-19 3.0015245895253194e-02 0.0000000000000000e+00  -1.5019667682434155e-19 3.1573035062247540e-02 0.0000000000000000e+00  -2.8336290447444216e-19 3.3205609905034558e-02 0.0000000000000000e+00  2.1309499803202602e-19 3.4909141912605690e-02 0.0000000000000000e+00  4.4640333723770983e-19 3.6692740748747364e-02 0.0000000000000000e+00  -8.3291180184844800e-20 3.8564052706982904e-02 0.0000000000000000e+00  3.4002182539950029e-19 4.0531721572107417e-02 0.0000000000000000e+00  5.2728422314141275e-19 4.2600968452479508e-02 0.0000000000000000e+00  1.0115301877182148e-19 4.4784428155516968e-02 0.0000000000000000e+00  1.6758233747496438e-19 4.7090452587694051e-02 0.0000000000000000e+00  1.0471452159647831e-19 4.9551027383683971e-02 0.0000000000000000e+00  -9.7929489611913470e-21 5.2167571639632204e-02 0.0000000000000000e+00  1.9407798555065026e-19 5.4924806514715638e-02 0.0000000000000000e+00  -2.9149781767914958e-22 5.7849934850948054e-02 0.0000000000000000e+00  -9.4634922867614153e-20 6.0974787395784387e-02 0.0000000000000000e+00  -5.8499380509983616e-19 6.4335128340072170e-02 0.0000000000000000e+00  -7.5115048850565498e-19 6.7870671304426852e-02 0.0000000000000000e+00  -3.4392831887786367e-19 7.1621003207300735e-02 0.0000000000000000e+00  -8.4556469837059741e-19 7.5497095274056611e-02 0.0000000000000000e+00  -2.9440055805714560e-19 7.9492748890187911e-02 0.0000000000000000e+00  -3.2868655041087726e-19 8.3826756055144072e-02 0.0000000000000000e+00  3.9691490456119794e-19 8.8613238325021285e-02 0.0000000000000000e+00  -1.9820601144255275e-19 9.5379545202772545e-02 0.0000000000000000e+00  3.3863763356251262e-18 1.0768953082571986e-01 0.0000000000000000e+00  0.0000000000000000e+00 1.3185805951856039e-01 0.0000000000000000e+00  1.3043478260869532e-01 1.5191619175868937e-01 0.0000000000000000e+00  2.7536231884058021e-01 1.5565228699289693e-01 0.0000000000000000e+00  3.0000000000000016e-01 1.5194343120072673e-01 0.0000000000000000e+00  3.0000000000000032e-01 1.5230674922536616e-01 0.0000000000000000e+00  2.9999999999999988e-01 1.5571271701737804e-01 0.0000000000000000e+00  3.0000000000000010e-01 1.5984177037446992e-01 0.0000000000000000e+00  -1.1036524374187949e-03 2.5054657107685913e-02 0.0000000000000000e+00  -7.9420090900370229e-04 1.7938101358040977e-02 0.0000000000000000e+00  -7.5186122872456245e-04 1.2300607478557995e-02 0.0000000000000000e+00  -1.2984601644784744e-03 3.3541007178452993e-02 0.0000000000000000e+00  -1.6674380455536826e-03 4.5701788365317852e-02 0.0000000000000000e+00  4.9630112565740833e-02 -8.5721295349899997e-03 0.0000000000000000e+00  -1.6804456429758553e-03 -6.0374227924779346e-05 0.0000000000000000e+00  -2.2959252336229126e-03 5.8825355622817925e-02 0.0000000000000000e+00  -6.2670756769617620e-04 8.1298299029383247e-03 0.0000000000000000e+00  8.0200486840870569e-02 -8.8374904179602965e-03 0.0000000000000000e+00  -1.6173071338041365e-03 7.3942592815883586e-05 0.0000000000000000e+00  -4.3639743410652941e-04 4.7933502401232312e-03 0.0000000000000000e+00  -2.9862584692311421e-03 7.5794760803603117e-02 0.0000000000000000e+00  -1.1376974568894985e-03 -1.8424346455874586e-04 0.0000000000000000e+00  3.4506002580577441e-02 -5.9748019760526520e-03 0.0000000000000000e+00  1.1937682584835289e-01 -1.6417234311226097e-03 0.0000000000000000e+00  -1.0406475886340105e-03 1.1692324167835808e-04 0.0000000000000000e+00  1.6324595496141410e-05 -2.2583031809585619e-04 0.0000000000000000e+00  2.3788459905510942e-02 -1.9138406949705108e-03 0.0000000000000000e+00  -3.5101780632749860e-04 2.6673286507936937e-03 0.0000000000000000e+00  3.1065369029282083e-03 9.1847862485996717e-02 0.0000000000000000e+00  1.1472638895146264e-03 -1.5235484924197007e-04 0.0000000000000000e+00  1.6957775901856594e-02 1.9039172739312676e-03 0.0000000000000000e+00  1.8486907240014705e-01 2.6170321515079767e-02 0.0000000000000000e+00  -6.0748883030357752e-04 1.3670994467024502e-04 0.0000000000000000e+00  1.6061083985681453e-03 -6.7052050007526543e-05 0.0000000000000000e+00  1.3285149332999029e-02 3.9890095694517349e-03 0.0000000000000000e+00  -1.6305413645622447e-03 3.9313193806168920e-02 0.0000000000000000e+00  -7.3664851001370001e-04 1.4892117305467429e-02 0.0000000000000000e+00  -1.2847780585899583e-03 2.9285317629319838e-02 0.0000000000000000e+00  -9.4709661851616832e-04 2.1265599499709943e-02 0.0000000000000000e+00  1.7122160547173562e-03 2.8296068073138378e-06 0.0000000000000000e+00  1.0365105150135043e-02 4.8020614150142910e-03 0.0000000000000000e+00  1.8637374314938523e-01 8.9631811242988343e-02 0.0000000000000000e+00  -2.3969093627889177e-04 1.3217346232128337e-03 0.0000000000000000e+00  1.4358907502359508e-03 4.6690809003219011e-05 0.0000000000000000e+00  4.2275672889097572e-04 1.1539565004264533e-03 0.0000000000000000e+00  7.6930904036569400e-03 4.6586032786400658e-03 0.0000000000000000e+00  9.7369827031939854e-04 5.9784408955791278e-05 0.0000000000000000e+00  2.3983951602433112e-01 7.4447667421731437e-02 0.0000000000000000e+00  -3.0873956437248005e-04 1.2574307656163007e-04 0.0000000000000000e+00  4.6579756800220022e-03 3.9170161843991606e-03 0.0000000000000000e+00  6.2417546307451670e-04 -1.8561514752744949e-04 0.0000000000000000e+00  2.0010026220222448e-02 1.1826331943903637e-04 0.0000000000000000e+00  -6.3844916364457069e-04 -2.1499840310090822e-04 0.0000000000000000e+00  2.8410328753186942e-02 -3.9785909935768412e-03 0.0000000000000000e+00  -1.4400514743858658e-03 -1.1495081090139000e-04 0.0000000000000000e+00  4.1535476230615667e-02 -7.6194570068965090e-03 0.0000000000000000e+00  -1.9712459238840985e-03 2.9733710354110808e-05 0.0000000000000000e+00  6.6592187438186887e-02 -9.2676680624111107e-03 0.0000000000000000e+00  -1.2809055312651614e-03 1.0330021730815947e-04 0.0000000000000000e+00  9.7719973445002759e-02 -6.5117860502076508e-03 0.0000000000000000e+00  -8.5371128986835539e-04 1.3720798963165966e-04 0.0000000000000000e+00  1.4663411032581827e-01 7.0043215639437910e-03 0.0000000000000000e+00  -1.8630359031022651e-03 8.1701156171919115e-02 0.0000000000000000e+00  -3.8039911546204028e-04 3.6602459504478024e-03 0.0000000000000000e+00  2.8180802560280976e-01 1.3564618741922341e-01 0.0000000000000000e+00  -1.6702189239576381e-04 6.8694168977412502e-04 0.0000000000000000e+00  -2.6828791908146067e-03 6.8682683301121233e-02 0.0000000000000000e+00  -5.1870061608897864e-04 6.0499557320497178e-03 0.0000000000000000e+00  -2.1069834339753936e-03 5.3129479992510747e-02 0.0000000000000000e+00  -5.8167759113731613e-04 9.6745177246101242e-03 0.0000000000000000e+00  5.8116019355888599e-04 5.0150564915662723e-05 0.0000000000000000e+00  2.7764530990785495e-03 3.5799426331195473e-03 0.0000000000000000e+00  2.7545127995892688e-01 1.2512431334679605e-01 0.0000000000000000e+00  -1.5493180965442415e-04 1.1554633907210866e-04 0.0000000000000000e+00  3.3722243809191434e-04 3.9870479545198227e-04 0.0000000000000000e+00  6.0357497170957669e-04 2.3165965032334967e-03 0.0000000000000000e+00  2.8945531129005725e-01 1.5101629175575809e-01 0.0000000000000000e+00  -8.6076359847430940e-05 2.2031542379652238e-04 0.0000000000000000e+00  7.8644059761804848e-04 5.9361180926079643e-05 0.0000000000000000e+00  1.6667403290707172e-03 2.9962290363463818e-04 0.0000000000000000e+00  2.0387675639100006e-03 3.1210765753849647e-04 0.0000000000000000e+00  2.6273290446718728e-03 6.9157624603621306e-04 0.0000000000000000e+00  3.1509155827233203e-03 7.1962803071219563e-04 0.0000000000000000e+00  2.1208551010468758e-03 6.7761016412683738e-04 0.0000000000000000e+00  3.6149915055915540e-03 1.2068115314223717e-03 0.0000000000000000e+00  4.2647395722817229e-03 1.2401641186796117e-03 0.0000000000000000e+00  4.5885702556197868e-03 1.8286233545738051e-03 0.0000000000000000e+00  5.3350562361353607e-03 1.8718300114052308e-03 0.0000000000000000e+00  4.9343430577425745e-03 1.2844689743552152e-03 0.0000000000000000e+00  6.0897207717206985e-03 1.8894148958940207e-03 0.0000000000000000e+00  5.6622271821507690e-03 1.3154038575850957e-03 0.0000000000000000e+00  6.8109502107403606e-03 1.8369227156434559e-03 0.0000000000000000e+00  6.3263742637119707e-03 1.2563168712720711e-03 0.0000000000000000e+00  7.4588741016427089e-03 1.6711791140056407e-03 0.0000000000000000e+00  6.8742379457204968e-03 1.1025734496722540e-03 0.0000000000000000e+00  8.0924054732627818e-03 1.4233141376710631e-03 0.0000000000000000e+00  7.2628673121893205e-03 7.9876947105194968e-04 0.0000000000000000e+00  8.6100933684042993e-03 1.0631578974098492e-03 0.0000000000000000e+00  7.8566049574719486e-03 5.2418024273976336e-04 0.0000000000000000e+00  9.1412507229688116e-03 6.0623934173907872e-04 0.0000000000000000e+00  8.1335058480762508e-03 9.0064549550168213e-05 0.0000000000000000e+00  9.5203602534908779e-03 4.9990306840350501e-06 0.0000000000000000e+00  8.1775808627785017e-03 -4.9056250156669968e-04 0.0000000000000000e+00  9.7202823136624504e-03 -7.3141561593108187e-04 0.0000000000000000e+00  8.5204740123619085e-03 -1.1606911681320249e-03 0.0000000000000000e+00  9.8563081017018963e-03 -1.5979707031019742e-03 0.0000000000000000e+00  8.4645168814982911e-03 -1.9211114086152207e-03 0.0000000000000000e+00  9.7936073833165462e-03 -2.5493680703388487e-03 0.0000000000000000e+00  8.1849956128984616e-03 -2.7778320538962577e-03 0.0000000000000000e+00  9.5374683008950627e-03 -3.5888176259295307e-03 0.0000000000000000e+00  7.7757779726189543e-03 -3.7001453743184514e-03 0.0000000000000000e+00  9.1199651164145471e-03 -4.6839243493262675e-03 0.0000000000000000e+00  7.1389213302308603e-03 -4.6180829046228522e-03 0.0000000000000000e+00  8.4870575985403832e-03 -5.76060887844658