<?xml version="1.0"?>
<VTKFile type="UnstructuredGrid"  version="0.1"  >
<UnstructuredGrid>
<Piece  NumberOfPoints="13179" NumberOfCells="25814">
<Points>
<DataArray  type="Float64"  NumberOfComponents="3"  format="ascii">0 0 0  30 0 0  30 -10 0  0 -10 0  0.02360821169319077 0 0  0.04721642338638154 0 0  0.07206717063563725 0 0  0.09691791788489297 0 0  0.1230766011355843 0 0  0.1492352843862757 0 0  0.1767707375239038 0 0  0.204306190661532 0 0  0.2332908770901271 0 0  0.2622755635187223 0 0  0.2927857633803451 0 0  0.323295963241968 0 0  0.3554119623832387 0 0  0.3875279615245094 0 0  0.4213342730081758 0 0  0.4551405844918422 0 0  0.4907261762804851 0 0  0.526311768069128 0 0  0.5637702848355051 0 0  0.6012288016018821 0 0  0.6406588220121138 0 0  0.6800888424223455 0 0  0.721594129780935 0 0  0.7630994171395246 0 0  0.8067891887833475 0 0  0.8504789604271704 0 0  0.8964681941825949 0 0  0.9424574279380195 0 0  0.9908671465681095 0 0  1.039276865198199 0 0  1.090234462786975 0 0  1.141192060375751 0 0  1.194831641933244 0 0  1.248471223490737 0 0  1.304933942963653 0 0  1.361396662436569 0 0  1.420831104471586 0 0  1.480265546506604 0 0  1.542828113436244 0 0  1.605390680365884 0 0  1.671246013469327 0 0  1.73710134657277 0 0  1.806422752814762 0 0  1.875744159056755 0 0  1.948714057431306 0 0  2.021683955805857 0 0  2.098494373901932 0 0  2.175304791998006 0 0  2.256157866653476 0 0  2.337010941308945 0 0  2.422119443935387 0 0  2.50722794656183 0 0  2.596815840700639 0 0  2.686403734839449 0 0  2.780706776094687 0 0  2.875009817349925 0 0  2.974276175689285 0 0  3.073542534028646 0 0  3.178033441002704 0 0  3.282524347976761 0 0  3.392514777963501 0 0  3.502505207950242 0 0  3.618284608533553 0 0  3.734064009116865 0 0  3.855937062816526 0 0  3.977810116516187 0 0  4.106097541496641 0 0  4.234384966477093 0 0  4.369424362562147 0 0  4.5044637586472 0 0  4.646610489729194 0 0  4.788757220811188 0 0  4.938385356669961 0 0  5.088013492528733 0 0  5.24551679218304 0 0  5.403020091837347 0 0  5.568813038399614 0 0  5.73460598496188 0 0  5.909124878408681 0 0  6.083643771855482 0 0  6.267347873338513 0 0  6.451051974821543 0 0  6.644424714363561 0 0  6.83779745390558 0 0  7.041347702348167 0 0  7.244897950790754 0 0  7.459161368238869 0 0  7.673424785686984 0 0  7.898965226038037 0 0  8.124505666389089 0 0  8.361916654054033 0 0  8.599327641718979 0 0  8.849233942517035 0 0  9.099140243315093 0 0  9.362199507946787 0 0  9.625258772578484 0 0  9.902163261537794 0 0  10.1790677504971 0 0  10.47054616023911 0 0  10.76202456998112 0 0  11.06884394887334 0 0  11.37566332776555 0 0  11.69863109504192 0 0  12.02159886231829 0 0  12.3615649378891 0 0  12.7015310134599 0 0  13.05939003847426 0 0  13.41724906348862 0 0  13.79394276982091 0 0  14.1706364761532 0 0  14.5671561683298 0 0  14.96367586050641 0 0  15.38106501332897 0 0  15.79845416615153 0 0  16.23781117165827 0 0  16.677168177165 0 0  17.13964923659526 0 0  17.60213029602552 0 0  18.0889524622663 0 0  18.57577462850707 0 0  19.08821901304263 0 0  19.60066339757818 0 0  20.14007853843172 0 0  20.67949367928525 0 0  21.24729908993883 0 0  21.8151045005924 0 0  22.41279440541421 0 0  23.01048431023601 0 0  23.63963157605829 0 0  24.26877884188056 0 0  24.93103912515648 0 0  25.59329940843241 0 0  26.29041549584691 0 0  26.98753158326142 0 0  27.72133799026916 0 0  28.45514439727691 0 0  29.22757219863846 0 0  30 -0.3571428571428571 0  30 -0.7142857142857142 0  30 -1.071428571428571 0  30 -1.428571428571428 0  30 -1.785714285714286 0  30 -2.142857142857143 0  30 -2.5 0  30 -2.857142857142857 0  30 -3.214285714285714 0  30 -3.571428571428571 0  30 -3.928571428571428 0  30 -4.285714285714286 0  30 -4.642857142857142 0  30 -5 0  30 -5.357142857142857 0  30 -5.714285714285714 0  30 -6.071428571428571 0  30 -6.428571428571428 0  30 -6.785714285714285 0  30 -7.142857142857142 0  30 -7.5 0  30 -7.857142857142857 0  30 -8.214285714285714 0  30 -8.571428571428571 0  30 -8.928571428571427 0  30 -9.285714285714285 0  30 -9.642857142857142 0  29.22757220128658 -10 0  28.45514440257316 -10 0  27.72133799277628 -10 0  26.98753158297939 -10 0  26.29041549304805 -10 0  25.5932994031167 -10 0  24.93103911757599 -10 0  24.26877883203527 -10 0  23.63963156418132 -10 0  23.01048429632737 -10 0  22.41279438968936 -10 0  21.81510448305136 -10 0  21.24729907078059 -10 0  20.67949365850982 -10 0  20.14007851622273 -10 0  19.60066337393564 -10 0  19.08821898813588 -10 0  18.57577460233611 -10 0  18.08895243498708 -10 0  17.60213026763805 -10 0  17.13964920724307 -10 0  16.6771681468481 -10 0  16.2378111405086 -10 0  15.79845413416909 -10 0  15.38106498063496 -10 0  14.96367582710082 -10 0  14.56715613432376 -10 0  14.17063644154669 -10 0  13.79394273471576 -10 0  13.41724902788484 -10 0  13.05939000246495 -10 0  12.70153097704506 -10 0  12.36156490115379 -10 0  12.02159882526251 -10 0  11.69863105774323 -10 0  11.37566329022395 -10 0  11.06884391115945 -10 0  10.76202453209494 -10 0  10.47054612224479 -10 0  10.17906771239465 -10 0  9.902163223385379 -10 0  9.625258734376107 -10 0  9.362199469747061 -10 0  9.099140205118012 -10 0  8.849233904370102 -10 0  8.599327603622193 -10 0  8.361916616050124 -10 0  8.124505628478055 -10 0  7.898965188258209 -10 0  7.673424748038361 -10 0  7.459161330755727 -10 0  7.244897913473093 -10 0  7.041347665226496 -10 0  6.837797416979896 -10 0  6.644424677660922 -10 0  6.451051938341948 -10 0  6.26734783710581 -10 0  6.083643735869675 -10 0  5.90912484269068 -10 0  5.734605949511682 -10 0  5.568813003235423 -10 0  5.403020056959164 -10 0  5.24551675760658 -10 0  5.088013458254 -10 0  4.938385322710374 -10 0  4.788757187166745 -10 0  4.646610456411224 -10 0  4.504463725655707 -10 0  4.369424329906533 -10 0  4.234384934157362 -10 0  4.106097509520442 -10 0  3.977810084883522 -10 0  3.85593703153344 -10 0  3.734063978183357 -10 0  3.618284577954206 -10 0  3.502505177725055 -10 0  3.392514748095728 -10 0  3.282524318466404 -10 0  3.1780334118518 -10 0  3.073542505237196 -10 0  2.97427614725823 -10 0  2.875009789279265 -10 0  2.780706748384375 -10 0  2.686403707489482 -10 0  2.596815813710069 -10 0  2.507227919930656 -10 0  2.422119417661861 -10 0  2.337010915393062 -10 0  2.256157841092762 -10 0  2.175304766792465 -10 0  2.098494349048437 -10 0  2.021683931304413 -10 0  1.948714033278215 -10 0  1.875744135252013 -10 0  1.806422729354161 -10 0  1.737101323456312 -10 0  1.671245990692352 -10 0  1.605390657928396 -10 0  1.542828091333185 -10 0  1.480265524737977 -10 0  1.420831083031992 -10 0  1.36139664132601 -10 0  1.304933922176438 -10 0  1.248471203026863 -10 0  1.194831621786765 -10 0  1.14119204054667 -10 0  1.09023444350921 -10 0  1.039276846471754 -10 0  0.9908671279064798 -10 0  0.942457409341209 -10 0  0.8964681758842019 -10 0  0.8504789424271948 -10 0  0.8067891710751951 -10 0  0.7630993997231954 -10 0  0.7215941126497469 -10 0  0.6800888255762949 -10 0  0.6406588054444597 -10 0  0.6012287853126246 -10 0  0.5637702688178621 -10 0  0.5263117523230996 -10 0  0.4907261607992695 -10 0  0.4551405692754429 -10 0  0.4213342580497894 -10 0  0.3875279468241395 -10 0  0.3554119479341011 -10 0  0.3232959490440663 -10 0  0.2927857494269297 -10 0  0.2622755498097931 -10 0  0.2332908636189828 -10 0  0.2043061774281725 -10 0  0.1767707245216883 -10 0  0.1492352716152006 -10 0  0.1230765885890825 -10 0  0.09691790556296098 -10 0  0.0720671585317838 -10 0  0.04721641150060663 -10 0  0.02360820575030331 -10 0  0 -9.957983193277311 0  0 -9.915966386554622 0  0 -9.873949579831933 0  0 -9.831932773109244 0  0 -9.789915966386555 0  0 -9.747899159663866 0  0 -9.705882352941176 0  0 -9.663865546218487 0  0 -9.621848739495798 0  0 -9.579831932773109 0  0 -9.53781512605042 0  0 -9.495798319327731 0  0 -9.453781512605042 0  0 -9.411764705882353 0  0 -9.369747899159664 0  0 -9.327731092436975 0  0 -9.285714285714286 0  0 -9.243697478991596 0  0 -9.201680672268907 0  0 -9.159663865546218 0  0 -9.117647058823529 0  0 -9.07563025210084 0  0 -9.033613445378151 0  0 -8.991596638655462 0  0 -8.949579831932773 0  0 -8.907563025210084 0  0 -8.865546218487395 0  0 -8.823529411764707 0  0 -8.781512605042018 0  0 -8.739495798319329 0  0 -8.69747899159664 0  0 -8.655462184873949 0  0 -8.61344537815126 0  0 -8.571428571428571 0  0 -8.529411764705882 0  0 -8.487394957983193 0  0 -8.445378151260504 0  0 -8.403361344537815 0  0 -8.361344537815127 0  0 -8.319327731092438 0  0 -8.277310924369749 0  0 -8.235294117647058 0  0 -8.193277310924369 0  0 -8.15126050420168 0  0 -8.109243697478991 0  0 -8.067226890756302 0  0 -8.025210084033613 0  0 -7.983193277310924 0  0 -7.941176470588236 0  0 -7.899159663865547 0  0 -7.857142857142857 0  0 -7.815126050420168 0  0 -7.773109243697479 0  0 -7.73109243697479 0  0 -7.689075630252101 0  0 -7.647058823529411 0  0 -7.605042016806722 0  0 -7.563025210084033 0  0 -7.521008403361344 0  0 -7.478991596638656 0  0 -7.436974789915967 0  0 -7.394957983193278 0  0 -7.352941176470589 0  0 -7.3109243697479 0  0 -7.26890756302521 0  0 -7.226890756302521 0  0 -7.184873949579832 0  0 -7.142857142857143 0  0 -7.100840336134453 0  0 -7.058823529411764 0  0 -7.016806722689076 0  0 -6.974789915966387 0  0 -6.932773109243698 0  0 -6.890756302521009 0  0 -6.84873949579832 0  0 -6.806722689075631 0  0 -6.764705882352941 0  0 -6.722689075630252 0  0 -6.680672268907563 0  0 -6.638655462184874 0  0 -6.596638655462185 0  0 -6.554621848739496 0  0 -6.512605042016807 0  0 -6.470588235294118 0  0 -6.428571428571429 0  0 -6.38655462184874 0  0 -6.344537815126051 0  0 -6.302521008403362 0  0 -6.260504201680672 0  0 -6.218487394957983 0  0 -6.176470588235294 0  0 -6.134453781512605 0  0 -6.092436974789917 0  0 -6.050420168067227 0  0 -6.008403361344538 0  0 -5.966386554621849 0  0 -5.92436974789916 0  0 -5.882352941176471 0  0 -5.840336134453782 0  0 -5.798319327731092 0  0 -5.756302521008403 0  0 -5.714285714285714 0  0 -5.672268907563025 0  0 -5.630252100840336 0  0 -5.588235294117647 0 
[...]
<PointData  Vectors="displacement"> 
<DataArray  type="Float64"  Name="displacement"  NumberOfComponents="3" format="ascii">1.0000000000000007e-01 4.6050718470799910e-02 0.0000000000000000e+00  1.1898731923041892e-20 6.8630825188982167e-04 0.0000000000000000e+00  -3.6044308021011535e-24 -9.1648926073737100e-23 0.0000000000000000e+00  6.5638843592488046e-23 -4.2345966182040777e-22 0.0000000000000000e+00  9.9372489241880468e-02 4.5984948875471214e-02 0.0000000000000000e+00  9.8966814948669171e-02 4.5576558634251620e-02 0.0000000000000000e+00  9.8433338661959191e-02 4.4352412665247663e-02 0.0000000000000000e+00  9.7674447375771162e-02 4.2525487047337988e-02 0.0000000000000000e+00  9.6551477858746113e-02 4.0135621025736305e-02 0.0000000000000000e+00  9.5126687529381554e-02 3.7352108602053652e-02 0.0000000000000000e+00  9.3283343945411434e-02 3.4169577282814070e-02 0.0000000000000000e+00  9.1102473721437593e-02 3.0881811812794868e-02 0.0000000000000000e+00  8.8536625936401159e-02 2.7557523708525208e-02 0.0000000000000000e+00  8.5728341334998570e-02 2.4313169347076613e-02 0.0000000000000000e+00  8.2654241038939480e-02 2.1179150818244157e-02 0.0000000000000000e+00  7.9483476859518593e-02 1.8299883970675085e-02 0.0000000000000000e+00  7.6151793474285384e-02 1.5583481743831095e-02 0.0000000000000000e+00  7.2866638457294325e-02 1.3185965381276756e-02 0.0000000000000000e+00  6.9496244444643085e-02 1.0995911411678433e-02 0.0000000000000000e+00  6.6299721937762165e-02 9.0742345135741559e-03 0.0000000000000000e+00  6.3092169369559081e-02 7.3896484945435046e-03 0.0000000000000000e+00  6.0060745690286486e-02 5.9766919398501614e-03 0.0000000000000000e+00  5.7086927070611845e-02 4.6889645836361892e-03 0.0000000000000000e+00  5.4344894407235486e-02 3.5935978136233289e-03 0.0000000000000000e+00  5.1660063443917714e-02 2.6730997589515921e-03 0.0000000000000000e+00  4.9197682405098780e-02 1.8934620695691077e-03 0.0000000000000000e+00  4.6820581886423712e-02 1.1638565035755656e-03 0.0000000000000000e+00  4.4625894065930864e-02 6.0302246594274406e-04 0.0000000000000000e+00  4.2510380845588634e-02 8.9889817733789285e-05 0.0000000000000000e+00  4.0570685386124121e-02 -3.6353795975947994e-04 0.0000000000000000e+00  3.8697998722275848e-02 -7.3667884821288279e-04 0.0000000000000000e+00  3.6975673973211547e-02 -1.0527952005423562e-03 0.0000000000000000e+00  3.5319688924998011e-02 -1.3338598679656167e-03 0.0000000000000000e+00  3.3787398082620754e-02 -1.5676706808406102e-03 0.0000000000000000e+00  3.2314506067724118e-02 -1.7728848831948323e-03 0.0000000000000000e+00  3.0951442155947220e-02 -1.9557196884429930e-03 0.0000000000000000e+00  2.9629774345309935e-02 -2.1018649143691899e-03 0.0000000000000000e+00  2.8415322238636367e-02 -2.2305430602336217e-03 0.0000000000000000e+00  2.7232205001593884e-02 -2.3377406648315557e-03 0.0000000000000000e+00  2.6139540151954729e-02 -2.4215726777426227e-03 0.0000000000000000e+00  2.5076462689756079e-02 -2.5083756632464089e-03 0.0000000000000000e+00  2.4099194017431456e-02 -2.5486771996781760e-03 0.0000000000000000e+00  2.3138607135686103e-02 -2.5976528199364319e-03 0.0000000000000000e+00  2.2252522711963402e-02 -2.6268271170617544e-03 0.0000000000000000e+00  2.1382665452732753e-02 -2.6601737534570420e-03 0.0000000000000000e+00  2.0577142439884216e-02 -2.6704566782386205e-03 0.0000000000000000e+00  1.9789164611671125e-02 -2.6798367957550609e-03 0.0000000000000000e+00  1.9055795594123098e-02 -2.6789811008045327e-03 0.0000000000000000e+00  1.8338626994009441e-02 -2.6693581708897296e-03 0.0000000000000000e+00  1.7670512938057655e-02 -2.6566124486552757e-03 0.0000000000000000e+00  1.7015673841397440e-02 -2.6362606686817598e-03 0.0000000000000000e+00  1.6402209215230494e-02 -2.6127843502554669e-03 0.0000000000000000e+00  1.5803092131338872e-02 -2.5847982485035339e-03 0.0000000000000000e+00  1.5242861715227554e-02 -2.5540157186031069e-03 0.0000000000000000e+00  1.4692890779143201e-02 -2.5181391053125230e-03 0.0000000000000000e+00  1.4178051672153297e-02 -2.4790744721167228e-03 0.0000000000000000e+00  1.3670872669953442e-02 -2.4339306981057099e-03 0.0000000000000000e+00  1.3198254572458013e-02 -2.3864926088943287e-03 0.0000000000000000e+00  1.2731590551782039e-02 -2.3376362292094909e-03 0.0000000000000000e+00  1.2293842421902743e-02 -2.2896037335195518e-03 0.0000000000000000e+00  1.1864064363102046e-02 -2.2368668432947653e-03 0.0000000000000000e+00  1.1459917141245024e-02 -2.1818236768271371e-03 0.0000000000000000e+00  1.1061710571405793e-02 -2.1230488548094431e-03 0.0000000000000000e+00  1.0687025470057971e-02 -2.0672527875388131e-03 0.0000000000000000e+00  1.0317901427385067e-02 -2.0043531402996104e-03 0.0000000000000000e+00  9.9723134207600952e-03 -1.9405130618550908e-03 0.0000000000000000e+00  9.6289281234540076e-03 -1.8782125594087454e-03 0.0000000000000000e+00  9.3070901312871032e-03 -1.8130550701585195e-03 0.0000000000000000e+00  8.9890169958352171e-03 -1.7460608870698317e-03 0.0000000000000000e+00  8.6885964862808383e-03 -1.6822158246890832e-03 0.0000000000000000e+00  8.3934528489188996e-03 -1.6121775851975829e-03 0.0000000000000000e+00  8.1152705365423478e-03 -1.5430852373414714e-03 0.0000000000000000e+00  7.8395951367221384e-03 -1.4703424064149259e-03 0.0000000000000000e+00  7.5804886034806672e-03 -1.3985439919222370e-03 0.0000000000000000e+00  7.3242187439208515e-03 -1.3259760658557223e-03 0.0000000000000000e+00  7.0827903040611940e-03 -1.2536080009217466e-03 0.0000000000000000e+00  6.8442856751877610e-03 -1.1785639401515786e-03 0.0000000000000000e+00  6.6196251358861345e-03 -1.1051350999491281e-03 0.0000000000000000e+00  6.3971939786296190e-03 -1.0295379383148235e-03 0.0000000000000000e+00  6.1877050831310627e-03 -9.5586068960623778e-04 0.0000000000000000e+00  5.9806431713108673e-03 -8.7926494007468654e-04 0.0000000000000000e+00  5.7856540605511373e-03 -8.0202297039850851e-04 0.0000000000000000e+00  5.5919983529150868e-03 -7.2695075293661429e-04 0.0000000000000000e+00  5.4173370259735206e-03 -6.4906279423526995e-04 0.0000000000000000e+00  5.2359970375287328e-03 -5.7294168730742721e-04 0.0000000000000000e+00  5.0668262125468690e-03 -4.9806994114047834e-04 0.0000000000000000e+00  4.9002352691306919e-03 -4.2181604895491704e-04 0.0000000000000000e+00  4.7446384030529042e-03 -3.4601127177066605e-04 0.0000000000000000e+00  4.5890409445725078e-03 -2.6968412837895044e-04 0.0000000000000000e+00  4.4453795506963593e-03 -1.9639723768857302e-04 0.0000000000000000e+00  4.3044395136605665e-03 -1.2088422262726920e-04 0.0000000000000000e+00  4.1704725759453849e-03 -4.8428607395128454e-05 0.0000000000000000e+00  4.0378149605619154e-03 2.4226636306447607e-05 0.0000000000000000e+00  3.9137344681045511e-03 9.4222962489100200e-05 0.0000000000000000e+00  3.7919000810307624e-03 1.6489742736907042e-04 0.0000000000000000e+00  3.6776480210759161e-03 2.3149573791159637e-04 0.0000000000000000e+00  3.5650628342167347e-03 2.9803104953623794e-04 0.0000000000000000e+00  3.4604056116544534e-03 3.6215276728636777e-04 0.0000000000000000e+00  3.3546606348830079e-03 4.2436251521763490e-04 0.0000000000000000e+00  3.2580249266039724e-03 4.8377970661809698e-04 0.0000000000000000e+00  3.1628551213441244e-03 5.4175758432764619e-04 0.0000000000000000e+00  3.0722760880848910e-03 5.9584219611291287e-04 0.0000000000000000e+00  2.9828331207264699e-03 6.4853866501000924e-04 0.0000000000000000e+00  2.8985607554939444e-03 6.9691772676376649e-04 0.0000000000000000e+00  2.8160048930492912e-03 7.4386361142576027e-04 0.0000000000000000e+00  2.7384071934874361e-03 7.8428998575771707e-04 0.0000000000000000e+00  2.6620903506042498e-03 8.2540391725337986e-04 0.0000000000000000e+00  2.5879133075237329e-03 8.5942302259940011e-04 0.0000000000000000e+00  2.5128450100370741e-03 8.9208007315322627e-04 0.0000000000000000e+00  2.4460797859871793e-03 9.2010631698520508e-04 0.0000000000000000e+00  2.3737206554239427e-03 9.4473491902257215e-04 0.0000000000000000e+00  2.3070529335755476e-03 9.6748394390250801e-04 0.0000000000000000e+00  2.2390480230723986e-03 9.8288532218960417e-04 0.0000000000000000e+00  2.1725706088785634e-03 9.9714155901613503e-04 0.0000000000000000e+00  2.1065840890174391e-03 1.0069495752041595e-03 0.0000000000000000e+00  2.0423238157213988e-03 1.0133328883445009e-03 0.0000000000000000e+00  1.9730372284675769e-03 1.0161576809443280e-03 0.0000000000000000e+00  1.9075427235809865e-03 1.0160078342878196e-03 0.0000000000000000e+00  1.8411200398686235e-03 1.0132013579163277e-03 0.0000000000000000e+00  1.7760538359486700e-03 1.0070492077280629e-03 0.0000000000000000e+00  1.7086905635739940e-03 9.9731292678031393e-04 0.0000000000000000e+00  1.6388472803320552e-03 9.8633757282477340e-04 0.0000000000000000e+00  1.5684095121098289e-03 9.7237386930116036e-04 0.0000000000000000e+00  1.4992006696203236e-03 9.5741062614788984e-04 0.0000000000000000e+00  1.4269220238687479e-03 9.4028496865110963e-04 0.0000000000000000e+00  1.3550715682675741e-03 9.2209658742194904e-04 0.0000000000000000e+00  1.2802142293584352e-03 9.0251443858425386e-04 0.0000000000000000e+00  1.2055763612831276e-03 8.8256933987410438e-04 0.0000000000000000e+00  1.1275098946284441e-03 8.6144646979810057e-04 0.0000000000000000e+00  1.0501631532795982e-03 8.4152487350944139e-04 0.0000000000000000e+00  9.7010920531826893e-04 8.2151887945802434e-04 0.0000000000000000e+00  8.9051620501253770e-04 8.0189096079537185e-04 0.0000000000000000e+00  8.0787502602371205e-04 7.8195762177208218e-04 0.0000000000000000e+00  7.2517779457658901e-04 7.6428767214679818e-04 0.0000000000000000e+00  6.4001392634361861e-04 7.4773309683482509e-04 0.0000000000000000e+00  5.5614358250653491e-04 7.3195626399994839e-04 0.0000000000000000e+00  4.6482411222381002e-04 7.1826251577640596e-04 0.0000000000000000e+00  3.7426063344216933e-04 7.0564882301776355e-04 0.0000000000000000e+00  2.8285722205217208e-04 6.9801438100003518e-04 0.0000000000000000e+00  1.9132330836010695e-04 6.9064785547878391e-04 0.0000000000000000e+00  9.2754641877554594e-05 6.8745183458935374e-04 0.0000000000000000e+00  -3.4609032877280801e-21 6.5467719946908957e-04 0.0000000000000000e+00  1.3743257960578727e-20 6.1333106345316443e-04 0.0000000000000000e+00  3.2130806349385566e-21 5.7299062348584705e-04 0.0000000000000000e+00  5.3286871941902629e-21 5.3371720652572530e-04 0.0000000000000000e+00  1.1717031594575933e-21 4.9523418494882058e-04 0.0000000000000000e+00  4.2239621507387144e-21 4.5774882092723874e-04 0.0000000000000000e+00  7.0363802037671840e-21 4.2124470926248954e-04 0.0000000000000000e+00  2.7340297062294386e-21 3.8564839083125374e-04 0.0000000000000000e+00  1.8433052763815326e-21 3.5111204790723357e-04 0.0000000000000000e+00  5.3788086453905161e-21 3.1771169478982965e-04 0.0000000000000000e+00  -2.7919577654823429e-22 2.8548467191345269e-04 0.0000000000000000e+00  -8.1899578247499972e-21 2.5465063977508424e-04 0.0000000000000000e+00  6.0366383054341124e-21 2.2508931108475920e-04 0.0000000000000000e+00  4.9965041873333081e-21 1.9708651525846853e-04 0.0000000000000000e+00  1.2870760160848813e-22 1.7053799604825379e-04 0.0000000000000000e+00  2.2529319059564992e-21 1.4569564345980046e-04 0.0000000000000000e+00  3.7826195347971029e-21 1.2261007848389169e-04 0.0000000000000000e+00  -1.6122896997082096e-21 1.0126688843355086e-04 0.0000000000000000e+00  5.8708986355230011e-21 8.1684458563437804e-05 0.0000000000000000e+00  3.8850111163174178e-21 6.4178240429505658e-05 0.0000000000000000e+00  0.0000000000000000e+00 4.8680173023762908e-05 0.0000000000000000e+00  1.6339002101675699e-21 3.5224051687081597e-05 0.0000000000000000e+00  -3.4152886996645874e-21 2.3804730557237837e-05 0.0000000000000000e+00  5.6921478327745810e-22 1.4630887063108720e-05 0.0000000000000000e+00  -1.0162398506433554e-21 7.6389063515859364e-06 0.0000000000000000e+00  0.0000000000000000e+00 2.5642192286067037e-06 0.0000000000000000e+00  -1.8532338797522957e-22 5.5602867128460072e-07 0.0000000000000000e+00  1.4231394843323297e-21 1.6200918236818932e-22 0.0000000000000000e+00  8.4574694284306098e-22 -8.4574694284306098e-22 0.0000000000000000e+00  -3.9249860891699051e-21 -5.0505335706230403e-22 0.0000000000000000e+00  -4.1766878623931874e-21 -6.5260747849893553e-23 0.0000000000000000e+00  -2.9945614718645248e-21 -1.3692003146837512e-22 0.0000000000000000e+00  2.2151163574315071e-21 -5.5377908935787677e-22 0.0000000000000000e+00  -2.4774507507203665e-20 -5.5651019586867211e-22 0.0000000000000000e+00  1.8140164909659268e-20 8.5032023014027808e-22 0.0000000000000000e+00  -8.2945525018666674e-21 -3.8880714852500001e-22 0.0000000000000000e+00  5.8404406708395646e-21 -3.6502754192747279e-22 0.0000000000000000e+00  2.5357052321542126e-20 8.1219138465591025e-22 0.0000000000000000e+00  -4.3453076512105758e-21 8.3055120791158888e-22 0.0000000000000000e+00  1.3921730115526808e-20 2.8399362648861108e-22 0.0000000000000000e+00  2.5781474063706300e-20 8.0567106449082188e-22 0.0000000000000000e+00  2.3273033327348032e-20 4.8677997954960785e-23 0.0000000000000000e+00  3.5797744101450610e-20 -5.0340577642664921e-22 0.0000000000000000e+00  -2.8293304031886780e-20 4.3839885153574559e-22 0.0000000000000000e+00  -2.6724393694934954e-20 3.8734379179718706e-22 0.0000000000000000e+00  8.5364040813757725e-21 -8.2969834960093159e-23 0.0000000000000000e+00  -1.4800275819250708e-21 -1.2336936988899327e-22 0.0000000000000000e+00  -1.3814026723852168e-21 -3.6174257955200911e-22 0.0000000000000000e+00  2.8945225792381456e-20 -4.3342460496404524e-22 0.0000000000000000e+00  -8.7121911433189179e-21 3.0863541229896576e-22 0.0000000000000000e+00  3.1984289489020423e-20 -1.6658484108864804e-22 0.0000000000000000e+00  1.3326774988475865e-20 -8.8685207078270379e-24 0.0000000000000000e+00  -5.8644517759585317e-20 0.0000000000000000e+00 0.0000000000000000e+00  -5.5474237472834185e-21 -1.1089697033207267e-21 0.0000000000000000e+00  -2.0585189557229479e-20 1.0721452894390354e-22 0.0000000000000000e+00  1.3747762148430302e-20 -6.2590623903852778e-22 0.0000000000000000e+00  -4.4748642029451798e-20 3.8876170265022670e-22 0.0000000000000000e+00  9.9195855796761543e-22 1.8314239727433534e-21 0.0000000000000000e+00  3.8666192762416879e-20 -2.5547971553381753e-23 0.0000000000000000e+00  -1.0423351057071969e-20 -1.7806359816368700e-21 0.0000000000000000e+00  1.8352031567558419e-21 -5.4608327793691382e-22 0.0000000000000000e+00  3.6548444214049526e-20 7.6142592112603185e-23 0.0000000000000000e+00  -3.1650527862883410e-20 -6.4744067666384354e-22 0.0000000000000000e+00  1.8388023263999465e-20 2.0462194933115672e-21 0.0000000000000000e+00  3.5619584509792320e-20 2.0304870675245878e-21 0.0000000000000000e+00  1.8208466355847019e-20 4.5521165889617550e-22 0.0000000000000000e+00  0.0000000000000000e+00 -7.6830443976820359e-22 0.0000000000000000e+00  7.1159851397368187e-21 1.1772389856049288e-22 0.0000000000000000e+00  -1.3093254569669778e-21 -2.5631371174372603e-21 0.0000000000000000e+00  -1.7236006017060576e-20 -1.5714641587638166e-21 0.0000000000000000e+00  1.8957500863001535e-20 -1.4218125647251153e-21 0.0000000000000000e+00  -2.6719703142251015e-21 2.1580417284642427e-21 0.0000000000000000e+00  2.1140104051061643e-20 4.9739759021366975e-22 0.0000000000000000e+00  -6.5761124485805620e-21 -5.4800937071504680e-22 0.0000000000000000e+00  3.0538276707132460e-21 -3.1719671146279195e-21 0.0000000000000000e+00  2.6219752263418320e-21 -1.4894342029854690e-21 0.0000000000000000e+00  -4.8843430054068058e-21 4.6683825839949206e-22 0.0000000000000000e+00  -3.9639950048538757e-21 6.6066583414231264e-22 0.0000000000000000e+00  3.6399568269480144e-21 -1.8752943345530247e-21 0.0000000000000000e+00  3.1995215205130146e-21 4.4999883366941348e-21 0.0000000000000000e+00  -7.5203363833889901e-22 1.0360804904392470e-21 0.0000000000000000e+00  1.2409839827519281e-21 8.2732265516795207e-22 0.0000000000000000e+00  2.6141582267558593e-21 2.1784651889632163e-21 0.0000000000000000e+00  5.3948863165746754e-21 -2.6709109305009049e-21 0.0000000000000000e+00  2.1911080977341833e-21 2.0284440796639575e-21 0.0000000000000000e+00  -7.7603256367554847e-21 -9.7004070459443559e-22 0.0000000000000000e+00  9.6420202383152826e-21 1.2453151437082172e-21 0.0000000000000000e+00  -2.7001459702350408e-20 -2.9999848685881663e-22 0.0000000000000000e+00  -3.4934604722747330e-21 -4.3349227720028010e-22 0.0000000000000000e+00  6.8613406291595542e-21 -1.0136071383985707e-21 0.0000000000000000e+00  -4.5185420404508164e-21 1.7401767094181414e-21 0.0000000000000000e+00  1.1953071228519774e-20 -7.3236617097817936e-22 0.0000000000000000e+00  7.0413214993054769e-21 6.6417356759345732e-22 0.0000000000000000e+00  -3.0169226782742839e-21 0.0000000000000000e+00 0.0000000000000000e+00  -1.0443172148090128e-20 -3.6888083515477067e-22 0.0000000000000000e+00  -2.9817049734079129e-20 4.9695497689574966e-22 0.0000000000000000e+00  1.5026014251405503e-20 -3.5217220901731648e-22 0.0000000000000000e+00  1.5596788074731766e-21 7.7771329770281834e-23 0.0000000000000000e+00  3.4247502594932829e-21 -2.8421081865512163e-23 0.0000000000000000e+00  1.5949856076390197e-20 9.2990351902816510e-23 0.0000000000000000e+00  8.5342852192162490e-21 3.2464439109912446e-23 0.0000000000000000e+00  2.4013428060227857e-21 -7.5041962688212054e-23 0.0000000000000000e+00  1.7541745945032927e-20 8.5653056372231084e-23 0.0000000000000000e+00  -1.5201930709858848e-20 5.0277810159613225e-24 0.0000000000000000e+00  0.0000000000000000e+00 0.0000000000000000e+00 0.0000000000000000e+00  -5.3696671374708709e-21 4.1950524511491181e-24 0.0000000000000000e+00  -6.0997949486759389e-21 4.7654648036530772e-23 0.0000000000000000e+00  1.8205402559666068e-21 -9.0177585378554260e-23 0.0000000000000000e+00  5.0472364736730142e-21 0.0000000000000000e+00 0.0000000000000000e+00  -8.3016248076555231e-22 -2.3563169144082774e-23 0.0000000000000000e+00  -3.6616369984140313e-21 4.0049154670153470e-22 0.0000000000000000e+00  3.6846883997298519e-21 4.4735509158079424e-22 0.0000000000000000e+00  -1.0781929131166009e-20 2.9327181871719018e-22 0.0000000000000000e+00  0.0000000000000000e+00 -3.3524558853171191e-22 0.0000000000000000e+00  2.2992712134036291e-21 -2.8740890167545364e-22 0.0000000000000000e+00  3.0459989158912035e-21 3.8887562378946390e-23 0.0000000000000000e+00  2.5436190463126076e-21 -5.5641666638088288e-22 0.0000000000000000e+00  3.1897243856952168e-21 2.7405837017194263e-22 0.0000000000000000e+00  6.1774162421358211e-21 4.7706413812880087e-22 0.0000000000000000e+00  -2.1244097740580363e-21 4.3035496269726055e-22 0.0000000000000000e+00  0.0000000000000000e+00 -6.7793945586427674e-22 0.0000000000000000e+00  -1.1511032784665474e-21 3.8370109282218246e-22 0.0000000000000000e+00  -1.2002000743323215e-20 7.5012504645770096e-22 0.0000000000000000e+00  -4.7977580726281694e-22 -5.4731776857258607e-22 0.0000000000000000e+00  3.7132056548881224e-21 3.0055141181193622e-22 0.0000000000000000e+00  1.5277559938081563e-21 -3.3419662364553420e-22 0.0000000000000000e+00  1.0390272307795524e-21 -2.5975680769488811e-22 0.0000000000000000e+00  4.7220382710905778e-21 6.0144238429625438e-22 0.0000000000000000e+00  3.4703193645999784e-21 -2.8919328038333153e-22 0.0000000000000000e+00  3.7866301988889617e-21 1.7039835895000327e-22 0.0000000000000000e+00  2.5606083162186122e-21 0.0000000000000000e+00 0.0000000000000000e+00  7.6399455736715186e-21 -8.0518242462478909e-22 0.0000000000000000e+00  -1.3703538359642501e-21 5.1388268848659373e-22 0.0000000000000000e+00  -7.6976132949321528e-21 6.9368026785725798e-22 0.0000000000000000e+00  -3.0773414121864108e-21 9.6166919130825337e-23 0.0000000000000000e+00  -8.2562072668552579e-22 -1.2205002125117785e-21 0.0000000000000000e+00  1.3384730034976210e-21 1.1153941695813509e-22 0.0000000000000000e+00  -5.7110309152891364e-22 9.8515283288737603e-22 0.0000000000000000e+00  3.3539475709046173e-21 -2.3956768363604410e-22 0.0000000000000000e+00  -2.5811056771029195e-22 3.9709318109275685e-24 0.0000000000000000e+00  -6.4468060226855887e-22 4.59451762