<?xml version="1.0"?>
<VTKFile type="UnstructuredGrid"  version="0.1"  >
<UnstructuredGrid>
<Piece  NumberOfPoints="18082" NumberOfCells="35500">
<Points>
<DataArray  type="Float64"  NumberOfComponents="3"  format="ascii">0 0 0  30 0 0  30 -10 0  0 -10 0  0.02360821169319077 0 0  0.04721642338638154 0 0  0.07206717063563725 0 0  0.09691791788489297 0 0  0.1230766011355843 0 0  0.1492352843862757 0 0  0.1767707375239038 0 0  0.204306190661532 0 0  0.2332908770901271 0 0  0.2622755635187223 0 0  0.2927857633803451 0 0  0.323295963241968 0 0  0.3554119623832387 0 0  0.3875279615245094 0 0  0.4213342730081758 0 0  0.4551405844918422 0 0  0.4907261762804851 0 0  0.526311768069128 0 0  0.5637702848355051 0 0  0.6012288016018821 0 0  0.6406588220121138 0 0  0.6800888424223455 0 0  0.721594129780935 0 0  0.7630994171395246 0 0  0.8067891887833475 0 0  0.8504789604271704 0 0  0.8964681941825949 0 0  0.9424574279380195 0 0  0.9908671465681095 0 0  1.039276865198199 0 0  1.090234462786975 0 0  1.141192060375751 0 0  1.194831641933244 0 0  1.248471223490737 0 0  1.304933942963653 0 0  1.361396662436569 0 0  1.420831104471586 0 0  1.480265546506604 0 0  1.542828113436244 0 0  1.605390680365884 0 0  1.671246013469327 0 0  1.73710134657277 0 0  1.806422752814762 0 0  1.875744159056755 0 0  1.948714057431306 0 0  2.021683955805857 0 0  2.098494373901932 0 0  2.175304791998006 0 0  2.256157866653476 0 0  2.337010941308945 0 0  2.422119443935387 0 0  2.50722794656183 0 0  2.596815840700639 0 0  2.686403734839449 0 0  2.780706776094687 0 0  2.875009817349925 0 0  2.974276175689285 0 0  3.073542534028646 0 0  3.178033441002704 0 0  3.282524347976761 0 0  3.392514777963501 0 0  3.502505207950242 0 0  3.618284608533553 0 0  3.734064009116865 0 0  3.855937062816526 0 0  3.977810116516187 0 0  4.106097541496641 0 0  4.234384966477093 0 0  4.369424362562147 0 0  4.5044637586472 0 0  4.646610489729194 0 0  4.788757220811188 0 0  4.938385356669961 0 0  5.088013492528733 0 0  5.24551679218304 0 0  5.403020091837347 0 0  5.568813038399614 0 0  5.73460598496188 0 0  5.909124878408681 0 0  6.083643771855482 0 0  6.267347873338513 0 0  6.451051974821543 0 0  6.644424714363561 0 0  6.83779745390558 0 0  7.041347702348167 0 0  7.244897950790754 0 0  7.459161368238869 0 0  7.673424785686984 0 0  7.898965226038037 0 0  8.124505666389089 0 0  8.361916654054033 0 0  8.599327641718979 0 0  8.849233942517035 0 0  9.099140243315093 0 0  9.362199507946787 0 0  9.625258772578484 0 0  9.902163261537794 0 0  10.1790677504971 0 0  10.47054616023911 0 0  10.76202456998112 0 0  11.06884394887334 0 0  11.37566332776555 0 0  11.69863109504192 0 0  12.02159886231829 0 0  12.3615649378891 0 0  12.7015310134599 0 0  13.05939003847426 0 0  13.41724906348862 0 0  13.79394276982091 0 0  14.1706364761532 0 0  14.5671561683298 0 0  14.96367586050641 0 0  15.38106501332897 0 0  15.79845416615153 0 0  16.23781117165827 0 0  16.677168177165 0 0  17.13964923659526 0 0  17.60213029602552 0 0  18.0889524622663 0 0  18.57577462850707 0 0  19.08821901304263 0 0  19.60066339757818 0 0  20.14007853843172 0 0  20.67949367928525 0 0  21.24729908993883 0 0  21.8151045005924 0 0  22.41279440541421 0 0  23.01048431023601 0 0  23.63963157605829 0 0  24.26877884188056 0 0  24.93103912515648 0 0  25.59329940843241 0 0  26.29041549584691 0 0  26.98753158326142 0 0  27.72133799026916 0 0  28.45514439727691 0 0  29.22757219863846 0 0  30 -0.3571428571428571 0  30 -0.7142857142857142 0  30 -1.071428571428571 0  30 -1.428571428571428 0  30 -1.785714285714286 0  30 -2.142857142857143 0  30 -2.5 0  30 -2.857142857142857 0  30 -3.214285714285714 0  30 -3.571428571428571 0  30 -3.928571428571428 0  30 -4.285714285714286 0  30 -4.642857142857142 0  30 -5 0  30 -5.357142857142857 0  30 -5.714285714285714 0  30 -6.071428571428571 0  30 -6.428571428571428 0  30 -6.785714285714285 0  30 -7.142857142857142 0  30 -7.5 0  30 -7.857142857142857 0  30 -8.214285714285714 0  30 -8.571428571428571 0  30 -8.928571428571427 0  30 -9.285714285714285 0  30 -9.642857142857142 0  29.22757220128658 -10 0  28.45514440257316 -10 0  27.72133799277628 -10 0  26.98753158297939 -10 0  26.29041549304805 -10 0  25.5932994031167 -10 0  24.93103911757599 -10 0  24.26877883203527 -10 0  23.63963156418132 -10 0  23.01048429632737 -10 0  22.41279438968936 -10 0  21.81510448305136 -10 0  21.24729907078059 -10 0  20.67949365850982 -10 0  20.14007851622273 -10 0  19.60066337393564 -10 0  19.08821898813588 -10 0  18.57577460233611 -10 0  18.08895243498708 -10 0  17.60213026763805 -10 0  17.13964920724307 -10 0  16.6771681468481 -10 0  16.2378111405086 -10 0  15.79845413416909 -10 0  15.38106498063496 -10 0  14.96367582710082 -10 0  14.56715613432376 -10 0  14.17063644154669 -10 0  13.79394273471576 -10 0  13.41724902788484 -10 0  13.05939000246495 -10 0  12.70153097704506 -10 0  12.36156490115379 -10 0  12.02159882526251 -10 0  11.69863105774323 -10 0  11.37566329022395 -10 0  11.06884391115945 -10 0  10.76202453209494 -10 0  10.47054612224479 -10 0  10.17906771239465 -10 0  9.902163223385379 -10 0  9.625258734376107 -10 0  9.362199469747061 -10 0  9.099140205118012 -10 0  8.849233904370102 -10 0  8.599327603622193 -10 0  8.361916616050124 -10 0  8.124505628478055 -10 0  7.898965188258209 -10 0  7.673424748038361 -10 0  7.459161330755727 -10 0  7.244897913473093 -10 0  7.041347665226496 -10 0  6.837797416979896 -10 0  6.644424677660922 -10 0  6.451051938341948 -10 0  6.26734783710581 -10 0  6.083643735869675 -10 0  5.90912484269068 -10 0  5.734605949511682 -10 0  5.568813003235423 -10 0  5.403020056959164 -10 0  5.24551675760658 -10 0  5.088013458254 -10 0  4.938385322710374 -10 0  4.788757187166745 -10 0  4.646610456411224 -10 0  4.504463725655707 -10 0  4.369424329906533 -10 0  4.234384934157362 -10 0  4.106097509520442 -10 0  3.977810084883522 -10 0  3.85593703153344 -10 0  3.734063978183357 -10 0  3.618284577954206 -10 0  3.502505177725055 -10 0  3.392514748095728 -10 0  3.282524318466404 -10 0  3.1780334118518 -10 0  3.073542505237196 -10 0  2.97427614725823 -10 0  2.875009789279265 -10 0  2.780706748384375 -10 0  2.686403707489482 -10 0  2.596815813710069 -10 0  2.507227919930656 -10 0  2.422119417661861 -10 0  2.337010915393062 -10 0  2.256157841092762 -10 0  2.175304766792465 -10 0  2.098494349048437 -10 0  2.021683931304413 -10 0  1.948714033278215 -10 0  1.875744135252013 -10 0  1.806422729354161 -10 0  1.737101323456312 -10 0  1.671245990692352 -10 0  1.605390657928396 -10 0  1.542828091333185 -10 0  1.480265524737977 -10 0  1.420831083031992 -10 0  1.36139664132601 -10 0  1.304933922176438 -10 0  1.248471203026863 -10 0  1.194831621786765 -10 0  1.14119204054667 -10 0  1.09023444350921 -10 0  1.039276846471754 -10 0  0.9908671279064798 -10 0  0.942457409341209 -10 0  0.8964681758842019 -10 0  0.8504789424271948 -10 0  0.8067891710751951 -10 0  0.7630993997231954 -10 0  0.7215941126497469 -10 0  0.6800888255762949 -10 0  0.6406588054444597 -10 0  0.6012287853126246 -10 0  0.5637702688178621 -10 0  0.5263117523230996 -10 0  0.4907261607992695 -10 0  0.4551405692754429 -10 0  0.4213342580497894 -10 0  0.3875279468241395 -10 0  0.3554119479341011 -10 0  0.3232959490440663 -10 0  0.2927857494269297 -10 0  0.2622755498097931 -10 0  0.2332908636189828 -10 0  0.2043061774281725 -10 0  0.1767707245216883 -10 0  0.1492352716152006 -10 0  0.1230765885890825 -10 0  0.09691790556296098 -10 0  0.0720671585317838 -10 0  0.04721641150060663 -10 0  0.02360820575030331 -10 0  0 -9.972067039106145 0  0 -9.94413407821229 0  0 -9.916201117318435 0  0 -9.888268156424582 0  0 -9.860335195530727 0  0 -9.832402234636872 0  0 -9.804469273743017 0  0 -9.776536312849162 0  0 -9.748603351955307 0  0 -9.720670391061452 0  0 -9.692737430167599 0  0 -9.664804469273744 0  0 -9.636871508379889 0  0 -9.608938547486034 0  0 -9.581005586592179 0  0 -9.553072625698324 0  0 -9.525139664804469 0  0 -9.497206703910614 0  0 -9.46927374301676 0  0 -9.441340782122905 0  0 -9.41340782122905 0  0 -9.385474860335195 0  0 -9.35754189944134 0  0 -9.329608938547485 0  0 -9.30167597765363 0  0 -9.273743016759777 0  0 -9.245810055865922 0  0 -9.217877094972067 0  0 -9.189944134078212 0  0 -9.162011173184357 0  0 -9.134078212290502 0  0 -9.106145251396647 0  0 -9.078212290502794 0  0 -9.050279329608939 0  0 -9.022346368715084 0  0 -8.994413407821229 0  0 -8.966480446927374 0  0 -8.938547486033519 0  0 -8.910614525139664 0  0 -8.882681564245811 0  0 -8.854748603351956 0  0 -8.826815642458101 0  0 -8.798882681564246 0  0 -8.770949720670391 0  0 -8.743016759776536 0  0 -8.715083798882681 0  0 -8.687150837988828 0  0 -8.659217877094973 0  0 -8.631284916201118 0  0 -8.603351955307263 0  0 -8.575418994413408 0  0 -8.547486033519553 0  0 -8.519553072625698 0  0 -8.491620111731844 0  0 -8.463687150837989 0  0 -8.435754189944134 0  0 -8.407821229050279 0  0 -8.379888268156424 0  0 -8.351955307262569 0  0 -8.324022346368714 0  0 -8.296089385474861 0  0 -8.268156424581006 0  0 -8.240223463687151 0  0 -8.212290502793296 0  0 -8.184357541899441 0  0 -8.156424581005586 0  0 -8.128491620111731 0  0 -8.100558659217878 0  0 -8.072625698324023 0  0 -8.044692737430168 0  0 -8.016759776536313 0  0 -7.988826815642458 0  0 -7.960893854748603 0  0 -7.932960893854748 0  0 -7.905027932960894 0  0 -7.877094972067039 0  0 -7.849162011173184 0  0 -7.82122905027933 0  0 -7.793296089385475 0  0 -7.76536312849162 0  0 -7.737430167597765 0  0 -7.709497206703911 0  0 -7.681564245810056 0  0 -7.653631284916202 0  0 -7.625698324022347 0  0 -7.597765363128492 0  0 -7.569832402234637 0  0 -7.541899441340782 0  0 -7.513966480446927 0  0 -7.486033519553073 0  0 -7.458100558659218 0  0 -7.430167597765363 0  0 -7.402234636871508 0  0 -7.374301675977653 0  0 -7.346368715083798 0  0 -7.318435754189944 0  0 -7.290502793296089 0  0 -7.262569832402235 0  0 -7.23463687150838 0  0 -7.206703910614525 0  0 -7.17877094972067 0  0 -7.150837988826815 0  0 -7.12290502793296 0  0 -7.094972067039106 0  0 -7.067039106145251 
[...]
<PointData  Vectors="displacement"> 
<DataArray  type="Float64"  Name="displacement"  NumberOfComponents="3" format="ascii">1.0000000000000006e-01 5.4888629387749396e-02 0.0000000000000000e+00  2.4523779085531891e-20 1.2967700413367073e-03 0.0000000000000000e+00  1.3139136142814086e-21 -6.1218723702023756e-22 0.0000000000000000e+00  -4.3124527403433900e-23 3.4499621922747120e-22 0.0000000000000000e+00  1.0000254028925366e-01 5.4809084836749074e-02 0.0000000000000000e+00  9.9991436248057924e-02 5.4626398635741966e-02 0.0000000000000000e+00  9.9958827413708651e-02 5.4324615299292542e-02 0.0000000000000000e+00  9.9907645126465092e-02 5.3903144726913585e-02 0.0000000000000000e+00  9.9812864833682083e-02 5.3342296544399440e-02 0.0000000000000000e+00  9.9682729448693497e-02 5.2662178829737262e-02 0.0000000000000000e+00  9.9498666228756763e-02 5.1827940343849611e-02 0.0000000000000000e+00  9.9260522231621837e-02 5.0881951560490808e-02 0.0000000000000000e+00  9.8947538134258009e-02 4.9774964131627297e-02 0.0000000000000000e+00  9.8563131487608660e-02 4.8568777595674011e-02 0.0000000000000000e+00  9.8080785111437224e-02 4.7202330965084659e-02 0.0000000000000000e+00  9.7512873116764362e-02 4.5755679427465869e-02 0.0000000000000000e+00  9.6823576162361272e-02 4.4161586407027095e-02 0.0000000000000000e+00  9.6040011064774153e-02 4.2510963160264557e-02 0.0000000000000000e+00  9.5116728952091306e-02 4.0744870291059769e-02 0.0000000000000000e+00  9.4099879968910463e-02 3.8950835417970842e-02 0.0000000000000000e+00  9.2933622614915848e-02 3.7063912784417077e-02 0.0000000000000000e+00  9.1679251527122710e-02 3.5189920155934515e-02 0.0000000000000000e+00  9.0280896940166916e-02 3.3257273156453389e-02 0.0000000000000000e+00  8.8810832301078751e-02 3.1368320383268325e-02 0.0000000000000000e+00  8.7199494514915973e-02 2.9445472408777384e-02 0.0000000000000000e+00  8.5537364111333752e-02 2.7599255891412201e-02 0.0000000000000000e+00  8.3757918128285827e-02 2.5749953825965999e-02 0.0000000000000000e+00  8.1955773378644486e-02 2.3997786298294018e-02 0.0000000000000000e+00  8.0035260682921910e-02 2.2260523572993712e-02 0.0000000000000000e+00  7.8119481023848955e-02 2.0638805532630974e-02 0.0000000000000000e+00  7.6130928559272754e-02 1.9045462711765691e-02 0.0000000000000000e+00  7.4165655502688804e-02 1.7573811162407332e-02 0.0000000000000000e+00  7.2150552236443927e-02 1.6133320179574612e-02 0.0000000000000000e+00  7.0183179972332338e-02 1.4806181482849240e-02 0.0000000000000000e+00  6.8161072618493052e-02 1.3528323148421137e-02 0.0000000000000000e+00  6.6206198717670472e-02 1.2357031521275298e-02 0.0000000000000000e+00  6.4221405651904470e-02 1.1233983400549303e-02 0.0000000000000000e+00  6.2314922668914488e-02 1.0212164047214008e-02 0.0000000000000000e+00  6.0395595960240078e-02 9.2218046252504921e-03 0.0000000000000000e+00  5.8557724357794098e-02 8.3211481373772472e-03 0.0000000000000000e+00  5.6710150696899900e-02 7.4588359116500250e-03 0.0000000000000000e+00  5.4948674465773929e-02 6.6764650626090268e-03 0.0000000000000000e+00  5.3183182209129577e-02 5.9264600920075107e-03 0.0000000000000000e+00  5.1505992726167744e-02 5.2568743026785930e-03 0.0000000000000000e+00  4.9830633616257870e-02 4.5984940342949599e-03 0.0000000000000000e+00  4.8239937250885066e-02 4.0070065876252874e-03 0.0000000000000000e+00  4.6651351382207731e-02 3.4521867651779383e-03 0.0000000000000000e+00  4.5147326443541594e-02 2.9460284699525494e-03 0.0000000000000000e+00  4.3648008708810256e-02 2.4634829040122794e-03 0.0000000000000000e+00  4.2228738462578318e-02 2.0271171089254448e-03 0.0000000000000000e+00  4.0815254542722952e-02 1.6104438152665891e-03 0.0000000000000000e+00  3.9478240149841727e-02 1.2347187142090937e-03 0.0000000000000000e+00  3.8147676815893150e-02 8.8299899097336908e-04 0.0000000000000000e+00  3.6891948325924628e-02 5.7006781820143678e-04 0.0000000000000000e+00  3.5641128375850241e-02 2.6405223255096164e-04 0.0000000000000000e+00  3.4460212906316921e-02 -5.4919361497695316e-06 0.0000000000000000e+00  3.3285554874769460e-02 -2.6263966812968960e-04 0.0000000000000000e+00  3.2175983676325112e-02 -4.9197368981883794e-04 0.0000000000000000e+00  3.1070978337689435e-02 -7.0561005361935924e-04 0.0000000000000000e+00  3.0028755154396538e-02 -8.8900499115207154e-04 0.0000000000000000e+00  2.8991718703811481e-02 -1.0668489699188200e-03 0.0000000000000000e+00  2.8013475365057720e-02 -1.2218077636280849e-03 0.0000000000000000e+00  2.7038778926046256e-02 -1.3648244687558631e-03 0.0000000000000000e+00  2.6118445630459661e-02 -1.4883249358695616e-03 0.0000000000000000e+00  2.5204103240194758e-02 -1.6021785385884637e-03 0.0000000000000000e+00  2.4341510839102225e-02 -1.7003296287673086e-03 0.0000000000000000e+00  2.3482449873083081e-02 -1.7853103673063579e-03 0.0000000000000000e+00  2.2674317914266360e-02 -1.8509992941351837e-03 0.0000000000000000e+00  2.1861873236591948e-02 -1.9191753846591279e-03 0.0000000000000000e+00  2.1095261925959306e-02 -1.9670632700378009e-03 0.0000000000000000e+00  2.0336307292531913e-02 -2.0039920382107566e-03 0.0000000000000000e+00  1.9619379172492301e-02 -2.0287510545074546e-03 0.0000000000000000e+00  1.8905425399127072e-02 -2.0469582800321556e-03 0.0000000000000000e+00  1.8230959017688429e-02 -2.0535331279242083e-03 0.0000000000000000e+00  1.7560826140544467e-02 -2.0494609909870237e-03 0.0000000000000000e+00  1.6928128254211302e-02 -2.0372407519760882e-03 0.0000000000000000e+00  1.6299167238799820e-02 -2.0150779453740951e-03 0.0000000000000000e+00  1.5705603134359765e-02 -1.9859393148250496e-03 0.0000000000000000e+00  1.5115637064988283e-02 -1.9475852753243347e-03 0.0000000000000000e+00  1.4559314535934698e-02 -1.9029154497885534e-03 0.0000000000000000e+00  1.4006933053542527e-02 -1.8491227038758234e-03 0.0000000000000000e+00  1.3487853403340987e-02 -1.7868591783810714e-03 0.0000000000000000e+00  1.2967374412862120e-02 -1.7225702499800227e-03 0.0000000000000000e+00  1.2477801354859432e-02 -1.6476560013724533e-03 0.0000000000000000e+00  1.1994175339045416e-02 -1.5667120220131791e-03 0.0000000000000000e+00  1.1538862529189431e-02 -1.4814593625259787e-03 0.0000000000000000e+00  1.1089113987931849e-02 -1.3858401231034098e-03 0.0000000000000000e+00  1.0666474873692589e-02 -1.2889911502905931e-03 0.0000000000000000e+00  1.0248200920140295e-02 -1.1848656987679771e-03 0.0000000000000000e+00  9.8568786059492815e-03 -1.0799176820497963e-03 0.0000000000000000e+00  9.4678618314827604e-03 -9.6767422442656616e-04 0.0000000000000000e+00  9.1053516499198881e-03 -8.5261278059308408e-04 0.0000000000000000e+00  8.7433712403377547e-03 -7.3473599468508563e-04 0.0000000000000000e+00  8.4057870278824928e-03 -6.1449092387762304e-04 0.0000000000000000e+00  8.0744075280840353e-03 -4.8957647897349252e-04 0.0000000000000000e+00  7.7636713428992843e-03 -3.6907245491108376e-04 0.0000000000000000e+00  7.4661096919568914e-03 -2.3529423331756442e-04 0.0000000000000000e+00  7.1906464539965229e-03 -1.1070276706310039e-04 0.0000000000000000e+00  6.9094869126715705e-03 1.5875814421757758e-05 0.0000000000000000e+00  6.6495250321839307e-03 1.4128982134298476e-04 0.0000000000000000e+00  6.3975532224449412e-03 2.6766575740471988e-04 0.0000000000000000e+00  6.1643947193725660e-03 3.9072940204568166e-04 0.0000000000000000e+00  5.9352488118588984e-03 5.1360695256371823e-04 0.0000000000000000e+00  5.7243395384840795e-03 6.3090034680761333e-04 0.0000000000000000e+00  5.5152713434030373e-03 7.4465606498578130e-04 0.0000000000000000e+00  5.3221081808519973e-03 8.5306911147950003e-04 0.0000000000000000e+00  5.1326414216835243e-03 9.5922143796078700e-04 0.0000000000000000e+00  4.9570961252900416e-03 1.0583608551362087e-03 0.0000000000000000e+00  4.7850936625436387e-03 1.1535702057910060e-03 0.0000000000000000e+00  4.6255671620284711e-03 1.2410098586212925e-03 0.0000000000000000e+00  4.4678227879184126e-03 1.3232165467004090e-03 0.0000000000000000e+00  4.3220415064365719e-03 1.3977959398015847e-03 0.0000000000000000e+00  4.1725069773340950e-03 1.4634915169116133e-03 0.0000000000000000e+00  4.0320984520402494e-03 1.5223840750518245e-03 0.0000000000000000e+00  3.8952645043465808e-03 1.5764375673721900e-03 0.0000000000000000e+00  3.7644593930598867e-03 1.6205050073003976e-03 0.0000000000000000e+00  3.6335186320572456e-03 1.6580390618215707e-03 0.0000000000000000e+00  3.5072647403123418e-03 1.6864477790226561e-03 0.0000000000000000e+00  3.3802811158713145e-03 1.7093072540079076e-03 0.0000000000000000e+00  3.2573259593851062e-03 1.7235544767789559e-03 0.0000000000000000e+00  3.1300613331287611e-03 1.7307081388154648e-03 0.0000000000000000e+00  3.0067178934998842e-03 1.7317194750230609e-03 0.0000000000000000e+00  2.8763002038852807e-03 1.7261135684434625e-03 0.0000000000000000e+00  2.7482046363592767e-03 1.7154457017743055e-03 0.0000000000000000e+00  2.6206163115093896e-03 1.7017720606486465e-03 0.0000000000000000e+00  2.4929532733722675e-03 1.6814605159242138e-03 0.0000000000000000e+00  2.3548835053982860e-03 1.6559357849904224e-03 0.0000000000000000e+00  2.2199923731673126e-03 1.6280560534375334e-03 0.0000000000000000e+00  2.0800634286278511e-03 1.6016616192619795e-03 0.0000000000000000e+00  1.9416697911736091e-03 1.5670355565100282e-03 0.0000000000000000e+00  1.7983805019928245e-03 1.5380073560588214e-03 0.0000000000000000e+00  1.6539870193374318e-03 1.5058122134782705e-03 0.0000000000000000e+00  1.4988757902818905e-03 1.4712980777032813e-03 0.0000000000000000e+00  1.3464283343666422e-03 1.4397566006707141e-03 0.0000000000000000e+00  1.1886800319991860e-03 1.4116753307604495e-03 0.0000000000000000e+00  1.0310750082155999e-03 1.3848504410088581e-03 0.0000000000000000e+00  8.6659667946820866e-04 1.3601183666281883e-03 0.0000000000000000e+00  7.0284201133510285e-04 1.3388122912752370e-03 0.0000000000000000e+00  5.2960063840020268e-04 1.3220620442350383e-03 0.0000000000000000e+00  3.5646147098425580e-04 1.3076764230511848e-03 0.0000000000000000e+00  1.7862968809782002e-04 1.3042228444272884e-03 0.0000000000000000e+00  -2.5059449570321757e-20 1.2422622906012135e-03 0.0000000000000000e+00  1.7750443445644591e-20 1.1713024532798227e-03 0.0000000000000000e+00  -5.8472048997417490e-21 1.0966899341217130e-03 0.0000000000000000e+00  -2.6489384302279142e-20 1.0231700233149996e-03 0.0000000000000000e+00  2.8113114881707867e-20 9.5127531540738686e-04 0.0000000000000000e+00  5.9727034612534663e-21 8.8062875416764386e-04 0.0000000000000000e+00  6.0941019181924029e-21 8.1157999402430025e-04 0.0000000000000000e+00  -1.7640122360748389e-20 7.4435065142178355e-04 0.0000000000000000e+00  1.6369714703135381e-20 6.7906220998852757e-04 0.0000000000000000e+00  4.9453407523795356e-21 6.1582165182496587e-04 0.0000000000000000e+00  7.8474227702735356e-21 5.5463072002050662e-04 0.0000000000000000e+00  -5.4341700638101676e-22 4.9594283231518864e-04 0.0000000000000000e+00  7.7605226164523240e-21 4.3943470493538832e-04 0.0000000000000000e+00  1.0694910862518405e-20 3.8558282158874445e-04 0.0000000000000000e+00  7.1655287800431759e-21 3.3450151254291172e-04 0.0000000000000000e+00  -6.3114932272001552e-21 2.8631269166933367e-04 0.0000000000000000e+00  -9.4578887398459472e-21 2.4155516699974239e-04 0.0000000000000000e+00  7.4264309690107034e-21 2.0020464042786064e-04 0.0000000000000000e+00  -6.1774548388281555e-23 1.6228885587720352e-04 0.0000000000000000e+00  3.4918572888602183e-21 1.2797105224091469e-04 0.0000000000000000e+00  6.1971100507636682e-21 9.6871728664951227e-05 0.0000000000000000e+00  -1.9541337687581203e-21 7.0016402178453506e-05 0.0000000000000000e+00  -3.7637702491865310e-21 4.7539713072947620e-05 0.0000000000000000e+00  -3.3630452267069440e-23 2.9367268871222479e-05 0.0000000000000000e+00  3.4609124250507024e-21 1.6269374669395958e-05 0.0000000000000000e+00  5.2570686312583158e-21 7.7503530429031142e-06 0.0000000000000000e+00  4.8267771209336597e-21 1.2123667188792778e-06 0.0000000000000000e+00  -1.4853619906476100e-22 0.0000000000000000e+00 0.0000000000000000e+00  4.1184836231335316e-21 2.8241030558629930e-22 0.0000000000000000e+00  -9.6926418005215513e-21 -6.0579011253259696e-22 0.0000000000000000e+00  3.6160239087112971e-21 -3.7049306140078070e-22 0.0000000000000000e+00  4.3084102880199092e-21 1.0771025720049773e-21 0.0000000000000000e+00  -2.3696749134741518e-20 3.0678827004799287e-21 0.0000000000000000e+00  1.8059203420316173e-20 7.0543763360610047e-22 0.0000000000000000e+00  2.5168447755634107e-22 2.4719011188569210e-22 0.0000000000000000e+00  -4.6143811007920650e-20 -2.1629911409962803e-21 0.0000000000000000e+00  -1.1138328893488089e-20 -1.1138328893488089e-21 0.0000000000000000e+00  3.6997616824420325e-20 4.9137459844933245e-21 0.0000000000000000e+00  2.3817448943279030e-20 1.3177457745969093e-21 0.0000000000000000e+00  -7.4996224018913753e-20 -6.8355933350572426e-22 0.0000000000000000e+00  -6.5715477972167407e-21 1.7969076008014526e-21 0.0000000000000000e+00  -4.0871911264988339e-20 -5.3218634459620234e-22 0.0000000000000000e+00  -6.5851441681610468e-20 -4.2952098958685209e-22 0.0000000000000000e+00  1.0453722394570628e-19 -1.7500651330196364e-22 0.0000000000000000e+00  -8.4481020906031942e-20 -3.2607536901044698e-22 0.0000000000000000e+00  5.0782001103473462e-20 2.3969369010428554e-22 0.0000000000000000e+00  1.1756968896251574e-19 -3.8591791981748522e-22 0.0000000000000000e+00  -5.0798956096206310e-20 -3.1749347560128945e-22 0.0000000000000000e+00  -8.4696862456419564e-20 -5.3762656832688201e-22 0.0000000000000000e+00  0.0000000000000000e+00 6.6944902841089854e-22 0.0000000000000000e+00  6.1674887496413033e-20 5.0417127040732916e-22 0.0000000000000000e+00  -1.9758352824636240e-20 0.0000000000000000e+00 0.0000000000000000e+00  -2.6992568284282423e-21 -1.5183319659908862e-21 0.0000000000000000e+00  -1.2760436494586772e-20 0.0000000000000000e+00 0.0000000000000000e+00  7.9047396256888168e-20 -4.9566488510346725e-22 0.0000000000000000e+00  2.6313943944485481e-20 -2.0557768706629284e-21 0.0000000000000000e+00  1.8294628599684947e-20 -1.9438042887165258e-21 0.0000000000000000e+00  6.6643822147008788e-20 0.0000000000000000e+00 0.0000000000000000e+00  1.0874765089733630e-20 -8.6658284308814879e-22 0.0000000000000000e+00  -2.7347001753655813e-20 -1.7091876096034883e-21 0.0000000000000000e+00  6.8921403703835148e-20 -5.8407969240538261e-22 0.0000000000000000e+00  9.5697764275436710e-21 2.9905551336073973e-21 0.0000000000000000e+00  -9.6295822182125002e-21 -1.7795972522327566e-21 0.0000000000000000e+00  -9.9968819407641792e-21 -6.2480512129776122e-21 0.0000000000000000e+00  1.4698768849578546e-20 -7.6556087758221592e-21 0.0000000000000000e+00  4.9246932202800208e-20 -4.9246932202800206e-21 0.0000000000000000e+00  7.3499406958179809e-20 -1.5810529490375770e-20 0.0000000000000000e+00  1.9299555861717661e-20 2.4124444827147077e-21 0.0000000000000000e+00  -1.0473778007900247e-20 -1.7100045727184077e-21 0.0000000000000000e+00  -5.5277729643088109e-21 -3.6851819762058737e-21 0.0000000000000000e+00  1.1989609818816325e-21 2.5854065874020919e-21 0.0000000000000000e+00  -3.6743182905636262e-21 -1.0498052258753217e-21 0.0000000000000000e+00  -5.5237275084295254e-21 -5.1094479452973109e-21 0.0000000000000000e+00  9.1616001696462995e-21 -1.1452000212057874e-21 0.0000000000000000e+00  6.4078818750626470e-21 1.2317361024830778e-21 0.0000000000000000e+00  0.0000000000000000e+00 1.1886226056525907e-21 0.0000000000000000e+00  -3.3202323471836930e-20 2.8622692648135284e-21 0.0000000000000000e+00  1.7960736050499130e-20 4.4901840126247825e-21 0.0000000000000000e+00  -2.2913211741580977e-20 7.4340729855219422e-23 0.0000000000000000e+00  1.2185441243959239e-20 0.0000000000000000e+00 0.0000000000000000e+00  2.8866572989386500e-21 -4.5104020295916404e-21 0.0000000000000000e+00  2.2443048308896590e-20 1.4026905193060369e-21 0.0000000000000000e+00  -1.3650266453273733e-20 5.8625743228687674e-21 0.0000000000000000e+00  2.2558995495018645e-20 2.8198744368773307e-21 0.0000000000000000e+00  3.7297123182733226e-20 2.0856943885081079e-21 0.0000000000000000e+00  -3.2576839508917879e-20 -6.1081574079221024e-21 0.0000000000000000e+00  -1.2383162101930761e-19 -9.3825824381660771e-21 0.0000000000000000e+00  8.9922282754093705e-20 5.6201426721308565e-21 0.0000000000000000e+00  -3.5509090734103907e-20 -1.5165340834356877e-21 0.0000000000000000e+00  -9.9318357778489584e-21 -2.4829589444622396e-21 0.0000000000000000e+00  8.2644091225028174e-20 5.4102480668558466e-22 0.0000000000000000e+00  -3.3286872250965769e-20 -5.2010737892134014e-22 0.0000000000000000e+00  -2.0592459287946390e-20 3.7346815114858130e-22 0.0000000000000000e+00  -6.2453528700227763e-20 -2.9275091578231762e-22 0.0000000000000000e+00  -1.6408845886298760e-21 -8.8133449584612481e-23 0.0000000000000000e+00  0.0000000000000000e+00 3.9864250658200873e-23 0.0000000000000000e+00  -8.9963849809959642e-20 4.5899923372428386e-22 0.0000000000000000e+00  4.5878409987622197e-20 -2.3895005201886561e-22 0.0000000000000000e+00  -7.5610914630512808e-20 -2.7736953813818958e-23 0.0000000000000000e+00  -8.6460619347514606e-21 2.7018943546098314e-22 0.0000000000000000e+00  -5.3946038228675641e-20 7.0242237276921408e-22 0.0000000000000000e+00  3.8565466948447754e-20 -9.0387813160424424e-22 0.0000000000000000e+00  -1.1093430383853997e-20 1.3855350805281298e-21 0.0000000000000000e+00  9.1900125553068055e-20 -9.5729297451112557e-22 0.0000000000000000e+00  -3.2365656123529191e-20 3.1120823195701142e-22 0.0000000000000000e+00  -1.0563682081396817e-20 4.2914958455674572e-21 0.0000000000000000e+00  -1.1046944387629394e-20 5.7688889138717625e-21 0.0000000000000000e+00  -4.7110142190984626e-21 0.0000000000000000e+00 0.0000000000000000e+00  5.2081912720931876e-20 -2.0344497156614014e-21 0.0000000000000000e+00  -7.7698979558826067e-21 4.8561862224266292e-21 0.0000000000000000e+00  -2.4228171779683117e-20 3.6406171272027902e-21 0.0000000000000000e+00  1.5764284910809498e-20 3.2842260230853122e-22 0.0000000000000000e+00  1.2511851493725342e-20 5.8293853550311253e-21 0.0000000000000000e+00  -4.1007273025089927e-20 5.1259091281362411e-22 0.0000000000000000e+00  -1.2205872235522601e-19 -5.0462464938327431e-21 0.0000000000000000e+00  -9.5907375248394704e-21 2.3976843812098676e-21 0.0000000000000000e+00  1.2095624842509150e-20 5.8798176317752812e-22 0.0000000000000000e+00  6.1025332252838519e-21 0.0000000000000000e+00 0.0000000000000000e+00  4.9837907748808243e-21 1.2450943170231067e-21 0.0000000000000000e+00  -3.7099110046641110e-20 7.7289812597168986e-22 0.0000000000000000e+00  8.1447394313366655e-22 1.8325663720507497e-21 0.0000000000000000e+00  -1.3713612195295926e-20 0.0000000000000000e+00 0.0000000000000000e+00  -1.3451193218573370e-20 9.1275953983176438e-22 0.0000000000000000e+00  2.8677800316073291e-20 2.2404531496932261e-21 0.0000000000000000e+00  1.4405288312850071e-20 2.2508262988828236e-22 0.0000000000000000e+00  -3.6173084987262288e-20 -1.8086542493631144e-21 0.0000000000000000e+00  -3.0147705395869821e-20 2.6914713031215551e-21 0.0000000000000000e+00  6.9470199194048601e-21 0.0000000000000000e+00 0.0000000000000000e+00  -1.0367342446656234e-21 4.5357123204121022e-22 0.0000000000000000e+00  -1.2416060317156992e-20 -1.2416060317156992e-21 0.0000000000000000e+00  -7.0740014596817786e-21 -9.3695383571944088e-23 0.0000000000000000e+00  -1.7706317586185864e-21 4.4265793965464659e-22 0.0000000000000000e+00  -8.7136280457730783e-21 2.0793885109231208e-21 0.0000000000000000e+00  1.4017970832467208e-20 2.8035941664934419e-21 0.0000000000000000e+00  -2.6931689284730845e-20 1.6028192694306453e-21 0.0000000000000000e+00  5.0262670051297334e-21 4.1885558376081113e-22 0.0000000000000000e+00  5.9020332299923900e-21 1.4208598516648346e-21 0.0000000000000000e+00  -3.7080688168831645e-21 -2.3175430105519777e-21 0.0000000000000000e+00  9.8816497402064288e-21 -1.3322717292265987e-22 0.0000000000000000e+00  -8.1937527525876126e-21 3.0726572822203549e-21 0.0000000000000000e+00  3.7445662292021442e-21 1.3373450818579087e