<?xml version="1.0"?>
<VTKFile type="UnstructuredGrid"  version="0.1"  >
<UnstructuredGrid>
<Piece  NumberOfPoints="1691" NumberOfCells="3204">
<Points>
<DataArray  type="Float64"  NumberOfComponents="3"  format="ascii">0 0 0  30 0 0  30 -10 0  0 -10 0  0.1391574078963744 0 0  0.2856388821882616 0 0  0.4398299073010886 0 0  0.6021362569539473 0 0  0.7729850389704483 0 0  0.9528258543586996 0 0  1.142131984380316 0 0  1.34140159760994 0 0  1.551159074717981 0 0  1.771956417032531 0 0  2.004374674080994 0 0  2.249025475789527 0 0  2.506552636773105 0 0  2.777633857742732 0 0  3.062982518028728 0 0  3.363349525995907 0 0  3.679525322337712 0 0  4.01234195575742 0 0  4.362675247811097 0 0  4.731447135329707 0 0  5.119628065610077 0 0  5.528239565804708 0 0  5.958356943167011 0 0  6.411112081475485 0 0  6.887696441559404 0 0  7.389364184530748 0 0  7.917435485335147 0 0  8.473300005202017 0 0  9.058420557070402 0 0  9.674336929103793 0 0  10.32266995225095 0 0  11.00512576896296 0 0  11.72350030646412 0 0  12.47968402994705 0 0  13.27566689579597 0 0  14.1135435963616 0 0  14.9955190732806 0 0  15.92391430904694 0 0  16.90117245730496 0 0  17.92986524844506 0 0  19.01269976086341 0 0  20.15252556282024 0 0  21.35234220269763 0 0  22.61530708683689 0 0  23.94474379751883 0 0  25.34415086349739 0 0  26.81721093579712 0 0  28.3678004819169 0 0  30 -1.111111111111111 0  30 -2.222222222222222 0  30 -3.333333333333333 0  30 -4.444444444444445 0  30 -5.555555555555555 0  30 -6.666666666666666 0  30 -7.777777777777777 0  30 -8.888888888888889 0  28.36780047917311 -10 0  26.8172109305839 -10 0  25.34415085606858 -10 0  23.94474378810899 -10 0  22.61530707566275 -10 0  21.3523421899591 -10 0  20.15252554870171 -10 0  19.01269974553473 -10 0  17.92986523206254 -10 0  16.90117244001232 -10 0  15.92391429097614 -10 0  14.99551905455266 -10 0  14.11354357708742 -10 0  13.27566687607703 -10 0  12.47968400987599 -10 0  11.72350028612546 -10 0  11.00512574843363 -10 0  10.32266993160086 -10 0  9.674336908396342 -10 0  9.058420536362949 -10 0  8.473299984546333 -10 0  7.917435464777824 -10 0  7.389364164113587 -10 0  6.887696420787165 -10 0  6.411112061446698 -10 0  5.95835692337857 -10 0  5.528239546282652 -10 0  5.119628046377237 -10 0  4.731447115907979 -10 0  4.362675229213632 -10 0  4.012341937260036 -10 0  3.679525304434552 -10 0  3.363349508456405 -10 0  3.062982500861274 -10 0  2.777633840953978 -10 0  2.506552620368097 -10 0  2.249025459771861 -10 0  2.004374658452946 -10 0  1.771956401795187 -10 0  1.551159059871345 -10 0  1.341401583153029 -10 0  1.142131970307521 -10 0  0.9528258406748833 -10 0  0.7729850256685147 -10 0  0.6021362439621285 -10 0  0.4398298947504031 -10 0  0.2856388700059078 -10 0  0.1391573960769001 -10 0  0 -9.855072463768115 0  0 -9.710144927536232 0  0 -9.565217391304348 0  0 -9.420289855072463 0  0 -9.27536231884058 0  0 -9.130434782608695 0  0 -8.985507246376812 0  0 -8.840579710144928 0  0 -8.695652173913043 0  0 -8.55072463768116 0  0 -8.405797101449275 0  0 -8.260869565217391 0  0 -8.115942028985508 0  0 -7.971014492753623 0  0 -7.826086956521739 0  0 -7.681159420289855 0  0 -7.536231884057971 0  0 -7.391304347826087 0  0 -7.246376811594203 0  0 -7.101449275362318 0  0 -6.956521739130435 0  0 -6.811594202898551 0  0 -6.666666666666667 0  0 -6.521739130434783 0  0 -6.376811594202898 0  0 -6.231884057971015 0  0 -6.086956521739131 0  0 -5.942028985507246 0  0 -5.797101449275362 0  0 -5.652173913043478 0  0 -5.507246376811594 0  0 -5.36231884057971 0  0 -5.217391304347826 0  0 -5.072463768115941 0  0 -4.927536231884058 0  0 -4.782608695652174 0  0 -4.637681159420289 0  0 -4.492753623188406 0  0 -4.347826086956522 0  0 -4.202898550724638 0  0 -4.057971014492754 0  0 -3.913043478260869 0  0 -3.768115942028985 0  0 -3.623188405797101 0  0 -3.478260869565217 0  0 -3.333333333333334 0  0 -3.188405797101449 0  0 -3.043478260869565 0  0 -2.898550724637681 0  0 -2.753623188405797 0  0 -2.608695652173912 0  0 -2.463768115942029 0  0 -2.318840579710145 0  0 -2.173913043478261 0  0 -2.028985507246377 0  0 -1.884057971014492 0  0 -1.739130434782609 0  0 -1.594202898550725 0  0 -1.44927536231884 0  0 -1.304347826086957 0  0 -1.159420289855072 0  0 -1.014492753623188 0  0 -0.8695652173913047 0  0 -0.72463768115942 0  0 -0.579710144927537 0  0 -0.4347826086956523 0  0 -0.2898550724637676 0  0 -0.1449275362318829 0  0.1309460514202492 -4.990980414828784 0  0.1171526873513358 -5.869565217391296 0  0.1344252986967795 -6.716855800502001 0  0.1221309018586645 -4.161899358592938 0  0.1166997684017801 -3.25954604704229 0  4.961569127360256 -0.3118894787216622 0  4.923897360678746 -9.687537149351071 0  0.1228405945134021 -2.536958536012416 0  0.1335945686177435 -7.466846676638523 0  3.206461751753455 -0.2806173508164562 0  3.213166004658842 -9.746377676274168 0  0.1155250883680452 -8.186784073011673 0  0.1359204609538445 -1.804202625344072 0  6.662432263484016 -9.600124945047963 0  6.631056521209421 -0.3942868763482545 0  2.126700074935258 -0.2065769621215452 0  2.120437876630353 -9.808537401472012 0  8.761385473272522 -9.4914222957189 0  8.786076048231736 -0.4923064159810888 0  0.1195911345135556 -8.749677128895598 0  0.1117474302775605 -1.230589418769438 0  11.3907841305612 -9.402816705944797 0  11.36435727088349 -0.618365439918426 0  1.211504568109637 -0.1471532661956818 0  1.239596144827807 -9.832618358594059 0  13.75158625181508 -9.315497816134139 0  13.7500399625954 -0.6902569910160397 0  0.131402377539402 -3.696772604078816 0  0.1204853385030979 -6.307560917781178 0  0.1346483804691658 -4.550944754283819 0  0.1255109280847009 -5.434782608695652 0  16.39894095075685 -9.180198571581517 0  16.44068234362399 -0.8166544577416346 0  0.1255109280847009 -0.7971014492753632 0  0.1162877148651766 -9.206770243020259 0  19.56645066956165 -9.043742294716539 0  29.11731382843969 -5.098539983867493 0  19.50527862123305 -0.9323941524176265 0  23.28904960561395 -8.8608997858633 0  0.6875606479622149 -0.1442604037134076 0  0.6875606348153145 -9.855739596611892 0  23.37074358394081 -1.15131614182933 0  10.00852704311311 -9.475417469395781 0  10.01049631493635 -0.5545437343697674 0  7.639131123468924 -9.543000896765111 0  7.693537846067955 -0.4574302764599576 0  5.733194300659633 -9.66079268774309 0  5.731454990332523 -0.3687808037058806 0  3.803630689980224 -9.686555789708486 0  3.834043646352164 -0.2754981925697493 0  2.618022704128803 -9.787800068206256 0  2.634320277618269 -0.2392104743186785 0  1.65952286941916 -9.813294854785646 0  1.665360553377539 -0.1820878093930922 0  0.1365068028365961 -1.543352471920677 0  0.1128108295274224 -8.471115901500411 0  0.1249192863256123 -0.5070564851587012 0  0.1172626025927563 -9.49200175151447 0  0.1255109280847009 -2.101449275362318 0  0.1255109280847009 -7.898550724637682 0  0.1247535864599936 -2.824177050114505 0  0.1155424837078822 -7.17494363557847 0  26.05192393553612 -8.777856070543081 0  26.00031291598836 -1.159065252957426 0  0.3627343947446455 -0.1301950113519217 0  0.3690141220077834 -9.868919517536135 0  28.90574865438674 -7.135369011630129 0  29.02069681040884 -2.861993939893059 0  0.1397555488250113 -0.2163338956475025 0  0.1255109280847009 -9.782608695652172 0  24.67098979274125 -8.799958058548517 0  23.93395881668722 -7.700959994796646 0  22.61396570077244 -7.764517377391733 0  23.2032949615693 -6.630776985250927 0  21.94857473380583 -6.690613342424633 0  24.50398505507967 -6.535933305198952 0  22.51489076809043 -5.580432145971667 0  21.29537841406989 -5.639199768252479 0  21.84985259542567 -4.547213342284197 0  20.65342988351128 -4.619546679988924 0  20.11277906893955 -5.663225279336593 0  19.49454290958806 -4.673886314669294 0  18.97860072994828 -5.624185949902217 0  18.40383886642446 -4.729683279047542 0  17.90575400337286 -5.630456854950327 0  17.35903168001753 -4.836859475002379 0  16.91444903556046 -5.680257663405808 0  16.36114434035519 -4.898890029095359 0  15.89440836794127 -5.835214594829282 0  15.41608945577568 -4.979845093198404 0  14.9809818125648 -5.732909169427192 0  14.51777858619734 -4.988431190461874 0  14.14039496103406 -5.776391085527889 0  13.67321261031888 -5.031745046943032 0  13.26988611760758 -5.891550007816156 0  12.85732927991246 -5.095735823822261 0  12.46423889659403 -5.760519953635332 0  12.07741841933393 -5.116608846746942 0  11.73131647445202 -5.75987862647932 0  11.35222911621012 -5.158061768105265 0  11.01225658271747 -5.784828178519854 0  10.65393216495117 -5.205808407572067 0  10.33042159780337 -5.788944717060055 0  9.98551374198097 -5.24118342090078 0  9.687616112021921 -5.812725728827915 0  9.357518717034999 -5.284717467130579 0  9.08157001076583 -5.820057568121996 0  8.766199932316585 -5.320212662582848 0  8.494748056481422 -5.830095453943056 0  8.194406727465122 -5.347802431655208 0  7.942610344706003 -5.833678024304247 0  7.660825631728443 -5.380025954369014 0  7.416702921751611 -5.83684433397813 0  7.147290851157173 -5.413787279190068 0  6.91632006965034 -5.851605397483334 0  6.658527053286988 -5.437627383845131 0  6.441897327469297 -5.862220684948111 0  6.194860224019926 -5.464520225953867 0  5.988748643021736 -5.866336295550595 0  5.755042825355586 -5.482399938780632 0  5.555770501455733 -5.867908174086599 0  5.334991086231989 -5.504761241472904 0  5.145076642106908 -5.873191062890511 0  4.935013388047023 -5.544035964184449 0  4.754345788811499 -5.880090917794126 0  4.554437025256316 -5.569020251233177 0  4.382470744799432 -5.88665007327689 0  4.192208958329529 -5.585677590398814 0  4.029485566904095 -5.896175760774888 0  4.354949258143058 -5.270074521138358 0  4.004482386201769 -5.289207815434526 0  4.158655721068861 -4.98145486433833 0  3.821444856080801 -5.001169872115685 0  3.97033944278737 -4.700814034221719 0  3.642688047138773 -4.720140385706738 0  3.788830742180677 -4.426816067812119 0  3.467446796449556 -4.450112744784491 0  3.325275354457695 -4.730293981808933 0  3.158439978631689 -4.466074367009679 0  3.294707394527546 -4
[...]
<PointData  Vectors="displacement"> 
<DataArray  type="Float64"  Name="displacement"  NumberOfComponents="3" format="ascii">3.0000000000000016e-01 1.7091381848257076e-01 0.0000000000000000e+00  1.2984307637959109e-19 2.3260204492569782e-03 0.0000000000000000e+00  1.9152161320514286e-20 1.1759295336798032e-21 0.0000000000000000e+00  4.3444936000661843e-21 -2.6066961600397109e-20 0.0000000000000000e+00  2.9411156550166706e-01 1.4956208590257014e-01 0.0000000000000000e+00  2.7553319328334797e-01 1.1424960300393516e-01 0.0000000000000000e+00  2.4453551290163239e-01 7.7195765031563016e-02 0.0000000000000000e+00  2.1101608775895306e-01 4.9257735290562765e-02 0.0000000000000000e+00  1.8038494126035107e-01 3.0934017020255097e-02 0.0000000000000000e+00  1.5481786542478287e-01 1.8989359594407448e-02 0.0000000000000000e+00  1.3326245961429636e-01 1.1886294421723729e-02 0.0000000000000000e+00  1.1569920367293250e-01 6.5627281214276278e-03 0.0000000000000000e+00  1.0120148525973846e-01 2.5256059194536554e-03 0.0000000000000000e+00  8.9086275701270298e-02 1.3646388003388558e-04 0.0000000000000000e+00  7.8828411366742498e-02 -1.5857448790860317e-03 0.0000000000000000e+00  7.0203372530698832e-02 -2.9101186827963049e-03 0.0000000000000000e+00  6.2713989904124121e-02 -3.8685240576434893e-03 0.0000000000000000e+00  5.6246128690722763e-02 -4.4376348959090390e-03 0.0000000000000000e+00  5.0532504501382899e-02 -4.9362901349400074e-03 0.0000000000000000e+00  4.5549487090737327e-02 -5.1525792771783064e-03 0.0000000000000000e+00  4.1091992217516582e-02 -5.2783180014191050e-03 0.0000000000000000e+00  3.7130960579053546e-02 -5.3319594132130088e-03 0.0000000000000000e+00  3.3700764289718764e-02 -5.1168066376565159e-03 0.0000000000000000e+00  3.0450210941259437e-02 -4.9192262287838084e-03 0.0000000000000000e+00  2.7552579358331841e-02 -4.5999064020578280e-03 0.0000000000000000e+00  2.4970498975594620e-02 -4.2208735155031931e-03 0.0000000000000000e+00  2.2608282968717728e-02 -3.8234551750409951e-03 0.0000000000000000e+00  2.0494257501069948e-02 -3.3473434549432788e-03 0.0000000000000000e+00  1.8594244699376154e-02 -2.8117390300687740e-03 0.0000000000000000e+00  1.6826867981943622e-02 -2.2807068319247036e-03 0.0000000000000000e+00  1.5288771293338027e-02 -1.6682533842190556e-03 0.0000000000000000e+00  1.3915463980243703e-02 -1.0755980502124079e-03 0.0000000000000000e+00  1.2678256609461909e-02 -4.7645787417547784e-04 0.0000000000000000e+00  1.1579931106803597e-02 1.1014298782790178e-04 0.0000000000000000e+00  1.0618746525804688e-02 6.7035718604556243e-04 0.0000000000000000e+00  9.7629565434995871e-03 1.1864491768272094e-03 0.0000000000000000e+00  9.0081085313140248e-03 1.6509823047311273e-03 0.0000000000000000e+00  8.3399161875517026e-03 2.0750211546734735e-03 0.0000000000000000e+00  7.7087260034693992e-03 2.4183968735717281e-03 0.0000000000000000e+00  7.1625185557065395e-03 2.7052848875714032e-03 0.0000000000000000e+00  6.6497161877528636e-03 2.9132535703463433e-03 0.0000000000000000e+00  6.1641605292508629e-03 3.0351553706033279e-03 0.0000000000000000e+00  5.6822351529659653e-03 3.1036269444484257e-03 0.0000000000000000e+00  5.1929173965209506e-03 3.0986069633660977e-03 0.0000000000000000e+00  4.6984460192067371e-03 3.0487283792112597e-03 0.0000000000000000e+00  4.1924616628052679e-03 2.9537992568447863e-03 0.0000000000000000e+00  3.6819532643017549e-03 2.8535864276214265e-03 0.0000000000000000e+00  3.1212942887304516e-03 2.7182222463547241e-03 0.0000000000000000e+00  2.5433425801481887e-03 2.5905737669895978e-03 0.0000000000000000e+00  1.9490756822571852e-03 2.4798403541288119e-03 0.0000000000000000e+00  1.3253590055319182e-03 2.3954327934617623e-03 0.0000000000000000e+00  6.4712431569868150e-04 2.3391648966353865e-03 0.0000000000000000e+00  2.0957787623372108e-19 1.9478376628308260e-03 0.0000000000000000e+00  6.6902444825721764e-20 1.5414883663918558e-03 0.0000000000000000e+00  -4.3470135817211783e-20 1.1697138485293136e-03 0.0000000000000000e+00  4.3128262281544335e-20 8.3849572513898789e-04 0.0000000000000000e+00  -5.1366927721736293e-20 5.5434459270667987e-04 0.0000000000000000e+00  2.6660722163362011e-20 3.1520918752710961e-04 0.0000000000000000e+00  2.6334381444155541e-20 1.3934113024036094e-04 0.0000000000000000e+00  -4.4834575561554662e-20 2.8891997242099962e-05 0.0000000000000000e+00  -1.8242607396474694e-20 5.2143931878734378e-21 0.0000000000000000e+00  -7.9828662231107957e-21 -1.5965732446221591e-20 0.0000000000000000e+00  -4.4391008971188176e-20 -6.9055677830087428e-21 0.0000000000000000e+00  6.7652189103956417e-20 6.3423927284959141e-21 0.0000000000000000e+00  -9.4160484999305183e-20 -1.7066587906124063e-20 0.0000000000000000e+00  -2.9421429543935045e-19 1.5761480112822345e-20 0.0000000000000000e+00  -1.4862690613630784e-19 1.6392673470916305e-21 0.0000000000000000e+00  -5.2063106210411478e-20 -1.3015776552602870e-20 0.0000000000000000e+00  1.8691280000937366e-19 3.1943105470351946e-21 0.0000000000000000e+00  -5.1256454185401485e-19 5.0055131040431136e-21 0.0000000000000000e+00  -2.1066973637033748e-19 -1.5938828738545270e-21 0.0000000000000000e+00  3.5649778278966006e-19 2.4756790471504170e-21 0.0000000000000000e+00  2.8135431663203384e-20 0.0000000000000000e+00 0.0000000000000000e+00  0.0000000000000000e+00 3.0993002193885012e-21 0.0000000000000000e+00  9.6360771827162852e-20 3.9901805120309447e-21 0.0000000000000000e+00  5.3755538770653455e-20 1.3438884692663364e-20 0.0000000000000000e+00  -1.8011156273351785e-19 -1.6286683864201081e-20 0.0000000000000000e+00  -1.3529260461170894e-19 -2.5367363364695425e-20 0.0000000000000000e+00  7.9963337868332455e-20 2.1752007508588785e-20 0.0000000000000000e+00  0.0000000000000000e+00 0.0000000000000000e+00 0.0000000000000000e+00  -5.9442784238517275e-20 4.6811192587832350e-20 0.0000000000000000e+00  2.6499979338536915e-20 3.3124974173171141e-20 0.0000000000000000e+00  -1.3511274935297148e-19 1.5466834608530028e-19 0.0000000000000000e+00  0.0000000000000000e+00 -4.2330165779340184e-20 0.0000000000000000e+00  1.7539612661555314e-20 4.2204692966867472e-20 0.0000000000000000e+00  4.0054278088561216e-20 -2.0027139044280608e-20 0.0000000000000000e+00  1.0371382967320716e-19 -2.9473741627739311e-20 0.0000000000000000e+00  -1.0937605088730641e-19 5.1270023853424878e-21 0.0000000000000000e+00  2.9710253648938062e-20 -2.8868849981145869e-21 0.0000000000000000e+00  0.0000000000000000e+00 2.9815398213644764e-21 0.0000000000000000e+00  2.9236669696105220e-19 3.6564938827361493e-21 0.0000000000000000e+00  8.5138487210893191e-20 -2.6605777253404122e-21 0.0000000000000000e+00  -1.4149572989057087e-19 1.2433341152083944e-20 0.0000000000000000e+00  -9.2260479009231837e-20 8.6494199071154840e-21 0.0000000000000000e+00  2.4751829196914946e-19 -5.2984482566754282e-23 0.0000000000000000e+00  -2.5321764099977096e-19 1.5826102562485685e-20 0.0000000000000000e+00  -1.8966304018691189e-19 1.3467492986676224e-20 0.0000000000000000e+00  1.4966844778890111e-19 -4.6771389934031598e-21 0.0000000000000000e+00  -4.9963868004375643e-20 -1.2490967001093911e-21 0.0000000000000000e+00  -1.7411604054206302e-19 1.0882252533878939e-20 0.0000000000000000e+00  -2.9876488008559457e-20 -1.6093472541106297e-20 0.0000000000000000e+00  0.0000000000000000e+00 -3.8240335536019217e-20 0.0000000000000000e+00  1.5729618661672840e-19 -1.8788155623664783e-20 0.0000000000000000e+00  -6.6303478258444561e-20 8.2879347823055701e-21 0.0000000000000000e+00  -3.4740061608650143e-21 -1.3317023616649221e-20 0.0000000000000000e+00  3.0342715890488497e-20 -7.5856789726221243e-21 0.0000000000000000e+00  2.4847626021381260e-20 3.3874143208870758e-20 0.0000000000000000e+00  -1.8044373863799678e-20 -7.2177495455198713e-21 0.0000000000000000e+00  -2.1985280311854295e-21 7.3939678215532751e-05 0.0000000000000000e+00  -1.1070590008254880e-20 1.7949997997426548e-04 0.0000000000000000e+00  -2.7911717331049292e-20 3.1721322639306337e-04 0.0000000000000000e+00  -5.0463908611018627e-20 4.8643588852875915e-04 0.0000000000000000e+00  3.7733544793052209e-20 6.8596363711662795e-04 0.0000000000000000e+00  1.2250565802761578e-20 9.1138132900447509e-04 0.0000000000000000e+00  -1.0520422714513628e-20 1.1630035905060806e-03 0.0000000000000000e+00  1.0690550500437550e-20 1.4400539729019222e-03 0.0000000000000000e+00  4.5912315726203078e-20 1.7393180025940791e-03 0.0000000000000000e+00  -1.2985040216442525e-20 2.0580209832113117e-03 0.0000000000000000e+00  -1.6291177250275103e-20 2.3985488699388500e-03 0.0000000000000000e+00  9.0181284704258584e-20 2.7581331512276158e-03 0.0000000000000000e+00  -1.5483570571941687e-20 3.1368076350310890e-03 0.0000000000000000e+00  0.0000000000000000e+00 3.5333426372520385e-03 0.0000000000000000e+00  -5.4228527259801590e-20 3.9462992982359606e-03 0.0000000000000000e+00  -9.0834032890882228e-20 4.3775574708517428e-03 0.0000000000000000e+00  -7.0976114602939040e-21 4.8250954062369518e-03 0.0000000000000000e+00  -1.1201437951926380e-19 5.2912804340174927e-03 0.0000000000000000e+00  -4.8611546582050904e-20 5.7746733117508249e-03 0.0000000000000000e+00  -5.1914152406963886e-20 6.2754864535273132e-03 0.0000000000000000e+00  -2.7578166882291832e-19 6.7947663247257678e-03 0.0000000000000000e+00  3.4543373682270084e-19 7.3324973829966946e-03 0.0000000000000000e+00  3.0259075015726583e-19 7.8894150634649923e-03 0.0000000000000000e+00  -2.3025510094442417e-19 8.4640288052303253e-03 0.0000000000000000e+00  -1.7144262930604497e-20 9.0591435189468095e-03 0.0000000000000000e+00  -2.4535753681140468e-20 9.6744289794601351e-03 0.0000000000000000e+00  8.7607964513309931e-20 1.0314861106153522e-02 0.0000000000000000e+00  -1.0017696022920944e-19 1.0976631710172333e-02 0.0000000000000000e+00  -5.5975140964406498e-20 1.1664090851989772e-02 0.0000000000000000e+00  -4.6503067768023658e-20 1.2378412326514389e-02 0.0000000000000000e+00  -1.6933072936505001e-19 1.3117535702849913e-02 0.0000000000000000e+00  1.0951698210402742e-19 1.3892092040785725e-02 0.0000000000000000e+00  -1.4353239131621330e-19 1.4698737024602077e-02 0.0000000000000000e+00  1.5633635511383443e-19 1.5533563470754524e-02 0.0000000000000000e+00  -6.0972515583568660e-20 1.6409599775570532e-02 0.0000000000000000e+00  -3.0601465612651127e-19 1.7322585380031029e-02 0.0000000000000000e+00  -9.9233532597934651e-20 1.8277848110881949e-02 0.0000000000000000e+00  -1.1216455179196349e-19 1.9286636192526675e-02 0.0000000000000000e+00  -1.6521634450677569e-19 2.0345106019898314e-02 0.0000000000000000e+00  2.0201263662891683e-19 2.1461266678145928e-02 0.0000000000000000e+00  -6.8357654165215324e-19 2.2633291676256658e-02 0.0000000000000000e+00  -5.3568400468525184e-19 2.3870872931663335e-02 0.0000000000000000e+00  2.1352436609465139e-19 2.5180211424042632e-02 0.0000000000000000e+00  9.7149092971285793e-20 2.6568947439991115e-02 0.0000000000000000e+00  -3.1637053388484761e-19 2.8043313534438192e-02 0.0000000000000000e+00  -1.5172952815773223e-19 2.9616007094306042e-02 0.0000000000000000e+00  -3.8672847109607164e-20 3.1296344047623589e-02 0.0000000000000000e+00  5.6352411847268522e-19 3.3113544490686778e-02 0.0000000000000000e+00  -2.8324221610830355e-19 3.5074384871310489e-02 0.0000000000000000e+00  -9.7038992775325129e-20 3.7173586191553122e-02 0.0000000000000000e+00  1.8686321586075241e-19 3.9437969445988881e-02 0.0000000000000000e+00  -3.7853969147045661e-19 4.1906879152183274e-02 0.0000000000000000e+00  -1.7955688494259353e-19 4.4624102401709907e-02 0.0000000000000000e+00  -9.3893811063206872e-20 4.7565638615680202e-02 0.0000000000000000e+00  -1.1193650095389135e-18 5.0808947282088186e-02 0.0000000000000000e+00  -6.7645175869647791e-19 5.4345372609732746e-02 0.0000000000000000e+00  8.5643798707533265e-19 5.8303901120346439e-02 0.0000000000000000e+00  -6.5737310082175452e-19 6.2724605834646993e-02 0.0000000000000000e+00  -1.5115389516166168e-18 6.7544775890535549e-02 0.0000000000000000e+00  0.0000000000000000e+00 7.3066970242073898e-02 0.0000000000000000e+00  -6.6711259824949723e-19 7.9533232072015403e-02 0.0000000000000000e+00  1.4217088185017519e-20 8.6791780931375878e-02 0.0000000000000000e+00  1.7118778928167054e-18 9.4349979889166019e-02 0.0000000000000000e+00  -1.0435422314823917e-17 1.0493235351269486e-01 0.0000000000000000e+00  5.3623188405793054e-02 1.2735730008740304e-01 0.0000000000000000e+00  1.9855072463767787e-01 1.5314932154747574e-01 0.0000000000000000e+00  3.0000000000000004e-01 1.6301419834865907e-01 0.0000000000000000e+00  2.9999999999999999e-01 1.6643527656359611e-01 0.0000000000000000e+00  -7.3999576788744256e-04 1.5962250630681657e-02 0.0000000000000000e+00  -5.1806411020947169e-04 1.1293794578447605e-02 0.0000000000000000e+00  -4.8129779400279959e-04 7.6746844891509266e-03 0.0000000000000000e+00  -9.0456939083559688e-04 2.1697500666045668e-02 0.0000000000000000e+00  -1.2418660105875457e-03 3.0304984048344343e-02 0.0000000000000000e+00  2.8540733708655765e-02 -6.2052358806739373e-03 0.0000000000000000e+00  -1.0456176242860916e-03 -3.0018498592736016e-05 0.0000000000000000e+00  -1.8884388870265233e-03 4.0298486013681994e-02 0.0000000000000000e+00  -3.9628493922808311e-04 5.0352187915282329e-03 0.0000000000000000e+00  4.6852475642878637e-02 -7.8703596635980172e-03 0.0000000000000000e+00  -1.0045380214260520e-03 4.2509564672294372e-05 0.0000000000000000e+00  -2.7357807778037753e-04 2.9450122015668443e-03 0.0000000000000000e+00  -3.3264786420868094e-03 5.5414793152808943e-02 0.0000000000000000e+00  -7.1617328877157465e-04 -9.8138826706568045e-05 0.0000000000000000e+00  1.9721799401240588e-02 -4.1948891825875799e-03 0.0000000000000000e+00  7.1566240591348640e-02 -6.3484025604449955e-03 0.0000000000000000e+00  -6.4620426006019663e-04 6.4076096258062164e-05 0.0000000000000000e+00  -1.7711166808455998e-05 -1.2418922150626437e-04 0.0000000000000000e+00  1.3535687964075132e-02 -1.5027440138250913e-03 0.0000000000000000e+00  -2.1895540869884401e-04 1.6217793556355356e-03 0.0000000000000000e+00  -3.9309767721543223e-03 7.3564429468240461e-02 0.0000000000000000e+00  6.6331987843985113e-04 -8.5869826496191189e-05 0.0000000000000000e+00  9.6395999517094287e-03 9.2426461909895488e-04 0.0000000000000000e+00  1.1931911704812545e-01 3.0164209711977994e-03 0.0000000000000000e+00  -3.7728332319605164e-04 7.3835345901628941e-05 0.0000000000000000e+00  9.3439377474708414e-04 -3.9714232049464787e-05 0.0000000000000000e+00  7.5618507147612668e-03 2.2319483281206033e-03 0.0000000000000000e+00  -1.1698720490522267e-03 2.5721812559975389e-02 0.0000000000000000e+00  -4.7557564261316965e-04 9.3303793196887093e-03 0.0000000000000000e+00  -8.7760097533438755e-04 1.8797789756270548e-02 0.0000000000000000e+00  -6.2544631798279720e-04 1.3461541526081392e-02 0.0000000000000000e+00  9.9533130398710709e-04 -1.1342507988245115e-06 0.0000000000000000e+00  5.9142790110023550e-03 2.7507048534319029e-03 0.0000000000000000e+00  3.1630350441646097e-03 8.0405396697465201e-02 0.0000000000000000e+00  -1.4913597611967036e-04 7.8832313557181415e-04 0.0000000000000000e+00  8.3122419241566747e-04 2.4168976265814273e-05 0.0000000000000000e+00  2.4152302203693543e-04 6.6483877836297515e-04 0.0000000000000000e+00  4.4027614908051776e-03 2.6818979212929438e-03 0.0000000000000000e+00  5.6178368039756202e-04 3.1425992071434129e-05 0.0000000000000000e+00  1.7512764383395499e-01 2.7717483998066752e-02 0.0000000000000000e+00  -1.9169805462569345e-04 6.7211633662302741e-05 0.0000000000000000e+00  2.6699294010616424e-03 2.2520411865426275e-03 0.0000000000000000e+00  3.4973477961927223e-04 -1.0232246014540515e-04 0.0000000000000000e+00  1.1374404486851328e-02 -2.0493832543028582e-04 0.0000000000000000e+00  -4.1483221391868389e-04 -1.1565220885151067e-04 0.0000000000000000e+00  1.6195466551777147e-02 -2.8471224889409369e-03 0.0000000000000000e+00  -8.9970616191780372e-04 -5.9932286896883923e-05 0.0000000000000000e+00  2.3805571463859792e-02 -5.3985853054140691e-03 0.0000000000000000e+00  -1.2252434646329909e-03 1.9110500829017986e-05 0.0000000000000000e+00  3.8615906987424786e-02 -7.3416187083139069e-03 0.0000000000000000e+00  -7.9547037789374901e-04 5.7494455062076368e-05 0.0000000000000000e+00  5.7657268325637438e-02 -7.6031121087982946e-03 0.0000000000000000e+00  -5.3015783061598025e-04 7.4555763979536013e-05 0.0000000000000000e+00  9.0214698534326898e-02 -4.0072281696637785e-03 0.0000000000000000e+00  -3.8392609891684725e-03 6.2533399351235947e-02 0.0000000000000000e+00  -2.3783890214270582e-04 2.2388118721675559e-03 0.0000000000000000e+00  1.2323476131693448e-01 7.5367826149170064e-02 0.0000000000000000e+00  -1.0389987155888447e-04 3.9873342553855683e-04 0.0000000000000000e+00  -2.4922588814359705e-03 4.8545506804669791e-02 0.0000000000000000e+00  -3.2616258829733496e-04 3.7303548220093052e-03 0.0000000000000000e+00  -1.6501843743885352e-03 3.5858792341740414e-02 0.0000000000000000e+00  -3.6940889666955620e-04 6.0091511750432159e-03 0.0000000000000000e+00  3.3650254158603310e-04 2.6294317917835628e-05 0.0000000000000000e+00  1.5953444840958308e-03 2.0538386807669152e-03 0.0000000000000000e+00  2.3425786159060072e-01 8.1669577079026529e-02 0.0000000000000000e+00  -9.6358934041122131e-05 6.1588982280721965e-05 0.0000000000000000e+00  1.9364443389672763e-04 2.2954817106296294e-04 0.0000000000000000e+00  3.4646183755774462e-04 1.3331992267226159e-03 0.0000000000000000e+00  2.6923729184597217e-01 1.3307652491164365e-01 0.0000000000000000e+00  -5.3603821431036853e-05 1.2083741464087432e-04 0.0000000000000000e+00  4.5368705892671787e-04 3.0006396259257019e-05 0.0000000000000000e+00  9.6036826166815662e-04 1.7391455496657950e-04 0.0000000000000000e+00  1.1761942289395372e-03 1.8257620866240213e-04 0.0000000000000000e+00  1.5134933141930870e-03 3.9727906110690464e-04 0.0000000000000000e+00  1.8168953342290602e-03 4.1591248638052478e-04 0.0000000000000000e+00  1.2206944543037093e-03 3.8851418906301190e-04 0.0000000000000000e+00  2.0802966468750003e-03 7.0044181434457105e-04 0.0000000000000000e+00  2.4565017328347706e-03 7.2098266367810206e-04 0.0000000000000000e+00  2.6388954145417864e-03 1.0564337939645756e-03 0.0000000000000000e+00  3.0706791175621577e-03 1.0847753905997575e-03 0.0000000000000000e+00  2.8436928188698418e-03 7.4617981217440783e-04 0.0000000000000000e+00  3.5054445156640049e-03 1.0979305395198836e-03 0.0000000000000000e+00  3.2649720644143429e-03 7.6456155692620782e-04 0.0000000000000000e+00  3.9210091474395749e-03 1.0673393200789001e-03 0.0000000000000000e+00  3.6485322090138153e-03 7.3000631982460880e-04 0.0000000000000000e+00  4.2952890925982284e-03 9.6929111454534180e-04 0.0000000000000000e+00  3.9669309453004382e-03 6.4021014461893521e-04 0.0000000000000000e+00  4.6603691043401547e-03 8.2155074180147376e-04 0.0000000000000000e+00  4.1920929942795455e-03 4.6067674946599440e-04 0.0000000000000000e+00  4.9574764416798513e-03 6.0677266554855051e-04 0.0000000000000000e+00  4.5309124466095183e-03 2.9497602202435528e-04 0.0000000000000000e+00  5.2596977949834565e-03 3.3235202014900042e-04 0.0000000000000000e+00  4.6879273187178114e-03 3.5007009121194284e-05 0.0000000000000000e+00  5.4729324133939525e-03 -2.8726212391182603e-05 0.0000000000000000e+00  4.7066061197218387e-03 -3.1295247422018110e-04 0.0000000000000000e+00  5.5794737149630000e-03 -4.7334001390516347e-04 0.0000000000000000e+00  4.8911725467498364e-03 -7.1986703541807549e-04 0.0000000000000000e+00  5.6453334426831677e-03 -9.9853557230435001e-04 0.0000000000000000e+00  4.8442225748951953e-03 -1.1811754100507642e-03 0.0000000000000000e+00  5.5923317173843575e-03 -1.5753825537939325e-03 0.0000000000000000e+00  4.6630069237917522e-03 -1.7020707670088720e-03 0.0000000000000000e+00  5.4235852339491030e-03 -2.2088189410926127e-03 0.0000000000000000e+00  4.4007466301961909e-03 -2.2654610174272652e-03 0.0000000000000000e+00  5.1538116299370672e-03 -2.8787742332273616e-03 0.0000000000000000e+00  4.0015735505350035e-03 -2.8277387100145712e-03 0.0000000000000000e+00  4.7555563879015843e-03 -3