<?xml version="1.0"?>
<VTKFile type="UnstructuredGrid"  version="0.1"  >
<UnstructuredGrid>
<Piece  NumberOfPoints="1691" NumberOfCells="3204">
<Points>
<DataArray  type="Float64"  NumberOfComponents="3"  format="ascii">0 0 0  30 0 0  30 -10 0  0 -10 0  0.1391574078963744 0 0  0.2856388821882616 0 0  0.4398299073010886 0 0  0.6021362569539473 0 0  0.7729850389704483 0 0  0.9528258543586996 0 0  1.142131984380316 0 0  1.34140159760994 0 0  1.551159074717981 0 0  1.771956417032531 0 0  2.004374674080994 0 0  2.249025475789527 0 0  2.506552636773105 0 0  2.777633857742732 0 0  3.062982518028728 0 0  3.363349525995907 0 0  3.679525322337712 0 0  4.01234195575742 0 0  4.362675247811097 0 0  4.731447135329707 0 0  5.119628065610077 0 0  5.528239565804708 0 0  5.958356943167011 0 0  6.411112081475485 0 0  6.887696441559404 0 0  7.389364184530748 0 0  7.917435485335147 0 0  8.473300005202017 0 0  9.058420557070402 0 0  9.674336929103793 0 0  10.32266995225095 0 0  11.00512576896296 0 0  11.72350030646412 0 0  12.47968402994705 0 0  13.27566689579597 0 0  14.1135435963616 0 0  14.9955190732806 0 0  15.92391430904694 0 0  16.90117245730496 0 0  17.92986524844506 0 0  19.01269976086341 0 0  20.15252556282024 0 0  21.35234220269763 0 0  22.61530708683689 0 0  23.94474379751883 0 0  25.34415086349739 0 0  26.81721093579712 0 0  28.3678004819169 0 0  30 -1.111111111111111 0  30 -2.222222222222222 0  30 -3.333333333333333 0  30 -4.444444444444445 0  30 -5.555555555555555 0  30 -6.666666666666666 0  30 -7.777777777777777 0  30 -8.888888888888889 0  28.36780047917311 -10 0  26.8172109305839 -10 0  25.34415085606858 -10 0  23.94474378810899 -10 0  22.61530707566275 -10 0  21.3523421899591 -10 0  20.15252554870171 -10 0  19.01269974553473 -10 0  17.92986523206254 -10 0  16.90117244001232 -10 0  15.92391429097614 -10 0  14.99551905455266 -10 0  14.11354357708742 -10 0  13.27566687607703 -10 0  12.47968400987599 -10 0  11.72350028612546 -10 0  11.00512574843363 -10 0  10.32266993160086 -10 0  9.674336908396342 -10 0  9.058420536362949 -10 0  8.473299984546333 -10 0  7.917435464777824 -10 0  7.389364164113587 -10 0  6.887696420787165 -10 0  6.411112061446698 -10 0  5.95835692337857 -10 0  5.528239546282652 -10 0  5.119628046377237 -10 0  4.731447115907979 -10 0  4.362675229213632 -10 0  4.012341937260036 -10 0  3.679525304434552 -10 0  3.363349508456405 -10 0  3.062982500861274 -10 0  2.777633840953978 -10 0  2.506552620368097 -10 0  2.249025459771861 -10 0  2.004374658452946 -10 0  1.771956401795187 -10 0  1.551159059871345 -10 0  1.341401583153029 -10 0  1.142131970307521 -10 0  0.9528258406748833 -10 0  0.7729850256685147 -10 0  0.6021362439621285 -10 0  0.4398298947504031 -10 0  0.2856388700059078 -10 0  0.1391573960769001 -10 0  0 -9.855072463768115 0  0 -9.710144927536232 0  0 -9.565217391304348 0  0 -9.420289855072463 0  0 -9.27536231884058 0  0 -9.130434782608695 0  0 -8.985507246376812 0  0 -8.840579710144928 0  0 -8.695652173913043 0  0 -8.55072463768116 0  0 -8.405797101449275 0  0 -8.260869565217391 0  0 -8.115942028985508 0  0 -7.971014492753623 0  0 -7.826086956521739 0  0 -7.681159420289855 0  0 -7.536231884057971 0  0 -7.391304347826087 0  0 -7.246376811594203 0  0 -7.101449275362318 0  0 -6.956521739130435 0  0 -6.811594202898551 0  0 -6.666666666666667 0  0 -6.521739130434783 0  0 -6.376811594202898 0  0 -6.231884057971015 0  0 -6.086956521739131 0  0 -5.942028985507246 0  0 -5.797101449275362 0  0 -5.652173913043478 0  0 -5.507246376811594 0  0 -5.36231884057971 0  0 -5.217391304347826 0  0 -5.072463768115941 0  0 -4.927536231884058 0  0 -4.782608695652174 0  0 -4.637681159420289 0  0 -4.492753623188406 0  0 -4.347826086956522 0  0 -4.202898550724638 0  0 -4.057971014492754 0  0 -3.913043478260869 0  0 -3.768115942028985 0  0 -3.623188405797101 0  0 -3.478260869565217 0  0 -3.333333333333334 0  0 -3.188405797101449 0  0 -3.043478260869565 0  0 -2.898550724637681 0  0 -2.753623188405797 0  0 -2.608695652173912 0  0 -2.463768115942029 0  0 -2.318840579710145 0  0 -2.173913043478261 0  0 -2.028985507246377 0  0 -1.884057971014492 0  0 -1.739130434782609 0  0 -1.594202898550725 0  0 -1.44927536231884 0  0 -1.304347826086957 0  0 -1.159420289855072 0  0 -1.014492753623188 0  0 -0.8695652173913047 0  0 -0.72463768115942 0  0 -0.579710144927537 0  0 -0.4347826086956523 0  0 -0.2898550724637676 0  0 -0.1449275362318829 0  0.1309460514202492 -4.990980414828784 0  0.1171526873513358 -5.869565217391296 0  0.1344252986967795 -6.716855800502001 0  0.1221309018586645 -4.161899358592938 0  0.1166997684017801 -3.25954604704229 0  4.961569127360256 -0.3118894787216622 0  4.923897360678746 -9.687537149351071 0  0.1228405945134021 -2.536958536012416 0  0.1335945686177435 -7.466846676638523 0  3.206461751753455 -0.2806173508164562 0  3.213166004658842 -9.746377676274168 0  0.1155250883680452 -8.186784073011673 0  0.1359204609538445 -1.804202625344072 0  6.662432263484016 -9.600124945047963 0  6.631056521209421 -0.3942868763482545 0  2.126700074935258 -0.2065769621215452 0  2.120437876630353 -9.808537401472012 0  8.761385473272522 -9.4914222957189 0  8.786076048231736 -0.4923064159810888 0  0.1195911345135556 -8.749677128895598 0  0.1117474302775605 -1.230589418769438 0  11.3907841305612 -9.402816705944797 0  11.36435727088349 -0.618365439918426 0  1.211504568109637 -0.1471532661956818 0  1.239596144827807 -9.832618358594059 0  13.75158625181508 -9.315497816134139 0  13.7500399625954 -0.6902569910160397 0  0.131402377539402 -3.696772604078816 0  0.1204853385030979 -6.307560917781178 0  0.1346483804691658 -4.550944754283819 0  0.1255109280847009 -5.434782608695652 0  16.39894095075685 -9.180198571581517 0  16.44068234362399 -0.8166544577416346 0  0.1255109280847009 -0.7971014492753632 0  0.1162877148651766 -9.206770243020259 0  19.56645066956165 -9.043742294716539 0  29.11731382843969 -5.098539983867493 0  19.50527862123305 -0.9323941524176265 0  23.28904960561395 -8.8608997858633 0  0.6875606479622149 -0.1442604037134076 0  0.6875606348153145 -9.855739596611892 0  23.37074358394081 -1.15131614182933 0  10.00852704311311 -9.475417469395781 0  10.01049631493635 -0.5545437343697674 0  7.639131123468924 -9.543000896765111 0  7.693537846067955 -0.4574302764599576 0  5.733194300659633 -9.66079268774309 0  5.731454990332523 -0.3687808037058806 0  3.803630689980224 -9.686555789708486 0  3.834043646352164 -0.2754981925697493 0  2.618022704128803 -9.787800068206256 0  2.634320277618269 -0.2392104743186785 0  1.65952286941916 -9.813294854785646 0  1.665360553377539 -0.1820878093930922 0  0.1365068028365961 -1.543352471920677 0  0.1128108295274224 -8.471115901500411 0  0.1249192863256123 -0.5070564851587012 0  0.1172626025927563 -9.49200175151447 0  0.1255109280847009 -2.101449275362318 0  0.1255109280847009 -7.898550724637682 0  0.1247535864599936 -2.824177050114505 0  0.1155424837078822 -7.17494363557847 0  26.05192393553612 -8.777856070543081 0  26.00031291598836 -1.159065252957426 0  0.3627343947446455 -0.1301950113519217 0  0.3690141220077834 -9.868919517536135 0  28.90574865438674 -7.135369011630129 0  29.02069681040884 -2.861993939893059 0  0.1397555488250113 -0.2163338956475025 0  0.1255109280847009 -9.782608695652172 0  24.67098979274125 -8.799958058548517 0  23.93395881668722 -7.700959994796646 0  22.61396570077244 -7.764517377391733 0  23.2032949615693 -6.630776985250927 0  21.94857473380583 -6.690613342424633 0  24.50398505507967 -6.535933305198952 0  22.51489076809043 -5.580432145971667 0  21.29537841406989 -5.639199768252479 0  21.84985259542567 -4.547213342284197 0  20.65342988351128 -4.619546679988924 0  20.11277906893955 -5.663225279336593 0  19.49454290958806 -4.673886314669294 0  18.97860072994828 -5.624185949902217 0  18.40383886642446 -4.729683279047542 0  17.90575400337286 -5.630456854950327 0  17.35903168001753 -4.836859475002379 0  16.91444903556046 -5.680257663405808 0  16.36114434035519 -4.898890029095359 0  15.89440836794127 -5.835214594829282 0  15.41608945577568 -4.979845093198404 0  14.9809818125648 -5.732909169427192 0  14.51777858619734 -4.988431190461874 0  14.14039496103406 -5.776391085527889 0  13.67321261031888 -5.031745046943032 0  13.26988611760758 -5.891550007816156 0  12.85732927991246 -5.095735823822261 0  12.46423889659403 -5.760519953635332 0  12.07741841933393 -5.116608846746942 0  11.73131647445202 -5.75987862647932 0  11.35222911621012 -5.158061768105265 0  11.01225658271747 -5.784828178519854 0  10.65393216495117 -5.205808407572067 0  10.33042159780337 -5.788944717060055 0  9.98551374198097 -5.24118342090078 0  9.687616112021921 -5.812725728827915 0  9.357518717034999 -5.284717467130579 0  9.08157001076583 -5.820057568121996 0  8.766199932316585 -5.320212662582848 0  8.494748056481422 -5.830095453943056 0  8.194406727465122 -5.347802431655208 0  7.942610344706003 -5.833678024304247 0  7.660825631728443 -5.380025954369014 0  7.416702921751611 -5.83684433397813 0  7.147290851157173 -5.413787279190068 0  6.91632006965034 -5.851605397483334 0  6.658527053286988 -5.437627383845131 0  6.441897327469297 -5.862220684948111 0  6.194860224019926 -5.464520225953867 0  5.988748643021736 -5.866336295550595 0  5.755042825355586 -5.482399938780632 0  5.555770501455733 -5.867908174086599 0  5.334991086231989 -5.504761241472904 0  5.145076642106908 -5.873191062890511 0  4.935013388047023 -5.544035964184449 0  4.754345788811499 -5.880090917794126 0  4.554437025256316 -5.569020251233177 0  4.382470744799432 -5.88665007327689 0  4.192208958329529 -5.585677590398814 0  4.029485566904095 -5.896175760774888 0  4.354949258143058 -5.270074521138358 0  4.004482386201769 -5.289207815434526 0  4.158655721068861 -4.98145486433833 0  3.821444856080801 -5.001169872115685 0  3.97033944278737 -4.700814034221719 0  3.642688047138773 -4.720140385706738 0  3.788830742180677 -4.426816067812119 0  3.467446796449556 -4.450112744784491 0  3.325275354457695 -4.730293981808933 0  3.158439978631689 -4.466074367009679 0  3.294707394527546 -4
[...]
<PointData  Vectors="displacement"> 
<DataArray  type="Float64"  Name="displacement"  NumberOfComponents="3" format="ascii">3.0000000000000016e-01 1.6335979493096622e-01 0.0000000000000000e+00  3.4909251258975247e-19 4.0250154298665563e-03 0.0000000000000000e+00  9.5760806602571429e-21 0.0000000000000000e+00 0.0000000000000000e+00  1.7377974400264737e-20 -4.6341265067372636e-20 0.0000000000000000e+00  2.9883727568994300e-01 1.5666346399910630e-01 0.0000000000000000e+00  2.9458836368457886e-01 1.4126876482721526e-01 0.0000000000000000e+00  2.8387202185584376e-01 1.1935239862783240e-01 0.0000000000000000e+00  2.6770972454221253e-01 9.5058269827871605e-02 0.0000000000000000e+00  2.4717416952017979e-01 7.1922282378420674e-02 0.0000000000000000e+00  2.2524967057419917e-01 5.2701147417303182e-02 0.0000000000000000e+00  2.0307761666087482e-01 3.7836536017638436e-02 0.0000000000000000e+00  1.8236720032595818e-01 2.6402126102266874e-02 0.0000000000000000e+00  1.6359699147917711e-01 1.7265393464173873e-02 0.0000000000000000e+00  1.4665933405056361e-01 1.0793942260175370e-02 0.0000000000000000e+00  1.3160656622204986e-01 5.9457208474560635e-03 0.0000000000000000e+00  1.1840170113116744e-01 2.2324773243205848e-03 0.0000000000000000e+00  1.0665644282835587e-01 -5.8148254701648986e-04 0.0000000000000000e+00  9.6245621390916233e-02 -2.5395567538687830e-03 0.0000000000000000e+00  8.7017688192581169e-02 -4.1677994526259461e-03 0.0000000000000000e+00  7.8759658694041085e-02 -5.2183856138448212e-03 0.0000000000000000e+00  7.1310022704668824e-02 -5.9703235874510830e-03 0.0000000000000000e+00  6.4624806133314130e-02 -6.4899325666553627e-03 0.0000000000000000e+00  5.8738425564140502e-02 -6.5285761263817518e-03 0.0000000000000000e+00  5.3231856658260711e-02 -6.4782267430819832e-03 0.0000000000000000e+00  4.8267753426961282e-02 -6.2184682341076729e-03 0.0000000000000000e+00  4.3815169270292595e-02 -5.7819355597167662e-03 0.0000000000000000e+00  3.9752181145220347e-02 -5.2870349276496779e-03 0.0000000000000000e+00  3.6085341416576530e-02 -4.6497306337321444e-03 0.0000000000000000e+00  3.2776510114157525e-02 -3.8747189845879776e-03 0.0000000000000000e+00  2.9734679978992838e-02 -3.0852808431818678e-03 0.0000000000000000e+00  2.7044745268593521e-02 -2.1670245552956498e-03 0.0000000000000000e+00  2.4631054583750402e-02 -1.2515012510012846e-03 0.0000000000000000e+00  2.2457980823789948e-02 -3.1234358119107500e-04 0.0000000000000000e+00  2.0526839758844104e-02 6.1632766434812009e-04 0.0000000000000000e+00  1.8825041306022333e-02 1.5062710601414142e-03 0.0000000000000000e+00  1.7307193015048919e-02 2.3295829731799938e-03 0.0000000000000000e+00  1.5960595157393859e-02 3.0748531631655330e-03 0.0000000000000000e+00  1.4765346344686922e-02 3.7573199268091583e-03 0.0000000000000000e+00  1.3646761009308167e-02 4.3111200900276736e-03 0.0000000000000000e+00  1.2662723173616462e-02 4.7675082817624113e-03 0.0000000000000000e+00  1.1740459374308851e-02 5.0970942302366014e-03 0.0000000000000000e+00  1.0866388344474374e-02 5.2914530212039160e-03 0.0000000000000000e+00  1.0001445588554911e-02 5.3905289294495637e-03 0.0000000000000000e+00  9.1296432203793205e-03 5.3725825967900383e-03 0.0000000000000000e+00  8.2499011004102934e-03 5.2808681723044799e-03 0.0000000000000000e+00  7.3557557756394392e-03 5.1069201704672081e-03 0.0000000000000000e+00  6.4432766533364123e-03 4.9364794196951637e-03 0.0000000000000000e+00  5.4608622062469452e-03 4.7037607055236581e-03 0.0000000000000000e+00  4.4492590451108861e-03 4.4838526063295386e-03 0.0000000000000000e+00  3.4063770019099309e-03 4.2923901228693485e-03 0.0000000000000000e+00  2.3152982544818457e-03 4.1473410195461318e-03 0.0000000000000000e+00  1.1417194950847107e-03 4.0491134370715057e-03 0.0000000000000000e+00  3.4056404887979677e-19 3.4114380627149571e-03 0.0000000000000000e+00  1.3380488965144353e-19 2.6880245672378845e-03 0.0000000000000000e+00  4.3523843426977281e-20 2.0501723019730449e-03 0.0000000000000000e+00  -9.6283307449852914e-20 1.4632546461207957e-03 0.0000000000000000e+00  -1.3079102744479572e-19 9.6665347086573718e-04 0.0000000000000000e+00  5.3321444326724021e-20 5.4909797404617934e-04 0.0000000000000000e+00  2.9260423826839491e-21 2.4058391610045219e-04 0.0000000000000000e+00  -2.2417287780777331e-20 5.0064221945278047e-05 0.0000000000000000e+00  2.7639268408495760e-20 -1.3860677739432441e-21 0.0000000000000000e+00  6.3862929784886365e-20 -5.1888630450220175e-20 0.0000000000000000e+00  7.4250267881145343e-20 -9.6184694120478908e-21 0.0000000000000000e+00  1.0147828365593463e-19 1.6913047275989104e-20 0.0000000000000000e+00  -3.7664193999722072e-20 -8.2390424374392031e-21 0.0000000000000000e+00  2.5218368180515753e-19 2.6269133521370576e-20 0.0000000000000000e+00  -1.4862690613630784e-19 -1.4115913266622372e-20 0.0000000000000000e+00  -3.1237863726246886e-19 -3.2539441381507174e-21 0.0000000000000000e+00  5.0322676925600599e-19 1.8028548318211822e-20 0.0000000000000000e+00  6.4070567731751857e-20 -2.0022052416172455e-21 0.0000000000000000e+00  -2.5058610747208565e-19 -6.9299255384979433e-22 0.0000000000000000e+00  2.3766518852644001e-19 2.4756790471504170e-21 0.0000000000000000e+00  4.5016690661125413e-20 4.2203147494805073e-21 0.0000000000000000e+00  -9.9177607020432038e-20 -1.5496501096942505e-20 0.0000000000000000e+00  5.2236174774838587e-19 2.7567435465780308e-20 0.0000000000000000e+00  2.1502215508261382e-19 -2.0158327038995047e-20 0.0000000000000000e+00  -1.0730050545826594e-19 -1.7244724091507027e-20 0.0000000000000000e+00  6.7646302305854471e-20 3.3823151152927236e-20 0.0000000000000000e+00  -2.8678606844970154e-20 -3.7298879806960597e-20 0.0000000000000000e+00  -8.8121625956809242e-20 8.8121625956809242e-20 0.0000000000000000e+00  -4.7554227390813818e-20 1.0105273320547936e-19 0.0000000000000000e+00  1.1924990702341611e-19 2.6499979338536915e-20 0.0000000000000000e+00  1.8759440082204167e-19 -5.5935200234427423e-20 0.0000000000000000e+00  3.3864132623472147e-19 8.4660331558680362e-21 0.0000000000000000e+00  -2.7186399625410735e-19 -1.2058483704819278e-20 0.0000000000000000e+00  -4.0054278088561215e-19 1.0013569522140304e-20 0.0000000000000000e+00  1.6331058254512472e-19 2.5857408123836995e-21 0.0000000000000000e+00  -1.0937605088730641e-19 1.3672006360913301e-20 0.0000000000000000e+00  -1.6340639506915934e-19 -1.5957655768472592e-21 0.0000000000000000e+00  -6.3606182855775500e-20 1.9876932142429844e-21 0.0000000000000000e+00  1.4864735006904825e-19 5.0933931141783610e-21 0.0000000000000000e+00  -3.4055394884357276e-19 -1.3302888626702061e-21 0.0000000000000000e+00  4.5528969933000784e-20 -2.4785545591988586e-21 0.0000000000000000e+00  0.0000000000000000e+00 1.4415699845192475e-20 0.0000000000000000e+00  -1.3493965659981383e-19 2.0194253711107550e-20 0.0000000000000000e+00  -6.3304410249942734e-19 4.3521782046835634e-20 0.0000000000000000e+00  -2.5001037115547478e-19 -2.6960871267603542e-21 0.0000000000000000e+00  0.0000000000000000e+00 -3.2739972953822120e-20 0.0000000000000000e+00  -2.8479404762494115e-19 -1.8736450501640865e-20 0.0000000000000000e+00  -3.0470307094861031e-19 1.6323378800818408e-20 0.0000000000000000e+00  -7.1501119497380026e-20 -1.1179096262977082e-20 0.0000000000000000e+00  -5.0987114048025620e-20 2.5493557024012810e-20 0.0000000000000000e+00  -1.3981883254820303e-20 2.3594427992509263e-20 0.0000000000000000e+00  6.6303478258444561e-20 -2.4863804346916709e-20 0.0000000000000000e+00  -5.5005097547029399e-20 2.4897044152865937e-20 0.0000000000000000e+00  4.0456954520651328e-20 0.0000000000000000e+00 0.0000000000000000e+00  8.9757168690542399e-22 1.5583382286165879e-22 0.0000000000000000e+00  -3.2479872954839420e-20 7.2177495455198713e-21 0.0000000000000000e+00  9.6735233372158897e-21 1.3587698675043955e-04 0.0000000000000000e+00  -8.3483137767167942e-21 3.1864393069412677e-04 0.0000000000000000e+00  -3.0018558663860361e-21 5.4938018632147293e-04 0.0000000000000000e+00  -3.7847931458263972e-20 8.2790337521594897e-04 0.0000000000000000e+00  3.9640732972914775e-20 1.1532460355964422e-03 0.0000000000000000e+00  -2.4501131605523157e-20 1.5193004491724389e-03 0.0000000000000000e+00  -4.7341902215311327e-20 1.9267933278299487e-03 0.0000000000000000e+00  -2.1381101000875100e-20 2.3746767970366555e-03 0.0000000000000000e+00  -2.7210962984279839e-20 2.8579342812119686e-03 0.0000000000000000e+00  -2.5970080432885050e-20 3.3720927075070076e-03 0.0000000000000000e+00  5.5390002650935347e-20 3.9206053656731287e-03 0.0000000000000000e+00  0.0000000000000000e+00 4.4989622610324730e-03 0.0000000000000000e+00  9.8591076564426186e-20 5.1070654152869013e-03 0.0000000000000000e+00  2.3534639991067819e-20 5.7429740243115290e-03 0.0000000000000000e+00  -7.9915724382865505e-20 6.4044126799983623e-03 0.0000000000000000e+00  -1.3625104933632334e-19 7.0940148047550760e-03 0.0000000000000000e+00  8.5171337523526854e-21 7.8083787399751857e-03 0.0000000000000000e+00  1.3441725542311658e-19 8.5508771572552593e-03 0.0000000000000000e+00  -1.5191108306890908e-19 9.3192121340675942e-03 0.0000000000000000e+00  -5.1914152406963886e-20 1.0113553611850248e-02 0.0000000000000000e+00  -1.0028424320833393e-19 1.0935243813469404e-02 0.0000000000000000e+00  8.6358434205675211e-20 1.1784134127986781e-02 0.0000000000000000e+00  1.2914361681054616e-19 1.2661134020268902e-02 0.0000000000000000e+00  -8.6345662854159070e-20 1.3563973807451521e-02 0.0000000000000000e+00  -1.4962265830345744e-19 1.4496387698394748e-02 0.0000000000000000e+00  -1.4721452208684280e-19 1.5457733441429948e-02 0.0000000000000000e+00  -2.3737111448907119e-19 1.6455074772352512e-02 0.0000000000000000e+00  5.0088480114604722e-20 1.7482435858015000e-02 0.0000000000000000e+00  -3.6682375712007721e-19 1.8545860702439361e-02 0.0000000000000000e+00  -1.8601227107209463e-19 1.9646770490793743e-02 0.0000000000000000e+00  1.3622832208260770e-19 2.0781883547017418e-02 0.0000000000000000e+00  5.4758491052013709e-20 2.1966448947211666e-02 0.0000000000000000e+00  3.1935094366840154e-19 2.3195540043154151e-02 0.0000000000000000e+00  0.0000000000000000e+00 2.4459766349758112e-02 0.0000000000000000e+00  -1.9575386582093099e-19 2.5780829709542707e-02 0.0000000000000000e+00  5.1572948453997680e-19 2.7151595274029640e-02 0.0000000000000000e+00  -5.7793771734260820e-20 2.8577871135889294e-02 0.0000000000000000e+00  -7.5721586435074809e-19 3.0074574822748733e-02 0.0000000000000000e+00  -1.3517700914190741e-19 3.1635813775483551e-02 0.0000000000000000e+00  9.6056819000400573e-21 3.3272104957866248e-02 0.0000000000000000e+00  2.4097079719319222e-19 3.4979642382995862e-02 0.0000000000000000e+00  4.9104367096148083e-19 3.6767649846386592e-02 0.0000000000000000e+00  1.6030985275200426e-19 3.8643832649128830e-02 0.0000000000000000e+00  -2.9144727891385740e-19 4.0616906703747659e-02 0.0000000000000000e+00  1.2127537132252493e-18 4.2692205694544121e-02 0.0000000000000000e+00  3.0345905631546447e-19 4.4882575396907542e-02 0.0000000000000000e+00  -3.2227372591339304e-19 4.7196623823450662e-02 0.0000000000000000e+00  4.7114189593430403e-19 4.9666787814742562e-02 0.0000000000000000e+00  -3.4576642870667908e-19 5.2294907917106739e-02 0.0000000000000000e+00  -2.9111697832597539e-19 5.5066218049321214e-02 0.0000000000000000e+00  1.1176677828526800e-19 5.8008704053292705e-02 0.0000000000000000e+00  -6.6244446007329911e-19 6.1155631101674525e-02 0.0000000000000000e+00  -6.6083597525312904e-19 6.4545278109052806e-02 0.0000000000000000e+00  -5.6336286637924121e-19 6.8119803096282863e-02 0.0000000000000000e+00  -3.2256096922302448e-19 7.1925690512366885e-02 0.0000000000000000e+00  -5.0733881902235841e-19 7.5878419907074030e-02 0.0000000000000000e+00  2.1410949676883316e-19 7.9961487570719442e-02 0.0000000000000000e+00  -4.3824873388116968e-19 8.4293678969107874e-02 0.0000000000000000e+00  -2.0117604751731950e-19 8.8818887253405948e-02 0.0000000000000000e+00  0.0000000000000000e+00 9.4940036043403245e-02 0.0000000000000000e+00  2.4985062298680127e-18 1.0640649535250375e-01 0.0000000000000000e+00  -1.6831101988905305e-17 1.3006000806991130e-01 0.0000000000000000e+00  1.3043478260869548e-01 1.5036487384035219e-01 0.0000000000000000e+00  2.7536231884058021e-01 1.5501479056139467e-01 0.0000000000000000e+00  3.0000000000000010e-01 1.5231305169430759e-01 0.0000000000000000e+00  2.9999999999999993e-01 1.5322458351043142e-01 0.0000000000000000e+00  3.0000000000000016e-01 1.5661713212202030e-01 0.0000000000000000e+00  3.0000000000000010e-01 1.6048141570440203e-01 0.0000000000000000e+00  -1.1059948827379738e-03 2.5103413324037902e-02 0.0000000000000000e+00  -7.9585363759142628e-04 1.7972075773852896e-02 0.0000000000000000e+00  -7.5345951212369973e-04 1.2322780026634761e-02 0.0000000000000000e+00  -1.3016373524103362e-03 3.3608341303617367e-02 0.0000000000000000e+00  -1.6736143790995596e-03 4.5803291964600902e-02 0.0000000000000000e+00  4.9795540976059302e-02 -8.5450229040596147e-03 0.0000000000000000e+00  -1.6850324002449686e-03 -5.9007398841685359e-05 0.0000000000000000e+00  -2.3135019528894487e-03 5.8992052119754848e-02 0.0000000000000000e+00  -6.2806545144781785e-04 8.1429619895515455e-03 0.0000000000000000e+00  8.0410145847793615e-02 -8.7448877874288372e-03 0.0000000000000000e+00  -1.6215173996753220e-03 7.3817243028112745e-05 0.0000000000000000e+00  -4.3736600851449874e-04 4.7990697606578141e-03 0.0000000000000000e+00  -3.0984028519031757e-03 7.6205358725878067e-02 0.0000000000000000e+00  -1.1413249329027837e-03 -1.8184937105937047e-04 0.0000000000000000e+00  3.4633663828289883e-02 -5.9711114852561463e-03 0.0000000000000000e+00  1.1958006339313298e-01 -1.4171478655191018e-03 0.0000000000000000e+00  -1.0433164145436540e-03 1.1597243915691166e-04 0.0000000000000000e+00  1.5368068937452290e-05 -2.2395243785968471e-04 0.0000000000000000e+00  2.3881380218840103e-02 -1.9139539244111942e-03 0.0000000000000000e+00  -3.5181413889949292e-04 2.6681430998898490e-03 0.0000000000000000e+00  2.9297851659159384e-03 9.1007406292139631e-02 0.0000000000000000e+00  1.1495502071184676e-03 -1.5175630853416435e-04 0.0000000000000000e+00  1.7024670929561371e-02 1.9091164808458425e-03 0.0000000000000000e+00  1.8495668889983496e-01 2.6457270776212370e-02 0.0000000000000000e+00  -6.0904709966566671e-04 1.3535169750649763e-04 0.0000000000000000e+00  1.6101088276436351e-03 -6.7328035670380715e-05 0.0000000000000000e+00  1.3336233031144892e-02 4.0002581084885563e-03 0.0000000000000000e+00  -1.6352683521152797e-03 3.9395161000571055e-02 0.0000000000000000e+00  -7.3820480174266727e-04 1.4919746071214700e-02 0.0000000000000000e+00  -1.2876636999267332e-03 2.9343125077694678e-02 0.0000000000000000e+00  -9.4905810072526701e-04 2.1306443722125055e-02 0.0000000000000000e+00  1.7171213062916195e-03 2.1225118444072015e-06 0.0000000000000000e+00  1.0403173564319201e-02 4.8165030410383556e-03 0.0000000000000000e+00  1.8664936413459549e-01 8.8521206997004859e-02 0.0000000000000000e+00  -2.4025977007801296e-04 1.3195233093661056e-03 0.0000000000000000e+00  1.4403933860691438e-03 4.5998582542937285e-05 0.0000000000000000e+00  4.2413991382231678e-04 1.1582700110227904e-03 0.0000000000000000e+00  7.7210575290944331e-03 4.6736794644068515e-03 0.0000000000000000e+00  9.7704489130338119e-04 5.9176673296548266e-05 0.0000000000000000e+00  2.3996632975753557e-01 7.4742159605701922e-02 0.0000000000000000e+00  -3.0953226997568477e-04 1.2437235483085999e-04 0.0000000000000000e+00  4.6745540144055063e-03 3.9301785207815120e-03 0.0000000000000000e+00  6.2479525234215871e-04 -1.8426017627461746e-04 0.0000000000000000e+00  2.0088741038934252e-02 1.2008938272934360e-04 0.0000000000000000e+00  -6.4113540535012416e-04 -2.1264928541740873e-04 0.0000000000000000e+00  2.8518892518326774e-02 -3.9796407377028714e-03 0.0000000000000000e+00  -1.4443377777033182e-03 -1.1311902100715759e-04 0.0000000000000000e+00  4.1680864798103609e-02 -7.6107438411009932e-03 0.0000000000000000e+00  -1.9764749840960657e-03 3.0265759330663081e-05 0.0000000000000000e+00  6.6790170383024802e-02 -9.2045518349964488e-03 0.0000000000000000e+00  -1.2842209094242277e-03 1.0269032047904938e-04 0.0000000000000000e+00  9.7933854230549414e-02 -6.3590920583800059e-03 0.0000000000000000e+00  -8.5589632048270871e-04 1.3595942611191035e-04 0.0000000000000000e+00  1.4678932603585165e-01 7.2938351403913967e-03 0.0000000000000000e+00  -2.0816314792736585e-03 8.2091385028283115e-02 0.0000000000000000e+00  -3.8125228451360089e-04 3.6633627107076992e-03 0.0000000000000000e+00  2.8205047303819752e-01 1.3631673883670647e-01 0.0000000000000000e+00  -1.6743713422751887e-04 6.8391389637285232e-04 0.0000000000000000e+00  -2.7263659958571807e-03 6.8949549277815866e-02 0.0000000000000000e+00  -5.1984246475494066e-04 6.0585111778072428e-03 0.0000000000000000e+00  -2.1185093974462415e-03 5.3262132334164776e-02 0.0000000000000000e+00  -5.8292615011999597e-04 9.6910192860086841e-03 0.0000000000000000e+00  5.8353996021527047e-04 4.9691280058751786e-05 0.0000000000000000e+00  2.7868708930894712e-03 3.5922269396711378e-03 0.0000000000000000e+00  2.7557165081045226e-01 1.2560679692160298e-01 0.0000000000000000e+00  -1.5533909956664741e-04 1.1422561714090333e-04 0.0000000000000000e+00  3.3840853786783778e-04 4.0017805060565866e-04 0.0000000000000000e+00  6.0563186209452329e-04 2.3253065813507176e-03 0.0000000000000000e+00  2.8953153211842103e-01 1.5175595289057553e-01 0.0000000000000000e+00  -8.6308725968330902e-05 2.1827912326744041e-04 0.0000000000000000e+00  7.8924016326074094e-04 5.8702569119673719e-05 0.0000000000000000e+00  1.6725946245351102e-03 3.0043284796055702e-04 0.0000000000000000e+00  2.0459222154890770e-03 3.1297188263664156e-04 0.0000000000000000e+00  2.6364064975548406e-03 6.9314540011230314e-04 0.0000000000000000e+00  3.1617395559409641e-03 7.2128075312432639e-04 0.0000000000000000e+00  2.1283375602159584e-03 6.7923273734945243e-04 0.0000000000000000e+00  3.6275649282499546e-03 1.2103893973049182e-03 0.0000000000000000e+00  4.2794815607968238e-03 1.2436442439528919e-03 0.0000000000000000e+00  4.6045741836979797e-03 1.8336217526625151e-03 0.0000000000000000e+00  5.3536748758288080e-03 1.8768368258715658e-03 0.0000000000000000e+00  4.9511081554201846e-03 1.2877392607190143e-03 0.0000000000000000e+00  6.1107893704105140e-03 1.8942184050243680e-03 0.0000000000000000e+00  5.6811080813027864e-03 1.3183388064947222e-03 0.0000000000000000e+00  6.8340818887953304e-03 1.8411782169377913e-03 0.0000000000000000e+00  6.3470480894548039e-03 1.2586198048258781e-03 0.0000000000000000e+00  7.4836883010148160e-03 1.6744236556426953e-03 0.0000000000000000e+00  6.8963636470307527e-03 1.1040694000583875e-03 0.0000000000000000e+00  8.1188554195153560e-03 1.4252031824295859e-03 0.0000000000000000e+00  7.2855928784474550e-03 7.9901856202742045e-04 0.0000000000000000e+00  8.6374147419116011e-03 1.0634203638436506e-03 0.0000000000000000e+00  7.8806175088928319e-03 5.2321847857557207e-04 0.0000000000000000e+00  9.1695880367273636e-03 6.0463591458309747e-04 0.0000000000000000e+00  8.1576436075120606e-03 8.7665229328702670e-05 0.0000000000000000e+00  9.5490692207518043e-03 1.4654550530899110e-06 0.0000000000000000e+00  8.2008003296186183e-03 -4.9460852198696353e-04 0.0000000000000000e+00  9.7486165977004480e-03 -7.3718065960169600e-04 0.0000000000000000e+00  8.5439270558222546e-03 -1.1667608399499822e-03 0.0000000000000000e+00  9.8840505048568127e-03 -1.6062293338618121e-03 0.0000000000000000e+00  8.4869026387852341e-03 -1.9291301391911220e-03 0.0000000000000000e+00  9.8200275374047460e-03 -2.5599376467414186e-03 0.0000000000000000e+00  8.2055788302565665e-03 -2.7878054238995738e-03 0.0000000000000000e+00  9.5619393150944386e-03 -3.6017379371398070e-03 0.0000000000000000e+00  7.7940691540869618e-03 -3.7120693162650286e-03 0.0000000000000000e+00  9.1418674688663205e-03 -4.6990976068413473e-03 0.0000000000000000e+00  7.1543249253513729e-03 -4.6316254271783130e-03 0.0000000000000000e+00  8.5059768658651801e-03 -5.77770702149757