<?xml version="1.0"?>
<VTKFile type="UnstructuredGrid"  version="0.1"  >
<UnstructuredGrid>
<Piece  NumberOfPoints="13179" NumberOfCells="25814">
<Points>
<DataArray  type="Float64"  NumberOfComponents="3"  format="ascii">0 0 0  30 0 0  30 -10 0  0 -10 0  0.02360821169319077 0 0  0.04721642338638154 0 0  0.07206717063563725 0 0  0.09691791788489297 0 0  0.1230766011355843 0 0  0.1492352843862757 0 0  0.1767707375239038 0 0  0.204306190661532 0 0  0.2332908770901271 0 0  0.2622755635187223 0 0  0.2927857633803451 0 0  0.323295963241968 0 0  0.3554119623832387 0 0  0.3875279615245094 0 0  0.4213342730081758 0 0  0.4551405844918422 0 0  0.4907261762804851 0 0  0.526311768069128 0 0  0.5637702848355051 0 0  0.6012288016018821 0 0  0.6406588220121138 0 0  0.6800888424223455 0 0  0.721594129780935 0 0  0.7630994171395246 0 0  0.8067891887833475 0 0  0.8504789604271704 0 0  0.8964681941825949 0 0  0.9424574279380195 0 0  0.9908671465681095 0 0  1.039276865198199 0 0  1.090234462786975 0 0  1.141192060375751 0 0  1.194831641933244 0 0  1.248471223490737 0 0  1.304933942963653 0 0  1.361396662436569 0 0  1.420831104471586 0 0  1.480265546506604 0 0  1.542828113436244 0 0  1.605390680365884 0 0  1.671246013469327 0 0  1.73710134657277 0 0  1.806422752814762 0 0  1.875744159056755 0 0  1.948714057431306 0 0  2.021683955805857 0 0  2.098494373901932 0 0  2.175304791998006 0 0  2.256157866653476 0 0  2.337010941308945 0 0  2.422119443935387 0 0  2.50722794656183 0 0  2.596815840700639 0 0  2.686403734839449 0 0  2.780706776094687 0 0  2.875009817349925 0 0  2.974276175689285 0 0  3.073542534028646 0 0  3.178033441002704 0 0  3.282524347976761 0 0  3.392514777963501 0 0  3.502505207950242 0 0  3.618284608533553 0 0  3.734064009116865 0 0  3.855937062816526 0 0  3.977810116516187 0 0  4.106097541496641 0 0  4.234384966477093 0 0  4.369424362562147 0 0  4.5044637586472 0 0  4.646610489729194 0 0  4.788757220811188 0 0  4.938385356669961 0 0  5.088013492528733 0 0  5.24551679218304 0 0  5.403020091837347 0 0  5.568813038399614 0 0  5.73460598496188 0 0  5.909124878408681 0 0  6.083643771855482 0 0  6.267347873338513 0 0  6.451051974821543 0 0  6.644424714363561 0 0  6.83779745390558 0 0  7.041347702348167 0 0  7.244897950790754 0 0  7.459161368238869 0 0  7.673424785686984 0 0  7.898965226038037 0 0  8.124505666389089 0 0  8.361916654054033 0 0  8.599327641718979 0 0  8.849233942517035 0 0  9.099140243315093 0 0  9.362199507946787 0 0  9.625258772578484 0 0  9.902163261537794 0 0  10.1790677504971 0 0  10.47054616023911 0 0  10.76202456998112 0 0  11.06884394887334 0 0  11.37566332776555 0 0  11.69863109504192 0 0  12.02159886231829 0 0  12.3615649378891 0 0  12.7015310134599 0 0  13.05939003847426 0 0  13.41724906348862 0 0  13.79394276982091 0 0  14.1706364761532 0 0  14.5671561683298 0 0  14.96367586050641 0 0  15.38106501332897 0 0  15.79845416615153 0 0  16.23781117165827 0 0  16.677168177165 0 0  17.13964923659526 0 0  17.60213029602552 0 0  18.0889524622663 0 0  18.57577462850707 0 0  19.08821901304263 0 0  19.60066339757818 0 0  20.14007853843172 0 0  20.67949367928525 0 0  21.24729908993883 0 0  21.8151045005924 0 0  22.41279440541421 0 0  23.01048431023601 0 0  23.63963157605829 0 0  24.26877884188056 0 0  24.93103912515648 0 0  25.59329940843241 0 0  26.29041549584691 0 0  26.98753158326142 0 0  27.72133799026916 0 0  28.45514439727691 0 0  29.22757219863846 0 0  30 -0.3571428571428571 0  30 -0.7142857142857142 0  30 -1.071428571428571 0  30 -1.428571428571428 0  30 -1.785714285714286 0  30 -2.142857142857143 0  30 -2.5 0  30 -2.857142857142857 0  30 -3.214285714285714 0  30 -3.571428571428571 0  30 -3.928571428571428 0  30 -4.285714285714286 0  30 -4.642857142857142 0  30 -5 0  30 -5.357142857142857 0  30 -5.714285714285714 0  30 -6.071428571428571 0  30 -6.428571428571428 0  30 -6.785714285714285 0  30 -7.142857142857142 0  30 -7.5 0  30 -7.857142857142857 0  30 -8.214285714285714 0  30 -8.571428571428571 0  30 -8.928571428571427 0  30 -9.285714285714285 0  30 -9.642857142857142 0  29.22757220128658 -10 0  28.45514440257316 -10 0  27.72133799277628 -10 0  26.98753158297939 -10 0  26.29041549304805 -10 0  25.5932994031167 -10 0  24.93103911757599 -10 0  24.26877883203527 -10 0  23.63963156418132 -10 0  23.01048429632737 -10 0  22.41279438968936 -10 0  21.81510448305136 -10 0  21.24729907078059 -10 0  20.67949365850982 -10 0  20.14007851622273 -10 0  19.60066337393564 -10 0  19.08821898813588 -10 0  18.57577460233611 -10 0  18.08895243498708 -10 0  17.60213026763805 -10 0  17.13964920724307 -10 0  16.6771681468481 -10 0  16.2378111405086 -10 0  15.79845413416909 -10 0  15.38106498063496 -10 0  14.96367582710082 -10 0  14.56715613432376 -10 0  14.17063644154669 -10 0  13.79394273471576 -10 0  13.41724902788484 -10 0  13.05939000246495 -10 0  12.70153097704506 -10 0  12.36156490115379 -10 0  12.02159882526251 -10 0  11.69863105774323 -10 0  11.37566329022395 -10 0  11.06884391115945 -10 0  10.76202453209494 -10 0  10.47054612224479 -10 0  10.17906771239465 -10 0  9.902163223385379 -10 0  9.625258734376107 -10 0  9.362199469747061 -10 0  9.099140205118012 -10 0  8.849233904370102 -10 0  8.599327603622193 -10 0  8.361916616050124 -10 0  8.124505628478055 -10 0  7.898965188258209 -10 0  7.673424748038361 -10 0  7.459161330755727 -10 0  7.244897913473093 -10 0  7.041347665226496 -10 0  6.837797416979896 -10 0  6.644424677660922 -10 0  6.451051938341948 -10 0  6.26734783710581 -10 0  6.083643735869675 -10 0  5.90912484269068 -10 0  5.734605949511682 -10 0  5.568813003235423 -10 0  5.403020056959164 -10 0  5.24551675760658 -10 0  5.088013458254 -10 0  4.938385322710374 -10 0  4.788757187166745 -10 0  4.646610456411224 -10 0  4.504463725655707 -10 0  4.369424329906533 -10 0  4.234384934157362 -10 0  4.106097509520442 -10 0  3.977810084883522 -10 0  3.85593703153344 -10 0  3.734063978183357 -10 0  3.618284577954206 -10 0  3.502505177725055 -10 0  3.392514748095728 -10 0  3.282524318466404 -10 0  3.1780334118518 -10 0  3.073542505237196 -10 0  2.97427614725823 -10 0  2.875009789279265 -10 0  2.780706748384375 -10 0  2.686403707489482 -10 0  2.596815813710069 -10 0  2.507227919930656 -10 0  2.422119417661861 -10 0  2.337010915393062 -10 0  2.256157841092762 -10 0  2.175304766792465 -10 0  2.098494349048437 -10 0  2.021683931304413 -10 0  1.948714033278215 -10 0  1.875744135252013 -10 0  1.806422729354161 -10 0  1.737101323456312 -10 0  1.671245990692352 -10 0  1.605390657928396 -10 0  1.542828091333185 -10 0  1.480265524737977 -10 0  1.420831083031992 -10 0  1.36139664132601 -10 0  1.304933922176438 -10 0  1.248471203026863 -10 0  1.194831621786765 -10 0  1.14119204054667 -10 0  1.09023444350921 -10 0  1.039276846471754 -10 0  0.9908671279064798 -10 0  0.942457409341209 -10 0  0.8964681758842019 -10 0  0.8504789424271948 -10 0  0.8067891710751951 -10 0  0.7630993997231954 -10 0  0.7215941126497469 -10 0  0.6800888255762949 -10 0  0.6406588054444597 -10 0  0.6012287853126246 -10 0  0.5637702688178621 -10 0  0.5263117523230996 -10 0  0.4907261607992695 -10 0  0.4551405692754429 -10 0  0.4213342580497894 -10 0  0.3875279468241395 -10 0  0.3554119479341011 -10 0  0.3232959490440663 -10 0  0.2927857494269297 -10 0  0.2622755498097931 -10 0  0.2332908636189828 -10 0  0.2043061774281725 -10 0  0.1767707245216883 -10 0  0.1492352716152006 -10 0  0.1230765885890825 -10 0  0.09691790556296098 -10 0  0.0720671585317838 -10 0  0.04721641150060663 -10 0  0.02360820575030331 -10 0  0 -9.957983193277311 0  0 -9.915966386554622 0  0 -9.873949579831933 0  0 -9.831932773109244 0  0 -9.789915966386555 0  0 -9.747899159663866 0  0 -9.705882352941176 0  0 -9.663865546218487 0  0 -9.621848739495798 0  0 -9.579831932773109 0  0 -9.53781512605042 0  0 -9.495798319327731 0  0 -9.453781512605042 0  0 -9.411764705882353 0  0 -9.369747899159664 0  0 -9.327731092436975 0  0 -9.285714285714286 0  0 -9.243697478991596 0  0 -9.201680672268907 0  0 -9.159663865546218 0  0 -9.117647058823529 0  0 -9.07563025210084 0  0 -9.033613445378151 0  0 -8.991596638655462 0  0 -8.949579831932773 0  0 -8.907563025210084 0  0 -8.865546218487395 0  0 -8.823529411764707 0  0 -8.781512605042018 0  0 -8.739495798319329 0  0 -8.69747899159664 0  0 -8.655462184873949 0  0 -8.61344537815126 0  0 -8.571428571428571 0  0 -8.529411764705882 0  0 -8.487394957983193 0  0 -8.445378151260504 0  0 -8.403361344537815 0  0 -8.361344537815127 0  0 -8.319327731092438 0  0 -8.277310924369749 0  0 -8.235294117647058 0  0 -8.193277310924369 0  0 -8.15126050420168 0  0 -8.109243697478991 0  0 -8.067226890756302 0  0 -8.025210084033613 0  0 -7.983193277310924 0  0 -7.941176470588236 0  0 -7.899159663865547 0  0 -7.857142857142857 0  0 -7.815126050420168 0  0 -7.773109243697479 0  0 -7.73109243697479 0  0 -7.689075630252101 0  0 -7.647058823529411 0  0 -7.605042016806722 0  0 -7.563025210084033 0  0 -7.521008403361344 0  0 -7.478991596638656 0  0 -7.436974789915967 0  0 -7.394957983193278 0  0 -7.352941176470589 0  0 -7.3109243697479 0  0 -7.26890756302521 0  0 -7.226890756302521 0  0 -7.184873949579832 0  0 -7.142857142857143 0  0 -7.100840336134453 0  0 -7.058823529411764 0  0 -7.016806722689076 0  0 -6.974789915966387 0  0 -6.932773109243698 0  0 -6.890756302521009 0  0 -6.84873949579832 0  0 -6.806722689075631 0  0 -6.764705882352941 0  0 -6.722689075630252 0  0 -6.680672268907563 0  0 -6.638655462184874 0  0 -6.596638655462185 0  0 -6.554621848739496 0  0 -6.512605042016807 0  0 -6.470588235294118 0  0 -6.428571428571429 0  0 -6.38655462184874 0  0 -6.344537815126051 0  0 -6.302521008403362 0  0 -6.260504201680672 0  0 -6.218487394957983 0  0 -6.176470588235294 0  0 -6.134453781512605 0  0 -6.092436974789917 0  0 -6.050420168067227 0  0 -6.008403361344538 0  0 -5.966386554621849 0  0 -5.92436974789916 0  0 -5.882352941176471 0  0 -5.840336134453782 0  0 -5.798319327731092 0  0 -5.756302521008403 0  0 -5.714285714285714 0  0 -5.672268907563025 0  0 -5.630252100840336 0  0 -5.588235294117647 0 
[...]
<PointData  Vectors="displacement"> 
<DataArray  type="Float64"  Name="displacement"  NumberOfComponents="3" format="ascii">9.4000000000000680e-02 -2.6663283574999471e-02 0.0000000000000000e+00  1.1360562526215062e-20 1.0629025574118254e-03 0.0000000000000000e+00  9.3000001039715348e-22 -2.2912231518434273e-22 0.0000000000000000e+00  -3.0759642244030270e-22 2.2487829011546376e-23 0.0000000000000000e+00  7.5153678995563300e-02 -3.3784295887388231e-02 0.0000000000000000e+00  5.9071351658388768e-02 -4.1691313133168012e-02 0.0000000000000000e+00  4.7031887417683306e-02 -4.3608590147547970e-02 0.0000000000000000e+00  3.8449595901959739e-02 -4.3850971985286584e-02 0.0000000000000000e+00  3.1780209294913271e-02 -4.3356503407029401e-02 0.0000000000000000e+00  2.6787548101413691e-02 -4.2054217360561620e-02 0.0000000000000000e+00  2.2797765272757925e-02 -4.0535040259055716e-02 0.0000000000000000e+00  1.9783896546584599e-02 -3.8968277267339167e-02 0.0000000000000000e+00  1.7270583663067982e-02 -3.7655789237122518e-02 0.0000000000000000e+00  1.5327511648713455e-02 -3.6187218711463104e-02 0.0000000000000000e+00  1.3673528308682141e-02 -3.4897684783692706e-02 0.0000000000000000e+00  1.2353926340793372e-02 -3.3587915815606821e-02 0.0000000000000000e+00  1.1191998712263337e-02 -3.2411944071930820e-02 0.0000000000000000e+00  1.0234283605279133e-02 -3.1292761628257205e-02 0.0000000000000000e+00  9.4036904827149680e-03 -3.0183062891587977e-02 0.0000000000000000e+00  8.6968207796787791e-03 -2.9184204282088736e-02 0.0000000000000000e+00  8.0719201130609961e-03 -2.8184836783229809e-02 0.0000000000000000e+00  7.5498142903860704e-03 -2.7246393627283622e-02 0.0000000000000000e+00  7.0610071659403060e-03 -2.6342722932554102e-02 0.0000000000000000e+00  6.6260363403197742e-03 -2.5500332679578328e-02 0.0000000000000000e+00  6.2397492296645748e-03 -2.4654229851906174e-02 0.0000000000000000e+00  5.9057669580526648e-03 -2.3858332169553791e-02 0.0000000000000000e+00  5.5887370985087123e-03 -2.3089207329328232e-02 0.0000000000000000e+00  5.3189121518719988e-03 -2.2345971018493397e-02 0.0000000000000000e+00  5.0647466863438491e-03 -2.1611037536204157e-02 0.0000000000000000e+00  4.8319194862931486e-03 -2.0919770061983790e-02 0.0000000000000000e+00  4.6239655078416852e-03 -2.0227358179693272e-02 0.0000000000000000e+00  4.4379364435595935e-03 -1.9571741395563849e-02 0.0000000000000000e+00  4.2657551259060135e-03 -1.8913677558258644e-02 0.0000000000000000e+00  4.1094094608786361e-03 -1.8288924981870368e-02 0.0000000000000000e+00  3.9650640078514971e-03 -1.7659856077102222e-02 0.0000000000000000e+00  3.8361594027289509e-03 -1.7064958125515069e-02 0.0000000000000000e+00  3.7177560873868976e-03 -1.6466628688532922e-02 0.0000000000000000e+00  3.6132540355284085e-03 -1.5896432813928552e-02 0.0000000000000000e+00  3.5166071585595472e-03 -1.5324893439212587e-02 0.0000000000000000e+00  3.4302575565465778e-03 -1.4775199710044450e-02 0.0000000000000000e+00  3.3491619035403816e-03 -1.4228039126597860e-02 0.0000000000000000e+00  3.2851184623317580e-03 -1.3699846296709022e-02 0.0000000000000000e+00  3.2191992899678027e-03 -1.3169816652607174e-02 0.0000000000000000e+00  3.1648239865855821e-03 -1.2663576830650409e-02 0.0000000000000000e+00  3.1110378699813149e-03 -1.2152709288574181e-02 0.0000000000000000e+00  3.0693055916052952e-03 -1.1662596674898050e-02 0.0000000000000000e+00  3.0324858419234638e-03 -1.1170640236554471e-02 0.0000000000000000e+00  3.0019994144498078e-03 -1.0699425750860201e-02 0.0000000000000000e+00  2.9752963242175618e-03 -1.0222265091479209e-02 0.0000000000000000e+00  2.9537948187107104e-03 -9.7663012969649524e-03 0.0000000000000000e+00  2.9373481485233618e-03 -9.3066044368516152e-03 0.0000000000000000e+00  2.9232574516406084e-03 -8.8650589028030809e-03 0.0000000000000000e+00  2.9158272147097276e-03 -8.4205376542400498e-03 0.0000000000000000e+00  2.9122131582360218e-03 -7.9954893362232920e-03 0.0000000000000000e+00  2.9126734311751999e-03 -7.5669087416746781e-03 0.0000000000000000e+00  2.9167143235967396e-03 -7.1562326266518470e-03 0.0000000000000000e+00  2.9238999290562440e-03 -6.7416644819180398e-03 0.0000000000000000e+00  2.9347967472790949e-03 -6.3445193921246815e-03 0.0000000000000000e+00  2.9487434431406021e-03 -5.9445504131892396e-03 0.0000000000000000e+00  2.9653431867882572e-03 -5.5626899647110454e-03 0.0000000000000000e+00  2.9860453481784905e-03 -5.1778912943220316e-03 0.0000000000000000e+00  3.0090527278903547e-03 -4.8103053072492555e-03 0.0000000000000000e+00  3.0349757899888774e-03 -4.4394303528114704e-03 0.0000000000000000e+00  3.0627935184034723e-03 -4.0867683431871412e-03 0.0000000000000000e+00  3.0940908347890156e-03 -3.7323077872558519e-03 0.0000000000000000e+00  3.1267473442849569e-03 -3.3927329721010905e-03 0.0000000000000000e+00  3.1622748794964059e-03 -3.0530501979435356e-03 0.0000000000000000e+00  3.1993713924558485e-03 -2.7299603822563421e-03 0.0000000000000000e+00  3.2390516403797581e-03 -2.4056702475090314e-03 0.0000000000000000e+00  3.2792487837888062e-03 -2.0980981493620311e-03 0.0000000000000000e+00  3.3227627575583081e-03 -1.7910048374285186e-03 0.0000000000000000e+00  3.3667451278155515e-03 -1.4998459059642961e-03 0.0000000000000000e+00  3.4126624214714857e-03 -1.2081138929887600e-03 0.0000000000000000e+00  3.4588201347045154e-03 -9.3311507958276192e-04 0.0000000000000000e+00  3.5069865534128344e-03 -6.5963488764422655e-04 0.0000000000000000e+00  3.5547681479051732e-03 -4.0175534093071601e-04 0.0000000000000000e+00  3.6043783519067456e-03 -1.4579293590827867e-04 0.0000000000000000e+00  3.6533237481705459e-03 9.4582855111072456e-05 0.0000000000000000e+00  3.7037092090155058e-03 3.3125836228254692e-04 0.0000000000000000e+00  3.7527646250501679e-03 5.5261562280463643e-04 0.0000000000000000e+00  3.8031152265095725e-03 7.7005056946181222e-04 0.0000000000000000e+00  3.8518786994552060e-03 9.7282895106473686e-04 0.0000000000000000e+00  3.9015157652142187e-03 1.1709218798629498e-03 0.0000000000000000e+00  3.9487698883183204e-03 1.3529322282520796e-03 0.0000000000000000e+00  3.9961949521569763e-03 1.5316724164060678e-03 0.0000000000000000e+00  4.0410477406206151e-03 1.6945141932422122e-03 0.0000000000000000e+00  4.0851470093350500e-03 1.8509562646066753e-03 0.0000000000000000e+00  4.1266837672428230e-03 1.9932752601132236e-03 0.0000000000000000e+00  4.1671304630660124e-03 2.1292869231770793e-03 0.0000000000000000e+00  4.2040773102766642e-03 2.2502719114062372e-03 0.0000000000000000e+00  4.2395420259028153e-03 2.3633082688886793e-03 0.0000000000000000e+00  4.2704192128288155e-03 2.4645057750612978e-03 0.0000000000000000e+00  4.2992388734145476e-03 2.5573221149682501e-03 0.0000000000000000e+00  4.3238245839510425e-03 2.6364788224702207e-03 0.0000000000000000e+00  4.3448606530886672e-03 2.7078890588287810e-03 0.0000000000000000e+00  4.3614178047311864e-03 2.7676815494336129e-03 0.0000000000000000e+00  4.3741457074084758e-03 2.8182967540266758e-03 0.0000000000000000e+00  4.3821907072242551e-03 2.8571847927699868e-03 0.0000000000000000e+00  4.3843058681358729e-03 2.8882743681797555e-03 0.0000000000000000e+00  4.3819552325312892e-03 2.9078235405011386e-03 0.0000000000000000e+00  4.3749456152586321e-03 2.9181472759796526e-03 0.0000000000000000e+00  4.3612038999922206e-03 2.9205574800535241e-03 0.0000000000000000e+00  4.3418548345754817e-03 2.9143926820106177e-03 0.0000000000000000e+00  4.3169463839434529e-03 2.8994811018085271e-03 0.0000000000000000e+00  4.2853559003725901e-03 2.8764919100513942e-03 0.0000000000000000e+00  4.2479389448910028e-03 2.8469692312596577e-03 0.0000000000000000e+00  4.2033857272355266e-03 2.8110084923798893e-03 0.0000000000000000e+00  4.1549228266923510e-03 2.7657839547171174e-03 0.0000000000000000e+00  4.0955035018211917e-03 2.7183772131018839e-03 0.0000000000000000e+00  4.0373075322368548e-03 2.6626786768875620e-03 0.0000000000000000e+00  3.9639161002819048e-03 2.6036275867982639e-03 0.0000000000000000e+00  3.8889320822005670e-03 2.5438617574911567e-03 0.0000000000000000e+00  3.8091860361112325e-03 2.4735422478109944e-03 0.0000000000000000e+00  3.7226924167483751e-03 2.4071254482329854e-03 0.0000000000000000e+00  3.6306007045180861e-03 2.3342344215522750e-03 0.0000000000000000e+00  3.5349079113782861e-03 2.2615614331866372e-03 0.0000000000000000e+00  3.4252541350123593e-03 2.1859307663922331e-03 0.0000000000000000e+00  3.3175665115872657e-03 2.1125381279376797e-03 0.0000000000000000e+00  3.2047089524409821e-03 2.0381530811714385e-03 0.0000000000000000e+00  3.0906296089149052e-03 1.9652748366904347e-03 0.0000000000000000e+00  2.9702795746879827e-03 1.8899590818668476e-03 0.0000000000000000e+00  2.8423987415111150e-03 1.8196843917376885e-03 0.0000000000000000e+00  2.7129274999723113e-03 1.7495971712526703e-03 0.0000000000000000e+00  2.5852730265724846e-03 1.6837620033159110e-03 0.0000000000000000e+00  2.4511509961050179e-03 1.6186817804626375e-03 0.0000000000000000e+00  2.3182029851201700e-03 1.5579186047569985e-03 0.0000000000000000e+00  2.1801664989427056e-03 1.4988717141447847e-03 0.0000000000000000e+00  2.0435027985126627e-03 1.4438892907341788e-03 0.0000000000000000e+00  1.9015977489627899e-03 1.3899738025025792e-03 0.0000000000000000e+00  1.7624600488305130e-03 1.3436689215778064e-03 0.0000000000000000e+00  1.6201390570101323e-03 1.3000457061999795e-03 0.0000000000000000e+00  1.4801557768849573e-03 1.2599170301666966e-03 0.0000000000000000e+00  1.3367704426121413e-03 1.2211176041102018e-03 0.0000000000000000e+00  1.1948666407104128e-03 1.1880317169230211e-03 0.0000000000000000e+00  1.0503774195917285e-03 1.1590561227677084e-03 0.0000000000000000e+00  9.0984441191740864e-04 1.1322708783240959e-03 0.0000000000000000e+00  7.5702972019220187e-04 1.1096424626814998e-03 0.0000000000000000e+00  6.0726186134739488e-04 1.0894926975784059e-03 0.0000000000000000e+00  4.5795773002257748e-04 1.0780008297884992e-03 0.0000000000000000e+00  3.0873255732260043e-04 1.0672198730684098e-03 0.0000000000000000e+00  1.4859019796412487e-04 1.0624668222122755e-03 0.0000000000000000e+00  -7.8803753753717415e-21 1.0050444927398243e-03 0.0000000000000000e+00  -3.4358144901446818e-21 9.3478241179261725e-04 0.0000000000000000e+00  -1.1436388700628761e-20 8.7354799837900861e-04 0.0000000000000000e+00  1.4209832517840701e-20 8.0821158111684668e-04 0.0000000000000000e+00  1.8077212516548465e-20 7.4700963253568179e-04 0.0000000000000000e+00  3.1679716130540358e-21 6.8703536245953820e-04 0.0000000000000000e+00  4.4670060071190361e-21 6.2909135202184974e-04 0.0000000000000000e+00  6.2750922775506992e-21 5.7285125023126928e-04 0.0000000000000000e+00  1.2254154844005114e-20 5.1859143745585777e-04 0.0000000000000000e+00  0.0000000000000000e+00 4.6658784697392483e-04 0.0000000000000000e+00  -5.9879683838306524e-21 4.1663707187976871e-04 0.0000000000000000e+00  -2.9735718750923958e-21 3.6936874783465159e-04 0.0000000000000000e+00  2.4146553221736450e-21 3.2427920247609147e-04 0.0000000000000000e+00  4.3370684455405757e-21 2.8208901184451762e-04 0.0000000000000000e+00  -4.3760584546885963e-21 2.4231752980552682e-04 0.0000000000000000e+00  -8.4327457050851732e-21 2.0554901161898593e-04 0.0000000000000000e+00  7.7944887383697889e-21 1.7168863684136873e-04 0.0000000000000000e+00  2.6880049908903504e-21 1.4067220615043927e-04 0.0000000000000000e+00  4.7328924132358983e-21 1.1244869760034291e-04 0.0000000000000000e+00  2.5388190021345256e-21 8.7586166172575142e-05 0.0000000000000000e+00  -8.1505326689492238e-21 6.5723026426598290e-05 0.0000000000000000e+00  3.8968305496776103e-21 4.6981950063062580e-05 0.0000000000000000e+00  -4.3757925371623511e-21 3.1316555084372303e-05 0.0000000000000000e+00  2.5004475008617843e-22 1.8838126975714849e-05 0.0000000000000000e+00  3.3874661688111844e-22 9.4863419746734091e-06 0.0000000000000000e+00  1.2828045763573239e-21 2.9143510843507034e-06 0.0000000000000000e+00  -5.5320114668861944e-22 3.8203866053799643e-07 0.0000000000000000e+00  -1.8152289340973593e-21 6.6709663328077956e-23 0.0000000000000000e+00  -2.5372408285291828e-21 -1.1893316383730545e-22 0.0000000000000000e+00  1.3852892079423196e-21 -4.4372544941902422e-22 0.0000000000000000e+00  4.1766878623931874e-21 -2.1209743051215406e-22 0.0000000000000000e+00  -1.7954699546469356e-21 7.7710135327143809e-23 0.0000000000000000e+00  1.7720930859452057e-20 -1.5575036888190283e-22 0.0000000000000000e+00  -3.6742319810224475e-21 1.8829343656442198e-23 0.0000000000000000e+00  2.5914521299513239e-20 -6.0737159295734149e-23 0.0000000000000000e+00  -1.5897892295244444e-20 1.6200297855208335e-23 0.0000000000000000e+00  1.1680881341679129e-20 9.1256885481868197e-23 0.0000000000000000e+00  5.0154467755755200e-20 -7.3293021845924084e-22 0.0000000000000000e+00  -8.5947132071155116e-21 -4.7471196973312113e-22 0.0000000000000000e+00  -9.2811534103512042e-21 -9.6678681357825050e-22 0.0000000000000000e+00  3.2226842579632873e-20 -6.0425329836811639e-22 0.0000000000000000e+00  3.7622317063495113e-21 -5.2555736775101724e-22 0.0000000000000000e+00  1.4319097640580244e-20 4.4747180126813264e-22 0.0000000000000000e+00  5.6586608063773560e-20 6.1891602569752320e-22 0.0000000000000000e+00  -9.7519906700880474e-21 -1.4644916140859974e-21 0.0000000000000000e+00  6.5320306478176718e-20 -4.9273140707285748e-22 0.0000000000000000e+00  -4.6047748257037857e-20 2.2106419577663754e-22 0.0000000000000000e+00  -3.7047146994084591e-20 -3.2798610222938790e-22 0.0000000000000000e+00  7.7187268779683882e-20 0.0000000000000000e+00 0.0000000000000000e+00  -1.8413715695728514e-20 1.0498069280143179e-21 0.0000000000000000e+00  1.0661429829673475e-20 -4.9975452326594411e-22 0.0000000000000000e+00  3.9711564551841966e-20 -2.0918780601528620e-21 0.0000000000000000e+00  -1.5247574617492183e-19 0.0000000000000000e+00 0.0000000000000000e+00  -2.6601906804364313e-20 -1.0484831875979693e-21 0.0000000000000000e+00  2.7446919409639305e-20 -1.3937888762707460e-21 0.0000000000000000e+00  -1.0537206967469764e-21 -6.9625771831826198e-22 0.0000000000000000e+00  -4.8342937208986006e-20 -2.5930647361173463e-23 0.0000000000000000e+00  1.4210441398013529e-19 3.5938869412660798e-23 0.0000000000000000e+00  -1.1169094286048740e-20 3.9266644541181717e-22 0.0000000000000000e+00  -7.9870351093530760e-20 1.8948865284232966e-21 0.0000000000000000e+00  -4.2755032443744059e-21 -1.0499541287431140e-21 0.0000000000000000e+00  1.2670127327537171e-19 7.6142592112603185e-22 0.0000000000000000e+00  -6.2355842565866613e-20 -5.2722643420033548e-22 0.0000000000000000e+00  -2.9396070993514172e-20 -4.6541875519873111e-22 0.0000000000000000e+00  -2.0006657244841044e-20 1.2368622816765396e-21 0.0000000000000000e+00  8.0117251965726883e-20 2.2760582944808775e-22 0.0000000000000000e+00  1.4751445243549508e-19 1.6056362315468318e-22 0.0000000000000000e+00  -5.6740253043293975e-20 1.9176069864823266e-22 0.0000000000000000e+00  2.4467944260943805e-20 -6.8200960783353608e-22 0.0000000000000000e+00  -2.5962542151753456e-20 -8.7828764206347523e-22 0.0000000000000000e+00  4.5498002071203690e-20 5.9242190196879798e-22 0.0000000000000000e+00  -5.8732228262574212e-20 -1.3770364997608633e-22 0.0000000000000000e+00  1.1504091236717892e-19 -2.0315540635184669e-21 0.0000000000000000e+00  -7.0145199451525990e-20 1.0960187414300936e-21 0.0000000000000000e+00  4.5916659332193779e-21 -3.8364494471722550e-22 0.0000000000000000e+00  -1.8455660104980327e-19 1.1976740286386747e-21 0.0000000000000000e+00  -2.2263305792731031e-20 -4.6996764925265007e-22 0.0000000000000000e+00  -4.2282613385108009e-20 -3.3033291707115632e-22 0.0000000000000000e+00  6.7270932171140240e-21 1.4593459979584286e-21 0.0000000000000000e+00  3.7389985214588786e-21 2.0643862214616470e-21 0.0000000000000000e+00  9.6946242783668001e-20 -1.2684152970693088e-21 0.0000000000000000e+00  1.3237162482687233e-20 8.2732265516795207e-22 0.0000000000000000e+00  4.1826531628093749e-20 8.7138607558528643e-22 0.0000000000000000e+00  -1.1026086341967178e-19 -1.1143535670301788e-21 0.0000000000000000e+00  2.1708418073597496e-20 8.9557718522393952e-22 0.0000000000000000e+00  7.7603256367554844e-20 -1.4550610568916535e-21 0.0000000000000000e+00  -1.6368739793906131e-19 3.5951880594960504e-21 0.0000000000000000e+00  1.2060366315135760e-19 1.6546331731119938e-21 0.0000000000000000e+00  2.3121650324098813e-20 -2.8902062905123517e-21 0.0000000000000000e+00  -2.4950329560580200e-20 3.1187911950725250e-21 0.0000000000000000e+00  1.2107482655580924e-20 1.6547567938849686e-21 0.0000000000000000e+00  -7.5267997718049381e-20 -2.2184814668317114e-21 0.0000000000000000e+00  -1.9570644574249812e-20 4.6700202637006776e-21 0.0000000000000000e+00  -1.2067690713097136e-20 9.0507680348228511e-21 0.0000000000000000e+00  -7.7616007030319481e-20 -1.6364102343736467e-20 0.0000000000000000e+00  3.1804853081220519e-20 -1.9877998088950006e-20 0.0000000000000000e+00  7.5130071257027522e-20 6.5738812349899073e-21 0.0000000000000000e+00  -5.0807162574103212e-20 1.8699137429208588e-21 0.0000000000000000e+00  -4.0828123234934370e-20 -2.1783307144882253e-22 0.0000000000000000e+00  4.7029652634606588e-20 -6.2966845793579508e-22 0.0000000000000000e+00  3.5522144948526313e-20 -1.2557714413484461e-21 0.0000000000000000e+00  1.9210742448182286e-20 1.2006714030113929e-21 0.0000000000000000e+00  -4.0095419302932401e-20 -5.0119274128665501e-21 0.0000000000000000e+00  7.8675037196594809e-20 -2.0662880549095915e-21 0.0000000000000000e+00  0.0000000000000000e+00 4.1082152618300133e-21 0.0000000000000000e+00  1.8614846076565686e-20 -6.6225894695474070e-21 0.0000000000000000e+00  -7.3197539384111266e-20 -1.5249487371689847e-21 0.0000000000000000e+00  -2.5790986959526932e-21 4.9053445785766912e-21 0.0000000000000000e+00  -6.7296486315640192e-21 -8.4120607894550240e-22 0.0000000000000000e+00  -5.3265801301578253e-20 -3.3941164384015672e-21 0.0000000000000000e+00  3.6616369984140310e-20 -6.4078647472245551e-21 0.0000000000000000e+00  6.5269444028429192e-21 -2.4869106101095605e-21 0.0000000000000000e+00  -1.5984963203892016e-20 9.4638058007204747e-22 0.0000000000000000e+00  -8.5822870664118255e-21 -3.2183576499044346e-21 0.0000000000000000e+00  -3.6788339414458066e-20 6.3229958368599799e-21 0.0000000000000000e+00  4.7547300150496837e-21 -2.9995660055879842e-21 0.0000000000000000e+00  3.5610666648376504e-20 -6.3590476157815190e-22 0.0000000000000000e+00  -9.8858782912001633e-21 3.6802560969458265e-21 0.0000000000000000e+00  -1.7677795706084591e-20 -3.1186478888314941e-21 0.0000000000000000e+00  1.1033059754298689e-21 1.2468613600950117e-21 0.0000000000000000e+00  -1.0847031293828428e-20 2.0338183675928302e-21 0.0000000000000000e+00  -6.9066196707992842e-21 -1.9185054641109123e-22 0.0000000000000000e+00  -1.3716572278083674e-20 3.4291430695209185e-21 0.0000000000000000e+00  4.4070172119828342e-20 3.6180848667909960e-21 0.0000000000000000e+00  1.2600439543468178e-20 -1.0373910771237864e-21 0.0000000000000000e+00  -4.5832679814244690e-21 -2.8008859886482865e-21 0.0000000000000000e+00  1.0390272307795525e-20 2.5975680769488812e-21 0.0000000000000000e+00  -6.1750772040760290e-21 -7.6776743984992593e-21 0.0000000000000000e+00  -1.3881277458399914e-20 -3.4703193645999784e-21 0.0000000000000000e+00  2.4234433272889354e-21 6.0586083182223385e-22 0.0000000000000000e+00  7.6818249486558366e-21 -6.4015207905465305e-22 0.0000000000000000e+00  -5.4477819092768073e-21 2.9571273480502785e-21 0.0000000000000000e+00  8.2221230157854997e-21 0.0000000000000000e+00 0.0000000000000000e+00  9.6667701843334022e-21 -3.2222567281111338e-21 0.0000000000000000e+00  -1.5386707060932054e-20 -3.8466767652330135e-22 0.0000000000000000e+00  8.1472657343775037e-21 -2.3265898996854559e-21 0.0000000000000000e+00  7.1385226853206460e-21 -2.2307883391627020e-21 0.0000000000000000e+00  0.0000000000000000e+00 5.7110309152891360e-23 0.0000000000000000e+00  0.0000000000000000e+00 1.4374061018162645e-21 0.0000000000000000e+00  -9.4667014372513225e-21 1.6618349628731874e-21 0.0000000000000000e+00  -1.