<?xml version="1.0"?>
<VTKFile type="UnstructuredGrid"  version="0.1"  >
<UnstructuredGrid>
<Piece  NumberOfPoints="101" NumberOfCells="100">
<Points>
<DataArray  type="Float64"  NumberOfComponents="3"  format="ascii">0 0 0  0.01 0 0  0.02 0 0  0.03 0 0  0.04 0 0  0.05 0 0  0.06 0 0  0.07000000000000001 0 0  0.08 0 0  0.09 0 0  0.1 0 0  0.11 0 0  0.12 0 0  0.13 0 0  0.14 0 0  0.15 0 0  0.16 0 0  0.17 0 0  0.18 0 0  0.19 0 0  0.2 0 0  0.21 0 0  0.22 0 0  0.23 0 0  0.24 0 0  0.25 0 0  0.26 0 0  0.27 0 0  0.28 0 0  0.29 0 0  0.3 0 0  0.31 0 0  0.32 0 0  0.33 0 0  0.34 0 0  0.35 0 0  0.36 0 0  0.37 0 0  0.38 0 0  0.39 0 0  0.4 0 0  0.41 0 0  0.42 0 0  0.43 0 0  0.44 0 0  0.45 0 0  0.46 0 0  0.47 0 0  0.48 0 0  0.49 0 0  0.5 0 0  0.51 0 0  0.52 0 0  0.53 0 0  0.54 0 0  0.55 0 0  0.5600000000000001 0 0  0.57 0 0  0.58 0 0  0.59 0 0  0.6 0 0  0.61 0 0  0.62 0 0  0.63 0 0  0.64 0 0  0.65 0 0  0.66 0 0  0.67 0 0  0.68 0 0  0.6899999999999999 0 0  0.7 0 0  0.71 0 0  0.72 0 0  0.73 0 0  0.74 0 0  0.75 0 0  0.76 0 0  0.77 0 0  0.78 0 0  0.79 0 0  0.8 0 0  0.8100000000000001 0 0  0.82 0 0  0.83 0 0  0.84 0 0  0.85 0 0  0.86 0 0  0.87 0 0  0.88 0 0  0.89 0 0  0.9 0 0  0.91 0 0  0.92 0 0  0.93 0 0  0.9399999999999999 0 0  0.95 0 0  0.96 0 0  0.97 0 0  0.98 0 0  0.99 0 0  1 0 0  </DataArray>
</Points>
<Cells>
<DataArray  type="UInt32"  Name="connectivity"  format="ascii">0 1  1 2  2 3  3 4  4 5  5 6  6 7  7 8  8 9  9 10  10 11  11 12  12 13  13 14  14 15  15 16  16 17  17 18  18 19  19 20  20 21  21 22  22 23  23 24  24 25  25 26  26 27  27 28  28 29  29 30  30 31  31 32  32 33  33 34  34 35  35 36  36 37  37 38  38 39  39 40  40 41  41 42  42 43  43 44  44 45  45 46  46 47  47 48  48 49  49 50  50 51  51 52  52 53  53 54  54 55  55 56  56 57  57 58  58 59  59 60  60 61  61 62  62 63  63 64  64 65  65 66  66 67  67 68  68 69  69 70  70 71  71 72  72 73  73 74  74 75  75 76  76 77  77 78  78 79  79 80  80 81  81 82  82 83  83 84  84 85  85 86  86 87  87 88  88 89  89 90  90 91  91 92  92 93  93 94  94 95  95 96  96 97  97 98  98 99  99 100  </DataArray>
<DataArray  type="UInt32"  Name="offsets"  format="ascii">2 4 6 8 10 12 14 16 18 20 22 24 26 28 30 32 34 36 38 40 42 44 46 48 50 52 54 56 58 60 62 64 66 68 70 72 74 76 78 80 82 84 86 88 90 92 94 96 98 100 102 104 106 108 110 112 114 116 118 120 122 124 126 128 130 132 134 136 138 140 142 144 146 148 150 152 154 156 158 160 162 164 166 168 170 172 174 176 178 180 182 184 186 188 190 192 194 196 198 200 </DataArray>
<DataArray  type="UInt8"  Name="types"  format="ascii">3 3 3 3 3 3 3 3 3 3 3 3 3 3 3 3 3 3 3 3 3 3 3 3 3 3 3 3 3 3 3 3 3 3 3 3 3 3 3 3 3 3 3 3 3 3 3 3 3 3 3 3 3 3 3 3 3 3 3 3 3 3 3 3 3 3 3 3 3 3 3 3 3 3 3 3 3 3 3 3 3 3 3 3 3 3 3 3 3 3 3 3 3 3 3 3 3 3 3 3 </DataArray>
</Cells>
<PointData  Scalars="pressure"> 
<DataArray  type="Float64"  Name="pressure"  format="ascii">1.4073748835532802e+16  5.4913958383904178e+31  4.0199274290945200e+31  4.4142204912373085e+31  4.3085661546799859e+31  4.3368771750457572e+31  4.3292909852224011e+31  4.3313237724905511e+31  4.3307790692017806e+31  4.3309250274571102e+31  4.3308859168022175e+31  4.3308963970096235e+31  4.3308935889039359e+31  4.3308943415200558e+31  4.3308941400090602e+31  4.3308941941649295e+31  4.3308941798125817e+31  4.3308941838176139e+31  4.3308941829036363e+31  4.3308941833077380e+31  4.3308941833586521e+31  4.3308941835042102e+31  4.3308941836244059e+31  4.3308941837513984e+31  4.3308941838765660e+31  4.3308941840022264e+31  4.3308941841277462e+31  4.3308941842533156e+31  4.3308941843788633e+31  4.3308941845044273e+31  4.3308941846299759e+31  4.3308941847555300e+31  4.3308941848810867e+31  4.3308941850066390e+31  4.3308941851321903e+31  4.3308941852577471e+31  4.3308941853833002e+31  4.3308941855088579e+31  4.3308941856344083e+31  4.3308941857599651e+31  4.3308941858855173e+31  4.3308941860110705e+31  4.3308941861366308e+31  4.3308941862621840e+31  4.3308941863877344e+31  4.3308941865132984e+31  4.3308941866388417e+31  4.3308941867644065e+31  4.3308941868899597e+31  4.3308941870155146e+31  4.3308941871410642e+31  4.3308941872666254e+31  4.3308941873921777e+31  4.3308941875177299e+31  4.3308941876432858e+31  4.3308941877688434e+31  4.3308941878943912e+31  4.3308941880199515e+31  4.3308941881454993e+31  4.3308941882710524e+31  4.3308941883966083e+31  4.3308941885221560e+31  4.3308941886477182e+31  4.3308941887732641e+31  4.3308941888988272e+31  4.3308941890243768e+31  4.3308941891499335e+31  4.3308941892754849e+31  4.3308941894010389e+31  4.3308941895265966e+31  4.3308941896521452e+31  4.3308941897777047e+31  4.3308941899032623e+31  4.3308941900288092e+31  4.3308941901543704e+31  4.3308941902799263e+31  4.3308941904054704e+31  4.3308941905310362e+31  4.3308941906565830e+31  4.3308941907821434e+31  4.3308941909076966e+31  4.3308941910332452e+31  4.3308941911588074e+31  4.3308941912843542e+31  4.3308941914099092e+31  4.3308941915354668e+31  4.3308941916610218e+31  4.3308941917865785e+31  4.3308941919121272e+31  4.3308941920376866e+31  4.3308941921632371e+31  4.3308941922887992e+31  4.3308941924143425e+31  4.3308941925399037e+31  4.3308941926654569e+31  4.3308941927910073e+31  4.3308941929165659e+31  4.3308941930421163e+31  4.3308941931676722e+31  4.3308941932932226e+31  4.3308941934187794e+31  </DataArray> 
</PointData> 
</Piece>
</UnstructuredGrid>
</VTKFile>