<?xml version="1.0"?>
<VTKFile type="UnstructuredGrid"  version="0.1"  >
<UnstructuredGrid>
<Piece  NumberOfPoints="101" NumberOfCells="100">
<Points>
<DataArray  type="Float64"  NumberOfComponents="3"  format="ascii">0 0 0  0.01 0 0  0.02 0 0  0.03 0 0  0.04 0 0  0.05 0 0  0.06 0 0  0.07000000000000001 0 0  0.08 0 0  0.09 0 0  0.1 0 0  0.11 0 0  0.12 0 0  0.13 0 0  0.14 0 0  0.15 0 0  0.16 0 0  0.17 0 0  0.18 0 0  0.19 0 0  0.2 0 0  0.21 0 0  0.22 0 0  0.23 0 0  0.24 0 0  0.25 0 0  0.26 0 0  0.27 0 0  0.28 0 0  0.29 0 0  0.3 0 0  0.31 0 0  0.32 0 0  0.33 0 0  0.34 0 0  0.35 0 0  0.36 0 0  0.37 0 0  0.38 0 0  0.39 0 0  0.4 0 0  0.41 0 0  0.42 0 0  0.43 0 0  0.44 0 0  0.45 0 0  0.46 0 0  0.47 0 0  0.48 0 0  0.49 0 0  0.5 0 0  0.51 0 0  0.52 0 0  0.53 0 0  0.54 0 0  0.55 0 0  0.5600000000000001 0 0  0.57 0 0  0.58 0 0  0.59 0 0  0.6 0 0  0.61 0 0  0.62 0 0  0.63 0 0  0.64 0 0  0.65 0 0  0.66 0 0  0.67 0 0  0.68 0 0  0.6899999999999999 0 0  0.7 0 0  0.71 0 0  0.72 0 0  0.73 0 0  0.74 0 0  0.75 0 0  0.76 0 0  0.77 0 0  0.78 0 0  0.79 0 0  0.8 0 0  0.8100000000000001 0 0  0.82 0 0  0.83 0 0  0.84 0 0  0.85 0 0  0.86 0 0  0.87 0 0  0.88 0 0  0.89 0 0  0.9 0 0  0.91 0 0  0.92 0 0  0.93 0 0  0.9399999999999999 0 0  0.95 0 0  0.96 0 0  0.97 0 0  0.98 0 0  0.99 0 0  1 0 0  </DataArray>
</Points>
<Cells>
<DataArray  type="UInt32"  Name="connectivity"  format="ascii">0 1  1 2  2 3  3 4  4 5  5 6  6 7  7 8  8 9  9 10  10 11  11 12  12 13  13 14  14 15  15 16  16 17  17 18  18 19  19 20  20 21  21 22  22 23  23 24  24 25  25 26  26 27  27 28  28 29  29 30  30 31  31 32  32 33  33 34  34 35  35 36  36 37  37 38  38 39  39 40  40 41  41 42  42 43  43 44  44 45  45 46  46 47  47 48  48 49  49 50  50 51  51 52  52 53  53 54  54 55  55 56  56 57  57 58  58 59  59 60  60 61  61 62  62 63  63 64  64 65  65 66  66 67  67 68  68 69  69 70  70 71  71 72  72 73  73 74  74 75  75 76  76 77  77 78  78 79  79 80  80 81  81 82  82 83  83 84  84 85  85 86  86 87  87 88  88 89  89 90  90 91  91 92  92 93  93 94  94 95  95 96  96 97  97 98  98 99  99 100  </DataArray>
<DataArray  type="UInt32"  Name="offsets"  format="ascii">2 4 6 8 10 12 14 16 18 20 22 24 26 28 30 32 34 36 38 40 42 44 46 48 50 52 54 56 58 60 62 64 66 68 70 72 74 76 78 80 82 84 86 88 90 92 94 96 98 100 102 104 106 108 110 112 114 116 118 120 122 124 126 128 130 132 134 136 138 140 142 144 146 148 150 152 154 156 158 160 162 164 166 168 170 172 174 176 178 180 182 184 186 188 190 192 194 196 198 200 </DataArray>
<DataArray  type="UInt8"  Name="types"  format="ascii">3 3 3 3 3 3 3 3 3 3 3 3 3 3 3 3 3 3 3 3 3 3 3 3 3 3 3 3 3 3 3 3 3 3 3 3 3 3 3 3 3 3 3 3 3 3 3 3 3 3 3 3 3 3 3 3 3 3 3 3 3 3 3 3 3 3 3 3 3 3 3 3 3 3 3 3 3 3 3 3 3 3 3 3 3 3 3 3 3 3 3 3 3 3 3 3 3 3 3 3 </DataArray>
</Cells>
<PointData  Scalars="pressure"> 
<DataArray  type="Float64"  Name="pressure"  format="ascii">6.1629758220391521e-31  4.5374719465749139e-15  9.0677811041350272e-15  1.3578350062583595e-14  1.8059551088326840e-14  2.2520021808631019e-14  2.6949397070776603e-14  3.1337311722044078e-14  3.5676855660620392e-14  3.9954208682879572e-14  4.4203921297886662e-14  4.8370712691137458e-14  5.2475313168071169e-14  5.6552273237752798e-14  6.0573952492930196e-14  6.4540350933603422e-14  6.8423828152520544e-14  7.2169103335177116e-14  7.5886738110581688e-14  7.9507631460604091e-14  8.3059423792496063e-14  8.6431553477249648e-14  8.9610200311238808e-14  9.2816487552479805e-14  9.6022774793720916e-14  9.9173781220457974e-14  1.0235242805444700e-13  1.0553107488843608e-13  1.0865444090792067e-13  1.1172252611290136e-13  1.1479061131788243e-13  1.1783105611561104e-13  1.2078857969158339e-13  1.2363554163854754e-13  1.2642722277100716e-13  1.2930182512522326e-13  1.3217642747943984e-13  1.3488518739014348e-13  1.3775978974435970e-13  1.4063439209857593e-13  1.4356427526729580e-13  1.4643887762151195e-13  1.4914763753221612e-13  1.5185639744291981e-13  1.5450987653911932e-13  1.5710807482081472e-13  1.5970627310250965e-13  1.6224919056970085e-13  1.6473682722238841e-13  1.6711390224606712e-13  1.6949097726974599e-13  1.7175749066441632e-13  1.7385816161557439e-13  1.7584827093772398e-13  1.7767253781636121e-13  1.7910983899346926e-13  1.8049185935607224e-13  1.8176331808966778e-13  1.8320061926677689e-13  1.8452735881487666e-13  1.8574353673396817e-13  1.8684915302405130e-13  1.8784420768512604e-13  1.8883926234620099e-13  1.8961319374925911e-13  1.9038712515231737e-13  1.9093993329735896e-13  1.9138217981339214e-13  1.9182442632942438e-13  1.9248779610347420e-13  1.9337228913554185e-13  1.9414622053860006e-13  1.9514127519967482e-13  1.9591520660273308e-13  1.9668913800579126e-13  1.9713138452182449e-13  1.9768419266686610e-13  1.9834756244091597e-13  1.9867924732794092e-13  1.9923205547298249e-13  2.0000598687604069e-13  2.0089047990810601e-13  2.0177497294017263e-13  2.0277002760124853e-13  2.0387564389133171e-13  2.0464957529438994e-13  2.0531294506843976e-13  2.0586575321348140e-13  2.0630799972951458e-13  2.0675024624554783e-13  2.0663968461653953e-13  2.0641856135852296e-13  2.0619743810050627e-13  2.0586575321348021e-13  2.0531294506843860e-13  2.0520238343943153e-13  2.0476013692339822e-13  2.0431789040736496e-13  2.0398620552033994e-13  2.0411643625483613e-13  2.0403800263509104e-13  </DataArray> 
</PointData> 
</Piece>
</UnstructuredGrid>
</VTKFile>