<?xml version="1.0"?>
<VTKFile type="UnstructuredGrid"  version="0.1"  >
<UnstructuredGrid>
<Piece  NumberOfPoints="101" NumberOfCells="100">
<Points>
<DataArray  type="Float64"  NumberOfComponents="3"  format="ascii">0 0 0  0.01 0 0  0.02 0 0  0.03 0 0  0.04 0 0  0.05 0 0  0.06 0 0  0.07000000000000001 0 0  0.08 0 0  0.09 0 0  0.1 0 0  0.11 0 0  0.12 0 0  0.13 0 0  0.14 0 0  0.15 0 0  0.16 0 0  0.17 0 0  0.18 0 0  0.19 0 0  0.2 0 0  0.21 0 0  0.22 0 0  0.23 0 0  0.24 0 0  0.25 0 0  0.26 0 0  0.27 0 0  0.28 0 0  0.29 0 0  0.3 0 0  0.31 0 0  0.32 0 0  0.33 0 0  0.34 0 0  0.35 0 0  0.36 0 0  0.37 0 0  0.38 0 0  0.39 0 0  0.4 0 0  0.41 0 0  0.42 0 0  0.43 0 0  0.44 0 0  0.45 0 0  0.46 0 0  0.47 0 0  0.48 0 0  0.49 0 0  0.5 0 0  0.51 0 0  0.52 0 0  0.53 0 0  0.54 0 0  0.55 0 0  0.5600000000000001 0 0  0.57 0 0  0.58 0 0  0.59 0 0  0.6 0 0  0.61 0 0  0.62 0 0  0.63 0 0  0.64 0 0  0.65 0 0  0.66 0 0  0.67 0 0  0.68 0 0  0.6899999999999999 0 0  0.7 0 0  0.71 0 0  0.72 0 0  0.73 0 0  0.74 0 0  0.75 0 0  0.76 0 0  0.77 0 0  0.78 0 0  0.79 0 0  0.8 0 0  0.8100000000000001 0 0  0.82 0 0  0.83 0 0  0.84 0 0  0.85 0 0  0.86 0 0  0.87 0 0  0.88 0 0  0.89 0 0  0.9 0 0  0.91 0 0  0.92 0 0  0.93 0 0  0.9399999999999999 0 0  0.95 0 0  0.96 0 0  0.97 0 0  0.98 0 0  0.99 0 0  1 0 0  </DataArray>
</Points>
<Cells>
<DataArray  type="UInt32"  Name="connectivity"  format="ascii">0 1  1 2  2 3  3 4  4 5  5 6  6 7  7 8  8 9  9 10  10 11  11 12  12 13  13 14  14 15  15 16  16 17  17 18  18 19  19 20  20 21  21 22  22 23  23 24  24 25  25 26  26 27  27 28  28 29  29 30  30 31  31 32  32 33  33 34  34 35  35 36  36 37  37 38  38 39  39 40  40 41  41 42  42 43  43 44  44 45  45 46  46 47  47 48  48 49  49 50  50 51  51 52  52 53  53 54  54 55  55 56  56 57  57 58  58 59  59 60  60 61  61 62  62 63  63 64  64 65  65 66  66 67  67 68  68 69  69 70  70 71  71 72  72 73  73 74  74 75  75 76  76 77  77 78  78 79  79 80  80 81  81 82  82 83  83 84  84 85  85 86  86 87  87 88  88 89  89 90  90 91  91 92  92 93  93 94  94 95  95 96  96 97  97 98  98 99  99 100  </DataArray>
<DataArray  type="UInt32"  Name="offsets"  format="ascii">2 4 6 8 10 12 14 16 18 20 22 24 26 28 30 32 34 36 38 40 42 44 46 48 50 52 54 56 58 60 62 64 66 68 70 72 74 76 78 80 82 84 86 88 90 92 94 96 98 100 102 104 106 108 110 112 114 116 118 120 122 124 126 128 130 132 134 136 138 140 142 144 146 148 150 152 154 156 158 160 162 164 166 168 170 172 174 176 178 180 182 184 186 188 190 192 194 196 198 200 </DataArray>
<DataArray  type="UInt8"  Name="types"  format="ascii">3 3 3 3 3 3 3 3 3 3 3 3 3 3 3 3 3 3 3 3 3 3 3 3 3 3 3 3 3 3 3 3 3 3 3 3 3 3 3 3 3 3 3 3 3 3 3 3 3 3 3 3 3 3 3 3 3 3 3 3 3 3 3 3 3 3 3 3 3 3 3 3 3 3 3 3 3 3 3 3 3 3 3 3 3 3 3 3 3 3 3 3 3 3 3 3 3 3 3 3 </DataArray>
</Cells>
<PointData  Scalars="pressure"> 
<DataArray  type="Float64"  Name="pressure"  format="ascii">-9.8607613152626434e-30  5.9742551386326208e-14  1.1909214969648702e-13  1.7801804290701202e-13  2.3650859970331693e-13  2.9455690998358813e-13  3.5214569849329401e-13  4.0926460007971438e-13  4.6587906423378399e-13  5.2196836065006479e-13  5.7751175902311668e-13  6.3249543914931350e-13  6.8696086163953489e-13  7.4085965578108839e-13  7.9417800137034758e-13  8.4686061759280880e-13  8.9889368424484802e-13  9.5023574071558260e-13  1.0008729668013907e-12  1.0508053625022721e-12  1.1000329278182225e-12  1.1485142021383682e-12  1.1963597470917176e-12  1.2435142818637624e-12  1.2899225256400022e-12  1.3355015571986815e-12  1.3804172189833087e-12  1.4245589493648789e-12  1.4677885463071254e-12  1.5102994926608227e-12  1.5520365076114649e-12  1.5930272315662976e-12  1.6332163837108196e-12  1.6726039640450316e-12  1.7111070513471728e-12  1.7488085668390079e-12  1.7856808701132858e-12  1.8217792419844998e-12  1.8569931208236486e-12  1.8913777874452339e-12  1.9249332418492512e-12  1.9576042032212086e-12  1.9893353907466001e-12  2.0202373660544250e-12  2.0504206907736929e-12  2.0798853649044110e-12  2.1085208268175570e-12  2.1363270765131488e-12  2.1633593948056877e-12  2.1895625008806578e-12  2.2149916755525698e-12  2.2394810763779107e-12  2.2629754225421789e-12  2.2855852756743782e-12  2.3074764782180256e-12  2.3283726261005957e-12  2.3484395617655922e-12  2.3678984084710552e-12  2.3865280429589692e-12  2.4043837460438129e-12  2.4216313601691089e-12  2.4380497620768442e-12  2.4538047942105284e-12  2.4687306141266516e-12  2.4827719410107070e-12  2.4960393364917056e-12  2.5087539238276609e-12  2.5206945797605590e-12  2.5321929891774092e-12  2.5431385904492325e-12  2.5536419452050367e-12  2.5632608069287606e-12  2.5725479837654585e-12  2.5809506675700911e-12  2.5890216664876975e-12  2.5965398572602621e-12  2.6032841166297704e-12  2.6096966911122527e-12  2.6154458958206847e-12  2.6210845389001092e-12  2.6260598122054826e-12  2.6305928389948087e-12  2.6344624960100995e-12  2.6381110297673886e-12  2.6414278786376390e-12  2.6444130426208629e-12  2.6470665217170623e-12  2.6491671926682209e-12  2.6508256171033447e-12  2.6520417950224373e-12  2.6528157264254943e-12  2.6532579729415287e-12  2.6534790961995441e-12  2.6535896578285383e-12  2.6534790961995300e-12  2.6535896578285532e-12  2.6538107810865695e-12  2.6538107810865695e-12  2.6533685345705362e-12  2.6535136713128688e-12  2.6538196736885713e-12  </DataArray> 
</PointData> 
</Piece>
</UnstructuredGrid>
</VTKFile>