<?xml version="1.0"?>
<VTKFile type="UnstructuredGrid"  version="0.1"  >
<UnstructuredGrid>
<Piece  NumberOfPoints="101" NumberOfCells="100">
<Points>
<DataArray  type="Float64"  NumberOfComponents="3"  format="ascii">0 0 0  0.01 0 0  0.02 0 0  0.03 0 0  0.04 0 0  0.05 0 0  0.06 0 0  0.07000000000000001 0 0  0.08 0 0  0.09 0 0  0.1 0 0  0.11 0 0  0.12 0 0  0.13 0 0  0.14 0 0  0.15 0 0  0.16 0 0  0.17 0 0  0.18 0 0  0.19 0 0  0.2 0 0  0.21 0 0  0.22 0 0  0.23 0 0  0.24 0 0  0.25 0 0  0.26 0 0  0.27 0 0  0.28 0 0  0.29 0 0  0.3 0 0  0.31 0 0  0.32 0 0  0.33 0 0  0.34 0 0  0.35 0 0  0.36 0 0  0.37 0 0  0.38 0 0  0.39 0 0  0.4 0 0  0.41 0 0  0.42 0 0  0.43 0 0  0.44 0 0  0.45 0 0  0.46 0 0  0.47 0 0  0.48 0 0  0.49 0 0  0.5 0 0  0.51 0 0  0.52 0 0  0.53 0 0  0.54 0 0  0.55 0 0  0.5600000000000001 0 0  0.57 0 0  0.58 0 0  0.59 0 0  0.6 0 0  0.61 0 0  0.62 0 0  0.63 0 0  0.64 0 0  0.65 0 0  0.66 0 0  0.67 0 0  0.68 0 0  0.6899999999999999 0 0  0.7 0 0  0.71 0 0  0.72 0 0  0.73 0 0  0.74 0 0  0.75 0 0  0.76 0 0  0.77 0 0  0.78 0 0  0.79 0 0  0.8 0 0  0.8100000000000001 0 0  0.82 0 0  0.83 0 0  0.84 0 0  0.85 0 0  0.86 0 0  0.87 0 0  0.88 0 0  0.89 0 0  0.9 0 0  0.91 0 0  0.92 0 0  0.93 0 0  0.9399999999999999 0 0  0.95 0 0  0.96 0 0  0.97 0 0  0.98 0 0  0.99 0 0  1 0 0  </DataArray>
</Points>
<Cells>
<DataArray  type="UInt32"  Name="connectivity"  format="ascii">0 1  1 2  2 3  3 4  4 5  5 6  6 7  7 8  8 9  9 10  10 11  11 12  12 13  13 14  14 15  15 16  16 17  17 18  18 19  19 20  20 21  21 22  22 23  23 24  24 25  25 26  26 27  27 28  28 29  29 30  30 31  31 32  32 33  33 34  34 35  35 36  36 37  37 38  38 39  39 40  40 41  41 42  42 43  43 44  44 45  45 46  46 47  47 48  48 49  49 50  50 51  51 52  52 53  53 54  54 55  55 56  56 57  57 58  58 59  59 60  60 61  61 62  62 63  63 64  64 65  65 66  66 67  67 68  68 69  69 70  70 71  71 72  72 73  73 74  74 75  75 76  76 77  77 78  78 79  79 80  80 81  81 82  82 83  83 84  84 85  85 86  86 87  87 88  88 89  89 90  90 91  91 92  92 93  93 94  94 95  95 96  96 97  97 98  98 99  99 100  </DataArray>
<DataArray  type="UInt32"  Name="offsets"  format="ascii">2 4 6 8 10 12 14 16 18 20 22 24 26 28 30 32 34 36 38 40 42 44 46 48 50 52 54 56 58 60 62 64 66 68 70 72 74 76 78 80 82 84 86 88 90 92 94 96 98 100 102 104 106 108 110 112 114 116 118 120 122 124 126 128 130 132 134 136 138 140 142 144 146 148 150 152 154 156 158 160 162 164 166 168 170 172 174 176 178 180 182 184 186 188 190 192 194 196 198 200 </DataArray>
<DataArray  type="UInt8"  Name="types"  format="ascii">3 3 3 3 3 3 3 3 3 3 3 3 3 3 3 3 3 3 3 3 3 3 3 3 3 3 3 3 3 3 3 3 3 3 3 3 3 3 3 3 3 3 3 3 3 3 3 3 3 3 3 3 3 3 3 3 3 3 3 3 3 3 3 3 3 3 3 3 3 3 3 3 3 3 3 3 3 3 3 3 3 3 3 3 3 3 3 3 3 3 3 3 3 3 3 3 3 3 3 3 </DataArray>
</Cells>
<PointData  Scalars="pressure"> 
<DataArray  type="Float64"  Name="pressure"  format="ascii">-1.2705494208814507e-19  -4.5117754725129889e-04  -9.0213248392851601e-04  -1.3526424191483797e-03  -1.8024854011904616e-03  -2.2514401365364631e-03  -2.6992862082603568e-03  -3.1458042935531916e-03  -3.5907763801684709e-03  -4.0339859815732805e-03  -4.4752183505953561e-03  -4.9142606913517061e-03  -5.3509023692526270e-03  -5.7849351188736398e-03  -6.2161532494867866e-03  -6.6443538480528861e-03  -7.0693369794740078e-03  -7.4909058839029664e-03  -7.9088671709215998e-03  -8.3230310103959981e-03  -8.7332113198139317e-03  -9.1392259479265801e-03  -9.5408968545098900e-03  -9.9380502860673091e-03  -1.0330516947304628e-02  -1.0718132168205639e-02  -1.1100736066539205e-02  -1.1478173705645446e-02  -1.1850295247336809e-02  -1.2216956099773352e-02  -1.2578017060157518e-02  -1.2933344452105564e-02  -1.3282810257576567e-02  -1.3626292243206283e-02  -1.3963674080937936e-02  -1.4294845462825993e-02  -1.4619702209894348e-02  -1.4938146374949819e-02  -1.5250086339241712e-02  -1.5555436902879693e-02  -1.5854119368917702e-02  -1.6146061621016887e-02  -1.6431198194615707e-02  -1.6709470341535949e-02  -1.6980826087959339e-02  -1.7245220285720141e-02  -1.7502614656861606e-02  -1.7752977831408868e-02  -1.7996285378330458e-02  -1.8232519829646243e-02  -1.8461670697670313e-02  -1.8683734485354920e-02  -1.8898714689746150e-02  -1.9106621798532175e-02  -1.9307473279693035e-02  -1.9501293564261304e-02  -1.9688114022211274e-02  -1.9867972931497668e-02  -2.0040915440287320e-02  -2.0206993522397774e-02  -2.0366265926009462e-02  -2.0518798115683964e-02  -2.0664662207759622e-02  -2.0803936899185818e-02  -2.0936707389845644e-02  -2.1063065298492088e-02  -2.1183108572319066e-02  -2.1296941390299085e-02  -2.1404674060382350e-02  -2.1506422910626103e-02  -2.1602310174394034e-02  -2.1692463869726866e-02  -2.1777017673007579e-02  -2.1856110787033138e-02  -2.1929887803644146e-02  -2.1998498561028378e-02  -2.2062097995845721e-02  -2.2120845990331456e-02  -2.2174907214497070e-02  -2.2224450963635716e-02  -2.2269650991244724e-02  -2.2310685337547775e-02  -2.2347736153794082e-02  -2.2380989522497934e-02  -2.2410635273793535e-02  -2.2436866798101137e-02  -2.2459880855260711e-02  -2.2479877380372534e-02  -2.2497059286477893e-02  -2.2511632264299881e-02  -2.2523804579264436e-02  -2.2533786865961816e-02  -2.2541791920278602e-02  -2.2548034489387980e-02  -2.2552731059819014e-02  -2.2556099643817881e-02  -2.2558359564194854e-02  -2.2559731237875174e-02  -2.2560435958379522e-02  -2.2560695677426044e-02  -2.2560732785900348e-02  </DataArray> 
</PointData> 
</Piece>
</UnstructuredGrid>
</VTKFile>