<?xml version="1.0"?>
<VTKFile type="UnstructuredGrid"  version="0.1"  >
<UnstructuredGrid>
<Piece  NumberOfPoints="101" NumberOfCells="100">
<Points>
<DataArray  type="Float64"  NumberOfComponents="3"  format="ascii">0 0 0  0.01 0 0  0.02 0 0  0.03 0 0  0.04 0 0  0.05 0 0  0.06 0 0  0.07000000000000001 0 0  0.08 0 0  0.09 0 0  0.1 0 0  0.11 0 0  0.12 0 0  0.13 0 0  0.14 0 0  0.15 0 0  0.16 0 0  0.17 0 0  0.18 0 0  0.19 0 0  0.2 0 0  0.21 0 0  0.22 0 0  0.23 0 0  0.24 0 0  0.25 0 0  0.26 0 0  0.27 0 0  0.28 0 0  0.29 0 0  0.3 0 0  0.31 0 0  0.32 0 0  0.33 0 0  0.34 0 0  0.35 0 0  0.36 0 0  0.37 0 0  0.38 0 0  0.39 0 0  0.4 0 0  0.41 0 0  0.42 0 0  0.43 0 0  0.44 0 0  0.45 0 0  0.46 0 0  0.47 0 0  0.48 0 0  0.49 0 0  0.5 0 0  0.51 0 0  0.52 0 0  0.53 0 0  0.54 0 0  0.55 0 0  0.5600000000000001 0 0  0.57 0 0  0.58 0 0  0.59 0 0  0.6 0 0  0.61 0 0  0.62 0 0  0.63 0 0  0.64 0 0  0.65 0 0  0.66 0 0  0.67 0 0  0.68 0 0  0.6899999999999999 0 0  0.7 0 0  0.71 0 0  0.72 0 0  0.73 0 0  0.74 0 0  0.75 0 0  0.76 0 0  0.77 0 0  0.78 0 0  0.79 0 0  0.8 0 0  0.8100000000000001 0 0  0.82 0 0  0.83 0 0  0.84 0 0  0.85 0 0  0.86 0 0  0.87 0 0  0.88 0 0  0.89 0 0  0.9 0 0  0.91 0 0  0.92 0 0  0.93 0 0  0.9399999999999999 0 0  0.95 0 0  0.96 0 0  0.97 0 0  0.98 0 0  0.99 0 0  1 0 0  </DataArray>
</Points>
<Cells>
<DataArray  type="UInt32"  Name="connectivity"  format="ascii">0 1  1 2  2 3  3 4  4 5  5 6  6 7  7 8  8 9  9 10  10 11  11 12  12 13  13 14  14 15  15 16  16 17  17 18  18 19  19 20  20 21  21 22  22 23  23 24  24 25  25 26  26 27  27 28  28 29  29 30  30 31  31 32  32 33  33 34  34 35  35 36  36 37  37 38  38 39  39 40  40 41  41 42  42 43  43 44  44 45  45 46  46 47  47 48  48 49  49 50  50 51  51 52  52 53  53 54  54 55  55 56  56 57  57 58  58 59  59 60  60 61  61 62  62 63  63 64  64 65  65 66  66 67  67 68  68 69  69 70  70 71  71 72  72 73  73 74  74 75  75 76  76 77  77 78  78 79  79 80  80 81  81 82  82 83  83 84  84 85  85 86  86 87  87 88  88 89  89 90  90 91  91 92  92 93  93 94  94 95  95 96  96 97  97 98  98 99  99 100  </DataArray>
<DataArray  type="UInt32"  Name="offsets"  format="ascii">2 4 6 8 10 12 14 16 18 20 22 24 26 28 30 32 34 36 38 40 42 44 46 48 50 52 54 56 58 60 62 64 66 68 70 72 74 76 78 80 82 84 86 88 90 92 94 96 98 100 102 104 106 108 110 112 114 116 118 120 122 124 126 128 130 132 134 136 138 140 142 144 146 148 150 152 154 156 158 160 162 164 166 168 170 172 174 176 178 180 182 184 186 188 190 192 194 196 198 200 </DataArray>
<DataArray  type="UInt8"  Name="types"  format="ascii">3 3 3 3 3 3 3 3 3 3 3 3 3 3 3 3 3 3 3 3 3 3 3 3 3 3 3 3 3 3 3 3 3 3 3 3 3 3 3 3 3 3 3 3 3 3 3 3 3 3 3 3 3 3 3 3 3 3 3 3 3 3 3 3 3 3 3 3 3 3 3 3 3 3 3 3 3 3 3 3 3 3 3 3 3 3 3 3 3 3 3 3 3 3 3 3 3 3 3 3 </DataArray>
</Cells>
<PointData  Scalars="pressure"> 
<DataArray  type="Float64"  Name="pressure"  format="ascii">5.2939559203393749e-21  2.3291133423915594e-05  4.6851116717542033e-05  7.0661636013411066e-05  9.4704185504781722e-05  1.1896009069721166e-04  1.4341053176155852e-04  1.6803656696157563e-04  1.9281915612929010e-04  2.1773918416136061e-04  2.4277748450955589e-04  2.6791486263893751e-04  2.9313211942686221e-04  3.1841007447665313e-04  3.4372958931964357e-04  3.6907159047934354e-04  3.9441709237219121e-04  4.1974722001906768e-04  4.4504323154220094e-04  4.7028654042302923e-04  4.9545873749549257e-04  5.2054161265123239e-04  5.4551717623221548e-04  5.7036768008755150e-04  5.9507563827127311e-04  6.1962384735849904e-04  6.4399540635794519e-04  6.6817373619868577e-04  6.9214259877083269e-04  7.1588611549867301e-04  7.3938878542683284e-04  7.6263550279954755e-04  7.8561157411488473e-04  8.0830273463526527e-04  8.3069516433677910e-04  8.5277550328027309e-04  8.7453086638878568e-04  8.9594885761422403e-04  9.1701758348062146e-04  9.3772566598769342e-04  9.5806225486355276e-04  9.7801703915202198e-04  9.9758025812416861e-04  1.0167427115021013e-03  1.0354957689858646e-03  1.0538313790721485e-03  1.0717420771586259e-03  1.0892209929237830e-03  1.1062618569774147e-03  1.1228590067732308e-03  1.1390073917803985e-03  1.1547025779079789e-03  1.1699407511807257e-03  1.1847187206602784e-03  1.1990339206118510e-03  1.2128844119163140e-03  1.2262688827246624e-03  1.2391866483569358e-03  1.2516376504483140e-03  1.2636224553419367e-03  1.2751422517335378e-03  1.2861988475713199e-03  1.2967946662158819e-03  1.3069327418650143e-03  1.3166167142518227e-03  1.3258508226216110e-03  1.3346398989953045e-03  1.3429893607297546e-03  1.3509052023841616e-03  1.3583939869013706e-03  1.3654628361175604e-03  1.3721194206101374e-03  1.3783719488992259e-03  1.3842291560116908e-03  1.3897002914259489e-03  1.3947951064102301e-03  1.3995238407694445e-03  1.4038972090179022e-03  1.4079263859939192e-03  1.4116229919331140e-03  1.4149990770187426e-03  1.4180671054282062e-03  1.4208399388926758e-03  1.4233308197921779e-03  1.4255533538037265e-03  1.4275214921241495e-03  1.4292495132895340e-03  1.4307520046096078e-03  1.4320438432423549e-03  1.4331401769298677e-03  1.4340564044173294e-03  1.4348081555794520e-03  1.4354112712769193e-03  1.4358817829645027e-03  1.4362358920792032e-03  1.4364899492286371e-03  1.4366604332052275e-03  1.4367639298526066e-03  1.4368171108042548e-03  1.4368367121253712e-03  1.4368395128761208e-03  </DataArray> 
</PointData> 
</Piece>
</UnstructuredGrid>
</VTKFile>