<?xml version="1.0"?>
<VTKFile type="UnstructuredGrid"  version="0.1"  >
<UnstructuredGrid>
<Piece  NumberOfPoints="101" NumberOfCells="100">
<Points>
<DataArray  type="Float64"  NumberOfComponents="3"  format="ascii">0 0 0  0.01 0 0  0.02 0 0  0.03 0 0  0.04 0 0  0.05 0 0  0.06 0 0  0.07000000000000001 0 0  0.08 0 0  0.09 0 0  0.1 0 0  0.11 0 0  0.12 0 0  0.13 0 0  0.14 0 0  0.15 0 0  0.16 0 0  0.17 0 0  0.18 0 0  0.19 0 0  0.2 0 0  0.21 0 0  0.22 0 0  0.23 0 0  0.24 0 0  0.25 0 0  0.26 0 0  0.27 0 0  0.28 0 0  0.29 0 0  0.3 0 0  0.31 0 0  0.32 0 0  0.33 0 0  0.34 0 0  0.35 0 0  0.36 0 0  0.37 0 0  0.38 0 0  0.39 0 0  0.4 0 0  0.41 0 0  0.42 0 0  0.43 0 0  0.44 0 0  0.45 0 0  0.46 0 0  0.47 0 0  0.48 0 0  0.49 0 0  0.5 0 0  0.51 0 0  0.52 0 0  0.53 0 0  0.54 0 0  0.55 0 0  0.5600000000000001 0 0  0.57 0 0  0.58 0 0  0.59 0 0  0.6 0 0  0.61 0 0  0.62 0 0  0.63 0 0  0.64 0 0  0.65 0 0  0.66 0 0  0.67 0 0  0.68 0 0  0.6899999999999999 0 0  0.7 0 0  0.71 0 0  0.72 0 0  0.73 0 0  0.74 0 0  0.75 0 0  0.76 0 0  0.77 0 0  0.78 0 0  0.79 0 0  0.8 0 0  0.8100000000000001 0 0  0.82 0 0  0.83 0 0  0.84 0 0  0.85 0 0  0.86 0 0  0.87 0 0  0.88 0 0  0.89 0 0  0.9 0 0  0.91 0 0  0.92 0 0  0.93 0 0  0.9399999999999999 0 0  0.95 0 0  0.96 0 0  0.97 0 0  0.98 0 0  0.99 0 0  1 0 0  </DataArray>
</Points>
<Cells>
<DataArray  type="UInt32"  Name="connectivity"  format="ascii">0 1  1 2  2 3  3 4  4 5  5 6  6 7  7 8  8 9  9 10  10 11  11 12  12 13  13 14  14 15  15 16  16 17  17 18  18 19  19 20  20 21  21 22  22 23  23 24  24 25  25 26  26 27  27 28  28 29  29 30  30 31  31 32  32 33  33 34  34 35  35 36  36 37  37 38  38 39  39 40  40 41  41 42  42 43  43 44  44 45  45 46  46 47  47 48  48 49  49 50  50 51  51 52  52 53  53 54  54 55  55 56  56 57  57 58  58 59  59 60  60 61  61 62  62 63  63 64  64 65  65 66  66 67  67 68  68 69  69 70  70 71  71 72  72 73  73 74  74 75  75 76  76 77  77 78  78 79  79 80  80 81  81 82  82 83  83 84  84 85  85 86  86 87  87 88  88 89  89 90  90 91  91 92  92 93  93 94  94 95  95 96  96 97  97 98  98 99  99 100  </DataArray>
<DataArray  type="UInt32"  Name="offsets"  format="ascii">2 4 6 8 10 12 14 16 18 20 22 24 26 28 30 32 34 36 38 40 42 44 46 48 50 52 54 56 58 60 62 64 66 68 70 72 74 76 78 80 82 84 86 88 90 92 94 96 98 100 102 104 106 108 110 112 114 116 118 120 122 124 126 128 130 132 134 136 138 140 142 144 146 148 150 152 154 156 158 160 162 164 166 168 170 172 174 176 178 180 182 184 186 188 190 192 194 196 198 200 </DataArray>
<DataArray  type="UInt8"  Name="types"  format="ascii">3 3 3 3 3 3 3 3 3 3 3 3 3 3 3 3 3 3 3 3 3 3 3 3 3 3 3 3 3 3 3 3 3 3 3 3 3 3 3 3 3 3 3 3 3 3 3 3 3 3 3 3 3 3 3 3 3 3 3 3 3 3 3 3 3 3 3 3 3 3 3 3 3 3 3 3 3 3 3 3 3 3 3 3 3 3 3 3 3 3 3 3 3 3 3 3 3 3 3 3 </DataArray>
</Cells>
<PointData  Scalars="pressure"> 
<DataArray  type="Float64"  Name="pressure"  format="ascii">1.7422457186352052e+43  1.3357144351036908e+59  9.7779573035541956e+58  1.0737038044989283e+59  1.0480042291618556e+59  1.0548907000843412e+59  1.0530453978390601e+59  1.0535398658757821e+59  1.0534073679037868e+59  1.0534428720553646e+59  1.0534333582743429e+59  1.0534359075209314e+59  1.0534352243526435e+59  1.0534354073438524e+59  1.0534353582385302e+59  1.0534353713259143e+59  1.0534353677481068e+59  1.0534353686359117e+59  1.0534353683271124e+59  1.0534353683389516e+59  1.0534353682648732e+59  1.0534353682138197e+59  1.0534353681565942e+59  1.0534353681010248e+59  1.0534353680450088e+59  1.0534353679891143e+59  1.0534353679331853e+59  1.0534353678772680e+59  1.0534353678213451e+59  1.0534353677654271e+59  1.0534353677095053e+59  1.0534353676535844e+59  1.0534353675976637e+59  1.0534353675417432e+59  1.0534353674858215e+59  1.0534353674299019e+59  1.0534353673739805e+59  1.0534353673180605e+59  1.0534353672621394e+59  1.0534353672062185e+59  1.0534353671502974e+59  1.0534353670943769e+59  1.0534353670384574e+59  1.0534353669825356e+59  1.0534353669266149e+59  1.0534353668706962e+59  1.0534353668147724e+59  1.0534353667588544e+59  1.0534353667029331e+59  1.0534353666470133e+59  1.0534353665910910e+59  1.0534353665351717e+59  1.0534353664792510e+59  1.0534353664233292e+59  1.0534353663674094e+59  1.0534353663114903e+59  1.0534353662555663e+59  1.0534353661996483e+59  1.0534353661437265e+59  1.0534353660878056e+59  1.0534353660318836e+59  1.0534353659759624e+59  1.0534353659200438e+59  1.0534353658641206e+59  1.0534353658082022e+59  1.0534353657522799e+59  1.0534353656963599e+59  1.0534353656404390e+59  1.0534353655845181e+59  1.0534353655285974e+59  1.0534353654726761e+59  1.0534353654167561e+59  1.0534353653608367e+59  1.0534353653049143e+59  1.0534353652489943e+59  1.0534353651930752e+59  1.0534353651371513e+59  1.0534353650812336e+59  1.0534353650253111e+59  1.0534353649693915e+59  1.0534353649134709e+59  1.0534353648575482e+59  1.0534353648016297e+59  1.0534353647457079e+59  1.0534353646897868e+59  1.0534353646338666e+59  1.0534353645779470e+59  1.0534353645220265e+59  1.0534353644661052e+59  1.0534353644101839e+59  1.0534353643542641e+59  1.0534353642983436e+59  1.0534353642424207e+59  1.0534353641865029e+59  1.0534353641305805e+59  1.0534353640746602e+59  1.0534353640187386e+59  1.0534353639628189e+59  1.0534353639068975e+59  1.0534353638509764e+59  1.0534353637950559e+59  </DataArray> 
</PointData> 
</Piece>
</UnstructuredGrid>
</VTKFile>