<?xml version="1.0"?>
<VTKFile type="UnstructuredGrid"  version="0.1"  >
<UnstructuredGrid>
<Piece  NumberOfPoints="101" NumberOfCells="100">
<Points>
<DataArray  type="Float64"  NumberOfComponents="3"  format="ascii">0 0 0  0.01 0 0  0.02 0 0  0.03 0 0  0.04 0 0  0.05 0 0  0.06 0 0  0.07000000000000001 0 0  0.08 0 0  0.09 0 0  0.1 0 0  0.11 0 0  0.12 0 0  0.13 0 0  0.14 0 0  0.15 0 0  0.16 0 0  0.17 0 0  0.18 0 0  0.19 0 0  0.2 0 0  0.21 0 0  0.22 0 0  0.23 0 0  0.24 0 0  0.25 0 0  0.26 0 0  0.27 0 0  0.28 0 0  0.29 0 0  0.3 0 0  0.31 0 0  0.32 0 0  0.33 0 0  0.34 0 0  0.35 0 0  0.36 0 0  0.37 0 0  0.38 0 0  0.39 0 0  0.4 0 0  0.41 0 0  0.42 0 0  0.43 0 0  0.44 0 0  0.45 0 0  0.46 0 0  0.47 0 0  0.48 0 0  0.49 0 0  0.5 0 0  0.51 0 0  0.52 0 0  0.53 0 0  0.54 0 0  0.55 0 0  0.5600000000000001 0 0  0.57 0 0  0.58 0 0  0.59 0 0  0.6 0 0  0.61 0 0  0.62 0 0  0.63 0 0  0.64 0 0  0.65 0 0  0.66 0 0  0.67 0 0  0.68 0 0  0.6899999999999999 0 0  0.7 0 0  0.71 0 0  0.72 0 0  0.73 0 0  0.74 0 0  0.75 0 0  0.76 0 0  0.77 0 0  0.78 0 0  0.79 0 0  0.8 0 0  0.8100000000000001 0 0  0.82 0 0  0.83 0 0  0.84 0 0  0.85 0 0  0.86 0 0  0.87 0 0  0.88 0 0  0.89 0 0  0.9 0 0  0.91 0 0  0.92 0 0  0.93 0 0  0.9399999999999999 0 0  0.95 0 0  0.96 0 0  0.97 0 0  0.98 0 0  0.99 0 0  1 0 0  </DataArray>
</Points>
<Cells>
<DataArray  type="UInt32"  Name="connectivity"  format="ascii">0 1  1 2  2 3  3 4  4 5  5 6  6 7  7 8  8 9  9 10  10 11  11 12  12 13  13 14  14 15  15 16  16 17  17 18  18 19  19 20  20 21  21 22  22 23  23 24  24 25  25 26  26 27  27 28  28 29  29 30  30 31  31 32  32 33  33 34  34 35  35 36  36 37  37 38  38 39  39 40  40 41  41 42  42 43  43 44  44 45  45 46  46 47  47 48  48 49  49 50  50 51  51 52  52 53  53 54  54 55  55 56  56 57  57 58  58 59  59 60  60 61  61 62  62 63  63 64  64 65  65 66  66 67  67 68  68 69  69 70  70 71  71 72  72 73  73 74  74 75  75 76  76 77  77 78  78 79  79 80  80 81  81 82  82 83  83 84  84 85  85 86  86 87  87 88  88 89  89 90  90 91  91 92  92 93  93 94  94 95  95 96  96 97  97 98  98 99  99 100  </DataArray>
<DataArray  type="UInt32"  Name="offsets"  format="ascii">2 4 6 8 10 12 14 16 18 20 22 24 26 28 30 32 34 36 38 40 42 44 46 48 50 52 54 56 58 60 62 64 66 68 70 72 74 76 78 80 82 84 86 88 90 92 94 96 98 100 102 104 106 108 110 112 114 116 118 120 122 124 126 128 130 132 134 136 138 140 142 144 146 148 150 152 154 156 158 160 162 164 166 168 170 172 174 176 178 180 182 184 186 188 190 192 194 196 198 200 </DataArray>
<DataArray  type="UInt8"  Name="types"  format="ascii">3 3 3 3 3 3 3 3 3 3 3 3 3 3 3 3 3 3 3 3 3 3 3 3 3 3 3 3 3 3 3 3 3 3 3 3 3 3 3 3 3 3 3 3 3 3 3 3 3 3 3 3 3 3 3 3 3 3 3 3 3 3 3 3 3 3 3 3 3 3 3 3 3 3 3 3 3 3 3 3 3 3 3 3 3 3 3 3 3 3 3 3 3 3 3 3 3 3 3 3 </DataArray>
</Cells>
<PointData  Scalars="pressure"> 
<DataArray  type="Float64"  Name="pressure"  format="ascii">1.0889035741470032e+42  4.3326896260783705e+57  3.1716990194596342e+57  3.4827988922604790e+57  3.3994363486603333e+57  3.4217742359256669e+57  3.4157885602348492e+57  3.4173924867049223e+57  3.4169626979588776e+57  3.4170778649947632e+57  3.4170470052900806e+57  3.4170552750151033e+57  3.4170530595901924e+57  3.4170536537735487e+57  3.4170534950922596e+57  3.4170535381491328e+57  3.4170535271480950e+57  3.4170535306324499e+57  3.4170535302353022e+57  3.4170535308782299e+57  3.4170535312424631e+57  3.4170535316813794e+57  3.4170535321002814e+57  3.4170535325245482e+57  3.4170535329473739e+57  3.4170535333705863e+57  3.4170535337936962e+57  3.4170535342168340e+57  3.4170535346399607e+57  3.4170535350630957e+57  3.4170535354862245e+57  3.4170535359093540e+57  3.4170535363324855e+57  3.4170535367556171e+57  3.4170535371787444e+57  3.4170535376018781e+57  3.4170535380250089e+57  3.4170535384481391e+57  3.4170535388712685e+57  3.4170535392944029e+57  3.4170535397175303e+57  3.4170535401406597e+57  3.4170535405637962e+57  3.4170535409869235e+57  3.4170535414100523e+57  3.4170535418331901e+57  3.4170535422563140e+57  3.4170535426794518e+57  3.4170535431025792e+57  3.4170535435257128e+57  3.4170535439488395e+57  3.4170535443719759e+57  3.4170535447951047e+57  3.4170535452182342e+57  3.4170535456413664e+57  3.4170535460645007e+57  3.4170535464876225e+57  3.4170535469107618e+57  3.4170535473338877e+57  3.4170535477570200e+57  3.4170535481801467e+57  3.4170535486032747e+57  3.4170535490264105e+57  3.4170535494495350e+57  3.4170535498726722e+57  3.4170535502958009e+57  3.4170535507189297e+57  3.4170535511420640e+57  3.4170535515651879e+57  3.4170535519883271e+57  3.4170535524114503e+57  3.4170535528345854e+57  3.4170535532577204e+57  3.4170535536808429e+57  3.4170535541039793e+57  3.4170535545271144e+57  3.4170535549502327e+57  3.4170535553733747e+57  3.4170535557964972e+57  3.4170535562196350e+57  3.4170535566427631e+57  3.4170535570658897e+57  3.4170535574890276e+57  3.4170535579121535e+57  3.4170535583352865e+57  3.4170535587584159e+57  3.4170535591815517e+57  3.4170535596046811e+57  3.4170535600278106e+57  3.4170535604509408e+57  3.4170535608740730e+57  3.4170535612972053e+57  3.4170535617203291e+57  3.4170535621434670e+57  3.4170535625665964e+57  3.4170535629897252e+57  3.4170535634128553e+57  3.4170535638359855e+57  3.4170535642591164e+57  3.4170535646822451e+57  3.4170535651053788e+57  </DataArray> 
</PointData> 
</Piece>
</UnstructuredGrid>
</VTKFile>