<?xml version="1.0"?>
<VTKFile type="UnstructuredGrid"  version="0.1"  >
<UnstructuredGrid>
<Piece  NumberOfPoints="101" NumberOfCells="100">
<Points>
<DataArray  type="Float64"  NumberOfComponents="3"  format="ascii">0 0 0  0.01 0 0  0.02 0 0  0.03 0 0  0.04 0 0  0.05 0 0  0.06 0 0  0.07000000000000001 0 0  0.08 0 0  0.09 0 0  0.1 0 0  0.11 0 0  0.12 0 0  0.13 0 0  0.14 0 0  0.15 0 0  0.16 0 0  0.17 0 0  0.18 0 0  0.19 0 0  0.2 0 0  0.21 0 0  0.22 0 0  0.23 0 0  0.24 0 0  0.25 0 0  0.26 0 0  0.27 0 0  0.28 0 0  0.29 0 0  0.3 0 0  0.31 0 0  0.32 0 0  0.33 0 0  0.34 0 0  0.35 0 0  0.36 0 0  0.37 0 0  0.38 0 0  0.39 0 0  0.4 0 0  0.41 0 0  0.42 0 0  0.43 0 0  0.44 0 0  0.45 0 0  0.46 0 0  0.47 0 0  0.48 0 0  0.49 0 0  0.5 0 0  0.51 0 0  0.52 0 0  0.53 0 0  0.54 0 0  0.55 0 0  0.5600000000000001 0 0  0.57 0 0  0.58 0 0  0.59 0 0  0.6 0 0  0.61 0 0  0.62 0 0  0.63 0 0  0.64 0 0  0.65 0 0  0.66 0 0  0.67 0 0  0.68 0 0  0.6899999999999999 0 0  0.7 0 0  0.71 0 0  0.72 0 0  0.73 0 0  0.74 0 0  0.75 0 0  0.76 0 0  0.77 0 0  0.78 0 0  0.79 0 0  0.8 0 0  0.8100000000000001 0 0  0.82 0 0  0.83 0 0  0.84 0 0  0.85 0 0  0.86 0 0  0.87 0 0  0.88 0 0  0.89 0 0  0.9 0 0  0.91 0 0  0.92 0 0  0.93 0 0  0.9399999999999999 0 0  0.95 0 0  0.96 0 0  0.97 0 0  0.98 0 0  0.99 0 0  1 0 0  </DataArray>
</Points>
<Cells>
<DataArray  type="UInt32"  Name="connectivity"  format="ascii">0 1  1 2  2 3  3 4  4 5  5 6  6 7  7 8  8 9  9 10  10 11  11 12  12 13  13 14  14 15  15 16  16 17  17 18  18 19  19 20  20 21  21 22  22 23  23 24  24 25  25 26  26 27  27 28  28 29  29 30  30 31  31 32  32 33  33 34  34 35  35 36  36 37  37 38  38 39  39 40  40 41  41 42  42 43  43 44  44 45  45 46  46 47  47 48  48 49  49 50  50 51  51 52  52 53  53 54  54 55  55 56  56 57  57 58  58 59  59 60  60 61  61 62  62 63  63 64  64 65  65 66  66 67  67 68  68 69  69 70  70 71  71 72  72 73  73 74  74 75  75 76  76 77  77 78  78 79  79 80  80 81  81 82  82 83  83 84  84 85  85 86  86 87  87 88  88 89  89 90  90 91  91 92  92 93  93 94  94 95  95 96  96 97  97 98  98 99  99 100  </DataArray>
<DataArray  type="UInt32"  Name="offsets"  format="ascii">2 4 6 8 10 12 14 16 18 20 22 24 26 28 30 32 34 36 38 40 42 44 46 48 50 52 54 56 58 60 62 64 66 68 70 72 74 76 78 80 82 84 86 88 90 92 94 96 98 100 102 104 106 108 110 112 114 116 118 120 122 124 126 128 130 132 134 136 138 140 142 144 146 148 150 152 154 156 158 160 162 164 166 168 170 172 174 176 178 180 182 184 186 188 190 192 194 196 198 200 </DataArray>
<DataArray  type="UInt8"  Name="types"  format="ascii">3 3 3 3 3 3 3 3 3 3 3 3 3 3 3 3 3 3 3 3 3 3 3 3 3 3 3 3 3 3 3 3 3 3 3 3 3 3 3 3 3 3 3 3 3 3 3 3 3 3 3 3 3 3 3 3 3 3 3 3 3 3 3 3 3 3 3 3 3 3 3 3 3 3 3 3 3 3 3 3 3 3 3 3 3 3 3 3 3 3 3 3 3 3 3 3 3 3 3 3 </DataArray>
</Cells>
<PointData  Scalars="pressure"> 
<DataArray  type="Float64"  Name="pressure"  format="ascii">0.0000000000000000e+00  1.4942182885809190e-03  2.9904492921227644e-03  4.4878685901988506e-03  5.9856523796277981e-03  7.4829783129983186e-03  8.9790263340688362e-03  1.0472979509228717e-02  1.1964024854213794e-02  1.3451354155274702e-02  1.4934164784003228e-02  1.6411660505029714e-02  1.7883052275813001e-02  1.9347559037752544e-02  2.0804408497863303e-02  2.2252837900263521e-02  2.3692094786737027e-02  2.5121437745643141e-02  2.6540137148460135e-02  2.7947475873261237e-02  2.9342750014435332e-02  3.0725269577980087e-02  3.2094359161708420e-02  3.3449358619726741e-02  3.4789623710558493e-02  3.6114526728302628e-02  3.7423457116235855e-02  3.8715822062282940e-02  3.9991047075799903e-02  4.1248576545131595e-02  4.2487874275426288e-02  4.3708424006208967e-02  4.4909729908233956e-02  4.6091317059160412e-02  4.7252731897613781e-02  4.8393542655217628e-02  4.9513339766202577e-02  5.0611736254220566e-02  5.1688368096015902e-02  5.2742894561626827e-02  5.3774998530814140e-02  5.4784386785435596e-02  5.5770790277512250e-02  5.6733964372750384e-02  5.7673689069312542e-02  5.8589769191651327e-02  5.9482034559245424e-02  6.0350340130102161e-02  6.1194566118912455e-02  6.2014618089772273e-02  6.2810427023407292e-02  6.3581949358860163e-02  6.4329167009630886e-02  6.5052087354275340e-02  6.5750743201501247e-02  6.6425192729819796e-02  6.7075519401836176e-02  6.7701831853288555e-02  6.8304263756967659e-02  6.8882973661672522e-02  6.9438144806384591e-02  6.9969984909861463e-02  7.0478725935881267e-02  7.0964623834384552e-02  7.1427958258790294e-02  7.1869032259780405e-02  7.2288171955872782e-02  7.2685726181121638e-02  7.3062066110310672e-02  7.3417584862019644e-02  7.3752697079972201e-02  7.4067838493086693e-02  7.4363465454680186e-02  7.4640054461286923e-02  7.4898101651578217e-02  7.5138122285887135e-02  7.5360650206858323e-02  7.5566237281764953e-02  7.5755452827047473e-02  7.5928883015649776e-02  7.6087130267742609e-02  7.6230812625439084e-02  7.6360563112123747e-02  7.6477029077031133e-02  7.6580871525721031e-02  7.6672764437116681e-02  7.6753394067779118e-02  7.6823458244102721e-02  7.6883665643135951e-02  7.6934735062732115e-02  7.6977394681750647e-02  7.7012381311040309e-02  7.7040439635938388e-02  7.7062321451033255e-02  7.7078784887943619e-02  7.7090593636872040e-02  7.7098516162697917e-02  7.7103324916384067e-02  7.7105795542466091e-02  7.7106706083408236e-02  7.7106836181602356e-02  </DataArray> 
</PointData> 
</Piece>
</UnstructuredGrid>
</VTKFile>