<?xml version="1.0"?>
<VTKFile type="UnstructuredGrid"  version="0.1"  >
<UnstructuredGrid>
<Piece  NumberOfPoints="101" NumberOfCells="100">
<Points>
<DataArray  type="Float64"  NumberOfComponents="3"  format="ascii">0 0 0  0.01 0 0  0.02 0 0  0.03 0 0  0.04 0 0  0.05 0 0  0.06 0 0  0.07000000000000001 0 0  0.08 0 0  0.09 0 0  0.1 0 0  0.11 0 0  0.12 0 0  0.13 0 0  0.14 0 0  0.15 0 0  0.16 0 0  0.17 0 0  0.18 0 0  0.19 0 0  0.2 0 0  0.21 0 0  0.22 0 0  0.23 0 0  0.24 0 0  0.25 0 0  0.26 0 0  0.27 0 0  0.28 0 0  0.29 0 0  0.3 0 0  0.31 0 0  0.32 0 0  0.33 0 0  0.34 0 0  0.35 0 0  0.36 0 0  0.37 0 0  0.38 0 0  0.39 0 0  0.4 0 0  0.41 0 0  0.42 0 0  0.43 0 0  0.44 0 0  0.45 0 0  0.46 0 0  0.47 0 0  0.48 0 0  0.49 0 0  0.5 0 0  0.51 0 0  0.52 0 0  0.53 0 0  0.54 0 0  0.55 0 0  0.5600000000000001 0 0  0.57 0 0  0.58 0 0  0.59 0 0  0.6 0 0  0.61 0 0  0.62 0 0  0.63 0 0  0.64 0 0  0.65 0 0  0.66 0 0  0.67 0 0  0.68 0 0  0.6899999999999999 0 0  0.7 0 0  0.71 0 0  0.72 0 0  0.73 0 0  0.74 0 0  0.75 0 0  0.76 0 0  0.77 0 0  0.78 0 0  0.79 0 0  0.8 0 0  0.8100000000000001 0 0  0.82 0 0  0.83 0 0  0.84 0 0  0.85 0 0  0.86 0 0  0.87 0 0  0.88 0 0  0.89 0 0  0.9 0 0  0.91 0 0  0.92 0 0  0.93 0 0  0.9399999999999999 0 0  0.95 0 0  0.96 0 0  0.97 0 0  0.98 0 0  0.99 0 0  1 0 0  </DataArray>
</Points>
<Cells>
<DataArray  type="UInt32"  Name="connectivity"  format="ascii">0 1  1 2  2 3  3 4  4 5  5 6  6 7  7 8  8 9  9 10  10 11  11 12  12 13  13 14  14 15  15 16  16 17  17 18  18 19  19 20  20 21  21 22  22 23  23 24  24 25  25 26  26 27  27 28  28 29  29 30  30 31  31 32  32 33  33 34  34 35  35 36  36 37  37 38  38 39  39 40  40 41  41 42  42 43  43 44  44 45  45 46  46 47  47 48  48 49  49 50  50 51  51 52  52 53  53 54  54 55  55 56  56 57  57 58  58 59  59 60  60 61  61 62  62 63  63 64  64 65  65 66  66 67  67 68  68 69  69 70  70 71  71 72  72 73  73 74  74 75  75 76  76 77  77 78  78 79  79 80  80 81  81 82  82 83  83 84  84 85  85 86  86 87  87 88  88 89  89 90  90 91  91 92  92 93  93 94  94 95  95 96  96 97  97 98  98 99  99 100  </DataArray>
<DataArray  type="UInt32"  Name="offsets"  format="ascii">2 4 6 8 10 12 14 16 18 20 22 24 26 28 30 32 34 36 38 40 42 44 46 48 50 52 54 56 58 60 62 64 66 68 70 72 74 76 78 80 82 84 86 88 90 92 94 96 98 100 102 104 106 108 110 112 114 116 118 120 122 124 126 128 130 132 134 136 138 140 142 144 146 148 150 152 154 156 158 160 162 164 166 168 170 172 174 176 178 180 182 184 186 188 190 192 194 196 198 200 </DataArray>
<DataArray  type="UInt8"  Name="types"  format="ascii">3 3 3 3 3 3 3 3 3 3 3 3 3 3 3 3 3 3 3 3 3 3 3 3 3 3 3 3 3 3 3 3 3 3 3 3 3 3 3 3 3 3 3 3 3 3 3 3 3 3 3 3 3 3 3 3 3 3 3 3 3 3 3 3 3 3 3 3 3 3 3 3 3 3 3 3 3 3 3 3 3 3 3 3 3 3 3 3 3 3 3 3 3 3 3 3 3 3 3 3 </DataArray>
</Cells>
<PointData  Scalars="pressure"> 
<DataArray  type="Float64"  Name="pressure"  format="ascii">5.4445178707350162e+41  2.7342055186581618e+57  2.0015502105801867e+57  2.1978718835489741e+57  2.1452657008756157e+57  2.1593620076994215e+57  2.1555847740384575e+57  2.1565969185836741e+57  2.1563257055521493e+57  2.1563983798895166e+57  2.1563789064695951e+57  2.1563841248817745e+57  2.1563827268923131e+57  2.1563831018280251e+57  2.1563830016922600e+57  2.1563830288562399e+57  2.1563830219090846e+57  2.1563830241023176e+57  2.1563830238463075e+57  2.1563830242465877e+57  2.1563830244710102e+57  2.1563830247425591e+57  2.1563830250014777e+57  2.1563830252637819e+57  2.1563830255251772e+57  2.1563830257868155e+57  2.1563830260483883e+57  2.1563830263099823e+57  2.1563830265715662e+57  2.1563830268331574e+57  2.1563830270947434e+57  2.1563830273563305e+57  2.1563830276179186e+57  2.1563830278795059e+57  2.1563830281410909e+57  2.1563830284026811e+57  2.1563830286642671e+57  2.1563830289258552e+57  2.1563830291874419e+57  2.1563830294490307e+57  2.1563830297106167e+57  2.1563830299722040e+57  2.1563830302337939e+57  2.1563830304953806e+57  2.1563830307569662e+57  2.1563830310185585e+57  2.1563830312801403e+57  2.1563830315417333e+57  2.1563830318033193e+57  2.1563830320649081e+57  2.1563830323264944e+57  2.1563830325880842e+57  2.1563830328496699e+57  2.1563830331112573e+57  2.1563830333728447e+57  2.1563830336344356e+57  2.1563830338960184e+57  2.1563830341576089e+57  2.1563830344191946e+57  2.1563830346807823e+57  2.1563830349423676e+57  2.1563830352039543e+57  2.1563830354655435e+57  2.1563830357271281e+57  2.1563830359887200e+57  2.1563830362503053e+57  2.1563830365118923e+57  2.1563830367734808e+57  2.1563830370350664e+57  2.1563830372966570e+57  2.1563830375582409e+57  2.1563830378198311e+57  2.1563830380814205e+57  2.1563830383430037e+57  2.1563830386045950e+57  2.1563830388661834e+57  2.1563830391277666e+57  2.1563830393893589e+57  2.1563830396509428e+57  2.1563830399125330e+57  2.1563830401741200e+57  2.1563830404357050e+57  2.1563830406972962e+57  2.1563830409588805e+57  2.1563830412204696e+57  2.1563830414820563e+57  2.1563830417436454e+57  2.1563830420052339e+57  2.1563830422668192e+57  2.1563830425284087e+57  2.1563830427899953e+57  2.1563830430515841e+57  2.1563830433131673e+57  2.1563830435747582e+57  2.1563830438363456e+57  2.1563830440979323e+57  2.1563830443595194e+57  2.1563830446211067e+57  2.1563830448826945e+57  2.1563830451442798e+57  2.1563830454058689e+57  </DataArray> 
</PointData> 
</Piece>
</UnstructuredGrid>
</VTKFile>