<?xml version="1.0"?>
<VTKFile type="UnstructuredGrid"  version="0.1"  >
<UnstructuredGrid>
<Piece  NumberOfPoints="101" NumberOfCells="100">
<Points>
<DataArray  type="Float64"  NumberOfComponents="3"  format="ascii">0 0 0  0.01 0 0  0.02 0 0  0.03 0 0  0.04 0 0  0.05 0 0  0.06 0 0  0.07000000000000001 0 0  0.08 0 0  0.09 0 0  0.1 0 0  0.11 0 0  0.12 0 0  0.13 0 0  0.14 0 0  0.15 0 0  0.16 0 0  0.17 0 0  0.18 0 0  0.19 0 0  0.2 0 0  0.21 0 0  0.22 0 0  0.23 0 0  0.24 0 0  0.25 0 0  0.26 0 0  0.27 0 0  0.28 0 0  0.29 0 0  0.3 0 0  0.31 0 0  0.32 0 0  0.33 0 0  0.34 0 0  0.35 0 0  0.36 0 0  0.37 0 0  0.38 0 0  0.39 0 0  0.4 0 0  0.41 0 0  0.42 0 0  0.43 0 0  0.44 0 0  0.45 0 0  0.46 0 0  0.47 0 0  0.48 0 0  0.49 0 0  0.5 0 0  0.51 0 0  0.52 0 0  0.53 0 0  0.54 0 0  0.55 0 0  0.5600000000000001 0 0  0.57 0 0  0.58 0 0  0.59 0 0  0.6 0 0  0.61 0 0  0.62 0 0  0.63 0 0  0.64 0 0  0.65 0 0  0.66 0 0  0.67 0 0  0.68 0 0  0.6899999999999999 0 0  0.7 0 0  0.71 0 0  0.72 0 0  0.73 0 0  0.74 0 0  0.75 0 0  0.76 0 0  0.77 0 0  0.78 0 0  0.79 0 0  0.8 0 0  0.8100000000000001 0 0  0.82 0 0  0.83 0 0  0.84 0 0  0.85 0 0  0.86 0 0  0.87 0 0  0.88 0 0  0.89 0 0  0.9 0 0  0.91 0 0  0.92 0 0  0.93 0 0  0.9399999999999999 0 0  0.95 0 0  0.96 0 0  0.97 0 0  0.98 0 0  0.99 0 0  1 0 0  </DataArray>
</Points>
<Cells>
<DataArray  type="UInt32"  Name="connectivity"  format="ascii">0 1  1 2  2 3  3 4  4 5  5 6  6 7  7 8  8 9  9 10  10 11  11 12  12 13  13 14  14 15  15 16  16 17  17 18  18 19  19 20  20 21  21 22  22 23  23 24  24 25  25 26  26 27  27 28  28 29  29 30  30 31  31 32  32 33  33 34  34 35  35 36  36 37  37 38  38 39  39 40  40 41  41 42  42 43  43 44  44 45  45 46  46 47  47 48  48 49  49 50  50 51  51 52  52 53  53 54  54 55  55 56  56 57  57 58  58 59  59 60  60 61  61 62  62 63  63 64  64 65  65 66  66 67  67 68  68 69  69 70  70 71  71 72  72 73  73 74  74 75  75 76  76 77  77 78  78 79  79 80  80 81  81 82  82 83  83 84  84 85  85 86  86 87  87 88  88 89  89 90  90 91  91 92  92 93  93 94  94 95  95 96  96 97  97 98  98 99  99 100  </DataArray>
<DataArray  type="UInt32"  Name="offsets"  format="ascii">2 4 6 8 10 12 14 16 18 20 22 24 26 28 30 32 34 36 38 40 42 44 46 48 50 52 54 56 58 60 62 64 66 68 70 72 74 76 78 80 82 84 86 88 90 92 94 96 98 100 102 104 106 108 110 112 114 116 118 120 122 124 126 128 130 132 134 136 138 140 142 144 146 148 150 152 154 156 158 160 162 164 166 168 170 172 174 176 178 180 182 184 186 188 190 192 194 196 198 200 </DataArray>
<DataArray  type="UInt8"  Name="types"  format="ascii">3 3 3 3 3 3 3 3 3 3 3 3 3 3 3 3 3 3 3 3 3 3 3 3 3 3 3 3 3 3 3 3 3 3 3 3 3 3 3 3 3 3 3 3 3 3 3 3 3 3 3 3 3 3 3 3 3 3 3 3 3 3 3 3 3 3 3 3 3 3 3 3 3 3 3 3 3 3 3 3 3 3 3 3 3 3 3 3 3 3 3 3 3 3 3 3 3 3 3 3 </DataArray>
</Cells>
<PointData  Scalars="pressure"> 
<DataArray  type="Float64"  Name="pressure"  format="ascii">-1.1555579666323411e-31  -6.4639454025115557e-16  -1.2593660554228301e-15  -1.8432696586229894e-15  -2.4116255327438560e-15  -2.9644336777854253e-15  -3.4965115173879390e-15  -4.0354994588034719e-15  -4.5883076038450392e-15  -5.1134753416345368e-15  -5.6317329776110073e-15  -6.1638108172135186e-15  -6.7027987586290491e-15  -7.2279664964185538e-15  -7.7945948450861541e-15  -8.3750433973798039e-15  -8.9831323569255417e-15  -9.5912213164712621e-15  -1.0185490072390954e-14  -1.0793579031936688e-14  -1.1470769009612607e-14  -1.2189419598166642e-14  -1.2908070186720704e-14  -1.3626720775274731e-14  -1.4345371363828778e-14  -1.5119302766886991e-14  -1.5837953355441035e-14  -1.6639525165751316e-14  -1.7468737383313620e-14  -1.8380870822632209e-14  -1.9293004261950860e-14  -2.0149856886765295e-14  -2.1034349918831803e-14  -2.1863562136394164e-14  -2.2720414761208542e-14  -2.3660188607779208e-14  -2.4544681639845795e-14  -2.5318613042903977e-14  -2.6147825260466357e-14  -2.6977037478028705e-14  -2.7861530510095141e-14  -2.8635461913153351e-14  -2.9519954945219932e-14  -3.0349167162782290e-14  -3.1233660194848808e-14  -3.2007591597907012e-14  -3.2836803815469288e-14  -3.3610735218527466e-14  -3.4274104992577476e-14  -3.4826913137619021e-14  -3.5379721282660597e-14  -3.6098371871214635e-14  -3.6761741645264531e-14  -3.7480392233818568e-14  -3.8254323636876772e-14  -3.9028255039934983e-14  -4.0023309701009575e-14  -4.0907802733076099e-14  -4.1626453321630357e-14  -4.2400384724688568e-14  -4.3229596942250906e-14  -4.4169370788821597e-14  -4.5109144635392263e-14  -4.5993637667458774e-14  -4.7099253957541926e-14  -4.8204870247625060e-14  -4.9531609795724846e-14  -5.0747787714816299e-14  -5.1963965633907456e-14  -5.3180143552998916e-14  -5.4064636585065705e-14  -5.5059691246140550e-14  -5.5944184278207080e-14  -5.7049800568290214e-14  -5.8376540116389994e-14  -5.9924402922506402e-14  -6.1361704099614477e-14  -6.2688443647714219e-14  -6.4015183195814037e-14  -6.4789114598872203e-14  -6.5563046001930419e-14  -6.6336977404988257e-14  -6.7221470437054756e-14  -6.7995401840113339e-14  -6.8548209985154915e-14  -6.9211579759204786e-14  -6.9874949533254682e-14  -7.0648880936312886e-14  -7.1201689081354462e-14  -7.1643935597387706e-14  -7.2196743742429269e-14  -7.2860113516479165e-14  -7.3523483290529062e-14  -7.4076291435570221e-14  -7.4518537951603464e-14  -7.4960784467637124e-14  -7.5071346096645457e-14  -7.5071346096645457e-14  -7.5181907725653752e-14  -7.5200792304413264e-14  -7.5119567835334034e-14  </DataArray> 
</PointData> 
</Piece>
</UnstructuredGrid>
</VTKFile>