<?xml version="1.0"?>
<VTKFile type="UnstructuredGrid"  version="0.1"  >
<UnstructuredGrid>
<Piece  NumberOfPoints="101" NumberOfCells="100">
<Points>
<DataArray  type="Float64"  NumberOfComponents="3"  format="ascii">0 0 0  0.01 0 0  0.02 0 0  0.03 0 0  0.04 0 0  0.05 0 0  0.06 0 0  0.07000000000000001 0 0  0.08 0 0  0.09 0 0  0.1 0 0  0.11 0 0  0.12 0 0  0.13 0 0  0.14 0 0  0.15 0 0  0.16 0 0  0.17 0 0  0.18 0 0  0.19 0 0  0.2 0 0  0.21 0 0  0.22 0 0  0.23 0 0  0.24 0 0  0.25 0 0  0.26 0 0  0.27 0 0  0.28 0 0  0.29 0 0  0.3 0 0  0.31 0 0  0.32 0 0  0.33 0 0  0.34 0 0  0.35 0 0  0.36 0 0  0.37 0 0  0.38 0 0  0.39 0 0  0.4 0 0  0.41 0 0  0.42 0 0  0.43 0 0  0.44 0 0  0.45 0 0  0.46 0 0  0.47 0 0  0.48 0 0  0.49 0 0  0.5 0 0  0.51 0 0  0.52 0 0  0.53 0 0  0.54 0 0  0.55 0 0  0.5600000000000001 0 0  0.57 0 0  0.58 0 0  0.59 0 0  0.6 0 0  0.61 0 0  0.62 0 0  0.63 0 0  0.64 0 0  0.65 0 0  0.66 0 0  0.67 0 0  0.68 0 0  0.6899999999999999 0 0  0.7 0 0  0.71 0 0  0.72 0 0  0.73 0 0  0.74 0 0  0.75 0 0  0.76 0 0  0.77 0 0  0.78 0 0  0.79 0 0  0.8 0 0  0.8100000000000001 0 0  0.82 0 0  0.83 0 0  0.84 0 0  0.85 0 0  0.86 0 0  0.87 0 0  0.88 0 0  0.89 0 0  0.9 0 0  0.91 0 0  0.92 0 0  0.93 0 0  0.9399999999999999 0 0  0.95 0 0  0.96 0 0  0.97 0 0  0.98 0 0  0.99 0 0  1 0 0  </DataArray>
</Points>
<Cells>
<DataArray  type="UInt32"  Name="connectivity"  format="ascii">0 1  1 2  2 3  3 4  4 5  5 6  6 7  7 8  8 9  9 10  10 11  11 12  12 13  13 14  14 15  15 16  16 17  17 18  18 19  19 20  20 21  21 22  22 23  23 24  24 25  25 26  26 27  27 28  28 29  29 30  30 31  31 32  32 33  33 34  34 35  35 36  36 37  37 38  38 39  39 40  40 41  41 42  42 43  43 44  44 45  45 46  46 47  47 48  48 49  49 50  50 51  51 52  52 53  53 54  54 55  55 56  56 57  57 58  58 59  59 60  60 61  61 62  62 63  63 64  64 65  65 66  66 67  67 68  68 69  69 70  70 71  71 72  72 73  73 74  74 75  75 76  76 77  77 78  78 79  79 80  80 81  81 82  82 83  83 84  84 85  85 86  86 87  87 88  88 89  89 90  90 91  91 92  92 93  93 94  94 95  95 96  96 97  97 98  98 99  99 100  </DataArray>
<DataArray  type="UInt32"  Name="offsets"  format="ascii">2 4 6 8 10 12 14 16 18 20 22 24 26 28 30 32 34 36 38 40 42 44 46 48 50 52 54 56 58 60 62 64 66 68 70 72 74 76 78 80 82 84 86 88 90 92 94 96 98 100 102 104 106 108 110 112 114 116 118 120 122 124 126 128 130 132 134 136 138 140 142 144 146 148 150 152 154 156 158 160 162 164 166 168 170 172 174 176 178 180 182 184 186 188 190 192 194 196 198 200 </DataArray>
<DataArray  type="UInt8"  Name="types"  format="ascii">3 3 3 3 3 3 3 3 3 3 3 3 3 3 3 3 3 3 3 3 3 3 3 3 3 3 3 3 3 3 3 3 3 3 3 3 3 3 3 3 3 3 3 3 3 3 3 3 3 3 3 3 3 3 3 3 3 3 3 3 3 3 3 3 3 3 3 3 3 3 3 3 3 3 3 3 3 3 3 3 3 3 3 3 3 3 3 3 3 3 3 3 3 3 3 3 3 3 3 3 </DataArray>
</Cells>
<PointData  Scalars="pressure"> 
<DataArray  type="Float64"  Name="pressure"  format="ascii">-5.4210108624275229e-18  -2.3480334497401278e-02  -4.6947818071624313e-02  -7.0389623735673229e-02  -9.3792972250957063e-02  -1.1714515569262234e-01  -1.4043356064710052e-01  -1.6364569092400849e-01  -1.8676918966854622e-01  -2.0979186076546946e-01  -2.3270168943153943e-01  -2.5548686190000686e-01  -2.7813578410813206e-01  -3.0063709930686261e-01  -3.2297970452059499e-01  -3.4515276579425003e-01  -3.6714573217471858e-01  -3.8894834838390807e-01  -4.1055066615111369e-01  -4.3194305418311219e-01  -4.5311620676116415e-01  -4.7406115096491841e-01  -4.9476925253391629e-01  -5.1523222038792105e-01  -5.3544210983758067e-01  -5.5539132452680096e-01  -5.7507261715769198e-01  -5.9447908905784863e-01  -6.1360418865806221e-01  -6.3244170895619045e-01  -6.5098578404983032e-01  -6.6923088482652848e-01  -6.8717181390552229e-01  -7.0480369992937020e-01  -7.2212199130726917e-01  -7.3912244951432793e-01  -7.5580114205259075e-01  -7.7215443518012494e-01  -7.8817898651404783e-01  -8.0387173761193786e-01  -8.1922990663369433e-01  -8.3425098118260632e-01  -8.4893271142016458e-01  -8.6327310354408915e-01  -8.7727041371316650e-01  -8.9092314249584248e-01  -9.0423002991218815e-01  -9.1719005113089302e-01  -9.2980241287441967e-01  -9.4206655057647271e-01  -9.5398212632652191e-01  -9.6554902762643990e-01  -9.7676736697435396e-01  -9.8763748228079518e-01  -9.9815993811205839e-01  -1.0083355277456807e+00  -1.0181652760129742e+00  -1.0276504428938669e+00  -1.0367925278199130e+00  -1.0455932746323247e+00  -1.0540546771333847e+00  -1.0621789851616017e+00  -1.0699687111136849e+00  -1.0774266368297358e+00  -1.0845558207521768e+00  -1.0913596052638890e+00  -1.0978416241068065e+00  -1.1040058097788852e+00  -1.1098564008050165e+00  -1.1153979487760037e+00  -1.1206353250492889e+00  -1.1255737270056325e+00  -1.1302186837574912e+00  -1.1345760612072651e+00  -1.1386520663570976e+00  -1.1424532507761962e+00  -1.1459865131369678e+00  -1.1492591007373023e+00  -1.1522786099332920e+00  -1.1550529854142912e+00  -1.1575905182605370e+00  -1.1598998427324856e+00  -1.1619899317504916e+00  -1.1638700910332911e+00  -1.1655499518741097e+00  -1.1670394625436524e+00  -1.1683488783200087e+00  -1.1694887501562912e+00  -1.1704699120075777e+00  -1.1713034668494728e+00  -1.1720007714310277e+00  -1.1725734198149831e+00  -1.1730332257680884e+00  -1.1733922040735836e+00  -1.1736625508467111e+00  -1.1738566229422718e+00  -1.1739869165506458e+00  -1.1740660450854037e+00  -1.1741067164713990e+00  -1.1741217099472228e+00  -1.1741238524998712e+00  </DataArray> 
</PointData> 
</Piece>
</UnstructuredGrid>
</VTKFile>