<?xml version="1.0"?>
<VTKFile type="UnstructuredGrid"  version="0.1"  >
<UnstructuredGrid>
<Piece  NumberOfPoints="101" NumberOfCells="100">
<Points>
<DataArray  type="Float64"  NumberOfComponents="3"  format="ascii">0 0 0  0.01 0 0  0.02 0 0  0.03 0 0  0.04 0 0  0.05 0 0  0.06 0 0  0.07000000000000001 0 0  0.08 0 0  0.09 0 0  0.1 0 0  0.11 0 0  0.12 0 0  0.13 0 0  0.14 0 0  0.15 0 0  0.16 0 0  0.17 0 0  0.18 0 0  0.19 0 0  0.2 0 0  0.21 0 0  0.22 0 0  0.23 0 0  0.24 0 0  0.25 0 0  0.26 0 0  0.27 0 0  0.28 0 0  0.29 0 0  0.3 0 0  0.31 0 0  0.32 0 0  0.33 0 0  0.34 0 0  0.35 0 0  0.36 0 0  0.37 0 0  0.38 0 0  0.39 0 0  0.4 0 0  0.41 0 0  0.42 0 0  0.43 0 0  0.44 0 0  0.45 0 0  0.46 0 0  0.47 0 0  0.48 0 0  0.49 0 0  0.5 0 0  0.51 0 0  0.52 0 0  0.53 0 0  0.54 0 0  0.55 0 0  0.5600000000000001 0 0  0.57 0 0  0.58 0 0  0.59 0 0  0.6 0 0  0.61 0 0  0.62 0 0  0.63 0 0  0.64 0 0  0.65 0 0  0.66 0 0  0.67 0 0  0.68 0 0  0.6899999999999999 0 0  0.7 0 0  0.71 0 0  0.72 0 0  0.73 0 0  0.74 0 0  0.75 0 0  0.76 0 0  0.77 0 0  0.78 0 0  0.79 0 0  0.8 0 0  0.8100000000000001 0 0  0.82 0 0  0.83 0 0  0.84 0 0  0.85 0 0  0.86 0 0  0.87 0 0  0.88 0 0  0.89 0 0  0.9 0 0  0.91 0 0  0.92 0 0  0.93 0 0  0.9399999999999999 0 0  0.95 0 0  0.96 0 0  0.97 0 0  0.98 0 0  0.99 0 0  1 0 0  </DataArray>
</Points>
<Cells>
<DataArray  type="UInt32"  Name="connectivity"  format="ascii">0 1  1 2  2 3  3 4  4 5  5 6  6 7  7 8  8 9  9 10  10 11  11 12  12 13  13 14  14 15  15 16  16 17  17 18  18 19  19 20  20 21  21 22  22 23  23 24  24 25  25 26  26 27  27 28  28 29  29 30  30 31  31 32  32 33  33 34  34 35  35 36  36 37  37 38  38 39  39 40  40 41  41 42  42 43  43 44  44 45  45 46  46 47  47 48  48 49  49 50  50 51  51 52  52 53  53 54  54 55  55 56  56 57  57 58  58 59  59 60  60 61  61 62  62 63  63 64  64 65  65 66  66 67  67 68  68 69  69 70  70 71  71 72  72 73  73 74  74 75  75 76  76 77  77 78  78 79  79 80  80 81  81 82  82 83  83 84  84 85  85 86  86 87  87 88  88 89  89 90  90 91  91 92  92 93  93 94  94 95  95 96  96 97  97 98  98 99  99 100  </DataArray>
<DataArray  type="UInt32"  Name="offsets"  format="ascii">2 4 6 8 10 12 14 16 18 20 22 24 26 28 30 32 34 36 38 40 42 44 46 48 50 52 54 56 58 60 62 64 66 68 70 72 74 76 78 80 82 84 86 88 90 92 94 96 98 100 102 104 106 108 110 112 114 116 118 120 122 124 126 128 130 132 134 136 138 140 142 144 146 148 150 152 154 156 158 160 162 164 166 168 170 172 174 176 178 180 182 184 186 188 190 192 194 196 198 200 </DataArray>
<DataArray  type="UInt8"  Name="types"  format="ascii">3 3 3 3 3 3 3 3 3 3 3 3 3 3 3 3 3 3 3 3 3 3 3 3 3 3 3 3 3 3 3 3 3 3 3 3 3 3 3 3 3 3 3 3 3 3 3 3 3 3 3 3 3 3 3 3 3 3 3 3 3 3 3 3 3 3 3 3 3 3 3 3 3 3 3 3 3 3 3 3 3 3 3 3 3 3 3 3 3 3 3 3 3 3 3 3 3 3 3 3 </DataArray>
</Cells>
<PointData  Scalars="pressure"> 
<DataArray  type="Float64"  Name="pressure"  format="ascii">1.8488927466117457e-30  7.5835469600831172e-15  1.5098572461447927e-14  2.2547662215883093e-14  2.9941471155814118e-14  3.7279999281240954e-14  4.4583976897602751e-14  5.1839583801273363e-14  5.9067550297691866e-14  6.6233325877793310e-14  7.3357640847016499e-14  8.0447405307174631e-14  8.7481888952828697e-14  9.4447271580352532e-14  1.0134355318974606e-13  1.0817073378100942e-13  1.1491499315051677e-13  1.2159015150189360e-13  1.2825148964964449e-13  1.3484372677926541e-13  1.4132540227987767e-13  1.4773797676235992e-13  1.5415055124484224e-13  1.6050784491282024e-13  1.6686513858079823e-13  1.7308423021251614e-13  1.7922040062247762e-13  1.8521836899617858e-13  1.9110577574087084e-13  1.9688262085655529e-13  2.0260418515773599e-13  2.0821518782990811e-13  2.1377090968757585e-13  2.1918842950898323e-13  2.2444010688687751e-13  2.2974706507927666e-13  2.3516458490068479e-13  2.4058210472209197e-13  2.4583378209998703e-13  2.5119602110689021e-13  2.5639241767028036e-13  2.6147825260466282e-13  2.6656408753904593e-13  2.7148408002991597e-13  2.7645935333529012e-13  2.8137934582616001e-13  2.8613349587351673e-13  2.9072180347736185e-13  2.9508898782319107e-13  2.9917976809649870e-13  3.0327054836980639e-13  3.0736132864311397e-13  3.1123098565840484e-13  3.1487951941567950e-13  3.1841749154394534e-13  3.2173434041419472e-13  3.2510647009894669e-13  3.2842331896919587e-13  3.3168488702494317e-13  3.3483589345168004e-13  3.3776577662040034e-13  3.4047453653110413e-13  3.4307273481279946e-13  3.4539452902197402e-13  3.4760576160214048e-13  3.4959587092429007e-13  3.5147541861743130e-13  3.5335496631057283e-13  3.5534507563272045e-13  3.5733518495486988e-13  3.5943585590603005e-13  3.6131540359917138e-13  3.6308438966330441e-13  3.6474281409842902e-13  3.6640123853355389e-13  3.6772797808165358e-13  3.6883359437173671e-13  3.6982864903281163e-13  3.7071314206487804e-13  3.7181875835496136e-13  3.7281381301603603e-13  3.7380886767710873e-13  3.7480392233818355e-13  3.7579897699926054e-13  3.7679403166033531e-13  3.7745740143438521e-13  3.7801020957942685e-13  3.7845245609546003e-13  3.7856301772446848e-13  3.7867357935347674e-13  3.7867357935347664e-13  3.7845245609546018e-13  3.7823133283744356e-13  3.7778908632140796e-13  3.7767852469239975e-13  3.7767852469240182e-13  3.7745740143438521e-13  3.7701515491835208e-13  3.7635178514430198e-13  3.7600396152206646e-13  3.7581877908206807e-13  </DataArray> 
</PointData> 
</Piece>
</UnstructuredGrid>
</VTKFile>