<?xml version="1.0"?>
<VTKFile type="UnstructuredGrid"  version="0.1"  >
<UnstructuredGrid>
<Piece  NumberOfPoints="101" NumberOfCells="100">
<Points>
<DataArray  type="Float64"  NumberOfComponents="3"  format="ascii">0 0 0  0.01 0 0  0.02 0 0  0.03 0 0  0.04 0 0  0.05 0 0  0.06 0 0  0.07000000000000001 0 0  0.08 0 0  0.09 0 0  0.1 0 0  0.11 0 0  0.12 0 0  0.13 0 0  0.14 0 0  0.15 0 0  0.16 0 0  0.17 0 0  0.18 0 0  0.19 0 0  0.2 0 0  0.21 0 0  0.22 0 0  0.23 0 0  0.24 0 0  0.25 0 0  0.26 0 0  0.27 0 0  0.28 0 0  0.29 0 0  0.3 0 0  0.31 0 0  0.32 0 0  0.33 0 0  0.34 0 0  0.35 0 0  0.36 0 0  0.37 0 0  0.38 0 0  0.39 0 0  0.4 0 0  0.41 0 0  0.42 0 0  0.43 0 0  0.44 0 0  0.45 0 0  0.46 0 0  0.47 0 0  0.48 0 0  0.49 0 0  0.5 0 0  0.51 0 0  0.52 0 0  0.53 0 0  0.54 0 0  0.55 0 0  0.5600000000000001 0 0  0.57 0 0  0.58 0 0  0.59 0 0  0.6 0 0  0.61 0 0  0.62 0 0  0.63 0 0  0.64 0 0  0.65 0 0  0.66 0 0  0.67 0 0  0.68 0 0  0.6899999999999999 0 0  0.7 0 0  0.71 0 0  0.72 0 0  0.73 0 0  0.74 0 0  0.75 0 0  0.76 0 0  0.77 0 0  0.78 0 0  0.79 0 0  0.8 0 0  0.8100000000000001 0 0  0.82 0 0  0.83 0 0  0.84 0 0  0.85 0 0  0.86 0 0  0.87 0 0  0.88 0 0  0.89 0 0  0.9 0 0  0.91 0 0  0.92 0 0  0.93 0 0  0.9399999999999999 0 0  0.95 0 0  0.96 0 0  0.97 0 0  0.98 0 0  0.99 0 0  1 0 0  </DataArray>
</Points>
<Cells>
<DataArray  type="UInt32"  Name="connectivity"  format="ascii">0 1  1 2  2 3  3 4  4 5  5 6  6 7  7 8  8 9  9 10  10 11  11 12  12 13  13 14  14 15  15 16  16 17  17 18  18 19  19 20  20 21  21 22  22 23  23 24  24 25  25 26  26 27  27 28  28 29  29 30  30 31  31 32  32 33  33 34  34 35  35 36  36 37  37 38  38 39  39 40  40 41  41 42  42 43  43 44  44 45  45 46  46 47  47 48  48 49  49 50  50 51  51 52  52 53  53 54  54 55  55 56  56 57  57 58  58 59  59 60  60 61  61 62  62 63  63 64  64 65  65 66  66 67  67 68  68 69  69 70  70 71  71 72  72 73  73 74  74 75  75 76  76 77  77 78  78 79  79 80  80 81  81 82  82 83  83 84  84 85  85 86  86 87  87 88  88 89  89 90  90 91  91 92  92 93  93 94  94 95  95 96  96 97  97 98  98 99  99 100  </DataArray>
<DataArray  type="UInt32"  Name="offsets"  format="ascii">2 4 6 8 10 12 14 16 18 20 22 24 26 28 30 32 34 36 38 40 42 44 46 48 50 52 54 56 58 60 62 64 66 68 70 72 74 76 78 80 82 84 86 88 90 92 94 96 98 100 102 104 106 108 110 112 114 116 118 120 122 124 126 128 130 132 134 136 138 140 142 144 146 148 150 152 154 156 158 160 162 164 166 168 170 172 174 176 178 180 182 184 186 188 190 192 194 196 198 200 </DataArray>
<DataArray  type="UInt8"  Name="types"  format="ascii">3 3 3 3 3 3 3 3 3 3 3 3 3 3 3 3 3 3 3 3 3 3 3 3 3 3 3 3 3 3 3 3 3 3 3 3 3 3 3 3 3 3 3 3 3 3 3 3 3 3 3 3 3 3 3 3 3 3 3 3 3 3 3 3 3 3 3 3 3 3 3 3 3 3 3 3 3 3 3 3 3 3 3 3 3 3 3 3 3 3 3 3 3 3 3 3 3 3 3 3 </DataArray>
</Cells>
<PointData  Scalars="pressure"> 
<DataArray  type="Float64"  Name="pressure"  format="ascii">2.3058430092136943e+20  3.1445911899813525e+36  2.3019718183962870e+36  2.5277586899007585e+36  2.4672572194881566e+36  2.4834690922138141e+36  2.4791249863849643e+36  2.4802890260383501e+36  2.4799771122808942e+36  2.4800606925201972e+36  2.4800382968524292e+36  2.4800442983107181e+36  2.4800426905228074e+36  2.4800431216957284e+36  2.4800430065121253e+36  2.4800430377293065e+36  2.4800430297171746e+36  2.4800430322168619e+36  2.4800430318998264e+36  2.4800430323375461e+36  2.4800430325730263e+36  2.4800430328627022e+36  2.4800430331378511e+36  2.4800430334168973e+36  2.4800430336948941e+36  2.4800430339731740e+36  2.4800430342513778e+36  2.4800430345296031e+36  2.4800430348078198e+36  2.4800430350860446e+36  2.4800430353642616e+36  2.4800430356424828e+36  2.4800430359207025e+36  2.4800430361989225e+36  2.4800430364771413e+36  2.4800430367553633e+36  2.4800430370335830e+36  2.4800430373118024e+36  2.4800430375900212e+36  2.4800430378682439e+36  2.4800430381464609e+36  2.4800430384246818e+36  2.4800430387029033e+36  2.4800430389811230e+36  2.4800430392593415e+36  2.4800430395375659e+36  2.4800430398157815e+36  2.4800430400940065e+36  2.4800430403722241e+36  2.4800430406504473e+36  2.4800430409286632e+36  2.4800430412068876e+36  2.4800430414851056e+36  2.4800430417633255e+36  2.4800430420415452e+36  2.4800430423197697e+36  2.4800430425979829e+36  2.4800430428762088e+36  2.4800430431544240e+36  2.4800430434326461e+36  2.4800430437108625e+36  2.4800430439890819e+36  2.4800430442673055e+36  2.4800430445455207e+36  2.4800430448237455e+36  2.4800430451019631e+36  2.4800430453801831e+36  2.4800430456584043e+36  2.4800430459366228e+36  2.4800430462148439e+36  2.4800430464930616e+36  2.4800430467712830e+36  2.4800430470495060e+36  2.4800430473277227e+36  2.4800430476059442e+36  2.4800430478841669e+36  2.4800430481623821e+36  2.4800430484406065e+36  2.4800430487188230e+36  2.4800430489970456e+36  2.4800430492752653e+36  2.4800430495534824e+36  2.4800430498317077e+36  2.4800430501099238e+36  2.4800430503881459e+36  2.4800430506663632e+36  2.4800430509445865e+36  2.4800430512228071e+36  2.4800430515010241e+36  2.4800430517792459e+36  2.4800430520574641e+36  2.4800430523356876e+36  2.4800430526139014e+36  2.4800430528921261e+36  2.4800430531703446e+36  2.4800430534485640e+36  2.4800430537267843e+36  2.4800430540050037e+36  2.4800430542832243e+36  2.4800430545614428e+36  2.4800430548396634e+36  </DataArray> 
</PointData> 
</Piece>
</UnstructuredGrid>
</VTKFile>