<?xml version="1.0"?>
<VTKFile type="UnstructuredGrid"  version="0.1"  >
<UnstructuredGrid>
<Piece  NumberOfPoints="101" NumberOfCells="100">
<Points>
<DataArray  type="Float64"  NumberOfComponents="3"  format="ascii">0 0 0  0.01 0 0  0.02 0 0  0.03 0 0  0.04 0 0  0.05 0 0  0.06 0 0  0.07000000000000001 0 0  0.08 0 0  0.09 0 0  0.1 0 0  0.11 0 0  0.12 0 0  0.13 0 0  0.14 0 0  0.15 0 0  0.16 0 0  0.17 0 0  0.18 0 0  0.19 0 0  0.2 0 0  0.21 0 0  0.22 0 0  0.23 0 0  0.24 0 0  0.25 0 0  0.26 0 0  0.27 0 0  0.28 0 0  0.29 0 0  0.3 0 0  0.31 0 0  0.32 0 0  0.33 0 0  0.34 0 0  0.35 0 0  0.36 0 0  0.37 0 0  0.38 0 0  0.39 0 0  0.4 0 0  0.41 0 0  0.42 0 0  0.43 0 0  0.44 0 0  0.45 0 0  0.46 0 0  0.47 0 0  0.48 0 0  0.49 0 0  0.5 0 0  0.51 0 0  0.52 0 0  0.53 0 0  0.54 0 0  0.55 0 0  0.5600000000000001 0 0  0.57 0 0  0.58 0 0  0.59 0 0  0.6 0 0  0.61 0 0  0.62 0 0  0.63 0 0  0.64 0 0  0.65 0 0  0.66 0 0  0.67 0 0  0.68 0 0  0.6899999999999999 0 0  0.7 0 0  0.71 0 0  0.72 0 0  0.73 0 0  0.74 0 0  0.75 0 0  0.76 0 0  0.77 0 0  0.78 0 0  0.79 0 0  0.8 0 0  0.8100000000000001 0 0  0.82 0 0  0.83 0 0  0.84 0 0  0.85 0 0  0.86 0 0  0.87 0 0  0.88 0 0  0.89 0 0  0.9 0 0  0.91 0 0  0.92 0 0  0.93 0 0  0.9399999999999999 0 0  0.95 0 0  0.96 0 0  0.97 0 0  0.98 0 0  0.99 0 0  1 0 0  </DataArray>
</Points>
<Cells>
<DataArray  type="UInt32"  Name="connectivity"  format="ascii">0 1  1 2  2 3  3 4  4 5  5 6  6 7  7 8  8 9  9 10  10 11  11 12  12 13  13 14  14 15  15 16  16 17  17 18  18 19  19 20  20 21  21 22  22 23  23 24  24 25  25 26  26 27  27 28  28 29  29 30  30 31  31 32  32 33  33 34  34 35  35 36  36 37  37 38  38 39  39 40  40 41  41 42  42 43  43 44  44 45  45 46  46 47  47 48  48 49  49 50  50 51  51 52  52 53  53 54  54 55  55 56  56 57  57 58  58 59  59 60  60 61  61 62  62 63  63 64  64 65  65 66  66 67  67 68  68 69  69 70  70 71  71 72  72 73  73 74  74 75  75 76  76 77  77 78  78 79  79 80  80 81  81 82  82 83  83 84  84 85  85 86  86 87  87 88  88 89  89 90  90 91  91 92  92 93  93 94  94 95  95 96  96 97  97 98  98 99  99 100  </DataArray>
<DataArray  type="UInt32"  Name="offsets"  format="ascii">2 4 6 8 10 12 14 16 18 20 22 24 26 28 30 32 34 36 38 40 42 44 46 48 50 52 54 56 58 60 62 64 66 68 70 72 74 76 78 80 82 84 86 88 90 92 94 96 98 100 102 104 106 108 110 112 114 116 118 120 122 124 126 128 130 132 134 136 138 140 142 144 146 148 150 152 154 156 158 160 162 164 166 168 170 172 174 176 178 180 182 184 186 188 190 192 194 196 198 200 </DataArray>
<DataArray  type="UInt8"  Name="types"  format="ascii">3 3 3 3 3 3 3 3 3 3 3 3 3 3 3 3 3 3 3 3 3 3 3 3 3 3 3 3 3 3 3 3 3 3 3 3 3 3 3 3 3 3 3 3 3 3 3 3 3 3 3 3 3 3 3 3 3 3 3 3 3 3 3 3 3 3 3 3 3 3 3 3 3 3 3 3 3 3 3 3 3 3 3 3 3 3 3 3 3 3 3 3 3 3 3 3 3 3 3 3 </DataArray>
</Cells>
<PointData  Scalars="pressure"> 
<DataArray  type="Float64"  Name="pressure"  format="ascii">5.4445178707350162e+41  2.6697550836769704e+57  1.9543628848114659e+57  2.1460606179756450e+57  2.0946929611056465e+57  2.1084575273255624e+57  2.1047691501921481e+57  2.1057574939989502e+57  2.1054926555600071e+57  2.1055636220067256e+57  2.1055446055945374e+57  2.1055497011451017e+57  2.1055483356123585e+57  2.1055487014026909e+57  2.1055486032646883e+57  2.1055486294417362e+57  2.1055486223071020e+57  2.1055486240987201e+57  2.1055486234984538e+57  2.1055486235391098e+57  2.1055486234080274e+57  2.1055486233229682e+57  2.1055486232255721e+57  2.1055486231314849e+57  2.1055486230365092e+57  2.1055486229417707e+57  2.1055486228469692e+57  2.1055486227521858e+57  2.1055486226573965e+57  2.1055486225626117e+57  2.1055486224678221e+57  2.1055486223730338e+57  2.1055486222782462e+57  2.1055486221834576e+57  2.1055486220886690e+57  2.1055486219938821e+57  2.1055486218990945e+57  2.1055486218043055e+57  2.1055486217095166e+57  2.1055486216147311e+57  2.1055486215199407e+57  2.1055486214251545e+57  2.1055486213303666e+57  2.1055486212355794e+57  2.1055486211407883e+57  2.1055486210460060e+57  2.1055486209512125e+57  2.1055486208564308e+57  2.1055486207616394e+57  2.1055486206668543e+57  2.1055486205720632e+57  2.1055486204772791e+57  2.1055486203824902e+57  2.1055486202877009e+57  2.1055486201929147e+57  2.1055486200981288e+57  2.1055486200033353e+57  2.1055486199085509e+57  2.1055486198137605e+57  2.1055486197189733e+57  2.1055486196241829e+57  2.1055486195293929e+57  2.1055486194346092e+57  2.1055486193398171e+57  2.1055486192450323e+57  2.1055486191502437e+57  2.1055486190554547e+57  2.1055486189606668e+57  2.1055486188658778e+57  2.1055486187710916e+57  2.1055486186763006e+57  2.1055486185815154e+57  2.1055486184867293e+57  2.1055486183919375e+57  2.1055486182971527e+57  2.1055486182023665e+57  2.1055486181075723e+57  2.1055486180127896e+57  2.1055486179179982e+57  2.1055486178232131e+57  2.1055486177284238e+57  2.1055486176336331e+57  2.1055486175388497e+57  2.1055486174440583e+57  2.1055486173492710e+57  2.1055486172544821e+57  2.1055486171596966e+57  2.1055486170649097e+57  2.1055486169701183e+57  2.1055486168753321e+57  2.1055486167805442e+57  2.1055486166857580e+57  2.1055486165909642e+57  2.1055486164961818e+57  2.1055486164013918e+57  2.1055486163066035e+57  2.1055486162118149e+57  2.1055486161170263e+57  2.1055486160222394e+57  2.1055486159274483e+57  2.1055486158326625e+57  </DataArray> 
</PointData> 
</Piece>
</UnstructuredGrid>
</VTKFile>