<?xml version="1.0"?>
<VTKFile type="UnstructuredGrid"  version="0.1"  >
<UnstructuredGrid>
<Piece  NumberOfPoints="101" NumberOfCells="100">
<Points>
<DataArray  type="Float64"  NumberOfComponents="3"  format="ascii">0 0 0  0.01 0 0  0.02 0 0  0.03 0 0  0.04 0 0  0.05 0 0  0.06 0 0  0.07000000000000001 0 0  0.08 0 0  0.09 0 0  0.1 0 0  0.11 0 0  0.12 0 0  0.13 0 0  0.14 0 0  0.15 0 0  0.16 0 0  0.17 0 0  0.18 0 0  0.19 0 0  0.2 0 0  0.21 0 0  0.22 0 0  0.23 0 0  0.24 0 0  0.25 0 0  0.26 0 0  0.27 0 0  0.28 0 0  0.29 0 0  0.3 0 0  0.31 0 0  0.32 0 0  0.33 0 0  0.34 0 0  0.35 0 0  0.36 0 0  0.37 0 0  0.38 0 0  0.39 0 0  0.4 0 0  0.41 0 0  0.42 0 0  0.43 0 0  0.44 0 0  0.45 0 0  0.46 0 0  0.47 0 0  0.48 0 0  0.49 0 0  0.5 0 0  0.51 0 0  0.52 0 0  0.53 0 0  0.54 0 0  0.55 0 0  0.5600000000000001 0 0  0.57 0 0  0.58 0 0  0.59 0 0  0.6 0 0  0.61 0 0  0.62 0 0  0.63 0 0  0.64 0 0  0.65 0 0  0.66 0 0  0.67 0 0  0.68 0 0  0.6899999999999999 0 0  0.7 0 0  0.71 0 0  0.72 0 0  0.73 0 0  0.74 0 0  0.75 0 0  0.76 0 0  0.77 0 0  0.78 0 0  0.79 0 0  0.8 0 0  0.8100000000000001 0 0  0.82 0 0  0.83 0 0  0.84 0 0  0.85 0 0  0.86 0 0  0.87 0 0  0.88 0 0  0.89 0 0  0.9 0 0  0.91 0 0  0.92 0 0  0.93 0 0  0.9399999999999999 0 0  0.95 0 0  0.96 0 0  0.97 0 0  0.98 0 0  0.99 0 0  1 0 0  </DataArray>
</Points>
<Cells>
<DataArray  type="UInt32"  Name="connectivity"  format="ascii">0 1  1 2  2 3  3 4  4 5  5 6  6 7  7 8  8 9  9 10  10 11  11 12  12 13  13 14  14 15  15 16  16 17  17 18  18 19  19 20  20 21  21 22  22 23  23 24  24 25  25 26  26 27  27 28  28 29  29 30  30 31  31 32  32 33  33 34  34 35  35 36  36 37  37 38  38 39  39 40  40 41  41 42  42 43  43 44  44 45  45 46  46 47  47 48  48 49  49 50  50 51  51 52  52 53  53 54  54 55  55 56  56 57  57 58  58 59  59 60  60 61  61 62  62 63  63 64  64 65  65 66  66 67  67 68  68 69  69 70  70 71  71 72  72 73  73 74  74 75  75 76  76 77  77 78  78 79  79 80  80 81  81 82  82 83  83 84  84 85  85 86  86 87  87 88  88 89  89 90  90 91  91 92  92 93  93 94  94 95  95 96  96 97  97 98  98 99  99 100  </DataArray>
<DataArray  type="UInt32"  Name="offsets"  format="ascii">2 4 6 8 10 12 14 16 18 20 22 24 26 28 30 32 34 36 38 40 42 44 46 48 50 52 54 56 58 60 62 64 66 68 70 72 74 76 78 80 82 84 86 88 90 92 94 96 98 100 102 104 106 108 110 112 114 116 118 120 122 124 126 128 130 132 134 136 138 140 142 144 146 148 150 152 154 156 158 160 162 164 166 168 170 172 174 176 178 180 182 184 186 188 190 192 194 196 198 200 </DataArray>
<DataArray  type="UInt8"  Name="types"  format="ascii">3 3 3 3 3 3 3 3 3 3 3 3 3 3 3 3 3 3 3 3 3 3 3 3 3 3 3 3 3 3 3 3 3 3 3 3 3 3 3 3 3 3 3 3 3 3 3 3 3 3 3 3 3 3 3 3 3 3 3 3 3 3 3 3 3 3 3 3 3 3 3 3 3 3 3 3 3 3 3 3 3 3 3 3 3 3 3 3 3 3 3 3 3 3 3 3 3 3 3 3 </DataArray>
</Cells>
<PointData  Scalars="pressure"> 
<DataArray  type="Float64"  Name="pressure"  format="ascii">0.0000000000000000e+00  2.1279877111699924e-13  4.1315498740044440e-13  6.0124277617447950e-13  7.7723097667391697e-13  9.4133552958041363e-13  1.0937585553720012e-12  1.2347108121539757e-12  1.3644134231843537e-12  1.4830944218229663e-12  1.5910025717350826e-12  1.6883728163823397e-12  1.7755092002445192e-12  1.8526535768850717e-12  1.9200685301728893e-12  1.9780166439768724e-12  2.0267605021659151e-12  2.0666041492197838e-12  2.0978101690073802e-12  2.1206687858048511e-12  2.1355255047028418e-12  2.1427949318101384e-12  2.1426567297738801e-12  2.1353596622593293e-12  2.1212630545607685e-12  2.1006709511579732e-12  2.0739979581597174e-12  2.0415204796385242e-12  2.0034596388524078e-12  1.9601747610956525e-12  1.9119146100335283e-12  1.8591214321820585e-12  1.8019057891702555e-12  1.7405717254778932e-12  1.6756720492500081e-12  1.6073449625228698e-12  1.5359221501835039e-12  1.4615694546754115e-12  1.3845079992566168e-12  1.3052353112576550e-12  1.2239172331220373e-12  1.1409407305512965e-12  1.0565822076179566e-12  9.7106278758002477e-13  8.8471415532453196e-13  7.9759159166598019e-13  7.0975037741887230e-13  6.2168803991374981e-13  5.3357042159412539e-13  4.4567392653251516e-13  3.5827495880144282e-13  2.7131823758640346e-13  1.8519072858892656e-13  9.9892431809012050e-14  1.5644470504676481e-14  -6.7442593695071763e-14  -1.4898179508870278e-13  -2.2902841449072195e-13  -3.0730604782860967e-13  -3.8381469510236340e-13  -4.5849907549747955e-13  -5.3130390819945458e-13  -6.0200806995027186e-13  -6.7066684156443494e-13  -7.3700381896942356e-13  -8.0101900216523753e-13  -8.6282295278088543e-13  -9.2219454755834997e-13  -9.7891266323960977e-13  -1.0331984230826921e-12  -1.0849412654585889e-12  -1.1341411903672888e-12  -1.1804665129217726e-12  -1.2242489180090646e-12  -1.2652672823711496e-12  -1.3040744141530680e-12  -1.3406703133548204e-12  -1.3747232950893806e-12  -1.4065650442437754e-12  -1.4359744375599869e-12  -1.4625092285219825e-12  -1.4870539101618200e-12  -1.5092767975924906e-12  -1.5289567675559801e-12  -1.5465360665683012e-12  -1.5619041330004574e-12  -1.5751715284814547e-12  -1.5866699378983199e-12  -1.5966204845090676e-12  -1.6048020450556831e-12  -1.6114357427961816e-12  -1.6170743858756061e-12  -1.6217179742939550e-12  -1.6250348231641954e-12  -1.6276883022603943e-12  -1.6293467266955291e-12  -1.6305629046146200e-12  -1.6315579592756954e-12  -1.6325530139367698e-12  -1.6329314900386884e-12  -1.6328563708442239e-12  </DataArray> 
</PointData> 
</Piece>
</UnstructuredGrid>
</VTKFile>