<?xml version="1.0"?>
<VTKFile type="UnstructuredGrid"  version="0.1"  >
<UnstructuredGrid>
<Piece  NumberOfPoints="101" NumberOfCells="100">
<Points>
<DataArray  type="Float64"  NumberOfComponents="3"  format="ascii">0 0 0  0.01 0 0  0.02 0 0  0.03 0 0  0.04 0 0  0.05 0 0  0.06 0 0  0.07000000000000001 0 0  0.08 0 0  0.09 0 0  0.1 0 0  0.11 0 0  0.12 0 0  0.13 0 0  0.14 0 0  0.15 0 0  0.16 0 0  0.17 0 0  0.18 0 0  0.19 0 0  0.2 0 0  0.21 0 0  0.22 0 0  0.23 0 0  0.24 0 0  0.25 0 0  0.26 0 0  0.27 0 0  0.28 0 0  0.29 0 0  0.3 0 0  0.31 0 0  0.32 0 0  0.33 0 0  0.34 0 0  0.35 0 0  0.36 0 0  0.37 0 0  0.38 0 0  0.39 0 0  0.4 0 0  0.41 0 0  0.42 0 0  0.43 0 0  0.44 0 0  0.45 0 0  0.46 0 0  0.47 0 0  0.48 0 0  0.49 0 0  0.5 0 0  0.51 0 0  0.52 0 0  0.53 0 0  0.54 0 0  0.55 0 0  0.5600000000000001 0 0  0.57 0 0  0.58 0 0  0.59 0 0  0.6 0 0  0.61 0 0  0.62 0 0  0.63 0 0  0.64 0 0  0.65 0 0  0.66 0 0  0.67 0 0  0.68 0 0  0.6899999999999999 0 0  0.7 0 0  0.71 0 0  0.72 0 0  0.73 0 0  0.74 0 0  0.75 0 0  0.76 0 0  0.77 0 0  0.78 0 0  0.79 0 0  0.8 0 0  0.8100000000000001 0 0  0.82 0 0  0.83 0 0  0.84 0 0  0.85 0 0  0.86 0 0  0.87 0 0  0.88 0 0  0.89 0 0  0.9 0 0  0.91 0 0  0.92 0 0  0.93 0 0  0.9399999999999999 0 0  0.95 0 0  0.96 0 0  0.97 0 0  0.98 0 0  0.99 0 0  1 0 0  </DataArray>
</Points>
<Cells>
<DataArray  type="UInt32"  Name="connectivity"  format="ascii">0 1  1 2  2 3  3 4  4 5  5 6  6 7  7 8  8 9  9 10  10 11  11 12  12 13  13 14  14 15  15 16  16 17  17 18  18 19  19 20  20 21  21 22  22 23  23 24  24 25  25 26  26 27  27 28  28 29  29 30  30 31  31 32  32 33  33 34  34 35  35 36  36 37  37 38  38 39  39 40  40 41  41 42  42 43  43 44  44 45  45 46  46 47  47 48  48 49  49 50  50 51  51 52  52 53  53 54  54 55  55 56  56 57  57 58  58 59  59 60  60 61  61 62  62 63  63 64  64 65  65 66  66 67  67 68  68 69  69 70  70 71  71 72  72 73  73 74  74 75  75 76  76 77  77 78  78 79  79 80  80 81  81 82  82 83  83 84  84 85  85 86  86 87  87 88  88 89  89 90  90 91  91 92  92 93  93 94  94 95  95 96  96 97  97 98  98 99  99 100  </DataArray>
<DataArray  type="UInt32"  Name="offsets"  format="ascii">2 4 6 8 10 12 14 16 18 20 22 24 26 28 30 32 34 36 38 40 42 44 46 48 50 52 54 56 58 60 62 64 66 68 70 72 74 76 78 80 82 84 86 88 90 92 94 96 98 100 102 104 106 108 110 112 114 116 118 120 122 124 126 128 130 132 134 136 138 140 142 144 146 148 150 152 154 156 158 160 162 164 166 168 170 172 174 176 178 180 182 184 186 188 190 192 194 196 198 200 </DataArray>
<DataArray  type="UInt8"  Name="types"  format="ascii">3 3 3 3 3 3 3 3 3 3 3 3 3 3 3 3 3 3 3 3 3 3 3 3 3 3 3 3 3 3 3 3 3 3 3 3 3 3 3 3 3 3 3 3 3 3 3 3 3 3 3 3 3 3 3 3 3 3 3 3 3 3 3 3 3 3 3 3 3 3 3 3 3 3 3 3 3 3 3 3 3 3 3 3 3 3 3 3 3 3 3 3 3 3 3 3 3 3 3 3 </DataArray>
</Cells>
<PointData  Scalars="pressure"> 
<DataArray  type="Float64"  Name="pressure"  format="ascii">-2.1175823681357499e-20  2.4657341484168855e-04  4.9414188813445760e-04  7.4255412466701324e-04  9.9165836842213446e-04  1.2413025693694070e-03  1.4913345501613776e-03  1.7416021725593994e-03  1.9919535034162049e-03  2.2422369800429703e-03  2.4923015747896453e-03  2.7419969586686575e-03  2.9911736638527277e-03  3.2396832448801285e-03  3.4873784384013085e-03  3.7341133213034017e-03  3.9797434670505389e-03  4.2241261000804413e-03  4.4671202480993707e-03  4.7085868921213792e-03  4.9483891140986239e-03  5.1863922419934051e-03  5.4224639921454515e-03  5.6564746087902134e-03  5.8882970005878776e-03  6.1178068740257267e-03  6.3448828635601414e-03  6.5694066583681715e-03  6.7912631255812959e-03  7.0103404298798343e-03  7.2265301493279642e-03  7.4397273873354191e-03  7.6498308806347429e-03  7.8567431031677532e-03  8.0603703657795601e-03  8.2606229116219884e-03  8.4574150071740229e-03  8.6506650287897467e-03  8.8402955446918504e-03  9.0262333923296148e-03  9.2084097510290504e-03  9.3867602098655321e-03  9.5612248306943832e-03  9.7317482062808970e-03  9.8982795134752600e-03  1.0060772561384594e-02  1.0219185834496734e-02  1.0373482530718637e-02  1.0523630594296620e-02  1.0669602743589340e-02  1.0811376493671532e-02  1.0948934173751449e-02  1.1082262939390394e-02  1.1211354779517095e-02  1.1336206518236115e-02  1.1456819811433613e-02  1.1573201138192844e-02  1.1685361787029959e-02  1.1793317836973632e-02  1.1897090133512388e-02  1.1996704259440431e-02  1.2092190500637904e-02  1.2183583806826694e-02  1.2270923747347878e-02  1.2354254462011405e-02  1.2433624607076083e-02  1.2509087296417669e-02  1.2580700037954501e-02  1.2648524665400528e-02  1.2712627265418559e-02  1.2773078100259941e-02  1.2829951525969168e-02  1.2883325906246912e-02  1.2933283522063134e-02  1.2979910477120162e-02  1.3023296599264843e-02  1.3063535337960328e-02  1.3100723657924815e-02  1.3134961929050951e-02  1.3166353812728245e-02  1.3195006144682260e-02  1.3221028814466181e-02  1.3244534641721270e-02  1.3265639249348432e-02  1.3284460933720601e-02  1.3301120532073390e-02  1.3315741287216959e-02  1.3328448709709804e-02  1.3339370437644141e-02  1.3348636094187450e-02  1.3356377143033263e-02  1.3362726741911702e-02  1.3367819594318165e-02  1.3371791799610747e-02  1.3374780701641191e-02  1.3376924736073086e-02  1.3378363276552632e-02  1.3379236479891201e-02  1.3379685130422477e-02  1.3379850483702382e-02  1.3379874109709483e-02  </DataArray> 
</PointData> 
</Piece>
</UnstructuredGrid>
</VTKFile>