<?xml version="1.0"?>
<VTKFile type="UnstructuredGrid"  version="0.1"  >
<UnstructuredGrid>
<Piece  NumberOfPoints="101" NumberOfCells="100">
<Points>
<DataArray  type="Float64"  NumberOfComponents="3"  format="ascii">0 0 0  0.01 0 0  0.02 0 0  0.03 0 0  0.04 0 0  0.05 0 0  0.06 0 0  0.07000000000000001 0 0  0.08 0 0  0.09 0 0  0.1 0 0  0.11 0 0  0.12 0 0  0.13 0 0  0.14 0 0  0.15 0 0  0.16 0 0  0.17 0 0  0.18 0 0  0.19 0 0  0.2 0 0  0.21 0 0  0.22 0 0  0.23 0 0  0.24 0 0  0.25 0 0  0.26 0 0  0.27 0 0  0.28 0 0  0.29 0 0  0.3 0 0  0.31 0 0  0.32 0 0  0.33 0 0  0.34 0 0  0.35 0 0  0.36 0 0  0.37 0 0  0.38 0 0  0.39 0 0  0.4 0 0  0.41 0 0  0.42 0 0  0.43 0 0  0.44 0 0  0.45 0 0  0.46 0 0  0.47 0 0  0.48 0 0  0.49 0 0  0.5 0 0  0.51 0 0  0.52 0 0  0.53 0 0  0.54 0 0  0.55 0 0  0.5600000000000001 0 0  0.57 0 0  0.58 0 0  0.59 0 0  0.6 0 0  0.61 0 0  0.62 0 0  0.63 0 0  0.64 0 0  0.65 0 0  0.66 0 0  0.67 0 0  0.68 0 0  0.6899999999999999 0 0  0.7 0 0  0.71 0 0  0.72 0 0  0.73 0 0  0.74 0 0  0.75 0 0  0.76 0 0  0.77 0 0  0.78 0 0  0.79 0 0  0.8 0 0  0.8100000000000001 0 0  0.82 0 0  0.83 0 0  0.84 0 0  0.85 0 0  0.86 0 0  0.87 0 0  0.88 0 0  0.89 0 0  0.9 0 0  0.91 0 0  0.92 0 0  0.93 0 0  0.9399999999999999 0 0  0.95 0 0  0.96 0 0  0.97 0 0  0.98 0 0  0.99 0 0  1 0 0  </DataArray>
</Points>
<Cells>
<DataArray  type="UInt32"  Name="connectivity"  format="ascii">0 1  1 2  2 3  3 4  4 5  5 6  6 7  7 8  8 9  9 10  10 11  11 12  12 13  13 14  14 15  15 16  16 17  17 18  18 19  19 20  20 21  21 22  22 23  23 24  24 25  25 26  26 27  27 28  28 29  29 30  30 31  31 32  32 33  33 34  34 35  35 36  36 37  37 38  38 39  39 40  40 41  41 42  42 43  43 44  44 45  45 46  46 47  47 48  48 49  49 50  50 51  51 52  52 53  53 54  54 55  55 56  56 57  57 58  58 59  59 60  60 61  61 62  62 63  63 64  64 65  65 66  66 67  67 68  68 69  69 70  70 71  71 72  72 73  73 74  74 75  75 76  76 77  77 78  78 79  79 80  80 81  81 82  82 83  83 84  84 85  85 86  86 87  87 88  88 89  89 90  90 91  91 92  92 93  93 94  94 95  95 96  96 97  97 98  98 99  99 100  </DataArray>
<DataArray  type="UInt32"  Name="offsets"  format="ascii">2 4 6 8 10 12 14 16 18 20 22 24 26 28 30 32 34 36 38 40 42 44 46 48 50 52 54 56 58 60 62 64 66 68 70 72 74 76 78 80 82 84 86 88 90 92 94 96 98 100 102 104 106 108 110 112 114 116 118 120 122 124 126 128 130 132 134 136 138 140 142 144 146 148 150 152 154 156 158 160 162 164 166 168 170 172 174 176 178 180 182 184 186 188 190 192 194 196 198 200 </DataArray>
<DataArray  type="UInt8"  Name="types"  format="ascii">3 3 3 3 3 3 3 3 3 3 3 3 3 3 3 3 3 3 3 3 3 3 3 3 3 3 3 3 3 3 3 3 3 3 3 3 3 3 3 3 3 3 3 3 3 3 3 3 3 3 3 3 3 3 3 3 3 3 3 3 3 3 3 3 3 3 3 3 3 3 3 3 3 3 3 3 3 3 3 3 3 3 3 3 3 3 3 3 3 3 3 3 3 3 3 3 3 3 3 3 </DataArray>
</Cells>
<PointData  Scalars="pressure"> 
<DataArray  type="Float64"  Name="pressure"  format="ascii">1.2760588759535195e+40  3.5303163958593449e+55  2.5843269656793251e+55  2.8378158610145442e+55  2.7698905569518031e+55  2.7880919342754035e+55  2.7832146633616471e+55  2.7845215852656522e+55  2.7841713806164611e+55  2.7842652223439182e+55  2.7842400766686145e+55  2.7842468150548860e+55  2.7842450097351944e+55  2.7842454938011086e+55  2.7842453643994584e+55  2.7842453993836054e+55  2.7842453903186514e+55  2.7842453930571660e+55  2.7842453926328143e+55  2.7842453930559753e+55  2.7842453932520416e+55  2.7842453935089641e+55  2.7842453937495764e+55  2.7842453939945623e+55  2.7842453942383732e+55  2.7842453944824972e+55  2.7842453947265379e+55  2.7842453949706053e+55  2.7842453952146597e+55  2.7842453954587260e+55  2.7842453957027819e+55  2.7842453959468395e+55  2.7842453961908998e+55  2.7842453964349574e+55  2.7842453966790156e+55  2.7842453969230764e+55  2.7842453971671351e+55  2.7842453974111949e+55  2.7842453976552525e+55  2.7842453978993166e+55  2.7842453981433693e+55  2.7842453983874312e+55  2.7842453986314932e+55  2.7842453988755502e+55  2.7842453991196067e+55  2.7842453993636741e+55  2.7842453996077257e+55  2.7842453998517909e+55  2.7842454000958491e+55  2.7842454003399094e+55  2.7842454005839642e+55  2.7842454008280300e+55  2.7842454010720854e+55  2.7842454013161452e+55  2.7842454015602055e+55  2.7842454018042680e+55  2.7842454020483207e+55  2.7842454022923848e+55  2.7842454025364402e+55  2.7842454027805005e+55  2.7842454030245576e+55  2.7842454032686141e+55  2.7842454035126777e+55  2.7842454037567309e+55  2.7842454040007972e+55  2.7842454042448526e+55  2.7842454044889113e+55  2.7842454047329727e+55  2.7842454049770281e+55  2.7842454052210906e+55  2.7842454054651460e+55  2.7842454057092101e+55  2.7842454059532715e+55  2.7842454061973237e+55  2.7842454064413873e+55  2.7842454066854519e+55  2.7842454069294986e+55  2.7842454071735677e+55  2.7842454074176209e+55  2.7842454076616845e+55  2.7842454079057415e+55  2.7842454081497969e+55  2.7842454083938632e+55  2.7842454086379170e+55  2.7842454088819795e+55  2.7842454091260360e+55  2.7842454093700996e+55  2.7842454096141588e+55  2.7842454098582153e+55  2.7842454101022751e+55  2.7842454103463349e+55  2.7842454105903968e+55  2.7842454108344479e+55  2.7842454110785158e+55  2.7842454113225712e+55  2.7842454115666321e+55  2.7842454118106886e+55  2.7842454120547494e+55  2.7842454122988087e+55  2.7842454125428652e+55  2.7842454127869244e+55  </DataArray> 
</PointData> 
</Piece>
</UnstructuredGrid>
</VTKFile>