<?xml version="1.0"?>
<VTKFile type="UnstructuredGrid"  version="0.1"  >
<UnstructuredGrid>
<Piece  NumberOfPoints="101" NumberOfCells="100">
<Points>
<DataArray  type="Float64"  NumberOfComponents="3"  format="ascii">0 0 0  0.01 0 0  0.02 0 0  0.03 0 0  0.04 0 0  0.05 0 0  0.06 0 0  0.07000000000000001 0 0  0.08 0 0  0.09 0 0  0.1 0 0  0.11 0 0  0.12 0 0  0.13 0 0  0.14 0 0  0.15 0 0  0.16 0 0  0.17 0 0  0.18 0 0  0.19 0 0  0.2 0 0  0.21 0 0  0.22 0 0  0.23 0 0  0.24 0 0  0.25 0 0  0.26 0 0  0.27 0 0  0.28 0 0  0.29 0 0  0.3 0 0  0.31 0 0  0.32 0 0  0.33 0 0  0.34 0 0  0.35 0 0  0.36 0 0  0.37 0 0  0.38 0 0  0.39 0 0  0.4 0 0  0.41 0 0  0.42 0 0  0.43 0 0  0.44 0 0  0.45 0 0  0.46 0 0  0.47 0 0  0.48 0 0  0.49 0 0  0.5 0 0  0.51 0 0  0.52 0 0  0.53 0 0  0.54 0 0  0.55 0 0  0.5600000000000001 0 0  0.57 0 0  0.58 0 0  0.59 0 0  0.6 0 0  0.61 0 0  0.62 0 0  0.63 0 0  0.64 0 0  0.65 0 0  0.66 0 0  0.67 0 0  0.68 0 0  0.6899999999999999 0 0  0.7 0 0  0.71 0 0  0.72 0 0  0.73 0 0  0.74 0 0  0.75 0 0  0.76 0 0  0.77 0 0  0.78 0 0  0.79 0 0  0.8 0 0  0.8100000000000001 0 0  0.82 0 0  0.83 0 0  0.84 0 0  0.85 0 0  0.86 0 0  0.87 0 0  0.88 0 0  0.89 0 0  0.9 0 0  0.91 0 0  0.92 0 0  0.93 0 0  0.9399999999999999 0 0  0.95 0 0  0.96 0 0  0.97 0 0  0.98 0 0  0.99 0 0  1 0 0  </DataArray>
</Points>
<Cells>
<DataArray  type="UInt32"  Name="connectivity"  format="ascii">0 1  1 2  2 3  3 4  4 5  5 6  6 7  7 8  8 9  9 10  10 11  11 12  12 13  13 14  14 15  15 16  16 17  17 18  18 19  19 20  20 21  21 22  22 23  23 24  24 25  25 26  26 27  27 28  28 29  29 30  30 31  31 32  32 33  33 34  34 35  35 36  36 37  37 38  38 39  39 40  40 41  41 42  42 43  43 44  44 45  45 46  46 47  47 48  48 49  49 50  50 51  51 52  52 53  53 54  54 55  55 56  56 57  57 58  58 59  59 60  60 61  61 62  62 63  63 64  64 65  65 66  66 67  67 68  68 69  69 70  70 71  71 72  72 73  73 74  74 75  75 76  76 77  77 78  78 79  79 80  80 81  81 82  82 83  83 84  84 85  85 86  86 87  87 88  88 89  89 90  90 91  91 92  92 93  93 94  94 95  95 96  96 97  97 98  98 99  99 100  </DataArray>
<DataArray  type="UInt32"  Name="offsets"  format="ascii">2 4 6 8 10 12 14 16 18 20 22 24 26 28 30 32 34 36 38 40 42 44 46 48 50 52 54 56 58 60 62 64 66 68 70 72 74 76 78 80 82 84 86 88 90 92 94 96 98 100 102 104 106 108 110 112 114 116 118 120 122 124 126 128 130 132 134 136 138 140 142 144 146 148 150 152 154 156 158 160 162 164 166 168 170 172 174 176 178 180 182 184 186 188 190 192 194 196 198 200 </DataArray>
<DataArray  type="UInt8"  Name="types"  format="ascii">3 3 3 3 3 3 3 3 3 3 3 3 3 3 3 3 3 3 3 3 3 3 3 3 3 3 3 3 3 3 3 3 3 3 3 3 3 3 3 3 3 3 3 3 3 3 3 3 3 3 3 3 3 3 3 3 3 3 3 3 3 3 3 3 3 3 3 3 3 3 3 3 3 3 3 3 3 3 3 3 3 3 3 3 3 3 3 3 3 3 3 3 3 3 3 3 3 3 3 3 </DataArray>
</Cells>
<PointData  Scalars="pressure"> 
<DataArray  type="Float64"  Name="pressure"  format="ascii">1.7592186044416002e+15  2.2768917694722734e+31  1.6667773749771624e+31  1.8302632199970897e+31  1.7864556625899433e+31  1.7981943065583596e+31  1.7950488275830582e+31  1.7958916882297226e+31  1.7956658360607422e+31  1.7957263554625268e+31  1.7957101389298877e+31  1.7957144845068725e+31  1.7957133202747274e+31  1.7957136324473486e+31  1.7957135490035342e+31  1.7957135715688413e+31  1.7957135657280113e+31  1.7957135674988667e+31  1.7957135672301086e+31  1.7957135675078768e+31  1.7957135676391993e+31  1.7957135678097669e+31  1.7957135679698162e+31  1.7957135681326849e+31  1.7957135682947969e+31  1.7957135684571107e+31  1.7957135686193711e+31  1.7957135687816482e+31  1.7957135689439165e+31  1.7957135691061929e+31  1.7957135692684634e+31  1.7957135694307344e+31  1.7957135695930061e+31  1.7957135697552789e+31  1.7957135699175483e+31  1.7957135700798229e+31  1.7957135702420941e+31  1.7957135704043676e+31  1.7957135705666375e+31  1.7957135707289116e+31  1.7957135708911815e+31  1.7957135710534530e+31  1.7957135712157282e+31  1.7957135713779979e+31  1.7957135715402696e+31  1.7957135717025446e+31  1.7957135718648134e+31  1.7957135720270882e+31  1.7957135721893594e+31  1.7957135723516322e+31  1.7957135725139028e+31  1.7957135726761765e+31  1.7957135728384475e+31  1.7957135730007185e+31  1.7957135731629908e+31  1.7957135733252656e+31  1.7957135734875330e+31  1.7957135736498079e+31  1.7957135738120775e+31  1.7957135739743505e+31  1.7957135741366202e+31  1.7957135742988916e+31  1.7957135744611653e+31  1.7957135746234350e+31  1.7957135747857103e+31  1.7957135749479795e+31  1.7957135751102516e+31  1.7957135752725242e+31  1.7957135754347949e+31  1.7957135755970687e+31  1.7957135757593378e+31  1.7957135759216120e+31  1.7957135760838848e+31  1.7957135762461551e+31  1.7957135764084279e+31  1.7957135765707025e+31  1.7957135767329690e+31  1.7957135768952459e+31  1.7957135770575149e+31  1.7957135772197883e+31  1.7957135773820600e+31  1.7957135775443299e+31  1.7957135777066052e+31  1.7957135778688741e+31  1.7957135780311474e+31  1.7957135781934177e+31  1.7957135783556930e+31  1.7957135785179640e+31  1.7957135786802357e+31  1.7957135788425073e+31  1.7957135790047788e+31  1.7957135791670523e+31  1.7957135793293212e+31  1.7957135794915956e+31  1.7957135796538668e+31  1.7957135798161378e+31  1.7957135799784095e+31  1.7957135801406823e+31  1.7957135803029538e+31  1.7957135804652243e+31  1.7957135806274971e+31  </DataArray> 
</PointData> 
</Piece>
</UnstructuredGrid>
</VTKFile>