<?xml version="1.0"?>
<VTKFile type="UnstructuredGrid"  version="0.1"  >
<UnstructuredGrid>
<Piece  NumberOfPoints="101" NumberOfCells="100">
<Points>
<DataArray  type="Float64"  NumberOfComponents="3"  format="ascii">0 0 0  0.01 0 0  0.02 0 0  0.03 0 0  0.04 0 0  0.05 0 0  0.06 0 0  0.07000000000000001 0 0  0.08 0 0  0.09 0 0  0.1 0 0  0.11 0 0  0.12 0 0  0.13 0 0  0.14 0 0  0.15 0 0  0.16 0 0  0.17 0 0  0.18 0 0  0.19 0 0  0.2 0 0  0.21 0 0  0.22 0 0  0.23 0 0  0.24 0 0  0.25 0 0  0.26 0 0  0.27 0 0  0.28 0 0  0.29 0 0  0.3 0 0  0.31 0 0  0.32 0 0  0.33 0 0  0.34 0 0  0.35 0 0  0.36 0 0  0.37 0 0  0.38 0 0  0.39 0 0  0.4 0 0  0.41 0 0  0.42 0 0  0.43 0 0  0.44 0 0  0.45 0 0  0.46 0 0  0.47 0 0  0.48 0 0  0.49 0 0  0.5 0 0  0.51 0 0  0.52 0 0  0.53 0 0  0.54 0 0  0.55 0 0  0.5600000000000001 0 0  0.57 0 0  0.58 0 0  0.59 0 0  0.6 0 0  0.61 0 0  0.62 0 0  0.63 0 0  0.64 0 0  0.65 0 0  0.66 0 0  0.67 0 0  0.68 0 0  0.6899999999999999 0 0  0.7 0 0  0.71 0 0  0.72 0 0  0.73 0 0  0.74 0 0  0.75 0 0  0.76 0 0  0.77 0 0  0.78 0 0  0.79 0 0  0.8 0 0  0.8100000000000001 0 0  0.82 0 0  0.83 0 0  0.84 0 0  0.85 0 0  0.86 0 0  0.87 0 0  0.88 0 0  0.89 0 0  0.9 0 0  0.91 0 0  0.92 0 0  0.93 0 0  0.9399999999999999 0 0  0.95 0 0  0.96 0 0  0.97 0 0  0.98 0 0  0.99 0 0  1 0 0  </DataArray>
</Points>
<Cells>
<DataArray  type="UInt32"  Name="connectivity"  format="ascii">0 1  1 2  2 3  3 4  4 5  5 6  6 7  7 8  8 9  9 10  10 11  11 12  12 13  13 14  14 15  15 16  16 17  17 18  18 19  19 20  20 21  21 22  22 23  23 24  24 25  25 26  26 27  27 28  28 29  29 30  30 31  31 32  32 33  33 34  34 35  35 36  36 37  37 38  38 39  39 40  40 41  41 42  42 43  43 44  44 45  45 46  46 47  47 48  48 49  49 50  50 51  51 52  52 53  53 54  54 55  55 56  56 57  57 58  58 59  59 60  60 61  61 62  62 63  63 64  64 65  65 66  66 67  67 68  68 69  69 70  70 71  71 72  72 73  73 74  74 75  75 76  76 77  77 78  78 79  79 80  80 81  81 82  82 83  83 84  84 85  85 86  86 87  87 88  88 89  89 90  90 91  91 92  92 93  93 94  94 95  95 96  96 97  97 98  98 99  99 100  </DataArray>
<DataArray  type="UInt32"  Name="offsets"  format="ascii">2 4 6 8 10 12 14 16 18 20 22 24 26 28 30 32 34 36 38 40 42 44 46 48 50 52 54 56 58 60 62 64 66 68 70 72 74 76 78 80 82 84 86 88 90 92 94 96 98 100 102 104 106 108 110 112 114 116 118 120 122 124 126 128 130 132 134 136 138 140 142 144 146 148 150 152 154 156 158 160 162 164 166 168 170 172 174 176 178 180 182 184 186 188 190 192 194 196 198 200 </DataArray>
<DataArray  type="UInt8"  Name="types"  format="ascii">3 3 3 3 3 3 3 3 3 3 3 3 3 3 3 3 3 3 3 3 3 3 3 3 3 3 3 3 3 3 3 3 3 3 3 3 3 3 3 3 3 3 3 3 3 3 3 3 3 3 3 3 3 3 3 3 3 3 3 3 3 3 3 3 3 3 3 3 3 3 3 3 3 3 3 3 3 3 3 3 3 3 3 3 3 3 3 3 3 3 3 3 3 3 3 3 3 3 3 3 </DataArray>
</Cells>
<PointData  Scalars="pressure"> 
<DataArray  type="Float64"  Name="pressure"  format="ascii">0.0000000000000000e+00  -2.7875622887866282e-07  -5.5552869673697450e-07  -8.3021787759720382e-07  -1.1027263630752096e-06  -1.3729589176520042e-06  -1.6408225318702627e-06  -1.9062264734949788e-06  -2.1690823365596495e-06  -2.4293040882374955e-06  -2.6868081136845593e-06  -2.9415132588201457e-06  -3.1933408707785798e-06  -3.4422148364744497e-06  -3.6880616190879607e-06  -3.9308102922008588e-06  -4.1703925718316349e-06  -4.4067428467293982e-06  -4.6397982062078217e-06  -4.8694984660579810e-06  -5.0957861923467256e-06  -5.3186067232803079e-06  -5.5379081886217209e-06  -5.7536415276154853e-06  -5.9657605046045431e-06  -6.1742217226292937e-06  -6.3789846349812650e-06  -6.5800115551813550e-06  -6.7772676646914515e-06  -6.9707210184425915e-06  -7.1603425492573480e-06  -7.3461060693423899e-06  -7.5279882709243211e-06  -7.7059687245911799e-06  -7.8800298755333224e-06  -8.0501570388999528e-06  -8.2163383922255267e-06  -8.3785649671376092e-06  -8.5368306386325419e-06  -8.6911321138533268e-06  -8.8414689172190942e-06  -8.9878433759969087e-06  -9.1302606031645709e-06  -9.2687284790574250e-06  -9.4032576309698494e-06  -9.5338614124248130e-06  -9.6605558796796017e-06  -9.7833597677892522e-06  -9.9022944645139477e-06  -1.0017383983618321e-05  -1.0128654936457288e-05  -1.0236136501792611e-05  -1.0339860395056783e-05  -1.0439860836290157e-05  -1.0536174516419662e-05  -1.0628840562874114e-05  -1.0717900503596360e-05  -1.0803398230171215e-05  -1.0885379960068381e-05  -1.0963894197558855e-05  -1.1038991693526155e-05  -1.1110725404281802e-05  -1.1179150450160105e-05  -1.1244324072012125e-05  -1.1306305587920808e-05  -1.1365156347981286e-05  -1.1420939688307226e-05  -1.1473720886142828e-05  -1.1523567111547294e-05  -1.1570547379632504e-05  -1.1614732502026113e-05  -1.1656195038003317e-05  -1.1695009243628817e-05  -1.1731251021561613e-05  -1.1764997869422732e-05  -1.1796328828715823e-05  -1.1825324431425824e-05  -1.1852066646949445e-05  -1.1876638829799448e-05  -1.1899125663549969e-05  -1.1919613107766890e-05  -1.1938188342616397e-05  -1.1954939714137287e-05  -1.1969956677411896e-05  -1.1983329740732518e-05  -1.1995150409215293e-05  -1.2005511127307879e-05  -1.2014505221960886e-05  -1.2022226845578015e-05  -1.2028770917418458e-05  -1.2034233066657581e-05  -1.2038709572352068e-05  -1.2042297306058317e-05  -1.2045093673345355e-05  -1.2047196554976283e-05  -1.2048704246762430e-05  -1.2049715401739609e-05  -1.2050328970133489e-05  -1.2050644140319434e-05  -1.2050760278854599e-05  -1.2050776871687262e-05  </DataArray> 
</PointData> 
</Piece>
</UnstructuredGrid>
</VTKFile>