<?xml version="1.0"?>
<VTKFile type="UnstructuredGrid"  version="0.1"  >
<UnstructuredGrid>
<Piece  NumberOfPoints="101" NumberOfCells="100">
<Points>
<DataArray  type="Float64"  NumberOfComponents="3"  format="ascii">0 0 0  0.01 0 0  0.02 0 0  0.03 0 0  0.04 0 0  0.05 0 0  0.06 0 0  0.07000000000000001 0 0  0.08 0 0  0.09 0 0  0.1 0 0  0.11 0 0  0.12 0 0  0.13 0 0  0.14 0 0  0.15 0 0  0.16 0 0  0.17 0 0  0.18 0 0  0.19 0 0  0.2 0 0  0.21 0 0  0.22 0 0  0.23 0 0  0.24 0 0  0.25 0 0  0.26 0 0  0.27 0 0  0.28 0 0  0.29 0 0  0.3 0 0  0.31 0 0  0.32 0 0  0.33 0 0  0.34 0 0  0.35 0 0  0.36 0 0  0.37 0 0  0.38 0 0  0.39 0 0  0.4 0 0  0.41 0 0  0.42 0 0  0.43 0 0  0.44 0 0  0.45 0 0  0.46 0 0  0.47 0 0  0.48 0 0  0.49 0 0  0.5 0 0  0.51 0 0  0.52 0 0  0.53 0 0  0.54 0 0  0.55 0 0  0.5600000000000001 0 0  0.57 0 0  0.58 0 0  0.59 0 0  0.6 0 0  0.61 0 0  0.62 0 0  0.63 0 0  0.64 0 0  0.65 0 0  0.66 0 0  0.67 0 0  0.68 0 0  0.6899999999999999 0 0  0.7 0 0  0.71 0 0  0.72 0 0  0.73 0 0  0.74 0 0  0.75 0 0  0.76 0 0  0.77 0 0  0.78 0 0  0.79 0 0  0.8 0 0  0.8100000000000001 0 0  0.82 0 0  0.83 0 0  0.84 0 0  0.85 0 0  0.86 0 0  0.87 0 0  0.88 0 0  0.89 0 0  0.9 0 0  0.91 0 0  0.92 0 0  0.93 0 0  0.9399999999999999 0 0  0.95 0 0  0.96 0 0  0.97 0 0  0.98 0 0  0.99 0 0  1 0 0  </DataArray>
</Points>
<Cells>
<DataArray  type="UInt32"  Name="connectivity"  format="ascii">0 1  1 2  2 3  3 4  4 5  5 6  6 7  7 8  8 9  9 10  10 11  11 12  12 13  13 14  14 15  15 16  16 17  17 18  18 19  19 20  20 21  21 22  22 23  23 24  24 25  25 26  26 27  27 28  28 29  29 30  30 31  31 32  32 33  33 34  34 35  35 36  36 37  37 38  38 39  39 40  40 41  41 42  42 43  43 44  44 45  45 46  46 47  47 48  48 49  49 50  50 51  51 52  52 53  53 54  54 55  55 56  56 57  57 58  58 59  59 60  60 61  61 62  62 63  63 64  64 65  65 66  66 67  67 68  68 69  69 70  70 71  71 72  72 73  73 74  74 75  75 76  76 77  77 78  78 79  79 80  80 81  81 82  82 83  83 84  84 85  85 86  86 87  87 88  88 89  89 90  90 91  91 92  92 93  93 94  94 95  95 96  96 97  97 98  98 99  99 100  </DataArray>
<DataArray  type="UInt32"  Name="offsets"  format="ascii">2 4 6 8 10 12 14 16 18 20 22 24 26 28 30 32 34 36 38 40 42 44 46 48 50 52 54 56 58 60 62 64 66 68 70 72 74 76 78 80 82 84 86 88 90 92 94 96 98 100 102 104 106 108 110 112 114 116 118 120 122 124 126 128 130 132 134 136 138 140 142 144 146 148 150 152 154 156 158 160 162 164 166 168 170 172 174 176 178 180 182 184 186 188 190 192 194 196 198 200 </DataArray>
<DataArray  type="UInt8"  Name="types"  format="ascii">3 3 3 3 3 3 3 3 3 3 3 3 3 3 3 3 3 3 3 3 3 3 3 3 3 3 3 3 3 3 3 3 3 3 3 3 3 3 3 3 3 3 3 3 3 3 3 3 3 3 3 3 3 3 3 3 3 3 3 3 3 3 3 3 3 3 3 3 3 3 3 3 3 3 3 3 3 3 3 3 3 3 3 3 3 3 3 3 3 3 3 3 3 3 3 3 3 3 3 3 </DataArray>
</Cells>
<PointData  Scalars="pressure"> 
<DataArray  type="Float64"  Name="pressure"  format="ascii">-8.4703294725429998e-20  5.5443647126002216e-04  1.1103560542759063e-03  1.6674359056931638e-03  2.2253527862602933e-03  2.7837834035330964e-03  3.3424047538848588e-03  3.9008944634768908e-03  4.4589311278454948e-03  5.0161946497637652e-03  5.5723665750388113e-03  6.1271304259075468e-03  6.6801720316975229e-03  7.2311798564225560e-03  7.7798453229861557e-03  8.3258631336705895e-03  8.8689315865925801e-03  9.4087528878122693e-03  9.9450334587861088e-03  1.0477484238860147e-02  1.1005820982505479e-02  1.1529764551002583e-02  1.2049041198289416e-02  1.2563382850691095e-02  1.3072527380259123e-02  1.3576218871451905e-02  1.4074207880897974e-02  1.4566251689988161e-02  1.5052114550052528e-02  1.5531567919884411e-02  1.6004390695382224e-02  1.6470369431088434e-02  1.6929298553411975e-02  1.7380980565331678e-02  1.7825226242383130e-02  1.8261854819745002e-02  1.8690694170246335e-02  1.9111580973125635e-02  1.9524360873386416e-02  1.9928888631597447e-02  2.0325028263999661e-02  2.0712653172790533e-02  2.1091646266465525e-02  2.1461900070108595e-02  2.1823316825530861e-02  2.2175808581171082e-02  2.2519297271675610e-02  2.2853714787093006e-02  2.3179003031623149e-02  2.3495113971874888e-02  2.3802009674593911e-02  2.4099662333836099e-02  2.4388054287569235e-02  2.4667178023698746e-02  2.4937036175522044e-02  2.5197641506626931e-02  2.5449016885262556e-02  2.5691195248216964e-02  2.5924219554249960e-02  2.6148142727138949e-02  2.6363027588404912e-02  2.6568946779796807e-02  2.6765982675623565e-02  2.6954227285030372e-02  2.7133782144328759e-02  2.7304758199497941e-02  2.7467275678985718e-02  2.7621463956945345e-02  2.7767461407055851e-02  2.7905415247081875e-02  2.8035481374338214e-02  2.8157824192232069e-02  2.8272616428067786e-02  2.8380038942303933e-02  2.8480280529464337e-02  2.8573537710908148e-02  2.8660014519679464e-02  2.8739922277656104e-02  2.8813479365231921e-02  2.8880910983769058e-02  2.8942448911068237e-02  2.8998331250107978e-02  2.9048802171314652e-02  2.9094111648623473e-02  2.9134515189610171e-02  2.9170273559962327e-02  2.9201652502581048e-02  2.9228922451594763e-02  2.9252358241583700e-02  2.9272238812310294e-02  2.9288846909256445e-02  2.9302468780278923e-02  2.9313393868687979e-02  2.9321914503066118e-02  2.9328325584142487e-02  2.9332924269043621e-02  2.9336009653241957e-02  2.9337882450528371e-02  2.9338844671332995e-02  2.9339199299724689e-02  2.9339249969416087e-02  </DataArray> 
</PointData> 
</Piece>
</UnstructuredGrid>
</VTKFile>