<?xml version="1.0"?>
<VTKFile type="UnstructuredGrid"  version="0.1"  >
<UnstructuredGrid>
<Piece  NumberOfPoints="101" NumberOfCells="100">
<Points>
<DataArray  type="Float64"  NumberOfComponents="3"  format="ascii">0 0 0  0.01 0 0  0.02 0 0  0.03 0 0  0.04 0 0  0.05 0 0  0.06 0 0  0.07000000000000001 0 0  0.08 0 0  0.09 0 0  0.1 0 0  0.11 0 0  0.12 0 0  0.13 0 0  0.14 0 0  0.15 0 0  0.16 0 0  0.17 0 0  0.18 0 0  0.19 0 0  0.2 0 0  0.21 0 0  0.22 0 0  0.23 0 0  0.24 0 0  0.25 0 0  0.26 0 0  0.27 0 0  0.28 0 0  0.29 0 0  0.3 0 0  0.31 0 0  0.32 0 0  0.33 0 0  0.34 0 0  0.35 0 0  0.36 0 0  0.37 0 0  0.38 0 0  0.39 0 0  0.4 0 0  0.41 0 0  0.42 0 0  0.43 0 0  0.44 0 0  0.45 0 0  0.46 0 0  0.47 0 0  0.48 0 0  0.49 0 0  0.5 0 0  0.51 0 0  0.52 0 0  0.53 0 0  0.54 0 0  0.55 0 0  0.5600000000000001 0 0  0.57 0 0  0.58 0 0  0.59 0 0  0.6 0 0  0.61 0 0  0.62 0 0  0.63 0 0  0.64 0 0  0.65 0 0  0.66 0 0  0.67 0 0  0.68 0 0  0.6899999999999999 0 0  0.7 0 0  0.71 0 0  0.72 0 0  0.73 0 0  0.74 0 0  0.75 0 0  0.76 0 0  0.77 0 0  0.78 0 0  0.79 0 0  0.8 0 0  0.8100000000000001 0 0  0.82 0 0  0.83 0 0  0.84 0 0  0.85 0 0  0.86 0 0  0.87 0 0  0.88 0 0  0.89 0 0  0.9 0 0  0.91 0 0  0.92 0 0  0.93 0 0  0.9399999999999999 0 0  0.95 0 0  0.96 0 0  0.97 0 0  0.98 0 0  0.99 0 0  1 0 0  </DataArray>
</Points>
<Cells>
<DataArray  type="UInt32"  Name="connectivity"  format="ascii">0 1  1 2  2 3  3 4  4 5  5 6  6 7  7 8  8 9  9 10  10 11  11 12  12 13  13 14  14 15  15 16  16 17  17 18  18 19  19 20  20 21  21 22  22 23  23 24  24 25  25 26  26 27  27 28  28 29  29 30  30 31  31 32  32 33  33 34  34 35  35 36  36 37  37 38  38 39  39 40  40 41  41 42  42 43  43 44  44 45  45 46  46 47  47 48  48 49  49 50  50 51  51 52  52 53  53 54  54 55  55 56  56 57  57 58  58 59  59 60  60 61  61 62  62 63  63 64  64 65  65 66  66 67  67 68  68 69  69 70  70 71  71 72  72 73  73 74  74 75  75 76  76 77  77 78  78 79  79 80  80 81  81 82  82 83  83 84  84 85  85 86  86 87  87 88  88 89  89 90  90 91  91 92  92 93  93 94  94 95  95 96  96 97  97 98  98 99  99 100  </DataArray>
<DataArray  type="UInt32"  Name="offsets"  format="ascii">2 4 6 8 10 12 14 16 18 20 22 24 26 28 30 32 34 36 38 40 42 44 46 48 50 52 54 56 58 60 62 64 66 68 70 72 74 76 78 80 82 84 86 88 90 92 94 96 98 100 102 104 106 108 110 112 114 116 118 120 122 124 126 128 130 132 134 136 138 140 142 144 146 148 150 152 154 156 158 160 162 164 166 168 170 172 174 176 178 180 182 184 186 188 190 192 194 196 198 200 </DataArray>
<DataArray  type="UInt8"  Name="types"  format="ascii">3 3 3 3 3 3 3 3 3 3 3 3 3 3 3 3 3 3 3 3 3 3 3 3 3 3 3 3 3 3 3 3 3 3 3 3 3 3 3 3 3 3 3 3 3 3 3 3 3 3 3 3 3 3 3 3 3 3 3 3 3 3 3 3 3 3 3 3 3 3 3 3 3 3 3 3 3 3 3 3 3 3 3 3 3 3 3 3 3 3 3 3 3 3 3 3 3 3 3 3 </DataArray>
</Cells>
<PointData  Scalars="pressure"> 
<DataArray  type="Float64"  Name="pressure"  format="ascii">4.5334718235548603e+25  1.4996485962260091e+41  1.0977956018208473e+41  1.2054780478290589e+41  1.1766229457407264e+41  1.1843550965709843e+41  1.1822831525276108e+41  1.1828383605267581e+41  1.1826895843295613e+41  1.1827294510964529e+41  1.1827187681946671e+41  1.1827216308232648e+41  1.1827208637269212e+41  1.1827210692689877e+41  1.1827210141782236e+41  1.1827210289278828e+41  1.1827210249627634e+41  1.1827210260125451e+41  1.1827210257185144e+41  1.1827210257845732e+41  1.1827210257541415e+41  1.1827210257495695e+41  1.1827210257380642e+41  1.1827210257284204e+41  1.1827210257182738e+41  1.1827210257082640e+41  1.1827210256982166e+41  1.1827210256881806e+41  1.1827210256781384e+41  1.1827210256681041e+41  1.1827210256580615e+41  1.1827210256480236e+41  1.1827210256379839e+41  1.1827210256279451e+41  1.1827210256179054e+41  1.1827210256078671e+41  1.1827210255978274e+41  1.1827210255877883e+41  1.1827210255777490e+41  1.1827210255677103e+41  1.1827210255576717e+41  1.1827210255476309e+41  1.1827210255375943e+41  1.1827210255275540e+41  1.1827210255175139e+41  1.1827210255074785e+41  1.1827210254974353e+41  1.1827210254873991e+41  1.1827210254773588e+41  1.1827210254673213e+41  1.1827210254572796e+41  1.1827210254472436e+41  1.1827210254372026e+41  1.1827210254271636e+41  1.1827210254171251e+41  1.1827210254070877e+41  1.1827210253970451e+41  1.1827210253870085e+41  1.1827210253769677e+41  1.1827210253669299e+41  1.1827210253568885e+41  1.1827210253468488e+41  1.1827210253368116e+41  1.1827210253267700e+41  1.1827210253167340e+41  1.1827210253066931e+41  1.1827210252966542e+41  1.1827210252866155e+41  1.1827210252765752e+41  1.1827210252665371e+41  1.1827210252564964e+41  1.1827210252464590e+41  1.1827210252364205e+41  1.1827210252263791e+41  1.1827210252163415e+41  1.1827210252063055e+41  1.1827210251962596e+41  1.1827210251862265e+41  1.1827210251761835e+41  1.1827210251661473e+41  1.1827210251561068e+41  1.1827210251460659e+41  1.1827210251360303e+41  1.1827210251259885e+41  1.1827210251159503e+41  1.1827210251059105e+41  1.1827210250958737e+41  1.1827210250858348e+41  1.1827210250757931e+41  1.1827210250657559e+41  1.1827210250557155e+41  1.1827210250456787e+41  1.1827210250356359e+41  1.1827210250255999e+41  1.1827210250155594e+41  1.1827210250055205e+41  1.1827210249954806e+41  1.1827210249854415e+41  1.1827210249754031e+41  1.1827210249653631e+41  1.1827210249553241e+41  </DataArray> 
</PointData> 
</Piece>
</UnstructuredGrid>
</VTKFile>