<?xml version="1.0"?>
<VTKFile type="UnstructuredGrid"  version="0.1"  >
<UnstructuredGrid>
<Piece  NumberOfPoints="101" NumberOfCells="100">
<Points>
<DataArray  type="Float64"  NumberOfComponents="3"  format="ascii">0 0 0  0.01 0 0  0.02 0 0  0.03 0 0  0.04 0 0  0.05 0 0  0.06 0 0  0.07000000000000001 0 0  0.08 0 0  0.09 0 0  0.1 0 0  0.11 0 0  0.12 0 0  0.13 0 0  0.14 0 0  0.15 0 0  0.16 0 0  0.17 0 0  0.18 0 0  0.19 0 0  0.2 0 0  0.21 0 0  0.22 0 0  0.23 0 0  0.24 0 0  0.25 0 0  0.26 0 0  0.27 0 0  0.28 0 0  0.29 0 0  0.3 0 0  0.31 0 0  0.32 0 0  0.33 0 0  0.34 0 0  0.35 0 0  0.36 0 0  0.37 0 0  0.38 0 0  0.39 0 0  0.4 0 0  0.41 0 0  0.42 0 0  0.43 0 0  0.44 0 0  0.45 0 0  0.46 0 0  0.47 0 0  0.48 0 0  0.49 0 0  0.5 0 0  0.51 0 0  0.52 0 0  0.53 0 0  0.54 0 0  0.55 0 0  0.5600000000000001 0 0  0.57 0 0  0.58 0 0  0.59 0 0  0.6 0 0  0.61 0 0  0.62 0 0  0.63 0 0  0.64 0 0  0.65 0 0  0.66 0 0  0.67 0 0  0.68 0 0  0.6899999999999999 0 0  0.7 0 0  0.71 0 0  0.72 0 0  0.73 0 0  0.74 0 0  0.75 0 0  0.76 0 0  0.77 0 0  0.78 0 0  0.79 0 0  0.8 0 0  0.8100000000000001 0 0  0.82 0 0  0.83 0 0  0.84 0 0  0.85 0 0  0.86 0 0  0.87 0 0  0.88 0 0  0.89 0 0  0.9 0 0  0.91 0 0  0.92 0 0  0.93 0 0  0.9399999999999999 0 0  0.95 0 0  0.96 0 0  0.97 0 0  0.98 0 0  0.99 0 0  1 0 0  </DataArray>
</Points>
<Cells>
<DataArray  type="UInt32"  Name="connectivity"  format="ascii">0 1  1 2  2 3  3 4  4 5  5 6  6 7  7 8  8 9  9 10  10 11  11 12  12 13  13 14  14 15  15 16  16 17  17 18  18 19  19 20  20 21  21 22  22 23  23 24  24 25  25 26  26 27  27 28  28 29  29 30  30 31  31 32  32 33  33 34  34 35  35 36  36 37  37 38  38 39  39 40  40 41  41 42  42 43  43 44  44 45  45 46  46 47  47 48  48 49  49 50  50 51  51 52  52 53  53 54  54 55  55 56  56 57  57 58  58 59  59 60  60 61  61 62  62 63  63 64  64 65  65 66  66 67  67 68  68 69  69 70  70 71  71 72  72 73  73 74  74 75  75 76  76 77  77 78  78 79  79 80  80 81  81 82  82 83  83 84  84 85  85 86  86 87  87 88  88 89  89 90  90 91  91 92  92 93  93 94  94 95  95 96  96 97  97 98  98 99  99 100  </DataArray>
<DataArray  type="UInt32"  Name="offsets"  format="ascii">2 4 6 8 10 12 14 16 18 20 22 24 26 28 30 32 34 36 38 40 42 44 46 48 50 52 54 56 58 60 62 64 66 68 70 72 74 76 78 80 82 84 86 88 90 92 94 96 98 100 102 104 106 108 110 112 114 116 118 120 122 124 126 128 130 132 134 136 138 140 142 144 146 148 150 152 154 156 158 160 162 164 166 168 170 172 174 176 178 180 182 184 186 188 190 192 194 196 198 200 </DataArray>
<DataArray  type="UInt8"  Name="types"  format="ascii">3 3 3 3 3 3 3 3 3 3 3 3 3 3 3 3 3 3 3 3 3 3 3 3 3 3 3 3 3 3 3 3 3 3 3 3 3 3 3 3 3 3 3 3 3 3 3 3 3 3 3 3 3 3 3 3 3 3 3 3 3 3 3 3 3 3 3 3 3 3 3 3 3 3 3 3 3 3 3 3 3 3 3 3 3 3 3 3 3 3 3 3 3 3 3 3 3 3 3 3 </DataArray>
</Cells>
<PointData  Scalars="pressure"> 
<DataArray  type="Float64"  Name="pressure"  format="ascii">-2.5410988417629015e-19  -1.0678075661318448e-03  -2.1350882770245941e-03  -3.2013157973819436e-03  -4.2659648312797513e-03  -5.3285116405695446e-03  -6.3884345617446388e-03  -7.4452145207592477e-03  -8.4983355452917658e-03  -9.5472852739468348e-03  -1.0591555461895172e-02  -1.1630642482448710e-02  -1.2664047824080229e-02  -1.3691278582393135e-02  -1.4711847946559191e-02  -1.5725275679742284e-02  -1.6731088593033877e-02  -1.7728821012433303e-02  -1.8718015238411316e-02  -1.9698221997604726e-02  -2.0669000886196318e-02  -2.1629920804536670e-02  -2.2580560382592343e-02  -2.3520508395782156e-02  -2.4449364170809420e-02  -2.5366737981077678e-02  -2.6272251431304364e-02  -2.7165537830948543e-02  -2.8046242556092865e-02  -2.8914023399413378e-02  -2.9768550907897977e-02  -3.0609508707975252e-02  -3.1436593817737606e-02  -3.2249516945948194e-02  -3.3048002777535487e-02  -3.3831790245298851e-02  -3.4600632787545570e-02  -3.5354298591422702e-02  -3.6092570821683469e-02  -3.6815247834681174e-02  -3.7522143377364529e-02  -3.8213086771088527e-02  -3.8887923080052920e-02  -3.9546513264207682e-02  -4.0188734316463019e-02  -4.0814479384087492e-02  -4.1423657874159234e-02  -4.2016195542966255e-02  -4.2592034569280846e-02  -4.3151133611415302e-02  -4.3693467848027509e-02  -4.4219029002613798e-02  -4.4727825351678387e-02  -4.5219881716562958e-02  -4.5695239438954975e-02  -4.6153956340082201e-02  -4.6596106663657579e-02  -4.7021781002605186e-02  -4.7431086209655769e-02  -4.7824145291895534e-02  -4.8201097289375536e-02  -4.8562097137896110e-02  -4.8907315516102993e-02  -4.9236938677046233e-02  -4.9551168264372017e-02  -4.9850221113327202e-02  -5.0134329036767837e-02  -5.0403738596382287e-02  -5.0658710859374047e-02  -5.0899521140817916e-02  -5.1126458731947197e-02  -5.1339826614671895e-02  -5.1539941162558757e-02  -5.1727131828624741e-02  -5.1901740820193408e-02  -5.2064122761181254e-02  -5.2214644342127817e-02  -5.2353683958313420e-02  -5.2481631336340324e-02  -5.2598887149502248e-02  -5.2705862622378322e-02  -5.2802979125004292e-02  -5.2890667757027880e-02  -5.2969368922267737e-02  -5.3039531894087520e-02  -5.3101614372015569e-02  -5.3156082030051996e-02  -5.3203408057104967e-02  -5.3244072690013002e-02  -5.3278562739600015e-02  -5.3307371110263270e-02  -5.3330996313531942e-02  -5.3349941976097680e-02  -5.3364716342786785e-02  -5.3375831774996309e-02  -5.3383804245047788e-02  -5.3389152826984795e-02  -5.3392399184311011e-02  -5.3394067055181495e-02  -5.3394681735513684e-02  -5.3394769560609977e-02  </DataArray> 
</PointData> 
</Piece>
</UnstructuredGrid>
</VTKFile>