<?xml version="1.0"?>
<VTKFile type="UnstructuredGrid"  version="0.1"  >
<UnstructuredGrid>
<Piece  NumberOfPoints="101" NumberOfCells="100">
<Points>
<DataArray  type="Float64"  NumberOfComponents="3"  format="ascii">0 0 0  0.01 0 0  0.02 0 0  0.03 0 0  0.04 0 0  0.05 0 0  0.06 0 0  0.07000000000000001 0 0  0.08 0 0  0.09 0 0  0.1 0 0  0.11 0 0  0.12 0 0  0.13 0 0  0.14 0 0  0.15 0 0  0.16 0 0  0.17 0 0  0.18 0 0  0.19 0 0  0.2 0 0  0.21 0 0  0.22 0 0  0.23 0 0  0.24 0 0  0.25 0 0  0.26 0 0  0.27 0 0  0.28 0 0  0.29 0 0  0.3 0 0  0.31 0 0  0.32 0 0  0.33 0 0  0.34 0 0  0.35 0 0  0.36 0 0  0.37 0 0  0.38 0 0  0.39 0 0  0.4 0 0  0.41 0 0  0.42 0 0  0.43 0 0  0.44 0 0  0.45 0 0  0.46 0 0  0.47 0 0  0.48 0 0  0.49 0 0  0.5 0 0  0.51 0 0  0.52 0 0  0.53 0 0  0.54 0 0  0.55 0 0  0.5600000000000001 0 0  0.57 0 0  0.58 0 0  0.59 0 0  0.6 0 0  0.61 0 0  0.62 0 0  0.63 0 0  0.64 0 0  0.65 0 0  0.66 0 0  0.67 0 0  0.68 0 0  0.6899999999999999 0 0  0.7 0 0  0.71 0 0  0.72 0 0  0.73 0 0  0.74 0 0  0.75 0 0  0.76 0 0  0.77 0 0  0.78 0 0  0.79 0 0  0.8 0 0  0.8100000000000001 0 0  0.82 0 0  0.83 0 0  0.84 0 0  0.85 0 0  0.86 0 0  0.87 0 0  0.88 0 0  0.89 0 0  0.9 0 0  0.91 0 0  0.92 0 0  0.93 0 0  0.9399999999999999 0 0  0.95 0 0  0.96 0 0  0.97 0 0  0.98 0 0  0.99 0 0  1 0 0  </DataArray>
</Points>
<Cells>
<DataArray  type="UInt32"  Name="connectivity"  format="ascii">0 1  1 2  2 3  3 4  4 5  5 6  6 7  7 8  8 9  9 10  10 11  11 12  12 13  13 14  14 15  15 16  16 17  17 18  18 19  19 20  20 21  21 22  22 23  23 24  24 25  25 26  26 27  27 28  28 29  29 30  30 31  31 32  32 33  33 34  34 35  35 36  36 37  37 38  38 39  39 40  40 41  41 42  42 43  43 44  44 45  45 46  46 47  47 48  48 49  49 50  50 51  51 52  52 53  53 54  54 55  55 56  56 57  57 58  58 59  59 60  60 61  61 62  62 63  63 64  64 65  65 66  66 67  67 68  68 69  69 70  70 71  71 72  72 73  73 74  74 75  75 76  76 77  77 78  78 79  79 80  80 81  81 82  82 83  83 84  84 85  85 86  86 87  87 88  88 89  89 90  90 91  91 92  92 93  93 94  94 95  95 96  96 97  97 98  98 99  99 100  </DataArray>
<DataArray  type="UInt32"  Name="offsets"  format="ascii">2 4 6 8 10 12 14 16 18 20 22 24 26 28 30 32 34 36 38 40 42 44 46 48 50 52 54 56 58 60 62 64 66 68 70 72 74 76 78 80 82 84 86 88 90 92 94 96 98 100 102 104 106 108 110 112 114 116 118 120 122 124 126 128 130 132 134 136 138 140 142 144 146 148 150 152 154 156 158 160 162 164 166 168 170 172 174 176 178 180 182 184 186 188 190 192 194 196 198 200 </DataArray>
<DataArray  type="UInt8"  Name="types"  format="ascii">3 3 3 3 3 3 3 3 3 3 3 3 3 3 3 3 3 3 3 3 3 3 3 3 3 3 3 3 3 3 3 3 3 3 3 3 3 3 3 3 3 3 3 3 3 3 3 3 3 3 3 3 3 3 3 3 3 3 3 3 3 3 3 3 3 3 3 3 3 3 3 3 3 3 3 3 3 3 3 3 3 3 3 3 3 3 3 3 3 3 3 3 3 3 3 3 3 3 3 3 </DataArray>
</Cells>
<PointData  Scalars="pressure"> 
<DataArray  type="Float64"  Name="pressure"  format="ascii">2.5165824000000005e+09  1.3488803262200965e+25  9.8744177651693193e+24  1.0842908616622054e+25  1.0583397139441916e+25  1.0652934409011144e+25  1.0634301587040737e+25  1.0639294337627962e+25  1.0637956509797120e+25  1.0638314988923741e+25  1.0638218934972394e+25  1.0638244675203418e+25  1.0638237780135551e+25  1.0638239629842790e+25  1.0638239136348200e+25  1.0638239270725095e+25  1.0638239236861000e+25  1.0638239248077816e+25  1.0638239247215028e+25  1.0638239249588994e+25  1.0638239251095668e+25  1.0638239252834746e+25  1.0638239254511546e+25  1.0638239256205041e+25  1.0638239257894043e+25  1.0638239259584270e+25  1.0638239261274142e+25  1.0638239262964138e+25  1.0638239264654075e+25  1.0638239266344059e+25  1.0638239268034006e+25  1.0638239269723966e+25  1.0638239271413924e+25  1.0638239273103880e+25  1.0638239274793840e+25  1.0638239276483804e+25  1.0638239278173760e+25  1.0638239279863718e+25  1.0638239281553676e+25  1.0638239283243640e+25  1.0638239284933592e+25  1.0638239286623552e+25  1.0638239288313514e+25  1.0638239290003470e+25  1.0638239291693424e+25  1.0638239293383401e+25  1.0638239295073342e+25  1.0638239296763311e+25  1.0638239298453277e+25  1.0638239300143233e+25  1.0638239301833187e+25  1.0638239303523153e+25  1.0638239305213113e+25  1.0638239306903071e+25  1.0638239308593031e+25  1.0638239310282998e+25  1.0638239311972941e+25  1.0638239313662912e+25  1.0638239315352863e+25  1.0638239317042819e+25  1.0638239318732771e+25  1.0638239320422722e+25  1.0638239322112691e+25  1.0638239323802640e+25  1.0638239325492609e+25  1.0638239327182562e+25  1.0638239328872525e+25  1.0638239330562483e+25  1.0638239332252436e+25  1.0638239333942403e+25  1.0638239335632357e+25  1.0638239337322321e+25  1.0638239339012283e+25  1.0638239340702235e+25  1.0638239342392199e+25  1.0638239344082164e+25  1.0638239345772104e+25  1.0638239347462079e+25  1.0638239349152020e+25  1.0638239350841995e+25  1.0638239352531949e+25  1.0638239354221903e+25  1.0638239355911869e+25  1.0638239357601825e+25  1.0638239359291781e+25  1.0638239360981741e+25  1.0638239362671708e+25  1.0638239364361668e+25  1.0638239366051619e+25  1.0638239367741586e+25  1.0638239369431537e+25  1.0638239371121510e+25  1.0638239372811445e+25  1.0638239374501420e+25  1.0638239376191376e+25  1.0638239377881329e+25  1.0638239379571289e+25  1.0638239381261247e+25  1.0638239382951210e+25  1.0638239384641155e+25  1.0638239386331134e+25  </DataArray> 
</PointData> 
</Piece>
</UnstructuredGrid>
</VTKFile>