<?xml version="1.0"?>
<VTKFile type="UnstructuredGrid"  version="0.1"  >
<UnstructuredGrid>
<Piece  NumberOfPoints="101" NumberOfCells="100">
<Points>
<DataArray  type="Float64"  NumberOfComponents="3"  format="ascii">0 0 0  0.01 0 0  0.02 0 0  0.03 0 0  0.04 0 0  0.05 0 0  0.06 0 0  0.07000000000000001 0 0  0.08 0 0  0.09 0 0  0.1 0 0  0.11 0 0  0.12 0 0  0.13 0 0  0.14 0 0  0.15 0 0  0.16 0 0  0.17 0 0  0.18 0 0  0.19 0 0  0.2 0 0  0.21 0 0  0.22 0 0  0.23 0 0  0.24 0 0  0.25 0 0  0.26 0 0  0.27 0 0  0.28 0 0  0.29 0 0  0.3 0 0  0.31 0 0  0.32 0 0  0.33 0 0  0.34 0 0  0.35 0 0  0.36 0 0  0.37 0 0  0.38 0 0  0.39 0 0  0.4 0 0  0.41 0 0  0.42 0 0  0.43 0 0  0.44 0 0  0.45 0 0  0.46 0 0  0.47 0 0  0.48 0 0  0.49 0 0  0.5 0 0  0.51 0 0  0.52 0 0  0.53 0 0  0.54 0 0  0.55 0 0  0.5600000000000001 0 0  0.57 0 0  0.58 0 0  0.59 0 0  0.6 0 0  0.61 0 0  0.62 0 0  0.63 0 0  0.64 0 0  0.65 0 0  0.66 0 0  0.67 0 0  0.68 0 0  0.6899999999999999 0 0  0.7 0 0  0.71 0 0  0.72 0 0  0.73 0 0  0.74 0 0  0.75 0 0  0.76 0 0  0.77 0 0  0.78 0 0  0.79 0 0  0.8 0 0  0.8100000000000001 0 0  0.82 0 0  0.83 0 0  0.84 0 0  0.85 0 0  0.86 0 0  0.87 0 0  0.88 0 0  0.89 0 0  0.9 0 0  0.91 0 0  0.92 0 0  0.93 0 0  0.9399999999999999 0 0  0.95 0 0  0.96 0 0  0.97 0 0  0.98 0 0  0.99 0 0  1 0 0  </DataArray>
</Points>
<Cells>
<DataArray  type="UInt32"  Name="connectivity"  format="ascii">0 1  1 2  2 3  3 4  4 5  5 6  6 7  7 8  8 9  9 10  10 11  11 12  12 13  13 14  14 15  15 16  16 17  17 18  18 19  19 20  20 21  21 22  22 23  23 24  24 25  25 26  26 27  27 28  28 29  29 30  30 31  31 32  32 33  33 34  34 35  35 36  36 37  37 38  38 39  39 40  40 41  41 42  42 43  43 44  44 45  45 46  46 47  47 48  48 49  49 50  50 51  51 52  52 53  53 54  54 55  55 56  56 57  57 58  58 59  59 60  60 61  61 62  62 63  63 64  64 65  65 66  66 67  67 68  68 69  69 70  70 71  71 72  72 73  73 74  74 75  75 76  76 77  77 78  78 79  79 80  80 81  81 82  82 83  83 84  84 85  85 86  86 87  87 88  88 89  89 90  90 91  91 92  92 93  93 94  94 95  95 96  96 97  97 98  98 99  99 100  </DataArray>
<DataArray  type="UInt32"  Name="offsets"  format="ascii">2 4 6 8 10 12 14 16 18 20 22 24 26 28 30 32 34 36 38 40 42 44 46 48 50 52 54 56 58 60 62 64 66 68 70 72 74 76 78 80 82 84 86 88 90 92 94 96 98 100 102 104 106 108 110 112 114 116 118 120 122 124 126 128 130 132 134 136 138 140 142 144 146 148 150 152 154 156 158 160 162 164 166 168 170 172 174 176 178 180 182 184 186 188 190 192 194 196 198 200 </DataArray>
<DataArray  type="UInt8"  Name="types"  format="ascii">3 3 3 3 3 3 3 3 3 3 3 3 3 3 3 3 3 3 3 3 3 3 3 3 3 3 3 3 3 3 3 3 3 3 3 3 3 3 3 3 3 3 3 3 3 3 3 3 3 3 3 3 3 3 3 3 3 3 3 3 3 3 3 3 3 3 3 3 3 3 3 3 3 3 3 3 3 3 3 3 3 3 3 3 3 3 3 3 3 3 3 3 3 3 3 3 3 3 3 3 </DataArray>
</Cells>
<PointData  Scalars="pressure"> 
<DataArray  type="Float64"  Name="pressure"  format="ascii">-1.0097419586828947e-26  -5.9944643970391026e-11  -1.2015600305873773e-10  -1.8059672015108562e-10  -2.4122930485789938e-10  -3.0201618522809570e-10  -3.6291971502699809e-10  -4.2390226875023394e-10  -4.8492622780353299e-10  -5.4595404269364435e-10  -6.0694832285965718e-10  -6.6787180212249287e-10  -7.2868742851623208e-10  -7.8935839883861770e-10  -8.4984820011166790e-10  -9.1012055430086731e-10  -9.7013962561821267e-10  -1.0298699514211979e-09  -1.0892764974936323e-09  -1.1483246718658425e-09  -1.2069804077358839e-09  -1.2652102049301723e-09  -1.3229810884428563e-09  -1.3802607189974464e-09  -1.4370173654064203e-09  -1.4932201256944731e-09  -1.5488387059752500e-09  -1.6038436415746241e-09  -1.6582061311882339e-09  -1.7118982027239491e-09  -1.7648927962230697e-09  -1.8171635150966606e-09  -1.8686851789337209e-09  -1.9194333259738320e-09  -1.9693845447920447e-09  -2.0185162531756467e-09  -2.0668068639665729e-09  -2.1142358127018172e-09  -2.1607836958154951e-09  -2.2064319942347464e-09  -2.2511634603454402e-09  -2.2949618415881239e-09  -2.3378119910196248e-09  -2.3797000884363033e-09  -2.4206130322851287e-09  -2.4605391583142401e-09  -2.4994678526072456e-09  -2.5373896621448799e-09  -2.5742964053665966e-09  -2.6101809510473087e-09  -2.6450374394206877e-09  -2.6788611716174992e-09  -2.7116486649464309e-09  -2.7433976528940886e-09  -2.7741071956866212e-09  -2.8037774038856652e-09  -2.8324093278266746e-09  -2.8600053998655208e-09  -2.8865693238167749e-09  -2.9121061855153410e-09  -2.9366219552892016e-09  -2.9601237643634283e-09  -2.9826197390177489e-09  -3.0041196639563345e-09  -3.0246344847804557e-09  -3.0441756998995306e-09  -3.0627562450241528e-09  -3.0803901614812036e-09  -3.0970922645289564e-09  -3.1128789172885378e-09  -3.1277668145659281e-09  -3.1417746412763947e-09  -3.1549214140201437e-09  -3.1672270338903982e-09  -3.1787129498431854e-09  -3.1894009425194182e-09  -3.1993142298611915e-09  -3.2084762509338527e-09  -3.2169118821039288e-09  -3.2246463314228342e-09  -3.2317059125582736e-09  -3.2381174919860757e-09  -3.2439090417984190e-09  -3.2491089763339568e-09  -3.2537465944243390e-09  -3.2578513054629016e-09  -3.2614536244592506e-09  -3.2645849509160242e-09  -3.2672763526509732e-09  -3.2695594502899949e-09  -3.2714669700752743e-09  -3.2730318593722607e-09  -3.2742871761080182e-09  -3.2752660887712403e-09  -3.2760024292204362e-09  -3.2765302504373388e-09  -3.2768843793350539e-09  -3.2770995322651038e-09  -3.2772099833324828e-09  -3.2772505286263311e-09  -3.2772562993957305e-09  </DataArray> 
</PointData> 
</Piece>
</UnstructuredGrid>
</VTKFile>