<?xml version="1.0"?>
<VTKFile type="UnstructuredGrid"  version="0.1"  >
<UnstructuredGrid>
<Piece  NumberOfPoints="101" NumberOfCells="100">
<Points>
<DataArray  type="Float64"  NumberOfComponents="3"  format="ascii">0 0 0  0.01 0 0  0.02 0 0  0.03 0 0  0.04 0 0  0.05 0 0  0.06 0 0  0.07000000000000001 0 0  0.08 0 0  0.09 0 0  0.1 0 0  0.11 0 0  0.12 0 0  0.13 0 0  0.14 0 0  0.15 0 0  0.16 0 0  0.17 0 0  0.18 0 0  0.19 0 0  0.2 0 0  0.21 0 0  0.22 0 0  0.23 0 0  0.24 0 0  0.25 0 0  0.26 0 0  0.27 0 0  0.28 0 0  0.29 0 0  0.3 0 0  0.31 0 0  0.32 0 0  0.33 0 0  0.34 0 0  0.35 0 0  0.36 0 0  0.37 0 0  0.38 0 0  0.39 0 0  0.4 0 0  0.41 0 0  0.42 0 0  0.43 0 0  0.44 0 0  0.45 0 0  0.46 0 0  0.47 0 0  0.48 0 0  0.49 0 0  0.5 0 0  0.51 0 0  0.52 0 0  0.53 0 0  0.54 0 0  0.55 0 0  0.5600000000000001 0 0  0.57 0 0  0.58 0 0  0.59 0 0  0.6 0 0  0.61 0 0  0.62 0 0  0.63 0 0  0.64 0 0  0.65 0 0  0.66 0 0  0.67 0 0  0.68 0 0  0.6899999999999999 0 0  0.7 0 0  0.71 0 0  0.72 0 0  0.73 0 0  0.74 0 0  0.75 0 0  0.76 0 0  0.77 0 0  0.78 0 0  0.79 0 0  0.8 0 0  0.8100000000000001 0 0  0.82 0 0  0.83 0 0  0.84 0 0  0.85 0 0  0.86 0 0  0.87 0 0  0.88 0 0  0.89 0 0  0.9 0 0  0.91 0 0  0.92 0 0  0.93 0 0  0.9399999999999999 0 0  0.95 0 0  0.96 0 0  0.97 0 0  0.98 0 0  0.99 0 0  1 0 0  </DataArray>
</Points>
<Cells>
<DataArray  type="UInt32"  Name="connectivity"  format="ascii">0 1  1 2  2 3  3 4  4 5  5 6  6 7  7 8  8 9  9 10  10 11  11 12  12 13  13 14  14 15  15 16  16 17  17 18  18 19  19 20  20 21  21 22  22 23  23 24  24 25  25 26  26 27  27 28  28 29  29 30  30 31  31 32  32 33  33 34  34 35  35 36  36 37  37 38  38 39  39 40  40 41  41 42  42 43  43 44  44 45  45 46  46 47  47 48  48 49  49 50  50 51  51 52  52 53  53 54  54 55  55 56  56 57  57 58  58 59  59 60  60 61  61 62  62 63  63 64  64 65  65 66  66 67  67 68  68 69  69 70  70 71  71 72  72 73  73 74  74 75  75 76  76 77  77 78  78 79  79 80  80 81  81 82  82 83  83 84  84 85  85 86  86 87  87 88  88 89  89 90  90 91  91 92  92 93  93 94  94 95  95 96  96 97  97 98  98 99  99 100  </DataArray>
<DataArray  type="UInt32"  Name="offsets"  format="ascii">2 4 6 8 10 12 14 16 18 20 22 24 26 28 30 32 34 36 38 40 42 44 46 48 50 52 54 56 58 60 62 64 66 68 70 72 74 76 78 80 82 84 86 88 90 92 94 96 98 100 102 104 106 108 110 112 114 116 118 120 122 124 126 128 130 132 134 136 138 140 142 144 146 148 150 152 154 156 158 160 162 164 166 168 170 172 174 176 178 180 182 184 186 188 190 192 194 196 198 200 </DataArray>
<DataArray  type="UInt8"  Name="types"  format="ascii">3 3 3 3 3 3 3 3 3 3 3 3 3 3 3 3 3 3 3 3 3 3 3 3 3 3 3 3 3 3 3 3 3 3 3 3 3 3 3 3 3 3 3 3 3 3 3 3 3 3 3 3 3 3 3 3 3 3 3 3 3 3 3 3 3 3 3 3 3 3 3 3 3 3 3 3 3 3 3 3 3 3 3 3 3 3 3 3 3 3 3 3 3 3 3 3 3 3 3 3 </DataArray>
</Cells>
<PointData  Scalars="pressure"> 
<DataArray  type="Float64"  Name="pressure"  format="ascii">-8.2718061255302732e-23  -8.7643271874031969e-07  -1.7190557402637901e-06  -2.5281904609722840e-06  -3.3041883376306076e-06  -4.0474298791065966e-06  -4.7583236141125022e-06  -5.4373050367268776e-06  -6.0848355310134543e-06  -6.7014012767201600e-06  -7.2875121374713302e-06  -7.8437005331704189e-06  -8.3705202983752012e-06  -8.8685455280895550e-06  -9.3383694129760435e-06  -9.7806030653987048e-06  -1.0195874338106602e-05  -1.0584826637092071e-05  -1.0948117730482821e-05  -1.1286418555001332e-05  -1.1600412021899338e-05  -1.1890791823320704e-05  -1.2158261241497327e-05  -1.2403531962243193e-05  -1.2627322893617271e-05  -1.2830358993030423e-05  -1.3013370101677001e-05  -1.3177089790354494e-05  -1.3322254217472328e-05  -1.3449600999609753e-05  -1.3559868097247856e-05  -1.3653792717030852e-05  -1.3732110231717299e-05  -1.3795553118484341e-05  -1.3844849918570312e-05  -1.3880724218007342e-05  -1.3903893651018549e-05  -1.3915068928264328e-05  -1.3914952890020301e-05  -1.3904239584977768e-05  -1.3883613378564048e-05  -1.3853748087466356e-05  -1.3815306145388675e-05  -1.3768937798826595e-05  -1.3715280333909977e-05  -1.3654957335916267e-05  -1.3588577981676152e-05  -1.3516736365976871e-05  -1.3440010862515936e-05  -1.3358963520179244e-05  -1.3274139494146484e-05  -1.3186066515029289e-05  -1.3095254393278770e-05  -1.3002194561847358e-05  -1.2907359656109868e-05  -1.2811203132370619e-05  -1.2714158923629716e-05  -1.2616641135151922e-05  -1.2519043777128210e-05  -1.2421740538024538e-05  -1.2325084595189985e-05  -1.2229408465598440e-05  -1.2135023894291829e-05  -1.2042221782183477e-05  -1.1951272152723725e-05  -1.1862424155769627e-05  -1.1775906110372250e-05  -1.1691925585818394e-05  -1.1610669519599752e-05  -1.1532304371093861e-05  -1.1456976313388191e-05  -1.1384811460705396e-05  -1.1315916130766444e-05  -1.1250377143306669e-05  -1.1188262150323503e-05  -1.1129620001372045e-05  -1.1074481141918646e-05  -1.1022858041767189e-05  -1.0974745656211667e-05  -1.0930121915713634e-05  -1.0888948246868577e-05  -1.0851170118912042e-05  -1.0816717619524769e-05  -1.0785506055845474e-05  -1.0757436580802413e-05  -1.0732396842552754e-05  -1.0710261658134291e-05  -1.0690893708013699e-05  -1.0674144250756850e-05  -1.0659853857379227e-05  -1.0647853163717738e-05  -1.0637963638060147e-05  -1.0629998365911514e-05  -1.0623762848138511e-05  -1.0619055810833627e-05  -1.0615670028446179e-05  -1.0613393154542377e-05  -1.0612008562737404e-05  -1.0611296193376119e-05  -1.0611033407476879e-05  -1.0610995844063279e-05  </DataArray> 
</PointData> 
</Piece>
</UnstructuredGrid>
</VTKFile>