<?xml version="1.0"?>
<VTKFile type="UnstructuredGrid"  version="0.1"  >
<UnstructuredGrid>
<Piece  NumberOfPoints="101" NumberOfCells="100">
<Points>
<DataArray  type="Float64"  NumberOfComponents="3"  format="ascii">0 0 0  0.01 0 0  0.02 0 0  0.03 0 0  0.04 0 0  0.05 0 0  0.06 0 0  0.07000000000000001 0 0  0.08 0 0  0.09 0 0  0.1 0 0  0.11 0 0  0.12 0 0  0.13 0 0  0.14 0 0  0.15 0 0  0.16 0 0  0.17 0 0  0.18 0 0  0.19 0 0  0.2 0 0  0.21 0 0  0.22 0 0  0.23 0 0  0.24 0 0  0.25 0 0  0.26 0 0  0.27 0 0  0.28 0 0  0.29 0 0  0.3 0 0  0.31 0 0  0.32 0 0  0.33 0 0  0.34 0 0  0.35 0 0  0.36 0 0  0.37 0 0  0.38 0 0  0.39 0 0  0.4 0 0  0.41 0 0  0.42 0 0  0.43 0 0  0.44 0 0  0.45 0 0  0.46 0 0  0.47 0 0  0.48 0 0  0.49 0 0  0.5 0 0  0.51 0 0  0.52 0 0  0.53 0 0  0.54 0 0  0.55 0 0  0.5600000000000001 0 0  0.57 0 0  0.58 0 0  0.59 0 0  0.6 0 0  0.61 0 0  0.62 0 0  0.63 0 0  0.64 0 0  0.65 0 0  0.66 0 0  0.67 0 0  0.68 0 0  0.6899999999999999 0 0  0.7 0 0  0.71 0 0  0.72 0 0  0.73 0 0  0.74 0 0  0.75 0 0  0.76 0 0  0.77 0 0  0.78 0 0  0.79 0 0  0.8 0 0  0.8100000000000001 0 0  0.82 0 0  0.83 0 0  0.84 0 0  0.85 0 0  0.86 0 0  0.87 0 0  0.88 0 0  0.89 0 0  0.9 0 0  0.91 0 0  0.92 0 0  0.93 0 0  0.9399999999999999 0 0  0.95 0 0  0.96 0 0  0.97 0 0  0.98 0 0  0.99 0 0  1 0 0  </DataArray>
</Points>
<Cells>
<DataArray  type="UInt32"  Name="connectivity"  format="ascii">0 1  1 2  2 3  3 4  4 5  5 6  6 7  7 8  8 9  9 10  10 11  11 12  12 13  13 14  14 15  15 16  16 17  17 18  18 19  19 20  20 21  21 22  22 23  23 24  24 25  25 26  26 27  27 28  28 29  29 30  30 31  31 32  32 33  33 34  34 35  35 36  36 37  37 38  38 39  39 40  40 41  41 42  42 43  43 44  44 45  45 46  46 47  47 48  48 49  49 50  50 51  51 52  52 53  53 54  54 55  55 56  56 57  57 58  58 59  59 60  60 61  61 62  62 63  63 64  64 65  65 66  66 67  67 68  68 69  69 70  70 71  71 72  72 73  73 74  74 75  75 76  76 77  77 78  78 79  79 80  80 81  81 82  82 83  83 84  84 85  85 86  86 87  87 88  88 89  89 90  90 91  91 92  92 93  93 94  94 95  95 96  96 97  97 98  98 99  99 100  </DataArray>
<DataArray  type="UInt32"  Name="offsets"  format="ascii">2 4 6 8 10 12 14 16 18 20 22 24 26 28 30 32 34 36 38 40 42 44 46 48 50 52 54 56 58 60 62 64 66 68 70 72 74 76 78 80 82 84 86 88 90 92 94 96 98 100 102 104 106 108 110 112 114 116 118 120 122 124 126 128 130 132 134 136 138 140 142 144 146 148 150 152 154 156 158 160 162 164 166 168 170 172 174 176 178 180 182 184 186 188 190 192 194 196 198 200 </DataArray>
<DataArray  type="UInt8"  Name="types"  format="ascii">3 3 3 3 3 3 3 3 3 3 3 3 3 3 3 3 3 3 3 3 3 3 3 3 3 3 3 3 3 3 3 3 3 3 3 3 3 3 3 3 3 3 3 3 3 3 3 3 3 3 3 3 3 3 3 3 3 3 3 3 3 3 3 3 3 3 3 3 3 3 3 3 3 3 3 3 3 3 3 3 3 3 3 3 3 3 3 3 3 3 3 3 3 3 3 3 3 3 3 3 </DataArray>
</Cells>
<PointData  Scalars="pressure"> 
<DataArray  type="Float64"  Name="pressure"  format="ascii">-1.0164395367051606e-18  -5.1599422320667788e-03  -1.0317338551330237e-02  -1.5469645557517229e-02  -2.0614324872931227e-02  -2.5748845647543598e-02  -3.0870687056655223e-02  -3.5977340788665227e-02  -4.1066313520487646e-02  -4.6135129378176168e-02  -5.1181332380328896e-02  -5.6202488861857781e-02  -6.1196189875735774e-02  -6.6160053570346614e-02  -7.1091727540093810e-02  -7.5988891146949317e-02  -8.0849257810648778e-02  -8.5670577265273093e-02  -9.0450637779991794e-02  -9.5187268341775405e-02  -9.9878340797921697e-02  -1.0452177195628089e-01  -1.0911552564111063e-01  -1.1365761470252743e-01  -1.1814610297757730e-01  -1.2257910720098258e-01  -1.2695479886368660e-01  -1.3127140601735665e-01  -1.3552721502307213e-01  -1.3972057224245940e-01  -1.4384988566961876e-01  -1.4791362650222389e-01  -1.5191033065024748e-01  -1.5583860018082127e-01  -1.5969710469780823e-01  -1.6348458265472413e-01  -1.6719984259971155e-01  -1.7084176435134010e-01  -1.7440930010406605e-01  -1.7790147546227991e-01  -1.8131739040189021e-01  -1.8465622015852950e-01  -1.8791721604147646e-01  -1.9109970617250890e-01  -1.9420309614894823e-01  -1.9722686963025665e-01  -2.0017058884759029e-01  -2.0303389503581157e-01  -2.0581650878754146e-01  -2.0851823032889277e-01  -2.1113893971661929e-01  -2.1367859695648292e-01  -2.1613724204272408e-01  -2.1851499491858772e-01  -2.2081205535796050e-01  -2.2302870276822032e-01  -2.2516529591450546e-01  -2.2722227256566108e-01  -2.2920014906222422e-01  -2.3109951980687171e-01  -2.3292105667782781e-01  -2.3466550836581582e-01  -2.3633369963520198e-01  -2.3792653051007573e-01  -2.3944497538604784e-01  -2.4089008206866022e-01  -2.4226297073934364e-01  -2.4356483284995642e-01  -2.4479692994698365e-01  -2.4596059242656393e-01  -2.4705721822156521e-01  -2.4808827142201442e-01  -2.4905528083023717e-01  -2.4995983845213077e-01  -2.5080359792606904e-01  -2.5158827289097657e-01  -2.5231563529518397e-01  -2.5298751364774946e-01  -2.5360579121394894e-01  -2.5417240415673592e-01  -2.5468933962599544e-01  -2.5515863379746889e-01  -2.5558236986330812e-01  -2.5596267597621380e-01  -2.5630172314921623e-01  -2.5660172311314650e-01  -2.5686492613392009e-01  -2.5709361879180220e-01  -2.5729012172482441e-01  -2.5745678733858279e-01  -2.5759599748468870e-01  -2.5771016111017081e-01  -2.5780171188012113e-01  -2.5787310577593731e-01  -2.5792681867157019e-01  -2.5796534389010561e-01  -2.5799118974314056e-01  -2.5800687705537223e-01  -2.5801493667683251e-01  -2.5801790698521865e-01  -2.5801833138080582e-01  </DataArray> 
</PointData> 
</Piece>
</UnstructuredGrid>
</VTKFile>