<?xml version="1.0"?>
<VTKFile type="UnstructuredGrid"  version="0.1"  >
<UnstructuredGrid>
<Piece  NumberOfPoints="101" NumberOfCells="100">
<Points>
<DataArray  type="Float64"  NumberOfComponents="3"  format="ascii">0 0 0  0.01 0 0  0.02 0 0  0.03 0 0  0.04 0 0  0.05 0 0  0.06 0 0  0.07000000000000001 0 0  0.08 0 0  0.09 0 0  0.1 0 0  0.11 0 0  0.12 0 0  0.13 0 0  0.14 0 0  0.15 0 0  0.16 0 0  0.17 0 0  0.18 0 0  0.19 0 0  0.2 0 0  0.21 0 0  0.22 0 0  0.23 0 0  0.24 0 0  0.25 0 0  0.26 0 0  0.27 0 0  0.28 0 0  0.29 0 0  0.3 0 0  0.31 0 0  0.32 0 0  0.33 0 0  0.34 0 0  0.35 0 0  0.36 0 0  0.37 0 0  0.38 0 0  0.39 0 0  0.4 0 0  0.41 0 0  0.42 0 0  0.43 0 0  0.44 0 0  0.45 0 0  0.46 0 0  0.47 0 0  0.48 0 0  0.49 0 0  0.5 0 0  0.51 0 0  0.52 0 0  0.53 0 0  0.54 0 0  0.55 0 0  0.5600000000000001 0 0  0.57 0 0  0.58 0 0  0.59 0 0  0.6 0 0  0.61 0 0  0.62 0 0  0.63 0 0  0.64 0 0  0.65 0 0  0.66 0 0  0.67 0 0  0.68 0 0  0.6899999999999999 0 0  0.7 0 0  0.71 0 0  0.72 0 0  0.73 0 0  0.74 0 0  0.75 0 0  0.76 0 0  0.77 0 0  0.78 0 0  0.79 0 0  0.8 0 0  0.8100000000000001 0 0  0.82 0 0  0.83 0 0  0.84 0 0  0.85 0 0  0.86 0 0  0.87 0 0  0.88 0 0  0.89 0 0  0.9 0 0  0.91 0 0  0.92 0 0  0.93 0 0  0.9399999999999999 0 0  0.95 0 0  0.96 0 0  0.97 0 0  0.98 0 0  0.99 0 0  1 0 0  </DataArray>
</Points>
<Cells>
<DataArray  type="UInt32"  Name="connectivity"  format="ascii">0 1  1 2  2 3  3 4  4 5  5 6  6 7  7 8  8 9  9 10  10 11  11 12  12 13  13 14  14 15  15 16  16 17  17 18  18 19  19 20  20 21  21 22  22 23  23 24  24 25  25 26  26 27  27 28  28 29  29 30  30 31  31 32  32 33  33 34  34 35  35 36  36 37  37 38  38 39  39 40  40 41  41 42  42 43  43 44  44 45  45 46  46 47  47 48  48 49  49 50  50 51  51 52  52 53  53 54  54 55  55 56  56 57  57 58  58 59  59 60  60 61  61 62  62 63  63 64  64 65  65 66  66 67  67 68  68 69  69 70  70 71  71 72  72 73  73 74  74 75  75 76  76 77  77 78  78 79  79 80  80 81  81 82  82 83  83 84  84 85  85 86  86 87  87 88  88 89  89 90  90 91  91 92  92 93  93 94  94 95  95 96  96 97  97 98  98 99  99 100  </DataArray>
<DataArray  type="UInt32"  Name="offsets"  format="ascii">2 4 6 8 10 12 14 16 18 20 22 24 26 28 30 32 34 36 38 40 42 44 46 48 50 52 54 56 58 60 62 64 66 68 70 72 74 76 78 80 82 84 86 88 90 92 94 96 98 100 102 104 106 108 110 112 114 116 118 120 122 124 126 128 130 132 134 136 138 140 142 144 146 148 150 152 154 156 158 160 162 164 166 168 170 172 174 176 178 180 182 184 186 188 190 192 194 196 198 200 </DataArray>
<DataArray  type="UInt8"  Name="types"  format="ascii">3 3 3 3 3 3 3 3 3 3 3 3 3 3 3 3 3 3 3 3 3 3 3 3 3 3 3 3 3 3 3 3 3 3 3 3 3 3 3 3 3 3 3 3 3 3 3 3 3 3 3 3 3 3 3 3 3 3 3 3 3 3 3 3 3 3 3 3 3 3 3 3 3 3 3 3 3 3 3 3 3 3 3 3 3 3 3 3 3 3 3 3 3 3 3 3 3 3 3 3 </DataArray>
</Cells>
<PointData  Scalars="pressure"> 
<DataArray  type="Float64"  Name="pressure"  format="ascii">5.5751862996326566e+44  3.2140885746421971e+60  2.3528341486371549e+60  2.5836178281809637e+60  2.5217765130568008e+60  2.5383476517284856e+60  2.5339072123681552e+60  2.5350970828626136e+60  2.5347782428257170e+60  2.5348636802665931e+60  2.5348407866024471e+60  2.5348469215856009e+60  2.5348452779869375e+60  2.5348457187546074e+60  2.5348456009907671e+60  2.5348456328923018e+60  2.5348456246891553e+60  2.5348456272325496e+60  2.5348456268962865e+60  2.5348456273316481e+60  2.5348456275602507e+60  2.5348456278442601e+60  2.5348456281134169e+60  2.5348456283865597e+60  2.5348456286586291e+60  2.5348456289309869e+60  2.5348456292032661e+60  2.5348456294755718e+60  2.5348456297478635e+60  2.5348456300201674e+60  2.5348456302924620e+60  2.5348456305647591e+60  2.5348456308370555e+60  2.5348456311093526e+60  2.5348456313816497e+60  2.5348456316539478e+60  2.5348456319262428e+60  2.5348456321985424e+60  2.5348456324708370e+60  2.5348456327431376e+60  2.5348456330154319e+60  2.5348456332877290e+60  2.5348456335600307e+60  2.5348456338323239e+60  2.5348456341046231e+60  2.5348456343769230e+60  2.5348456346492162e+60  2.5348456349215169e+60  2.5348456351938129e+60  2.5348456354661132e+60  2.5348456357384064e+60  2.5348456360107092e+60  2.5348456362830045e+60  2.5348456365553005e+60  2.5348456368275998e+60  2.5348456370999004e+60  2.5348456373721904e+60  2.5348456376444932e+60  2.5348456379167860e+60  2.5348456381890856e+60  2.5348456384613805e+60  2.5348456387336748e+60  2.5348456390059769e+60  2.5348456392782690e+60  2.5348456395505721e+60  2.5348456398228660e+60  2.5348456400951642e+60  2.5348456403674623e+60  2.5348456406397569e+60  2.5348456409120579e+60  2.5348456411843500e+60  2.5348456414566511e+60  2.5348456417289503e+60  2.5348456420012424e+60  2.5348456422735434e+60  2.5348456425458444e+60  2.5348456428181319e+60  2.5348456430904379e+60  2.5348456433627289e+60  2.5348456436350300e+60  2.5348456439073256e+60  2.5348456441796195e+60  2.5348456444519227e+60  2.5348456447242180e+60  2.5348456449965133e+60  2.5348456452688111e+60  2.5348456455411114e+60  2.5348456458134085e+60  2.5348456460857035e+60  2.5348456463580016e+60  2.5348456466302984e+60  2.5348456469026004e+60  2.5348456471748886e+60  2.5348456474471936e+60  2.5348456477194885e+60  2.5348456479917838e+60  2.5348456482640816e+60  2.5348456485363798e+60  2.5348456488086765e+60  2.5348456490809726e+60  2.5348456493532718e+60  </DataArray> 
</PointData> 
</Piece>
</UnstructuredGrid>
</VTKFile>