<?xml version="1.0"?>
<VTKFile type="UnstructuredGrid"  version="0.1"  >
<UnstructuredGrid>
<Piece  NumberOfPoints="101" NumberOfCells="100">
<Points>
<DataArray  type="Float64"  NumberOfComponents="3"  format="ascii">0 0 0  0.01 0 0  0.02 0 0  0.03 0 0  0.04 0 0  0.05 0 0  0.06 0 0  0.07000000000000001 0 0  0.08 0 0  0.09 0 0  0.1 0 0  0.11 0 0  0.12 0 0  0.13 0 0  0.14 0 0  0.15 0 0  0.16 0 0  0.17 0 0  0.18 0 0  0.19 0 0  0.2 0 0  0.21 0 0  0.22 0 0  0.23 0 0  0.24 0 0  0.25 0 0  0.26 0 0  0.27 0 0  0.28 0 0  0.29 0 0  0.3 0 0  0.31 0 0  0.32 0 0  0.33 0 0  0.34 0 0  0.35 0 0  0.36 0 0  0.37 0 0  0.38 0 0  0.39 0 0  0.4 0 0  0.41 0 0  0.42 0 0  0.43 0 0  0.44 0 0  0.45 0 0  0.46 0 0  0.47 0 0  0.48 0 0  0.49 0 0  0.5 0 0  0.51 0 0  0.52 0 0  0.53 0 0  0.54 0 0  0.55 0 0  0.5600000000000001 0 0  0.57 0 0  0.58 0 0  0.59 0 0  0.6 0 0  0.61 0 0  0.62 0 0  0.63 0 0  0.64 0 0  0.65 0 0  0.66 0 0  0.67 0 0  0.68 0 0  0.6899999999999999 0 0  0.7 0 0  0.71 0 0  0.72 0 0  0.73 0 0  0.74 0 0  0.75 0 0  0.76 0 0  0.77 0 0  0.78 0 0  0.79 0 0  0.8 0 0  0.8100000000000001 0 0  0.82 0 0  0.83 0 0  0.84 0 0  0.85 0 0  0.86 0 0  0.87 0 0  0.88 0 0  0.89 0 0  0.9 0 0  0.91 0 0  0.92 0 0  0.93 0 0  0.9399999999999999 0 0  0.95 0 0  0.96 0 0  0.97 0 0  0.98 0 0  0.99 0 0  1 0 0  </DataArray>
</Points>
<Cells>
<DataArray  type="UInt32"  Name="connectivity"  format="ascii">0 1  1 2  2 3  3 4  4 5  5 6  6 7  7 8  8 9  9 10  10 11  11 12  12 13  13 14  14 15  15 16  16 17  17 18  18 19  19 20  20 21  21 22  22 23  23 24  24 25  25 26  26 27  27 28  28 29  29 30  30 31  31 32  32 33  33 34  34 35  35 36  36 37  37 38  38 39  39 40  40 41  41 42  42 43  43 44  44 45  45 46  46 47  47 48  48 49  49 50  50 51  51 52  52 53  53 54  54 55  55 56  56 57  57 58  58 59  59 60  60 61  61 62  62 63  63 64  64 65  65 66  66 67  67 68  68 69  69 70  70 71  71 72  72 73  73 74  74 75  75 76  76 77  77 78  78 79  79 80  80 81  81 82  82 83  83 84  84 85  85 86  86 87  87 88  88 89  89 90  90 91  91 92  92 93  93 94  94 95  95 96  96 97  97 98  98 99  99 100  </DataArray>
<DataArray  type="UInt32"  Name="offsets"  format="ascii">2 4 6 8 10 12 14 16 18 20 22 24 26 28 30 32 34 36 38 40 42 44 46 48 50 52 54 56 58 60 62 64 66 68 70 72 74 76 78 80 82 84 86 88 90 92 94 96 98 100 102 104 106 108 110 112 114 116 118 120 122 124 126 128 130 132 134 136 138 140 142 144 146 148 150 152 154 156 158 160 162 164 166 168 170 172 174 176 178 180 182 184 186 188 190 192 194 196 198 200 </DataArray>
<DataArray  type="UInt8"  Name="types"  format="ascii">3 3 3 3 3 3 3 3 3 3 3 3 3 3 3 3 3 3 3 3 3 3 3 3 3 3 3 3 3 3 3 3 3 3 3 3 3 3 3 3 3 3 3 3 3 3 3 3 3 3 3 3 3 3 3 3 3 3 3 3 3 3 3 3 3 3 3 3 3 3 3 3 3 3 3 3 3 3 3 3 3 3 3 3 3 3 3 3 3 3 3 3 3 3 3 3 3 3 3 3 </DataArray>
</Cells>
<PointData  Scalars="pressure"> 
<DataArray  type="Float64"  Name="pressure"  format="ascii">9.0669436471097205e+25  4.0505517497769120e+41  2.9651462955449762e+41  3.2559967955935404e+41  3.1780590880406242e+41  3.1989436537975034e+41  3.1933473248287275e+41  3.1948469445964551e+41  3.1944450995915663e+41  3.1945527802914925e+41  3.1945239260171240e+41  3.1945316583153806e+41  3.1945295866985375e+41  3.1945301421862414e+41  3.1945299937022874e+41  3.1945300338580038e+41  3.1945300234649065e+41  3.1945300266171123e+41  3.1945300261396678e+41  3.1945300266348249e+41  3.1945300268693638e+41  3.1945300271737462e+41  3.1945300274594078e+41  3.1945300277500905e+41  3.1945300280394199e+41  3.1945300283291180e+41  3.1945300286187108e+41  3.1945300289083397e+41  3.1945300291979511e+41  3.1945300294875791e+41  3.1945300297771906e+41  3.1945300300668109e+41  3.1945300303564278e+41  3.1945300306460450e+41  3.1945300309356607e+41  3.1945300312252829e+41  3.1945300315148986e+41  3.1945300318045166e+41  3.1945300320941331e+41  3.1945300323837553e+41  3.1945300326733710e+41  3.1945300329629863e+41  3.1945300332526117e+41  3.1945300335422274e+41  3.1945300338318400e+41  3.1945300341214715e+41  3.1945300344110756e+41  3.1945300347007021e+41  3.1945300349903178e+41  3.1945300352799393e+41  3.1945300355695519e+41  3.1945300358591776e+41  3.1945300361487917e+41  3.1945300364384078e+41  3.1945300367280266e+41  3.1945300370176516e+41  3.1945300373072587e+41  3.1945300375968856e+41  3.1945300378864975e+41  3.1945300381761178e+41  3.1945300384657308e+41  3.1945300387553465e+41  3.1945300390449718e+41  3.1945300393345832e+41  3.1945300396242105e+41  3.1945300399138235e+41  3.1945300402034376e+41  3.1945300404930611e+41  3.1945300407826744e+41  3.1945300410722963e+41  3.1945300413619108e+41  3.1945300416515323e+41  3.1945300419411530e+41  3.1945300422307652e+41  3.1945300425203887e+41  3.1945300428100105e+41  3.1945300430996166e+41  3.1945300433892454e+41  3.1945300436788576e+41  3.1945300439684799e+41  3.1945300442580979e+41  3.1945300445477066e+41  3.1945300448373370e+41  3.1945300451269465e+41  3.1945300454165664e+41  3.1945300457061825e+41  3.1945300459958063e+41  3.1945300462854255e+41  3.1945300465750369e+41  3.1945300468646607e+41  3.1945300471542756e+41  3.1945300474438979e+41  3.1945300477335066e+41  3.1945300480231350e+41  3.1945300483127484e+41  3.1945300486023656e+41  3.1945300488919809e+41  3.1945300491816020e+41  3.1945300494712212e+41  3.1945300497608338e+41  3.1945300500504557e+41  </DataArray> 
</PointData> 
</Piece>
</UnstructuredGrid>
</VTKFile>