<?xml version="1.0"?>
<VTKFile type="UnstructuredGrid"  version="0.1"  >
<UnstructuredGrid>
<Piece  NumberOfPoints="101" NumberOfCells="100">
<Points>
<DataArray  type="Float64"  NumberOfComponents="3"  format="ascii">0 0 0  0.01 0 0  0.02 0 0  0.03 0 0  0.04 0 0  0.05 0 0  0.06 0 0  0.07000000000000001 0 0  0.08 0 0  0.09 0 0  0.1 0 0  0.11 0 0  0.12 0 0  0.13 0 0  0.14 0 0  0.15 0 0  0.16 0 0  0.17 0 0  0.18 0 0  0.19 0 0  0.2 0 0  0.21 0 0  0.22 0 0  0.23 0 0  0.24 0 0  0.25 0 0  0.26 0 0  0.27 0 0  0.28 0 0  0.29 0 0  0.3 0 0  0.31 0 0  0.32 0 0  0.33 0 0  0.34 0 0  0.35 0 0  0.36 0 0  0.37 0 0  0.38 0 0  0.39 0 0  0.4 0 0  0.41 0 0  0.42 0 0  0.43 0 0  0.44 0 0  0.45 0 0  0.46 0 0  0.47 0 0  0.48 0 0  0.49 0 0  0.5 0 0  0.51 0 0  0.52 0 0  0.53 0 0  0.54 0 0  0.55 0 0  0.5600000000000001 0 0  0.57 0 0  0.58 0 0  0.59 0 0  0.6 0 0  0.61 0 0  0.62 0 0  0.63 0 0  0.64 0 0  0.65 0 0  0.66 0 0  0.67 0 0  0.68 0 0  0.6899999999999999 0 0  0.7 0 0  0.71 0 0  0.72 0 0  0.73 0 0  0.74 0 0  0.75 0 0  0.76 0 0  0.77 0 0  0.78 0 0  0.79 0 0  0.8 0 0  0.8100000000000001 0 0  0.82 0 0  0.83 0 0  0.84 0 0  0.85 0 0  0.86 0 0  0.87 0 0  0.88 0 0  0.89 0 0  0.9 0 0  0.91 0 0  0.92 0 0  0.93 0 0  0.9399999999999999 0 0  0.95 0 0  0.96 0 0  0.97 0 0  0.98 0 0  0.99 0 0  1 0 0  </DataArray>
</Points>
<Cells>
<DataArray  type="UInt32"  Name="connectivity"  format="ascii">0 1  1 2  2 3  3 4  4 5  5 6  6 7  7 8  8 9  9 10  10 11  11 12  12 13  13 14  14 15  15 16  16 17  17 18  18 19  19 20  20 21  21 22  22 23  23 24  24 25  25 26  26 27  27 28  28 29  29 30  30 31  31 32  32 33  33 34  34 35  35 36  36 37  37 38  38 39  39 40  40 41  41 42  42 43  43 44  44 45  45 46  46 47  47 48  48 49  49 50  50 51  51 52  52 53  53 54  54 55  55 56  56 57  57 58  58 59  59 60  60 61  61 62  62 63  63 64  64 65  65 66  66 67  67 68  68 69  69 70  70 71  71 72  72 73  73 74  74 75  75 76  76 77  77 78  78 79  79 80  80 81  81 82  82 83  83 84  84 85  85 86  86 87  87 88  88 89  89 90  90 91  91 92  92 93  93 94  94 95  95 96  96 97  97 98  98 99  99 100  </DataArray>
<DataArray  type="UInt32"  Name="offsets"  format="ascii">2 4 6 8 10 12 14 16 18 20 22 24 26 28 30 32 34 36 38 40 42 44 46 48 50 52 54 56 58 60 62 64 66 68 70 72 74 76 78 80 82 84 86 88 90 92 94 96 98 100 102 104 106 108 110 112 114 116 118 120 122 124 126 128 130 132 134 136 138 140 142 144 146 148 150 152 154 156 158 160 162 164 166 168 170 172 174 176 178 180 182 184 186 188 190 192 194 196 198 200 </DataArray>
<DataArray  type="UInt8"  Name="types"  format="ascii">3 3 3 3 3 3 3 3 3 3 3 3 3 3 3 3 3 3 3 3 3 3 3 3 3 3 3 3 3 3 3 3 3 3 3 3 3 3 3 3 3 3 3 3 3 3 3 3 3 3 3 3 3 3 3 3 3 3 3 3 3 3 3 3 3 3 3 3 3 3 3 3 3 3 3 3 3 3 3 3 3 3 3 3 3 3 3 3 3 3 3 3 3 3 3 3 3 3 3 3 </DataArray>
</Cells>
<PointData  Scalars="pressure"> 
<DataArray  type="Float64"  Name="pressure"  format="ascii">3.1691265005705740e+31  4.1605096104584566e+47  3.0456567710228664e+47  3.3443934569347587e+47  3.2643437817354641e+47  3.2857939442006967e+47  3.2800461446947091e+47  3.2815863286212273e+47  3.2811736198066504e+47  3.2812842093904692e+47  3.2812545755979770e+47  3.2812625161518240e+47  3.2812603882595993e+47  3.2812609583146801e+47  3.2812608054260497e+47  3.2812608462578978e+47  3.2812608351802707e+47  3.2812608380123405e+47  3.2812608371171683e+47  3.2812608372207375e+47  3.2812608370566869e+47  3.2812608369643541e+47  3.2812608368527984e+47  3.2812608367464001e+47  3.2812608366386105e+47  3.2812608365311993e+47  3.2812608364236822e+47  3.2812608363162005e+47  3.2812608362087029e+47  3.2812608361012163e+47  3.2812608359937211e+47  3.2812608358862288e+47  3.2812608357787357e+47  3.2812608356712426e+47  3.2812608355637490e+47  3.2812608354562584e+47  3.2812608353487665e+47  3.2812608352412741e+47  3.2812608351337802e+47  3.2812608350262891e+47  3.2812608349187932e+47  3.2812608348113025e+47  3.2812608347038130e+47  3.2812608345963175e+47  3.2812608344888239e+47  3.2812608343813385e+47  3.2812608342738369e+47  3.2812608341663531e+47  3.2812608340588583e+47  3.2812608339513681e+47  3.2812608338438697e+47  3.2812608337363851e+47  3.2812608336288883e+47  3.2812608335213948e+47  3.2812608334139045e+47  3.2812608333064158e+47  3.2812608331989150e+47  3.2812608330914296e+47  3.2812608329839312e+47  3.2812608328764413e+47  3.2812608327689442e+47  3.2812608326614522e+47  3.2812608325539620e+47  3.2812608324464644e+47  3.2812608323389786e+47  3.2812608322314830e+47  3.2812608321239887e+47  3.2812608320164976e+47  3.2812608319090037e+47  3.2812608318015134e+47  3.2812608316940186e+47  3.2812608315865275e+47  3.2812608314790360e+47  3.2812608313715429e+47  3.2812608312640506e+47  3.2812608311565660e+47  3.2812608310490607e+47  3.2812608309415794e+47  3.2812608308340781e+47  3.2812608307265927e+47  3.2812608306190992e+47  3.2812608305116020e+47  3.2812608304041154e+47  3.2812608302966202e+47  3.2812608301891279e+47  3.2812608300816344e+47  3.2812608299741445e+47  3.2812608298666534e+47  3.2812608297591579e+47  3.2812608296516644e+47  3.2812608295441757e+47  3.2812608294366834e+47  3.2812608293291842e+47  3.2812608292217000e+47  3.2812608291142036e+47  3.2812608290067117e+47  3.2812608288992194e+47  3.2812608287917243e+47  3.2812608286842340e+47  3.2812608285767372e+47  3.2812608284692469e+47  </DataArray> 
</PointData> 
</Piece>
</UnstructuredGrid>
</VTKFile>