<?xml version="1.0"?>
<VTKFile type="UnstructuredGrid"  version="0.1"  >
<UnstructuredGrid>
<Piece  NumberOfPoints="101" NumberOfCells="100">
<Points>
<DataArray  type="Float64"  NumberOfComponents="3"  format="ascii">0 0 0  0.01 0 0  0.02 0 0  0.03 0 0  0.04 0 0  0.05 0 0  0.06 0 0  0.07000000000000001 0 0  0.08 0 0  0.09 0 0  0.1 0 0  0.11 0 0  0.12 0 0  0.13 0 0  0.14 0 0  0.15 0 0  0.16 0 0  0.17 0 0  0.18 0 0  0.19 0 0  0.2 0 0  0.21 0 0  0.22 0 0  0.23 0 0  0.24 0 0  0.25 0 0  0.26 0 0  0.27 0 0  0.28 0 0  0.29 0 0  0.3 0 0  0.31 0 0  0.32 0 0  0.33 0 0  0.34 0 0  0.35 0 0  0.36 0 0  0.37 0 0  0.38 0 0  0.39 0 0  0.4 0 0  0.41 0 0  0.42 0 0  0.43 0 0  0.44 0 0  0.45 0 0  0.46 0 0  0.47 0 0  0.48 0 0  0.49 0 0  0.5 0 0  0.51 0 0  0.52 0 0  0.53 0 0  0.54 0 0  0.55 0 0  0.5600000000000001 0 0  0.57 0 0  0.58 0 0  0.59 0 0  0.6 0 0  0.61 0 0  0.62 0 0  0.63 0 0  0.64 0 0  0.65 0 0  0.66 0 0  0.67 0 0  0.68 0 0  0.6899999999999999 0 0  0.7 0 0  0.71 0 0  0.72 0 0  0.73 0 0  0.74 0 0  0.75 0 0  0.76 0 0  0.77 0 0  0.78 0 0  0.79 0 0  0.8 0 0  0.8100000000000001 0 0  0.82 0 0  0.83 0 0  0.84 0 0  0.85 0 0  0.86 0 0  0.87 0 0  0.88 0 0  0.89 0 0  0.9 0 0  0.91 0 0  0.92 0 0  0.93 0 0  0.9399999999999999 0 0  0.95 0 0  0.96 0 0  0.97 0 0  0.98 0 0  0.99 0 0  1 0 0  </DataArray>
</Points>
<Cells>
<DataArray  type="UInt32"  Name="connectivity"  format="ascii">0 1  1 2  2 3  3 4  4 5  5 6  6 7  7 8  8 9  9 10  10 11  11 12  12 13  13 14  14 15  15 16  16 17  17 18  18 19  19 20  20 21  21 22  22 23  23 24  24 25  25 26  26 27  27 28  28 29  29 30  30 31  31 32  32 33  33 34  34 35  35 36  36 37  37 38  38 39  39 40  40 41  41 42  42 43  43 44  44 45  45 46  46 47  47 48  48 49  49 50  50 51  51 52  52 53  53 54  54 55  55 56  56 57  57 58  58 59  59 60  60 61  61 62  62 63  63 64  64 65  65 66  66 67  67 68  68 69  69 70  70 71  71 72  72 73  73 74  74 75  75 76  76 77  77 78  78 79  79 80  80 81  81 82  82 83  83 84  84 85  85 86  86 87  87 88  88 89  89 90  90 91  91 92  92 93  93 94  94 95  95 96  96 97  97 98  98 99  99 100  </DataArray>
<DataArray  type="UInt32"  Name="offsets"  format="ascii">2 4 6 8 10 12 14 16 18 20 22 24 26 28 30 32 34 36 38 40 42 44 46 48 50 52 54 56 58 60 62 64 66 68 70 72 74 76 78 80 82 84 86 88 90 92 94 96 98 100 102 104 106 108 110 112 114 116 118 120 122 124 126 128 130 132 134 136 138 140 142 144 146 148 150 152 154 156 158 160 162 164 166 168 170 172 174 176 178 180 182 184 186 188 190 192 194 196 198 200 </DataArray>
<DataArray  type="UInt8"  Name="types"  format="ascii">3 3 3 3 3 3 3 3 3 3 3 3 3 3 3 3 3 3 3 3 3 3 3 3 3 3 3 3 3 3 3 3 3 3 3 3 3 3 3 3 3 3 3 3 3 3 3 3 3 3 3 3 3 3 3 3 3 3 3 3 3 3 3 3 3 3 3 3 3 3 3 3 3 3 3 3 3 3 3 3 3 3 3 3 3 3 3 3 3 3 3 3 3 3 3 3 3 3 3 3 </DataArray>
</Cells>
<PointData  Scalars="pressure"> 
<DataArray  type="Float64"  Name="pressure"  format="ascii">3.0223145490365733e+26  9.5574855694863648e+41  6.9964323270794717e+41  7.6827000361618238e+41  7.4988056300448667e+41  7.5480825421638253e+41  7.5348781502622151e+41  7.5384164408783930e+41  7.5374683107582664e+41  7.5377223757468836e+41  7.5376542968339531e+41  7.5376725405924243e+41  7.5376676530621641e+41  7.5376689638632395e+41  7.5376686137403503e+41  7.5376687086837980e+41  7.5376686843658710e+41  7.5376686920055843e+41  7.5376686910818612e+41  7.5376686924527839e+41  7.5376686932088434e+41  7.5376686941296727e+41  7.5376686950063354e+41  7.5376686958948545e+41  7.5376686967801720e+41  7.5376686976663560e+41  7.5376686985523033e+41  7.5376686994383248e+41  7.5376687003243108e+41  7.5376687012103323e+41  7.5376687020963244e+41  7.5376687029823212e+41  7.5376687038683273e+41  7.5376687047543241e+41  7.5376687056403208e+41  7.5376687065263284e+41  7.5376687074123252e+41  7.5376687082983251e+41  7.5376687091843234e+41  7.5376687100703295e+41  7.5376687109563232e+41  7.5376687118423231e+41  7.5376687127283338e+41  7.5376687136143306e+41  7.5376687145003227e+41  7.5376687153863427e+41  7.5376687162723209e+41  7.5376687171583409e+41  7.5376687180443392e+41  7.5376687189303422e+41  7.5376687198163328e+41  7.5376687207023497e+41  7.5376687215883434e+41  7.5376687224743370e+41  7.5376687233603493e+41  7.5376687242463585e+41  7.5376687251323382e+41  7.5376687260183551e+41  7.5376687269043411e+41  7.5376687277903518e+41  7.5376687286763346e+41  7.5376687295623314e+41  7.5376687304483437e+41  7.5376687313343281e+41  7.5376687322203465e+41  7.5376687331063402e+41  7.5376687339923354e+41  7.5376687348783430e+41  7.5376687357643352e+41  7.5376687366503428e+41  7.5376687375363287e+41  7.5376687384223425e+41  7.5376687393083502e+41  7.5376687401943346e+41  7.5376687410803484e+41  7.5376687419663575e+41  7.5376687428523280e+41  7.5376687437383604e+41  7.5376687446243401e+41  7.5376687455103524e+41  7.5376687463963538e+41  7.5376687472823351e+41  7.5376687481683567e+41  7.5376687490543457e+41  7.5376687499403487e+41  7.5376687508263470e+41  7.5376687517123546e+41  7.5376687525983638e+41  7.5376687534843451e+41  7.5376687543703558e+41  7.5376687552563526e+41  7.5376687561423602e+41  7.5376687570283461e+41  7.5376687579143599e+41  7.5376687588003583e+41  7.5376687596863550e+41  7.5376687605723518e+41  7.5376687614583563e+41  7.5376687623443562e+41  7.5376687632303515e+41  7.5376687641163529e+41  </DataArray> 
</PointData> 
</Piece>
</UnstructuredGrid>
</VTKFile>