<?xml version="1.0"?>
<VTKFile type="UnstructuredGrid"  version="0.1"  >
<UnstructuredGrid>
<Piece  NumberOfPoints="101" NumberOfCells="100">
<Points>
<DataArray  type="Float64"  NumberOfComponents="3"  format="ascii">0 0 0  0.01 0 0  0.02 0 0  0.03 0 0  0.04 0 0  0.05 0 0  0.06 0 0  0.07000000000000001 0 0  0.08 0 0  0.09 0 0  0.1 0 0  0.11 0 0  0.12 0 0  0.13 0 0  0.14 0 0  0.15 0 0  0.16 0 0  0.17 0 0  0.18 0 0  0.19 0 0  0.2 0 0  0.21 0 0  0.22 0 0  0.23 0 0  0.24 0 0  0.25 0 0  0.26 0 0  0.27 0 0  0.28 0 0  0.29 0 0  0.3 0 0  0.31 0 0  0.32 0 0  0.33 0 0  0.34 0 0  0.35 0 0  0.36 0 0  0.37 0 0  0.38 0 0  0.39 0 0  0.4 0 0  0.41 0 0  0.42 0 0  0.43 0 0  0.44 0 0  0.45 0 0  0.46 0 0  0.47 0 0  0.48 0 0  0.49 0 0  0.5 0 0  0.51 0 0  0.52 0 0  0.53 0 0  0.54 0 0  0.55 0 0  0.5600000000000001 0 0  0.57 0 0  0.58 0 0  0.59 0 0  0.6 0 0  0.61 0 0  0.62 0 0  0.63 0 0  0.64 0 0  0.65 0 0  0.66 0 0  0.67 0 0  0.68 0 0  0.6899999999999999 0 0  0.7 0 0  0.71 0 0  0.72 0 0  0.73 0 0  0.74 0 0  0.75 0 0  0.76 0 0  0.77 0 0  0.78 0 0  0.79 0 0  0.8 0 0  0.8100000000000001 0 0  0.82 0 0  0.83 0 0  0.84 0 0  0.85 0 0  0.86 0 0  0.87 0 0  0.88 0 0  0.89 0 0  0.9 0 0  0.91 0 0  0.92 0 0  0.93 0 0  0.9399999999999999 0 0  0.95 0 0  0.96 0 0  0.97 0 0  0.98 0 0  0.99 0 0  1 0 0  </DataArray>
</Points>
<Cells>
<DataArray  type="UInt32"  Name="connectivity"  format="ascii">0 1  1 2  2 3  3 4  4 5  5 6  6 7  7 8  8 9  9 10  10 11  11 12  12 13  13 14  14 15  15 16  16 17  17 18  18 19  19 20  20 21  21 22  22 23  23 24  24 25  25 26  26 27  27 28  28 29  29 30  30 31  31 32  32 33  33 34  34 35  35 36  36 37  37 38  38 39  39 40  40 41  41 42  42 43  43 44  44 45  45 46  46 47  47 48  48 49  49 50  50 51  51 52  52 53  53 54  54 55  55 56  56 57  57 58  58 59  59 60  60 61  61 62  62 63  63 64  64 65  65 66  66 67  67 68  68 69  69 70  70 71  71 72  72 73  73 74  74 75  75 76  76 77  77 78  78 79  79 80  80 81  81 82  82 83  83 84  84 85  85 86  86 87  87 88  88 89  89 90  90 91  91 92  92 93  93 94  94 95  95 96  96 97  97 98  98 99  99 100  </DataArray>
<DataArray  type="UInt32"  Name="offsets"  format="ascii">2 4 6 8 10 12 14 16 18 20 22 24 26 28 30 32 34 36 38 40 42 44 46 48 50 52 54 56 58 60 62 64 66 68 70 72 74 76 78 80 82 84 86 88 90 92 94 96 98 100 102 104 106 108 110 112 114 116 118 120 122 124 126 128 130 132 134 136 138 140 142 144 146 148 150 152 154 156 158 160 162 164 166 168 170 172 174 176 178 180 182 184 186 188 190 192 194 196 198 200 </DataArray>
<DataArray  type="UInt8"  Name="types"  format="ascii">3 3 3 3 3 3 3 3 3 3 3 3 3 3 3 3 3 3 3 3 3 3 3 3 3 3 3 3 3 3 3 3 3 3 3 3 3 3 3 3 3 3 3 3 3 3 3 3 3 3 3 3 3 3 3 3 3 3 3 3 3 3 3 3 3 3 3 3 3 3 3 3 3 3 3 3 3 3 3 3 3 3 3 3 3 3 3 3 3 3 3 3 3 3 3 3 3 3 3 3 </DataArray>
</Cells>
<PointData  Scalars="pressure"> 
<DataArray  type="Float64"  Name="pressure"  format="ascii">-2.5410988417629015e-19  -8.9880171169467765e-04  -1.7971599554783167e-03  -2.6946317010897291e-03  -3.5907747931343734e-03  -4.4851483874382928e-03  -5.3773133861083058e-03  -6.2668328708685153e-03  -7.1532725342456690e-03  -8.0362011081783324e-03  -8.9151907896264735e-03  -9.7898176627611647e-03  -1.0659662117319300e-02  -1.1524309262707120e-02  -1.2383349337447022e-02  -1.3236378113564030e-02  -1.4082997295509164e-02  -1.4922814913228893e-02  -1.5755445708991157e-02  -1.6580511517591438e-02  -1.7397641639552871e-02  -1.8206473206963465e-02  -1.9006651541583201e-02  -1.9797830504867876e-02  -2.0579672839566132e-02  -2.1351850502552248e-02  -2.2114044988564171e-02  -2.2865947644529802e-02  -2.3607259974171055e-02  -2.4337693932583369e-02  -2.5056972210501859e-02  -2.5764828507971710e-02  -2.6461007797152880e-02  -2.7145266574003294e-02  -2.7817373098586395e-02  -2.8477107623771397e-02  -2.9124262612097586e-02  -2.9758642940590805e-02  -3.0380066093320727e-02  -3.0988362341525164e-02  -3.1583374911114910e-02  -3.2164960137385075e-02  -3.2732987606797347e-02  -3.3287340285683586e-02  -3.3827914635742848e-02  -3.4354620716223201e-02  -3.4867382272677230e-02  -3.5366136812219048e-02  -3.5850835665199428e-02  -3.6321444033235992e-02  -3.6777941023548720e-02  -3.7220319669589046e-02  -3.7648586937908811e-02  -3.8062763721284358e-02  -3.8462884818099979e-02  -3.8848998898005527e-02  -3.9221168453884056e-02  -3.9579469740182817e-02  -3.9923992697655349e-02  -4.0254840864605616e-02  -4.0572131274696215e-02  -4.0875994341470490e-02  -4.1166573729626274e-02  -4.1444026213259891e-02  -4.1708521521129076e-02  -4.1960242169165995e-02  -4.2199383280346704e-02  -4.2426152392128491e-02  -4.2640769251644388e-02  -4.2843465598831204e-02  -4.3034484937729545e-02  -4.3214082296180734e-02  -4.3382523974139699e-02  -4.3540087280869118e-02  -4.3687060261276410e-02  -4.3823741411638806e-02  -4.3950439385027323e-02  -4.4067472686701734e-02  -4.4175169359793827e-02  -4.4273866661550934e-02  -4.4363910730515467e-02  -4.4445656244930319e-02  -4.4519466072707001e-02  -4.4585710913324417e-02  -4.4644768931986871e-02  -4.4697025386425740e-02  -4.4742872246692447e-02  -4.4782707808337908e-02  -4.4816936299333809e-02  -4.4845967481155269e-02  -4.4870216244398263e-02  -4.4890102199330248e-02  -4.4906049261779234e-02  -4.4918485234782791e-02  -4.4927841386403856e-02  -4.4934552024118245e-02  -4.4939054066197887e-02  -4.4941786610536424e-02  -4.4943190501308225e-02  -4.4943707893910508e-02  -4.4943781818602861e-02  </DataArray> 
</PointData> 
</Piece>
</UnstructuredGrid>
</VTKFile>