<?xml version="1.0"?>
<VTKFile type="UnstructuredGrid"  version="0.1"  >
<UnstructuredGrid>
<Piece  NumberOfPoints="101" NumberOfCells="100">
<Points>
<DataArray  type="Float64"  NumberOfComponents="3"  format="ascii">0 0 0  0.01 0 0  0.02 0 0  0.03 0 0  0.04 0 0  0.05 0 0  0.06 0 0  0.07000000000000001 0 0  0.08 0 0  0.09 0 0  0.1 0 0  0.11 0 0  0.12 0 0  0.13 0 0  0.14 0 0  0.15 0 0  0.16 0 0  0.17 0 0  0.18 0 0  0.19 0 0  0.2 0 0  0.21 0 0  0.22 0 0  0.23 0 0  0.24 0 0  0.25 0 0  0.26 0 0  0.27 0 0  0.28 0 0  0.29 0 0  0.3 0 0  0.31 0 0  0.32 0 0  0.33 0 0  0.34 0 0  0.35 0 0  0.36 0 0  0.37 0 0  0.38 0 0  0.39 0 0  0.4 0 0  0.41 0 0  0.42 0 0  0.43 0 0  0.44 0 0  0.45 0 0  0.46 0 0  0.47 0 0  0.48 0 0  0.49 0 0  0.5 0 0  0.51 0 0  0.52 0 0  0.53 0 0  0.54 0 0  0.55 0 0  0.5600000000000001 0 0  0.57 0 0  0.58 0 0  0.59 0 0  0.6 0 0  0.61 0 0  0.62 0 0  0.63 0 0  0.64 0 0  0.65 0 0  0.66 0 0  0.67 0 0  0.68 0 0  0.6899999999999999 0 0  0.7 0 0  0.71 0 0  0.72 0 0  0.73 0 0  0.74 0 0  0.75 0 0  0.76 0 0  0.77 0 0  0.78 0 0  0.79 0 0  0.8 0 0  0.8100000000000001 0 0  0.82 0 0  0.83 0 0  0.84 0 0  0.85 0 0  0.86 0 0  0.87 0 0  0.88 0 0  0.89 0 0  0.9 0 0  0.91 0 0  0.92 0 0  0.93 0 0  0.9399999999999999 0 0  0.95 0 0  0.96 0 0  0.97 0 0  0.98 0 0  0.99 0 0  1 0 0  </DataArray>
</Points>
<Cells>
<DataArray  type="UInt32"  Name="connectivity"  format="ascii">0 1  1 2  2 3  3 4  4 5  5 6  6 7  7 8  8 9  9 10  10 11  11 12  12 13  13 14  14 15  15 16  16 17  17 18  18 19  19 20  20 21  21 22  22 23  23 24  24 25  25 26  26 27  27 28  28 29  29 30  30 31  31 32  32 33  33 34  34 35  35 36  36 37  37 38  38 39  39 40  40 41  41 42  42 43  43 44  44 45  45 46  46 47  47 48  48 49  49 50  50 51  51 52  52 53  53 54  54 55  55 56  56 57  57 58  58 59  59 60  60 61  61 62  62 63  63 64  64 65  65 66  66 67  67 68  68 69  69 70  70 71  71 72  72 73  73 74  74 75  75 76  76 77  77 78  78 79  79 80  80 81  81 82  82 83  83 84  84 85  85 86  86 87  87 88  88 89  89 90  90 91  91 92  92 93  93 94  94 95  95 96  96 97  97 98  98 99  99 100  </DataArray>
<DataArray  type="UInt32"  Name="offsets"  format="ascii">2 4 6 8 10 12 14 16 18 20 22 24 26 28 30 32 34 36 38 40 42 44 46 48 50 52 54 56 58 60 62 64 66 68 70 72 74 76 78 80 82 84 86 88 90 92 94 96 98 100 102 104 106 108 110 112 114 116 118 120 122 124 126 128 130 132 134 136 138 140 142 144 146 148 150 152 154 156 158 160 162 164 166 168 170 172 174 176 178 180 182 184 186 188 190 192 194 196 198 200 </DataArray>
<DataArray  type="UInt8"  Name="types"  format="ascii">3 3 3 3 3 3 3 3 3 3 3 3 3 3 3 3 3 3 3 3 3 3 3 3 3 3 3 3 3 3 3 3 3 3 3 3 3 3 3 3 3 3 3 3 3 3 3 3 3 3 3 3 3 3 3 3 3 3 3 3 3 3 3 3 3 3 3 3 3 3 3 3 3 3 3 3 3 3 3 3 3 3 3 3 3 3 3 3 3 3 3 3 3 3 3 3 3 3 3 3 </DataArray>
</Cells>
<PointData  Scalars="pressure"> 
<DataArray  type="Float64"  Name="pressure"  format="ascii">0.0000000000000000e+00  -7.7582652300653940e-09  -1.5503819735636597e-08  -2.3232915796940163e-08  -3.0941828566829344e-08  -3.8626859408126120e-08  -4.6284339238157982e-08  -5.3910631830059006e-08  -6.1502137062245087e-08  -6.9055294152342105e-08  -7.6566584822011805e-08  -8.4032536413408187e-08  -9.1449725026363937e-08  -9.8814778517374015e-08  -1.0612437951931028e-07  -1.1337526831602460e-07  -1.2056424572386039e-07  -1.2768817596625503e-07  -1.3474398928575905e-07  -1.4172868479099783e-07  -1.4863933315161006e-07  -1.5547307883712321e-07  -1.6222714267368890e-07  -1.6889882444228202e-07  -1.7548550507611368e-07  -1.8198464912062672e-07  -1.8839380639192005e-07  -1.9471061476843025e-07  -2.0093280179407474e-07  -2.0705818655780109e-07  -2.1308468171133458e-07  -2.1901029512760214e-07  -2.2483313164208100e-07  -2.3055139457301912e-07  -2.3616338732457810e-07  -2.4166751482413791e-07  -2.4706228421330239e-07  -2.5234630711441425e-07  -2.5751829996224226e-07  -2.6257708522015628e-07  -2.6752159254102568e-07  -2.7235085932002850e-07  -2.7706403168970418e-07  -2.8166036479635655e-07  -2.8613922362927002e-07  -2.9050008340767251e-07  -2.9474252974657804e-07  -2.9886625915431623e-07  -3.0287107886668697e-07  -3.0675690723392570e-07  -3.1052377383126890e-07  -3.1417181874030059e-07  -3.1770129260423378e-07  -3.2111255601982137e-07  -3.2440607937151410e-07  -3.2758244233393262e-07  -3.3064233309793516e-07  -3.3358654759669239e-07  -3.3641598884230931e-07  -3.3913166554380484e-07  -3.4173469221768112e-07  -3.4422628664500212e-07  -3.4660776942914423e-07  -3.4888056283490424e-07  -3.5104618896422784e-07  -3.5310626865059656e-07  -3.5506251980060197e-07  -3.5691675518271335e-07  -3.5867088209559036e-07  -3.6032689916180508e-07  -3.6188689477996766e-07  -3.6335304579798753e-07  -3.6472761474904287e-07  -3.6601294808258596e-07  -3.6721147406367487e-07  -3.6832570056174027e-07  -3.6935821228654510e-07  -3.7031166824526728e-07  -3.7118880063688250e-07  -3.7199241031913866e-07  -3.7272536537125380e-07  -3.7339059932492850e-07  -3.7399110663132623e-07  -3.7452994155544975e-07  -3.7501021364310908e-07  -3.7543508672588346e-07  -3.7580777427751902e-07  -3.7613153786607217e-07  -3.7640968350537293e-07  -3.7664555822761687e-07  -3.7684254853550027e-07  -3.7700407609031713e-07  -3.7713359417398888e-07  -3.7723458592007297e-07  -3.7731055989130895e-07  -3.7736504764725014e-07  -3.7740160031685508e-07  -3.7742378517108522e-07  -3.7743518285885807e-07  -3.7743938350260278e-07  -3.7743998374512135e-07  </DataArray> 
</PointData> 
</Piece>
</UnstructuredGrid>
</VTKFile>