<?xml version="1.0"?>
<VTKFile type="UnstructuredGrid"  version="0.1"  >
<UnstructuredGrid>
<Piece  NumberOfPoints="101" NumberOfCells="100">
<Points>
<DataArray  type="Float64"  NumberOfComponents="3"  format="ascii">0 0 0  0.01 0 0  0.02 0 0  0.03 0 0  0.04 0 0  0.05 0 0  0.06 0 0  0.07000000000000001 0 0  0.08 0 0  0.09 0 0  0.1 0 0  0.11 0 0  0.12 0 0  0.13 0 0  0.14 0 0  0.15 0 0  0.16 0 0  0.17 0 0  0.18 0 0  0.19 0 0  0.2 0 0  0.21 0 0  0.22 0 0  0.23 0 0  0.24 0 0  0.25 0 0  0.26 0 0  0.27 0 0  0.28 0 0  0.29 0 0  0.3 0 0  0.31 0 0  0.32 0 0  0.33 0 0  0.34 0 0  0.35 0 0  0.36 0 0  0.37 0 0  0.38 0 0  0.39 0 0  0.4 0 0  0.41 0 0  0.42 0 0  0.43 0 0  0.44 0 0  0.45 0 0  0.46 0 0  0.47 0 0  0.48 0 0  0.49 0 0  0.5 0 0  0.51 0 0  0.52 0 0  0.53 0 0  0.54 0 0  0.55 0 0  0.5600000000000001 0 0  0.57 0 0  0.58 0 0  0.59 0 0  0.6 0 0  0.61 0 0  0.62 0 0  0.63 0 0  0.64 0 0  0.65 0 0  0.66 0 0  0.67 0 0  0.68 0 0  0.6899999999999999 0 0  0.7 0 0  0.71 0 0  0.72 0 0  0.73 0 0  0.74 0 0  0.75 0 0  0.76 0 0  0.77 0 0  0.78 0 0  0.79 0 0  0.8 0 0  0.8100000000000001 0 0  0.82 0 0  0.83 0 0  0.84 0 0  0.85 0 0  0.86 0 0  0.87 0 0  0.88 0 0  0.89 0 0  0.9 0 0  0.91 0 0  0.92 0 0  0.93 0 0  0.9399999999999999 0 0  0.95 0 0  0.96 0 0  0.97 0 0  0.98 0 0  0.99 0 0  1 0 0  </DataArray>
</Points>
<Cells>
<DataArray  type="UInt32"  Name="connectivity"  format="ascii">0 1  1 2  2 3  3 4  4 5  5 6  6 7  7 8  8 9  9 10  10 11  11 12  12 13  13 14  14 15  15 16  16 17  17 18  18 19  19 20  20 21  21 22  22 23  23 24  24 25  25 26  26 27  27 28  28 29  29 30  30 31  31 32  32 33  33 34  34 35  35 36  36 37  37 38  38 39  39 40  40 41  41 42  42 43  43 44  44 45  45 46  46 47  47 48  48 49  49 50  50 51  51 52  52 53  53 54  54 55  55 56  56 57  57 58  58 59  59 60  60 61  61 62  62 63  63 64  64 65  65 66  66 67  67 68  68 69  69 70  70 71  71 72  72 73  73 74  74 75  75 76  76 77  77 78  78 79  79 80  80 81  81 82  82 83  83 84  84 85  85 86  86 87  87 88  88 89  89 90  90 91  91 92  92 93  93 94  94 95  95 96  96 97  97 98  98 99  99 100  </DataArray>
<DataArray  type="UInt32"  Name="offsets"  format="ascii">2 4 6 8 10 12 14 16 18 20 22 24 26 28 30 32 34 36 38 40 42 44 46 48 50 52 54 56 58 60 62 64 66 68 70 72 74 76 78 80 82 84 86 88 90 92 94 96 98 100 102 104 106 108 110 112 114 116 118 120 122 124 126 128 130 132 134 136 138 140 142 144 146 148 150 152 154 156 158 160 162 164 166 168 170 172 174 176 178 180 182 184 186 188 190 192 194 196 198 200 </DataArray>
<DataArray  type="UInt8"  Name="types"  format="ascii">3 3 3 3 3 3 3 3 3 3 3 3 3 3 3 3 3 3 3 3 3 3 3 3 3 3 3 3 3 3 3 3 3 3 3 3 3 3 3 3 3 3 3 3 3 3 3 3 3 3 3 3 3 3 3 3 3 3 3 3 3 3 3 3 3 3 3 3 3 3 3 3 3 3 3 3 3 3 3 3 3 3 3 3 3 3 3 3 3 3 3 3 3 3 3 3 3 3 3 3 </DataArray>
</Cells>
<PointData  Scalars="pressure"> 
<DataArray  type="Float64"  Name="pressure"  format="ascii">-2.5243548967072367e-27  -1.4755020720985705e-11  -2.9631584184958337e-11  -4.4619213234272783e-11  -5.9707339349304868e-11  -7.4885346886144322e-11  -9.0142554554913764e-11  -1.0546822751244660e-10  -1.2085163437062709e-10  -1.3628199537062715e-10  -1.5174854457382207e-10  -1.6724051604158689e-10  -1.8274715074539919e-10  -1.9825768965673576e-10  -2.1376153958951718e-10  -2.2924811426776604e-10  -2.4470682741550516e-10  -2.6012727241940341e-10  -2.7549902884592702e-10  -2.9081191120500444e-10  -3.0605573400656162e-10  -3.2122053288378549e-10  -3.3629641257087998e-10  -3.5127372656571255e-10  -3.6614280072574656e-10  -3.8089432023373775e-10  -3.9551913611488501e-10  -4.1000818231561005e-10  -4.2435269682681287e-10  -4.3854413876265491e-10  -4.5257413307973876e-10  -4.6643449821751522e-10  -4.8011738430032600e-10  -4.9361513493536270e-10  -5.0692048069551601e-10  -5.2002629035571820e-10  -5.3292546033130515e-10  -5.4561168860942070e-10  -5.5807867317721280e-10  -5.7032049898752918e-10  -5.8233152739728963e-10  -5.9410628560586050e-10  -6.0564007474400953e-10  -6.1692786425761311e-10  -6.2796534224314226e-10  -6.3874847320113779e-10  -6.4927349803621114e-10  -6.5953693405705326e-10  -6.6953574081886548e-10  -6.7926704371929026e-10  -6.8872857624493445e-10  -6.9791845884810599e-10  -7.0683470141948120e-10  -7.1547608778114234e-10  -7.2384184400168503e-10  -7.3193130671133660e-10  -7.3974392310194731e-10  -7.4727985901596829e-10  -7.5453944613828704e-10  -7.6152340311948443e-10  -7.6823283557585425e-10  -7.7466929137020195e-10  -7.8083442892696380e-10  -7.8673057004034831e-10  -7.9235992594293505e-10  -7.9772548179870912e-10  -8.0283033333328054e-10  -8.0767790795715065e-10  -8.1227196476569912e-10  -8.1661648397758106e-10  -8.2071544581143979e-10  -8.2457426778708804e-10  -8.2819770405457713e-10  -8.3159106157210068e-10  -8.3475986842110769e-10  -8.3770976324467888e-10  -8.4044704805566670e-10  -8.4297780374366688e-10  -8.4530877456804905e-10  -8.4744670478818284e-10  -8.4939878090995371e-10  -8.5117230000087120e-10  -8.5277489081334727e-10  -8.5421385041489475e-10  -8.5549780261256850e-10  -8.5663492896691894e-10  -8.5763307935360626e-10  -8.5850065645643438e-10  -8.5924672632898249e-10  -8.5987969165505492e-10  -8.6040839736497298e-10  -8.6084268344371744e-10  -8.6119095257509348e-10  -8.6146271305919103e-10  -8.6166747319611461e-10  -8.6181463072432948e-10  -8.6191347282066275e-10  -8.6197328666195663e-10  -8.6200446504133696e-10  -8.6201593921515986e-10  -8.6201758832165995e-10  </DataArray> 
</PointData> 
</Piece>
</UnstructuredGrid>
</VTKFile>