<?xml version="1.0"?>
<VTKFile type="UnstructuredGrid"  version="0.1"  >
<UnstructuredGrid>
<Piece  NumberOfPoints="101" NumberOfCells="100">
<Points>
<DataArray  type="Float64"  NumberOfComponents="3"  format="ascii">0 0 0  0.01 0 0  0.02 0 0  0.03 0 0  0.04 0 0  0.05 0 0  0.06 0 0  0.07000000000000001 0 0  0.08 0 0  0.09 0 0  0.1 0 0  0.11 0 0  0.12 0 0  0.13 0 0  0.14 0 0  0.15 0 0  0.16 0 0  0.17 0 0  0.18 0 0  0.19 0 0  0.2 0 0  0.21 0 0  0.22 0 0  0.23 0 0  0.24 0 0  0.25 0 0  0.26 0 0  0.27 0 0  0.28 0 0  0.29 0 0  0.3 0 0  0.31 0 0  0.32 0 0  0.33 0 0  0.34 0 0  0.35 0 0  0.36 0 0  0.37 0 0  0.38 0 0  0.39 0 0  0.4 0 0  0.41 0 0  0.42 0 0  0.43 0 0  0.44 0 0  0.45 0 0  0.46 0 0  0.47 0 0  0.48 0 0  0.49 0 0  0.5 0 0  0.51 0 0  0.52 0 0  0.53 0 0  0.54 0 0  0.55 0 0  0.5600000000000001 0 0  0.57 0 0  0.58 0 0  0.59 0 0  0.6 0 0  0.61 0 0  0.62 0 0  0.63 0 0  0.64 0 0  0.65 0 0  0.66 0 0  0.67 0 0  0.68 0 0  0.6899999999999999 0 0  0.7 0 0  0.71 0 0  0.72 0 0  0.73 0 0  0.74 0 0  0.75 0 0  0.76 0 0  0.77 0 0  0.78 0 0  0.79 0 0  0.8 0 0  0.8100000000000001 0 0  0.82 0 0  0.83 0 0  0.84 0 0  0.85 0 0  0.86 0 0  0.87 0 0  0.88 0 0  0.89 0 0  0.9 0 0  0.91 0 0  0.92 0 0  0.93 0 0  0.9399999999999999 0 0  0.95 0 0  0.96 0 0  0.97 0 0  0.98 0 0  0.99 0 0  1 0 0  </DataArray>
</Points>
<Cells>
<DataArray  type="UInt32"  Name="connectivity"  format="ascii">0 1  1 2  2 3  3 4  4 5  5 6  6 7  7 8  8 9  9 10  10 11  11 12  12 13  13 14  14 15  15 16  16 17  17 18  18 19  19 20  20 21  21 22  22 23  23 24  24 25  25 26  26 27  27 28  28 29  29 30  30 31  31 32  32 33  33 34  34 35  35 36  36 37  37 38  38 39  39 40  40 41  41 42  42 43  43 44  44 45  45 46  46 47  47 48  48 49  49 50  50 51  51 52  52 53  53 54  54 55  55 56  56 57  57 58  58 59  59 60  60 61  61 62  62 63  63 64  64 65  65 66  66 67  67 68  68 69  69 70  70 71  71 72  72 73  73 74  74 75  75 76  76 77  77 78  78 79  79 80  80 81  81 82  82 83  83 84  84 85  85 86  86 87  87 88  88 89  89 90  90 91  91 92  92 93  93 94  94 95  95 96  96 97  97 98  98 99  99 100  </DataArray>
<DataArray  type="UInt32"  Name="offsets"  format="ascii">2 4 6 8 10 12 14 16 18 20 22 24 26 28 30 32 34 36 38 40 42 44 46 48 50 52 54 56 58 60 62 64 66 68 70 72 74 76 78 80 82 84 86 88 90 92 94 96 98 100 102 104 106 108 110 112 114 116 118 120 122 124 126 128 130 132 134 136 138 140 142 144 146 148 150 152 154 156 158 160 162 164 166 168 170 172 174 176 178 180 182 184 186 188 190 192 194 196 198 200 </DataArray>
<DataArray  type="UInt8"  Name="types"  format="ascii">3 3 3 3 3 3 3 3 3 3 3 3 3 3 3 3 3 3 3 3 3 3 3 3 3 3 3 3 3 3 3 3 3 3 3 3 3 3 3 3 3 3 3 3 3 3 3 3 3 3 3 3 3 3 3 3 3 3 3 3 3 3 3 3 3 3 3 3 3 3 3 3 3 3 3 3 3 3 3 3 3 3 3 3 3 3 3 3 3 3 3 3 3 3 3 3 3 3 3 3 </DataArray>
</Cells>
<PointData  Scalars="pressure"> 
<DataArray  type="Float64"  Name="pressure"  format="ascii">4.1538374868278627e+36  2.3434379311089558e+52  1.7154891095044205e+52  1.8837545955333786e+52  1.8386660901508898e+52  1.8507480289786239e+52  1.8475105464551625e+52  1.8483780638803910e+52  1.8481456034282942e+52  1.8482078936085485e+52  1.8481912022592036e+52  1.8481956748407656e+52  1.8481944763246217e+52  1.8481947974387077e+52  1.8481947113518996e+52  1.8481947343788592e+52  1.8481947281676307e+52  1.8481947297910819e+52  1.8481947293151553e+52  1.8481947294017702e+52  1.8481947293376488e+52  1.8481947293139221e+52  1.8481947292793677e+52  1.8481947292477185e+52  1.8481947292152870e+52  1.8481947291830659e+52  1.8481947291507880e+52  1.8481947291185287e+52  1.8481947290862599e+52  1.8481947290539987e+52  1.8481947290217309e+52  1.8481947289894660e+52  1.8481947289572006e+52  1.8481947289249349e+52  1.8481947288926687e+52  1.8481947288604054e+52  1.8481947288281395e+52  1.8481947287958738e+52  1.8481947287636084e+52  1.8481947287313443e+52  1.8481947286990778e+52  1.8481947286668119e+52  1.8481947286345488e+52  1.8481947286022826e+52  1.8481947285700156e+52  1.8481947285377547e+52  1.8481947285054851e+52  1.8481947284732236e+52  1.8481947284409574e+52  1.8481947284086939e+52  1.8481947283764253e+52  1.8481947283441649e+52  1.8481947283118971e+52  1.8481947282796317e+52  1.8481947282473673e+52  1.8481947282151043e+52  1.8481947281828349e+52  1.8481947281505724e+52  1.8481947281183041e+52  1.8481947280860405e+52  1.8481947280537730e+52  1.8481947280215060e+52  1.8481947279892435e+52  1.8481947279569751e+52  1.8481947279247140e+52  1.8481947278924464e+52  1.8481947278601815e+52  1.8481947278279167e+52  1.8481947277956497e+52  1.8481947277633864e+52  1.8481947277311188e+52  1.8481947276988558e+52  1.8481947276665917e+52  1.8481947276343239e+52  1.8481947276020612e+52  1.8481947275697981e+52  1.8481947275375261e+52  1.8481947275052670e+52  1.8481947274729974e+52  1.8481947274407346e+52  1.8481947274084692e+52  1.8481947273762006e+52  1.8481947273439402e+52  1.8481947273116722e+52  1.8481947272794070e+52  1.8481947272471408e+52  1.8481947272148786e+52  1.8481947271826132e+52  1.8481947271503475e+52  1.8481947271180821e+52  1.8481947270858169e+52  1.8481947270535534e+52  1.8481947270212840e+52  1.8481947269890228e+52  1.8481947269567547e+52  1.8481947269244898e+52  1.8481947268922236e+52  1.8481947268599585e+52  1.8481947268276939e+52  1.8481947267954266e+52  1.8481947267631633e+52  </DataArray> 
</PointData> 
</Piece>
</UnstructuredGrid>
</VTKFile>