<?xml version="1.0"?>
<VTKFile type="UnstructuredGrid"  version="0.1"  >
<UnstructuredGrid>
<Piece  NumberOfPoints="101" NumberOfCells="100">
<Points>
<DataArray  type="Float64"  NumberOfComponents="3"  format="ascii">0 0 0  0.01 0 0  0.02 0 0  0.03 0 0  0.04 0 0  0.05 0 0  0.06 0 0  0.07000000000000001 0 0  0.08 0 0  0.09 0 0  0.1 0 0  0.11 0 0  0.12 0 0  0.13 0 0  0.14 0 0  0.15 0 0  0.16 0 0  0.17 0 0  0.18 0 0  0.19 0 0  0.2 0 0  0.21 0 0  0.22 0 0  0.23 0 0  0.24 0 0  0.25 0 0  0.26 0 0  0.27 0 0  0.28 0 0  0.29 0 0  0.3 0 0  0.31 0 0  0.32 0 0  0.33 0 0  0.34 0 0  0.35 0 0  0.36 0 0  0.37 0 0  0.38 0 0  0.39 0 0  0.4 0 0  0.41 0 0  0.42 0 0  0.43 0 0  0.44 0 0  0.45 0 0  0.46 0 0  0.47 0 0  0.48 0 0  0.49 0 0  0.5 0 0  0.51 0 0  0.52 0 0  0.53 0 0  0.54 0 0  0.55 0 0  0.5600000000000001 0 0  0.57 0 0  0.58 0 0  0.59 0 0  0.6 0 0  0.61 0 0  0.62 0 0  0.63 0 0  0.64 0 0  0.65 0 0  0.66 0 0  0.67 0 0  0.68 0 0  0.6899999999999999 0 0  0.7 0 0  0.71 0 0  0.72 0 0  0.73 0 0  0.74 0 0  0.75 0 0  0.76 0 0  0.77 0 0  0.78 0 0  0.79 0 0  0.8 0 0  0.8100000000000001 0 0  0.82 0 0  0.83 0 0  0.84 0 0  0.85 0 0  0.86 0 0  0.87 0 0  0.88 0 0  0.89 0 0  0.9 0 0  0.91 0 0  0.92 0 0  0.93 0 0  0.9399999999999999 0 0  0.95 0 0  0.96 0 0  0.97 0 0  0.98 0 0  0.99 0 0  1 0 0  </DataArray>
</Points>
<Cells>
<DataArray  type="UInt32"  Name="connectivity"  format="ascii">0 1  1 2  2 3  3 4  4 5  5 6  6 7  7 8  8 9  9 10  10 11  11 12  12 13  13 14  14 15  15 16  16 17  17 18  18 19  19 20  20 21  21 22  22 23  23 24  24 25  25 26  26 27  27 28  28 29  29 30  30 31  31 32  32 33  33 34  34 35  35 36  36 37  37 38  38 39  39 40  40 41  41 42  42 43  43 44  44 45  45 46  46 47  47 48  48 49  49 50  50 51  51 52  52 53  53 54  54 55  55 56  56 57  57 58  58 59  59 60  60 61  61 62  62 63  63 64  64 65  65 66  66 67  67 68  68 69  69 70  70 71  71 72  72 73  73 74  74 75  75 76  76 77  77 78  78 79  79 80  80 81  81 82  82 83  83 84  84 85  85 86  86 87  87 88  88 89  89 90  90 91  91 92  92 93  93 94  94 95  95 96  96 97  97 98  98 99  99 100  </DataArray>
<DataArray  type="UInt32"  Name="offsets"  format="ascii">2 4 6 8 10 12 14 16 18 20 22 24 26 28 30 32 34 36 38 40 42 44 46 48 50 52 54 56 58 60 62 64 66 68 70 72 74 76 78 80 82 84 86 88 90 92 94 96 98 100 102 104 106 108 110 112 114 116 118 120 122 124 126 128 130 132 134 136 138 140 142 144 146 148 150 152 154 156 158 160 162 164 166 168 170 172 174 176 178 180 182 184 186 188 190 192 194 196 198 200 </DataArray>
<DataArray  type="UInt8"  Name="types"  format="ascii">3 3 3 3 3 3 3 3 3 3 3 3 3 3 3 3 3 3 3 3 3 3 3 3 3 3 3 3 3 3 3 3 3 3 3 3 3 3 3 3 3 3 3 3 3 3 3 3 3 3 3 3 3 3 3 3 3 3 3 3 3 3 3 3 3 3 3 3 3 3 3 3 3 3 3 3 3 3 3 3 3 3 3 3 3 3 3 3 3 3 3 3 3 3 3 3 3 3 3 3 </DataArray>
</Cells>
<PointData  Scalars="pressure"> 
<DataArray  type="Float64"  Name="pressure"  format="ascii">-4.0657581468206401e-18  2.3176342230353149e-02  4.6328077758320832e-02  6.9442304109368927e-02  9.2506158170304567e-02  1.1550684177587742e-01  1.3843164693013130e-01  1.6126798053368832e-01  1.8400338849380379e-01  2.0662557910051169e-01  2.2912244555943170e-01  2.5148208757976920e-01  2.7369283192464555e-01  2.9574325184007250e-01  3.1762218528855657e-01  3.3931875192341121e-01  3.6082236875026702e-01  3.8212276443290938e-01  4.0320999221137305e-01  4.2407444141103090e-01  4.4470684753219181e-01  4.6509830092032939e-01  4.8524025402744486e-01  5.0512452728509905e-01  5.2474331361930182e-01  5.4408918164659825e-01  5.6315507759932981e-01  5.8193432603605932e-01  6.0042062940055918e-01  6.1860806649945843e-01  6.3649108997460724e-01  6.5406452285148453e-01  6.7132355424938828e-01  6.8826373434281374e-01  7.0488096866624617e-01  7.2117151185656758e-01  7.3713196092843869e-01  7.5275924817827755e-01  7.6805063381190897e-01  7.8300369838953443e-01  7.9761633517943609e-01  8.1188674250878201e-01  8.2581341619606397e-01  8.3939514214515842e-01  8.5263098917574143e-01  8.6552030215892117e-01  8.7806269552052896e-01  8.9025804716758217e-01  9.0210649288610711e-01  9.1360842125087560e-01  9.2476446907972165e-01  9.3557551745707657e-01  9.4604268834329053e-01  9.5616734177826823e-01  9.6595107367998234e-01  9.7539571423074400e-01  9.8450332683657937e-01  9.9327620763795677e-01  1.0017168855433187e+00  1.0098281227505559e+00  1.0176129157156697e+00  1.0250744965225187e+00  1.0322163346026632e+00  1.0390421387500028e+00  1.0455558593711203e+00  1.0517616909089784e+00  1.0576640743749606e+00  1.0632676999220685e+00  1.0685775093905381e+00  1.0735986987561013e+00  1.0783367204106726e+00  1.0827972852053835e+00  1.0869863641865964e+00  1.0909101899568907e+00  1.0945752575949288e+00  1.0979883250707325e+00  1.1011564130960969e+00  1.1040868043537089e+00  1.1067870420530523e+00  1.1092649277661855e+00  1.1115285185021537e+00  1.1135861229848945e+00  1.1154462971060521e+00  1.1171178385310392e+00  1.1186097804438453e+00  1.1199313844234191e+00  1.1210921324518539e+00  1.1221017180619293e+00  1.1229700366388080e+00  1.1237071748976495e+00  1.1243233995656434e+00  1.1248291453033343e+00  1.1252350019061079e+00  1.1255517008323377e+00  1.1257901011098577e+00  1.1259611746772076e+00  1.1260759912204170e+00  1.1261457025699342e+00  1.1261815267257169e+00  1.1261947315813203e+00  1.1261966184201826e+00  </DataArray> 
</PointData> 
</Piece>
</UnstructuredGrid>
</VTKFile>