<?xml version="1.0"?>
<VTKFile type="UnstructuredGrid"  version="0.1"  >
<UnstructuredGrid>
<Piece  NumberOfPoints="101" NumberOfCells="100">
<Points>
<DataArray  type="Float64"  NumberOfComponents="3"  format="ascii">0 0 0  0.01 0 0  0.02 0 0  0.03 0 0  0.04 0 0  0.05 0 0  0.06 0 0  0.07000000000000001 0 0  0.08 0 0  0.09 0 0  0.1 0 0  0.11 0 0  0.12 0 0  0.13 0 0  0.14 0 0  0.15 0 0  0.16 0 0  0.17 0 0  0.18 0 0  0.19 0 0  0.2 0 0  0.21 0 0  0.22 0 0  0.23 0 0  0.24 0 0  0.25 0 0  0.26 0 0  0.27 0 0  0.28 0 0  0.29 0 0  0.3 0 0  0.31 0 0  0.32 0 0  0.33 0 0  0.34 0 0  0.35 0 0  0.36 0 0  0.37 0 0  0.38 0 0  0.39 0 0  0.4 0 0  0.41 0 0  0.42 0 0  0.43 0 0  0.44 0 0  0.45 0 0  0.46 0 0  0.47 0 0  0.48 0 0  0.49 0 0  0.5 0 0  0.51 0 0  0.52 0 0  0.53 0 0  0.54 0 0  0.55 0 0  0.5600000000000001 0 0  0.57 0 0  0.58 0 0  0.59 0 0  0.6 0 0  0.61 0 0  0.62 0 0  0.63 0 0  0.64 0 0  0.65 0 0  0.66 0 0  0.67 0 0  0.68 0 0  0.6899999999999999 0 0  0.7 0 0  0.71 0 0  0.72 0 0  0.73 0 0  0.74 0 0  0.75 0 0  0.76 0 0  0.77 0 0  0.78 0 0  0.79 0 0  0.8 0 0  0.8100000000000001 0 0  0.82 0 0  0.83 0 0  0.84 0 0  0.85 0 0  0.86 0 0  0.87 0 0  0.88 0 0  0.89 0 0  0.9 0 0  0.91 0 0  0.92 0 0  0.93 0 0  0.9399999999999999 0 0  0.95 0 0  0.96 0 0  0.97 0 0  0.98 0 0  0.99 0 0  1 0 0  </DataArray>
</Points>
<Cells>
<DataArray  type="UInt32"  Name="connectivity"  format="ascii">0 1  1 2  2 3  3 4  4 5  5 6  6 7  7 8  8 9  9 10  10 11  11 12  12 13  13 14  14 15  15 16  16 17  17 18  18 19  19 20  20 21  21 22  22 23  23 24  24 25  25 26  26 27  27 28  28 29  29 30  30 31  31 32  32 33  33 34  34 35  35 36  36 37  37 38  38 39  39 40  40 41  41 42  42 43  43 44  44 45  45 46  46 47  47 48  48 49  49 50  50 51  51 52  52 53  53 54  54 55  55 56  56 57  57 58  58 59  59 60  60 61  61 62  62 63  63 64  64 65  65 66  66 67  67 68  68 69  69 70  70 71  71 72  72 73  73 74  74 75  75 76  76 77  77 78  78 79  79 80  80 81  81 82  82 83  83 84  84 85  85 86  86 87  87 88  88 89  89 90  90 91  91 92  92 93  93 94  94 95  95 96  96 97  97 98  98 99  99 100  </DataArray>
<DataArray  type="UInt32"  Name="offsets"  format="ascii">2 4 6 8 10 12 14 16 18 20 22 24 26 28 30 32 34 36 38 40 42 44 46 48 50 52 54 56 58 60 62 64 66 68 70 72 74 76 78 80 82 84 86 88 90 92 94 96 98 100 102 104 106 108 110 112 114 116 118 120 122 124 126 128 130 132 134 136 138 140 142 144 146 148 150 152 154 156 158 160 162 164 166 168 170 172 174 176 178 180 182 184 186 188 190 192 194 196 198 200 </DataArray>
<DataArray  type="UInt8"  Name="types"  format="ascii">3 3 3 3 3 3 3 3 3 3 3 3 3 3 3 3 3 3 3 3 3 3 3 3 3 3 3 3 3 3 3 3 3 3 3 3 3 3 3 3 3 3 3 3 3 3 3 3 3 3 3 3 3 3 3 3 3 3 3 3 3 3 3 3 3 3 3 3 3 3 3 3 3 3 3 3 3 3 3 3 3 3 3 3 3 3 3 3 3 3 3 3 3 3 3 3 3 3 3 3 </DataArray>
</Cells>
<PointData  Scalars="pressure"> 
<DataArray  type="Float64"  Name="pressure"  format="ascii">0.0000000000000000e+00  -5.4209012171531289e-07  -1.0786947213121968e-06  -1.6096577000053788e-06  -2.1348284585959783e-06  -2.6540619352151817e-06  -3.1672186379577606e-06  -3.6741646725483785e-06  -4.1747717651812068e-06  -4.6689172804343817e-06  -5.1564842344026251e-06  -5.6373613033901649e-06  -6.1114428278633333e-06  -6.5786288119668182e-06  -7.0388249188317290e-06  -7.4919424615164698e-06  -7.9378983897185887e-06  -8.3766152725962374e-06  -8.8080212778306473e-06  -9.2320501464180043e-06  -9.6486411642965683e-06  -1.0057739130090378e-05  -1.0459294319245795e-05  -1.0853262445307219e-05  -1.1239604617668877e-05  -1.1618287296465558e-05  -1.1989282243842579e-05  -1.2352566473484468e-05  -1.2708122196412068e-05  -1.3055936764623826e-05  -1.3396002612608618e-05  -1.3728317195679900e-05  -1.4052882926817643e-05  -1.4369707111187967e-05  -1.4678801878562468e-05  -1.4980184114134302e-05  -1.5273875386984737e-05  -1.5559901878328527e-05  -1.5838294306719305e-05  -1.6109087852480456e-05  -1.6372322081030630e-05  -1.6628040864882754e-05  -1.6876292305034418e-05  -1.7117128650534316e-05  -1.7350606218270032e-05  -1.7576785311262782e-05  -1.7795730136299031e-05  -1.8007508721949178e-05  -1.8212192835425068e-05  -1.8409857898774155e-05  -1.8600582906235052e-05  -1.8784450339933999e-05  -1.8961546086355626e-05  -1.9131959352205600e-05  -1.9295782581599889e-05  -1.9453111371485190e-05  -1.9604044389712586e-05  -1.9748683291177032e-05  -1.9887132635724802e-05  -2.0019499806171998e-05  -2.0145894926544811e-05  -2.0266430780760996e-05  -2.0381222732528073e-05  -2.0490388645683665e-05  -2.0594048804978149e-05  -2.0692325837520527e-05  -2.0785344635274795e-05  -2.0873232278330140e-05  -2.0956117958834433e-05  -2.1034132905923350e-05  -2.1107410311311819e-05  -2.1176085256212767e-05  -2.1240294638367012e-05  -2.1300177100841180e-05  -2.1355872960936581e-05  -2.1407524140977765e-05  -2.1455274098548024e-05  -2.1499267759931298e-05  -2.1539651452559142e-05  -2.1576572837567943e-05  -2.1610180846557827e-05  -2.1640625616139954e-05  -2.1668058424474734e-05  -2.1692631628472058e-05  -2.1714498602650892e-05  -2.1733813677667470e-05  -2.1750732078621526e-05  -2.1765409867343166e-05  -2.1778003882579100e-05  -2.1788671681394924e-05  -2.1797571482346439e-05  -2.1804862107324310e-05  -2.1810702925609775e-05  -2.1815253797267033e-05  -2.1818675017641806e-05  -2.1821127262300992e-05  -2.1822771532083568e-05  -2.1823769097930918e-05  -2.1824281446932312e-05  -2.1824470228072649e-05  -2.1824497198175975e-05  </DataArray> 
</PointData> 
</Piece>
</UnstructuredGrid>
</VTKFile>