<?xml version="1.0"?>
<VTKFile type="UnstructuredGrid"  version="0.1"  >
<UnstructuredGrid>
<Piece  NumberOfPoints="101" NumberOfCells="100">
<Points>
<DataArray  type="Float64"  NumberOfComponents="3"  format="ascii">0 0 0  0.01 0 0  0.02 0 0  0.03 0 0  0.04 0 0  0.05 0 0  0.06 0 0  0.07000000000000001 0 0  0.08 0 0  0.09 0 0  0.1 0 0  0.11 0 0  0.12 0 0  0.13 0 0  0.14 0 0  0.15 0 0  0.16 0 0  0.17 0 0  0.18 0 0  0.19 0 0  0.2 0 0  0.21 0 0  0.22 0 0  0.23 0 0  0.24 0 0  0.25 0 0  0.26 0 0  0.27 0 0  0.28 0 0  0.29 0 0  0.3 0 0  0.31 0 0  0.32 0 0  0.33 0 0  0.34 0 0  0.35 0 0  0.36 0 0  0.37 0 0  0.38 0 0  0.39 0 0  0.4 0 0  0.41 0 0  0.42 0 0  0.43 0 0  0.44 0 0  0.45 0 0  0.46 0 0  0.47 0 0  0.48 0 0  0.49 0 0  0.5 0 0  0.51 0 0  0.52 0 0  0.53 0 0  0.54 0 0  0.55 0 0  0.5600000000000001 0 0  0.57 0 0  0.58 0 0  0.59 0 0  0.6 0 0  0.61 0 0  0.62 0 0  0.63 0 0  0.64 0 0  0.65 0 0  0.66 0 0  0.67 0 0  0.68 0 0  0.6899999999999999 0 0  0.7 0 0  0.71 0 0  0.72 0 0  0.73 0 0  0.74 0 0  0.75 0 0  0.76 0 0  0.77 0 0  0.78 0 0  0.79 0 0  0.8 0 0  0.8100000000000001 0 0  0.82 0 0  0.83 0 0  0.84 0 0  0.85 0 0  0.86 0 0  0.87 0 0  0.88 0 0  0.89 0 0  0.9 0 0  0.91 0 0  0.92 0 0  0.93 0 0  0.9399999999999999 0 0  0.95 0 0  0.96 0 0  0.97 0 0  0.98 0 0  0.99 0 0  1 0 0  </DataArray>
</Points>
<Cells>
<DataArray  type="UInt32"  Name="connectivity"  format="ascii">0 1  1 2  2 3  3 4  4 5  5 6  6 7  7 8  8 9  9 10  10 11  11 12  12 13  13 14  14 15  15 16  16 17  17 18  18 19  19 20  20 21  21 22  22 23  23 24  24 25  25 26  26 27  27 28  28 29  29 30  30 31  31 32  32 33  33 34  34 35  35 36  36 37  37 38  38 39  39 40  40 41  41 42  42 43  43 44  44 45  45 46  46 47  47 48  48 49  49 50  50 51  51 52  52 53  53 54  54 55  55 56  56 57  57 58  58 59  59 60  60 61  61 62  62 63  63 64  64 65  65 66  66 67  67 68  68 69  69 70  70 71  71 72  72 73  73 74  74 75  75 76  76 77  77 78  78 79  79 80  80 81  81 82  82 83  83 84  84 85  85 86  86 87  87 88  88 89  89 90  90 91  91 92  92 93  93 94  94 95  95 96  96 97  97 98  98 99  99 100  </DataArray>
<DataArray  type="UInt32"  Name="offsets"  format="ascii">2 4 6 8 10 12 14 16 18 20 22 24 26 28 30 32 34 36 38 40 42 44 46 48 50 52 54 56 58 60 62 64 66 68 70 72 74 76 78 80 82 84 86 88 90 92 94 96 98 100 102 104 106 108 110 112 114 116 118 120 122 124 126 128 130 132 134 136 138 140 142 144 146 148 150 152 154 156 158 160 162 164 166 168 170 172 174 176 178 180 182 184 186 188 190 192 194 196 198 200 </DataArray>
<DataArray  type="UInt8"  Name="types"  format="ascii">3 3 3 3 3 3 3 3 3 3 3 3 3 3 3 3 3 3 3 3 3 3 3 3 3 3 3 3 3 3 3 3 3 3 3 3 3 3 3 3 3 3 3 3 3 3 3 3 3 3 3 3 3 3 3 3 3 3 3 3 3 3 3 3 3 3 3 3 3 3 3 3 3 3 3 3 3 3 3 3 3 3 3 3 3 3 3 3 3 3 3 3 3 3 3 3 3 3 3 3 </DataArray>
</Cells>
<PointData  Scalars="pressure"> 
<DataArray  type="Float64"  Name="pressure"  format="ascii">4.2949672960000006e+11  2.2580046727283705e+27  1.6529449363919149e+27  1.8150780306484864e+27  1.7716325017988128e+27  1.7832742581481436e+27  1.7801547083677719e+27  1.7809906295782330e+27  1.7807666343683161e+27  1.7808266566168380e+27  1.7808105729431223e+27  1.7808148827741882e+27  1.7808137279183461e+27  1.7808140373916286e+27  1.7808139544801618e+27  1.7808139767129538e+27  1.7808139707710613e+27  1.7808139723789145e+27  1.7808139719637301e+27  1.7808139720906344e+27  1.7808139720722827e+27  1.7808139720928570e+27  1.7808139721029970e+27  1.7808139721159369e+27  1.7808139721281236e+27  1.7808139721405115e+27  1.7808139721528453e+27  1.7808139721651977e+27  1.7808139721775387e+27  1.7808139721898895e+27  1.7808139722022323e+27  1.7808139722145798e+27  1.7808139722269249e+27  1.7808139722392707e+27  1.7808139722516155e+27  1.7808139722639619e+27  1.7808139722763092e+27  1.7808139722886542e+27  1.7808139723009995e+27  1.7808139723133473e+27  1.7808139723256913e+27  1.7808139723380360e+27  1.7808139723503849e+27  1.7808139723627300e+27  1.7808139723750750e+27  1.7808139723874250e+27  1.7808139723997667e+27  1.7808139724121159e+27  1.7808139724244612e+27  1.7808139724368090e+27  1.7808139724491516e+27  1.7808139724615013e+27  1.7808139724738455e+27  1.7808139724861905e+27  1.7808139724985375e+27  1.7808139725108856e+27  1.7808139725232276e+27  1.7808139725355759e+27  1.7808139725479207e+27  1.7808139725602657e+27  1.7808139725726102e+27  1.7808139725849550e+27  1.7808139725973031e+27  1.7808139726096465e+27  1.7808139726219962e+27  1.7808139726343412e+27  1.7808139726466857e+27  1.7808139726590318e+27  1.7808139726713772e+27  1.7808139726837255e+27  1.7808139726960689e+27  1.7808139727084170e+27  1.7808139727207659e+27  1.7808139727331065e+27  1.7808139727454557e+27  1.7808139727578034e+27  1.7808139727701435e+27  1.7808139727824952e+27  1.7808139727948380e+27  1.7808139728071866e+27  1.7808139728195320e+27  1.7808139728318751e+27  1.7808139728442253e+27  1.7808139728565674e+27  1.7808139728689151e+27  1.7808139728812596e+27  1.7808139728936088e+27  1.7808139729059536e+27  1.7808139729182986e+27  1.7808139729306445e+27  1.7808139729429898e+27  1.7808139729553384e+27  1.7808139729676791e+27  1.7808139729800293e+27  1.7808139729923744e+27  1.7808139730047197e+27  1.7808139730170655e+27  1.7808139730294117e+27  1.7808139730417581e+27  1.7808139730541020e+27  1.7808139730664487e+27  </DataArray> 
</PointData> 
</Piece>
</UnstructuredGrid>
</VTKFile>