<?xml version="1.0"?>
<VTKFile type="UnstructuredGrid"  version="0.1"  >
<UnstructuredGrid>
<Piece  NumberOfPoints="101" NumberOfCells="100">
<Points>
<DataArray  type="Float64"  NumberOfComponents="3"  format="ascii">0 0 0  0.01 0 0  0.02 0 0  0.03 0 0  0.04 0 0  0.05 0 0  0.06 0 0  0.07000000000000001 0 0  0.08 0 0  0.09 0 0  0.1 0 0  0.11 0 0  0.12 0 0  0.13 0 0  0.14 0 0  0.15 0 0  0.16 0 0  0.17 0 0  0.18 0 0  0.19 0 0  0.2 0 0  0.21 0 0  0.22 0 0  0.23 0 0  0.24 0 0  0.25 0 0  0.26 0 0  0.27 0 0  0.28 0 0  0.29 0 0  0.3 0 0  0.31 0 0  0.32 0 0  0.33 0 0  0.34 0 0  0.35 0 0  0.36 0 0  0.37 0 0  0.38 0 0  0.39 0 0  0.4 0 0  0.41 0 0  0.42 0 0  0.43 0 0  0.44 0 0  0.45 0 0  0.46 0 0  0.47 0 0  0.48 0 0  0.49 0 0  0.5 0 0  0.51 0 0  0.52 0 0  0.53 0 0  0.54 0 0  0.55 0 0  0.5600000000000001 0 0  0.57 0 0  0.58 0 0  0.59 0 0  0.6 0 0  0.61 0 0  0.62 0 0  0.63 0 0  0.64 0 0  0.65 0 0  0.66 0 0  0.67 0 0  0.68 0 0  0.6899999999999999 0 0  0.7 0 0  0.71 0 0  0.72 0 0  0.73 0 0  0.74 0 0  0.75 0 0  0.76 0 0  0.77 0 0  0.78 0 0  0.79 0 0  0.8 0 0  0.8100000000000001 0 0  0.82 0 0  0.83 0 0  0.84 0 0  0.85 0 0  0.86 0 0  0.87 0 0  0.88 0 0  0.89 0 0  0.9 0 0  0.91 0 0  0.92 0 0  0.93 0 0  0.9399999999999999 0 0  0.95 0 0  0.96 0 0  0.97 0 0  0.98 0 0  0.99 0 0  1 0 0  </DataArray>
</Points>
<Cells>
<DataArray  type="UInt32"  Name="connectivity"  format="ascii">0 1  1 2  2 3  3 4  4 5  5 6  6 7  7 8  8 9  9 10  10 11  11 12  12 13  13 14  14 15  15 16  16 17  17 18  18 19  19 20  20 21  21 22  22 23  23 24  24 25  25 26  26 27  27 28  28 29  29 30  30 31  31 32  32 33  33 34  34 35  35 36  36 37  37 38  38 39  39 40  40 41  41 42  42 43  43 44  44 45  45 46  46 47  47 48  48 49  49 50  50 51  51 52  52 53  53 54  54 55  55 56  56 57  57 58  58 59  59 60  60 61  61 62  62 63  63 64  64 65  65 66  66 67  67 68  68 69  69 70  70 71  71 72  72 73  73 74  74 75  75 76  76 77  77 78  78 79  79 80  80 81  81 82  82 83  83 84  84 85  85 86  86 87  87 88  88 89  89 90  90 91  91 92  92 93  93 94  94 95  95 96  96 97  97 98  98 99  99 100  </DataArray>
<DataArray  type="UInt32"  Name="offsets"  format="ascii">2 4 6 8 10 12 14 16 18 20 22 24 26 28 30 32 34 36 38 40 42 44 46 48 50 52 54 56 58 60 62 64 66 68 70 72 74 76 78 80 82 84 86 88 90 92 94 96 98 100 102 104 106 108 110 112 114 116 118 120 122 124 126 128 130 132 134 136 138 140 142 144 146 148 150 152 154 156 158 160 162 164 166 168 170 172 174 176 178 180 182 184 186 188 190 192 194 196 198 200 </DataArray>
<DataArray  type="UInt8"  Name="types"  format="ascii">3 3 3 3 3 3 3 3 3 3 3 3 3 3 3 3 3 3 3 3 3 3 3 3 3 3 3 3 3 3 3 3 3 3 3 3 3 3 3 3 3 3 3 3 3 3 3 3 3 3 3 3 3 3 3 3 3 3 3 3 3 3 3 3 3 3 3 3 3 3 3 3 3 3 3 3 3 3 3 3 3 3 3 3 3 3 3 3 3 3 3 3 3 3 3 3 3 3 3 3 </DataArray>
</Cells>
<PointData  Scalars="pressure"> 
<DataArray  type="Float64"  Name="pressure"  format="ascii">1.8889465931478584e+24  1.9216037408241705e+40  1.4066919361254633e+40  1.5446673998984563e+40  1.5076955762408119e+40  1.5176025245662540e+40  1.5149478647888429e+40  1.5156592061139819e+40  1.5154685957675441e+40  1.5155196718595052e+40  1.5155059857958376e+40  1.5155096533612379e+40  1.5155086708584173e+40  1.5155089343851374e+40  1.5155088640265143e+40  1.5155088831356152e+40  1.5155088782709946e+40  1.5155088798303566e+40  1.5155088796683572e+40  1.5155088799676067e+40  1.5155088801432617e+40  1.5155088803520381e+40  1.5155088805519366e+40  1.5155088807542165e+40  1.5155088809558554e+40  1.5155088811576672e+40  1.5155088813594316e+40  1.5155088815612113e+40  1.5155088817629839e+40  1.5155088819647618e+40  1.5155088821665364e+40  1.5155088823683104e+40  1.5155088825700852e+40  1.5155088827718608e+40  1.5155088829736346e+40  1.5155088831754116e+40  1.5155088833771864e+40  1.5155088835789609e+40  1.5155088837807364e+40  1.5155088839825124e+40  1.5155088841842860e+40  1.5155088843860616e+40  1.5155088845878378e+40  1.5155088847896128e+40  1.5155088849913876e+40  1.5155088851931656e+40  1.5155088853949370e+40  1.5155088855967149e+40  1.5155088857984895e+40  1.5155088860002662e+40  1.5155088862020388e+40  1.5155088864038168e+40  1.5155088866055906e+40  1.5155088868073659e+40  1.5155088870091414e+40  1.5155088872109184e+40  1.5155088874126903e+40  1.5155088876144677e+40  1.5155088878162406e+40  1.5155088880180164e+40  1.5155088882197900e+40  1.5155088884215652e+40  1.5155088886233412e+40  1.5155088888251143e+40  1.5155088890268923e+40  1.5155088892286666e+40  1.5155088894304404e+40  1.5155088896322167e+40  1.5155088898339907e+40  1.5155088900357677e+40  1.5155088902375411e+40  1.5155088904393173e+40  1.5155088906410938e+40  1.5155088908428657e+40  1.5155088910446439e+40  1.5155088912464199e+40  1.5155088914481913e+40  1.5155088916499690e+40  1.5155088918517426e+40  1.5155088920535191e+40  1.5155088922552944e+40  1.5155088924570667e+40  1.5155088926588454e+40  1.5155088928606183e+40  1.5155088930623943e+40  1.5155088932641688e+40  1.5155088934659468e+40  1.5155088936677213e+40  1.5155088938694956e+40  1.5155088940712711e+40  1.5155088942730459e+40  1.5155088944748227e+40  1.5155088946765943e+40  1.5155088948783730e+40  1.5155088950801463e+40  1.5155088952819223e+40  1.5155088954836962e+40  1.5155088956854719e+40  1.5155088958872470e+40  1.5155088960890213e+40  1.5155088962907968e+40  </DataArray> 
</PointData> 
</Piece>
</UnstructuredGrid>
</VTKFile>