<?xml version="1.0"?>
<VTKFile type="UnstructuredGrid"  version="0.1"  >
<UnstructuredGrid>
<Piece  NumberOfPoints="101" NumberOfCells="100">
<Points>
<DataArray  type="Float64"  NumberOfComponents="3"  format="ascii">0 0 0  0.01 0 0  0.02 0 0  0.03 0 0  0.04 0 0  0.05 0 0  0.06 0 0  0.07000000000000001 0 0  0.08 0 0  0.09 0 0  0.1 0 0  0.11 0 0  0.12 0 0  0.13 0 0  0.14 0 0  0.15 0 0  0.16 0 0  0.17 0 0  0.18 0 0  0.19 0 0  0.2 0 0  0.21 0 0  0.22 0 0  0.23 0 0  0.24 0 0  0.25 0 0  0.26 0 0  0.27 0 0  0.28 0 0  0.29 0 0  0.3 0 0  0.31 0 0  0.32 0 0  0.33 0 0  0.34 0 0  0.35 0 0  0.36 0 0  0.37 0 0  0.38 0 0  0.39 0 0  0.4 0 0  0.41 0 0  0.42 0 0  0.43 0 0  0.44 0 0  0.45 0 0  0.46 0 0  0.47 0 0  0.48 0 0  0.49 0 0  0.5 0 0  0.51 0 0  0.52 0 0  0.53 0 0  0.54 0 0  0.55 0 0  0.5600000000000001 0 0  0.57 0 0  0.58 0 0  0.59 0 0  0.6 0 0  0.61 0 0  0.62 0 0  0.63 0 0  0.64 0 0  0.65 0 0  0.66 0 0  0.67 0 0  0.68 0 0  0.6899999999999999 0 0  0.7 0 0  0.71 0 0  0.72 0 0  0.73 0 0  0.74 0 0  0.75 0 0  0.76 0 0  0.77 0 0  0.78 0 0  0.79 0 0  0.8 0 0  0.8100000000000001 0 0  0.82 0 0  0.83 0 0  0.84 0 0  0.85 0 0  0.86 0 0  0.87 0 0  0.88 0 0  0.89 0 0  0.9 0 0  0.91 0 0  0.92 0 0  0.93 0 0  0.9399999999999999 0 0  0.95 0 0  0.96 0 0  0.97 0 0  0.98 0 0  0.99 0 0  1 0 0  </DataArray>
</Points>
<Cells>
<DataArray  type="UInt32"  Name="connectivity"  format="ascii">0 1  1 2  2 3  3 4  4 5  5 6  6 7  7 8  8 9  9 10  10 11  11 12  12 13  13 14  14 15  15 16  16 17  17 18  18 19  19 20  20 21  21 22  22 23  23 24  24 25  25 26  26 27  27 28  28 29  29 30  30 31  31 32  32 33  33 34  34 35  35 36  36 37  37 38  38 39  39 40  40 41  41 42  42 43  43 44  44 45  45 46  46 47  47 48  48 49  49 50  50 51  51 52  52 53  53 54  54 55  55 56  56 57  57 58  58 59  59 60  60 61  61 62  62 63  63 64  64 65  65 66  66 67  67 68  68 69  69 70  70 71  71 72  72 73  73 74  74 75  75 76  76 77  77 78  78 79  79 80  80 81  81 82  82 83  83 84  84 85  85 86  86 87  87 88  88 89  89 90  90 91  91 92  92 93  93 94  94 95  95 96  96 97  97 98  98 99  99 100  </DataArray>
<DataArray  type="UInt32"  Name="offsets"  format="ascii">2 4 6 8 10 12 14 16 18 20 22 24 26 28 30 32 34 36 38 40 42 44 46 48 50 52 54 56 58 60 62 64 66 68 70 72 74 76 78 80 82 84 86 88 90 92 94 96 98 100 102 104 106 108 110 112 114 116 118 120 122 124 126 128 130 132 134 136 138 140 142 144 146 148 150 152 154 156 158 160 162 164 166 168 170 172 174 176 178 180 182 184 186 188 190 192 194 196 198 200 </DataArray>
<DataArray  type="UInt8"  Name="types"  format="ascii">3 3 3 3 3 3 3 3 3 3 3 3 3 3 3 3 3 3 3 3 3 3 3 3 3 3 3 3 3 3 3 3 3 3 3 3 3 3 3 3 3 3 3 3 3 3 3 3 3 3 3 3 3 3 3 3 3 3 3 3 3 3 3 3 3 3 3 3 3 3 3 3 3 3 3 3 3 3 3 3 3 3 3 3 3 3 3 3 3 3 3 3 3 3 3 3 3 3 3 3 </DataArray>
</Cells>
<PointData  Scalars="pressure"> 
<DataArray  type="Float64"  Name="pressure"  format="ascii">-8.2718061255302732e-23  -8.7873406550387985e-07  -1.7429214622229732e-06  -2.5924392372870128e-06  -3.4271781520595544e-06  -4.2470425009429261e-06  -5.0519499182685618e-06  -5.8418311739618093e-06  -6.6166299582974576e-06  -7.3763026563643897e-06  -8.1208181124207110e-06  -8.8501573851863230e-06  -9.5643134939174830e-06  -1.0263291156251235e-05  -1.0947106518041238e-05  -1.1615786875944840e-05  -1.2269370392878864e-05  -1.2907905807491233e-05  -1.3531452137662479e-05  -1.4140078378395952e-05  -1.4733863195423901e-05  -1.5312894614004267e-05  -1.5877269704262166e-05  -1.6427094263449538e-05  -1.6962482495067901e-05  -1.7483556686249214e-05  -1.7990446882953652e-05  -1.8483290564116779e-05  -1.8962232315437431e-05  -1.9427423502336595e-05  -1.9879021943772720e-05  -2.0317191586416611e-05  -2.0742102180374414e-05  -2.1153928956402716e-05  -2.1552852304920518e-05  -2.1939057458310626e-05  -2.2312734175818707e-05  -2.2674076432294643e-05  -2.3023282109947049e-05  -2.3360552695404129e-05  -2.3686092980478666e-05  -2.4000110768737648e-05  -2.4302816587157297e-05  -2.4594423403582799e-05  -2.4875146350158647e-05  -2.5145202452894751e-05  -2.5404810368916633e-05  -2.5654190130073342e-05  -2.5893562893399465e-05  -2.6123150700422482e-05  -2.6343176242883035e-05  -2.6553862637962843e-05  -2.6755433210478345e-05  -2.6948111283974566e-05  -2.7132119981216545e-05  -2.7307682032365055e-05  -2.7475019592715441e-05  -2.7634354069945865e-05  -2.7785905959821776e-05  -2.7929894691575637e-05  -2.8066538483403496e-05  -2.8196054206307892e-05  -2.8318657257946987e-05  -2.8434561446545047e-05  -2.8543978883979230e-05  -2.8647119887877321e-05  -2.8744192894882038e-05  -2.8835404381267994e-05  -2.8920958795719744e-05  -2.9001058499629517e-05  -2.9075903716237750e-05  -2.9145692492047249e-05  -2.9210620664097696e-05  -2.9270881838073845e-05  -2.9326667374485427e-05  -2.9378166384244712e-05  -2.9425565731983331e-05  -2.9469050048988054e-05  -2.9508801752880675e-05  -2.9545001075147928e-05  -2.9577826099064086e-05  -2.9607452801704185e-05  -2.9634055105024264e-05  -2.9657804933463034e-05  -2.9678872277957133e-05  -2.9697425267364703e-05  -2.9713630244420656e-05  -2.9727651849321318e-05  -2.9739653107399926e-05  -2.9749795522108843e-05  -2.9758239173751187e-05  -2.9765142821971345e-05  -2.9770664011230936e-05  -2.9774959183249666e-05  -2.9778183789226088e-05  -2.9780492408469467e-05  -2.9782038866590089e-05  -2.9782976358002396e-05  -2.9783457570527257e-05  -2.9783634809680790e-05  -2.9783660126351523e-05  </DataArray> 
</PointData> 
</Piece>
</UnstructuredGrid>
</VTKFile>