<?xml version="1.0"?>
<VTKFile type="UnstructuredGrid"  version="0.1"  >
<UnstructuredGrid>
<Piece  NumberOfPoints="101" NumberOfCells="100">
<Points>
<DataArray  type="Float64"  NumberOfComponents="3"  format="ascii">0 0 0  0.01 0 0  0.02 0 0  0.03 0 0  0.04 0 0  0.05 0 0  0.06 0 0  0.07000000000000001 0 0  0.08 0 0  0.09 0 0  0.1 0 0  0.11 0 0  0.12 0 0  0.13 0 0  0.14 0 0  0.15 0 0  0.16 0 0  0.17 0 0  0.18 0 0  0.19 0 0  0.2 0 0  0.21 0 0  0.22 0 0  0.23 0 0  0.24 0 0  0.25 0 0  0.26 0 0  0.27 0 0  0.28 0 0  0.29 0 0  0.3 0 0  0.31 0 0  0.32 0 0  0.33 0 0  0.34 0 0  0.35 0 0  0.36 0 0  0.37 0 0  0.38 0 0  0.39 0 0  0.4 0 0  0.41 0 0  0.42 0 0  0.43 0 0  0.44 0 0  0.45 0 0  0.46 0 0  0.47 0 0  0.48 0 0  0.49 0 0  0.5 0 0  0.51 0 0  0.52 0 0  0.53 0 0  0.54 0 0  0.55 0 0  0.5600000000000001 0 0  0.57 0 0  0.58 0 0  0.59 0 0  0.6 0 0  0.61 0 0  0.62 0 0  0.63 0 0  0.64 0 0  0.65 0 0  0.66 0 0  0.67 0 0  0.68 0 0  0.6899999999999999 0 0  0.7 0 0  0.71 0 0  0.72 0 0  0.73 0 0  0.74 0 0  0.75 0 0  0.76 0 0  0.77 0 0  0.78 0 0  0.79 0 0  0.8 0 0  0.8100000000000001 0 0  0.82 0 0  0.83 0 0  0.84 0 0  0.85 0 0  0.86 0 0  0.87 0 0  0.88 0 0  0.89 0 0  0.9 0 0  0.91 0 0  0.92 0 0  0.93 0 0  0.9399999999999999 0 0  0.95 0 0  0.96 0 0  0.97 0 0  0.98 0 0  0.99 0 0  1 0 0  </DataArray>
</Points>
<Cells>
<DataArray  type="UInt32"  Name="connectivity"  format="ascii">0 1  1 2  2 3  3 4  4 5  5 6  6 7  7 8  8 9  9 10  10 11  11 12  12 13  13 14  14 15  15 16  16 17  17 18  18 19  19 20  20 21  21 22  22 23  23 24  24 25  25 26  26 27  27 28  28 29  29 30  30 31  31 32  32 33  33 34  34 35  35 36  36 37  37 38  38 39  39 40  40 41  41 42  42 43  43 44  44 45  45 46  46 47  47 48  48 49  49 50  50 51  51 52  52 53  53 54  54 55  55 56  56 57  57 58  58 59  59 60  60 61  61 62  62 63  63 64  64 65  65 66  66 67  67 68  68 69  69 70  70 71  71 72  72 73  73 74  74 75  75 76  76 77  77 78  78 79  79 80  80 81  81 82  82 83  83 84  84 85  85 86  86 87  87 88  88 89  89 90  90 91  91 92  92 93  93 94  94 95  95 96  96 97  97 98  98 99  99 100  </DataArray>
<DataArray  type="UInt32"  Name="offsets"  format="ascii">2 4 6 8 10 12 14 16 18 20 22 24 26 28 30 32 34 36 38 40 42 44 46 48 50 52 54 56 58 60 62 64 66 68 70 72 74 76 78 80 82 84 86 88 90 92 94 96 98 100 102 104 106 108 110 112 114 116 118 120 122 124 126 128 130 132 134 136 138 140 142 144 146 148 150 152 154 156 158 160 162 164 166 168 170 172 174 176 178 180 182 184 186 188 190 192 194 196 198 200 </DataArray>
<DataArray  type="UInt8"  Name="types"  format="ascii">3 3 3 3 3 3 3 3 3 3 3 3 3 3 3 3 3 3 3 3 3 3 3 3 3 3 3 3 3 3 3 3 3 3 3 3 3 3 3 3 3 3 3 3 3 3 3 3 3 3 3 3 3 3 3 3 3 3 3 3 3 3 3 3 3 3 3 3 3 3 3 3 3 3 3 3 3 3 3 3 3 3 3 3 3 3 3 3 3 3 3 3 3 3 3 3 3 3 3 3 </DataArray>
</Cells>
<PointData  Scalars="pressure"> 
<DataArray  type="Float64"  Name="pressure"  format="ascii">5.1922968585348284e+35  2.5999993838596846e+51  1.9033029808169752e+51  2.0899899014816777e+51  2.0399652335772256e+51  2.0533698547134703e+51  2.0497779496835797e+51  2.0507404375238867e+51  2.0504825292540068e+51  2.0505516385929443e+51  2.0505331202218271e+51  2.0505380825910839e+51  2.0505367530560099e+51  2.0505371095009974e+51  2.0505370141703951e+51  2.0505370398976877e+51  2.0505370331862727e+51  2.0505370351671411e+51  2.0505370348188302e+51  2.0505370350946364e+51  2.0505370352032097e+51  2.0505370353565953e+51  2.0505370354979706e+51  2.0505370356425677e+51  2.0505370357862975e+51  2.0505370359302615e+51  2.0505370360741614e+51  2.0505370362180802e+51  2.0505370363619928e+51  2.0505370365059103e+51  2.0505370366498225e+51  2.0505370367937363e+51  2.0505370369376512e+51  2.0505370370815647e+51  2.0505370372254772e+51  2.0505370373693944e+51  2.0505370375133066e+51  2.0505370376572214e+51  2.0505370378011353e+51  2.0505370379450508e+51  2.0505370380889620e+51  2.0505370382328765e+51  2.0505370383767940e+51  2.0505370385207052e+51  2.0505370386646197e+51  2.0505370388085379e+51  2.0505370389524465e+51  2.0505370390963650e+51  2.0505370392402785e+51  2.0505370393841937e+51  2.0505370395281055e+51  2.0505370396720227e+51  2.0505370398159342e+51  2.0505370399598501e+51  2.0505370401037629e+51  2.0505370402476804e+51  2.0505370403915900e+51  2.0505370405355081e+51  2.0505370406794183e+51  2.0505370408233339e+51  2.0505370409672464e+51  2.0505370411111579e+51  2.0505370412550758e+51  2.0505370413989853e+51  2.0505370415429045e+51  2.0505370416868163e+51  2.0505370418307292e+51  2.0505370419746447e+51  2.0505370421185575e+51  2.0505370422624727e+51  2.0505370424063856e+51  2.0505370425503014e+51  2.0505370426942160e+51  2.0505370428381275e+51  2.0505370429820440e+51  2.0505370431259598e+51  2.0505370432698690e+51  2.0505370434137882e+51  2.0505370435576981e+51  2.0505370437016153e+51  2.0505370438455291e+51  2.0505370439894406e+51  2.0505370441333588e+51  2.0505370442772703e+51  2.0505370444211845e+51  2.0505370445650980e+51  2.0505370447090139e+51  2.0505370448529304e+51  2.0505370449968416e+51  2.0505370451407558e+51  2.0505370452846710e+51  2.0505370454285865e+51  2.0505370455724963e+51  2.0505370457164142e+51  2.0505370458603270e+51  2.0505370460042419e+51  2.0505370461481534e+51  2.0505370462920693e+51  2.0505370464359821e+51  2.0505370465798956e+51  2.0505370467238105e+51  </DataArray> 
</PointData> 
</Piece>
</UnstructuredGrid>
</VTKFile>