<?xml version="1.0"?>
<VTKFile type="UnstructuredGrid"  version="0.1"  >
<UnstructuredGrid>
<Piece  NumberOfPoints="101" NumberOfCells="100">
<Points>
<DataArray  type="Float64"  NumberOfComponents="3"  format="ascii">0 0 0  0.01 0 0  0.02 0 0  0.03 0 0  0.04 0 0  0.05 0 0  0.06 0 0  0.07000000000000001 0 0  0.08 0 0  0.09 0 0  0.1 0 0  0.11 0 0  0.12 0 0  0.13 0 0  0.14 0 0  0.15 0 0  0.16 0 0  0.17 0 0  0.18 0 0  0.19 0 0  0.2 0 0  0.21 0 0  0.22 0 0  0.23 0 0  0.24 0 0  0.25 0 0  0.26 0 0  0.27 0 0  0.28 0 0  0.29 0 0  0.3 0 0  0.31 0 0  0.32 0 0  0.33 0 0  0.34 0 0  0.35 0 0  0.36 0 0  0.37 0 0  0.38 0 0  0.39 0 0  0.4 0 0  0.41 0 0  0.42 0 0  0.43 0 0  0.44 0 0  0.45 0 0  0.46 0 0  0.47 0 0  0.48 0 0  0.49 0 0  0.5 0 0  0.51 0 0  0.52 0 0  0.53 0 0  0.54 0 0  0.55 0 0  0.5600000000000001 0 0  0.57 0 0  0.58 0 0  0.59 0 0  0.6 0 0  0.61 0 0  0.62 0 0  0.63 0 0  0.64 0 0  0.65 0 0  0.66 0 0  0.67 0 0  0.68 0 0  0.6899999999999999 0 0  0.7 0 0  0.71 0 0  0.72 0 0  0.73 0 0  0.74 0 0  0.75 0 0  0.76 0 0  0.77 0 0  0.78 0 0  0.79 0 0  0.8 0 0  0.8100000000000001 0 0  0.82 0 0  0.83 0 0  0.84 0 0  0.85 0 0  0.86 0 0  0.87 0 0  0.88 0 0  0.89 0 0  0.9 0 0  0.91 0 0  0.92 0 0  0.93 0 0  0.9399999999999999 0 0  0.95 0 0  0.96 0 0  0.97 0 0  0.98 0 0  0.99 0 0  1 0 0  </DataArray>
</Points>
<Cells>
<DataArray  type="UInt32"  Name="connectivity"  format="ascii">0 1  1 2  2 3  3 4  4 5  5 6  6 7  7 8  8 9  9 10  10 11  11 12  12 13  13 14  14 15  15 16  16 17  17 18  18 19  19 20  20 21  21 22  22 23  23 24  24 25  25 26  26 27  27 28  28 29  29 30  30 31  31 32  32 33  33 34  34 35  35 36  36 37  37 38  38 39  39 40  40 41  41 42  42 43  43 44  44 45  45 46  46 47  47 48  48 49  49 50  50 51  51 52  52 53  53 54  54 55  55 56  56 57  57 58  58 59  59 60  60 61  61 62  62 63  63 64  64 65  65 66  66 67  67 68  68 69  69 70  70 71  71 72  72 73  73 74  74 75  75 76  76 77  77 78  78 79  79 80  80 81  81 82  82 83  83 84  84 85  85 86  86 87  87 88  88 89  89 90  90 91  91 92  92 93  93 94  94 95  95 96  96 97  97 98  98 99  99 100  </DataArray>
<DataArray  type="UInt32"  Name="offsets"  format="ascii">2 4 6 8 10 12 14 16 18 20 22 24 26 28 30 32 34 36 38 40 42 44 46 48 50 52 54 56 58 60 62 64 66 68 70 72 74 76 78 80 82 84 86 88 90 92 94 96 98 100 102 104 106 108 110 112 114 116 118 120 122 124 126 128 130 132 134 136 138 140 142 144 146 148 150 152 154 156 158 160 162 164 166 168 170 172 174 176 178 180 182 184 186 188 190 192 194 196 198 200 </DataArray>
<DataArray  type="UInt8"  Name="types"  format="ascii">3 3 3 3 3 3 3 3 3 3 3 3 3 3 3 3 3 3 3 3 3 3 3 3 3 3 3 3 3 3 3 3 3 3 3 3 3 3 3 3 3 3 3 3 3 3 3 3 3 3 3 3 3 3 3 3 3 3 3 3 3 3 3 3 3 3 3 3 3 3 3 3 3 3 3 3 3 3 3 3 3 3 3 3 3 3 3 3 3 3 3 3 3 3 3 3 3 3 3 3 </DataArray>
</Cells>
<PointData  Scalars="pressure"> 
<DataArray  type="Float64"  Name="pressure"  format="ascii">0.0000000000000000e+00  -1.8602810709785533e-02  -3.7196263995238787e-02  -5.5771013254080216e-02  -7.4317733503360087e-02  -9.2827132127342560e-02  -1.1128995955166855e-01  -1.2969701981991949e-01  -1.4803918104928321e-01  -1.6630738574275275e-01  -1.8449266093613800e-01  -2.0258612815915020e-01  -2.2057901319091272e-01  -2.3846265559145380e-01  -2.5622851799202900e-01  -2.7386819512850524e-01  -2.9137342260349841e-01  -3.0873608536447161e-01  -3.2594822588656674e-01  -3.4300205205055351e-01  -3.5988994470789620e-01  -3.7660446492659089e-01  -3.9313836091304588e-01  -4.0948457460689497e-01  -4.2563624794723803e-01  -4.4158672881031985e-01  -4.5732957662016438e-01  -4.7285856763510703e-01  -4.8816769991449227e-01  -5.0325119797106754e-01  -5.1810351711578173e-01  -5.3271934750270267e-01  -5.4709361788274691e-01  -5.6122149907570529e-01  -5.7509840717073957e-01  -5.8872000646608358e-01  -6.0208221215912316e-01  -6.1518119279827177e-01  -6.2801337250826628e-01  -6.4057543300048125e-01  -6.5286431537975664e-01  -6.6487722175898434e-01  -6.7661161669232495e-01  -6.8806522843741769e-01  -6.9923605005634659e-01  -7.1012234036440036e-01  -7.2072262473484905e-01  -7.3103569576704075e-01  -7.4106061382415589e-01  -7.5079670744588456e-01  -7.6024357364018402e-01  -7.6940107805712454e-01  -7.7826935504663719e-01  -7.8684880760076426e-01  -7.9514010717981509e-01  -8.0314419342060872e-01  -8.1086227372379738e-01  -8.1829582271611212e-01  -8.2544658158226425e-01  -8.3231655726016884e-01  -8.3890802149218657e-01  -8.4522350972415827e-01  -8.5126581984319061e-01  -8.5703801074444330e-01  -8.6254340071654301e-01  -8.6778556563475207e-01  -8.7276833695065703e-01  -8.7749579946687373e-01  -8.8197228888516932e-01  -8.8620238911638105e-01  -8.9019092934071853e-01  -8.9394298080726364e-01  -8.9746385336194689e-01  -9.0075909169382229e-01  -9.0383447129014138e-01  -9.0669599409156165e-01  -9.0934988383974824e-01  -9.1180258111067414e-01  -9.1406073802809529e-01  -9.1613121265291519e-01  -9.1802106304549314e-01  -9.1973754099942662e-01  -9.2128808544671525e-01  -9.2268031553589891e-01  -9.2392202338620810e-01  -9.2502116652250088e-01  -9.2598585999731386e-01  -9.2682436820803138e-01  -9.2754509641878347e-01  -9.2815658199831752e-01  -9.2866748538660515e-01  -9.2908658080452200e-01  -9.2942274672235714e-01  -9.2968495610429958e-01  -9.2988226644735650e-01  -9.3002380963434272e-01  -9.3011878162167672e-01  -9.3017643198371436e-01  -9.3020605333619355e-01  -9.3021697066206432e-01  -9.3021853056360704e-01  </DataArray> 
</PointData> 
</Piece>
</UnstructuredGrid>
</VTKFile>