<?xml version="1.0"?>
<VTKFile type="UnstructuredGrid"  version="0.1"  >
<UnstructuredGrid>
<Piece  NumberOfPoints="101" NumberOfCells="100">
<Points>
<DataArray  type="Float64"  NumberOfComponents="3"  format="ascii">0 0 0  0.01 0 0  0.02 0 0  0.03 0 0  0.04 0 0  0.05 0 0  0.06 0 0  0.07000000000000001 0 0  0.08 0 0  0.09 0 0  0.1 0 0  0.11 0 0  0.12 0 0  0.13 0 0  0.14 0 0  0.15 0 0  0.16 0 0  0.17 0 0  0.18 0 0  0.19 0 0  0.2 0 0  0.21 0 0  0.22 0 0  0.23 0 0  0.24 0 0  0.25 0 0  0.26 0 0  0.27 0 0  0.28 0 0  0.29 0 0  0.3 0 0  0.31 0 0  0.32 0 0  0.33 0 0  0.34 0 0  0.35 0 0  0.36 0 0  0.37 0 0  0.38 0 0  0.39 0 0  0.4 0 0  0.41 0 0  0.42 0 0  0.43 0 0  0.44 0 0  0.45 0 0  0.46 0 0  0.47 0 0  0.48 0 0  0.49 0 0  0.5 0 0  0.51 0 0  0.52 0 0  0.53 0 0  0.54 0 0  0.55 0 0  0.5600000000000001 0 0  0.57 0 0  0.58 0 0  0.59 0 0  0.6 0 0  0.61 0 0  0.62 0 0  0.63 0 0  0.64 0 0  0.65 0 0  0.66 0 0  0.67 0 0  0.68 0 0  0.6899999999999999 0 0  0.7 0 0  0.71 0 0  0.72 0 0  0.73 0 0  0.74 0 0  0.75 0 0  0.76 0 0  0.77 0 0  0.78 0 0  0.79 0 0  0.8 0 0  0.8100000000000001 0 0  0.82 0 0  0.83 0 0  0.84 0 0  0.85 0 0  0.86 0 0  0.87 0 0  0.88 0 0  0.89 0 0  0.9 0 0  0.91 0 0  0.92 0 0  0.93 0 0  0.9399999999999999 0 0  0.95 0 0  0.96 0 0  0.97 0 0  0.98 0 0  0.99 0 0  1 0 0  </DataArray>
</Points>
<Cells>
<DataArray  type="UInt32"  Name="connectivity"  format="ascii">0 1  1 2  2 3  3 4  4 5  5 6  6 7  7 8  8 9  9 10  10 11  11 12  12 13  13 14  14 15  15 16  16 17  17 18  18 19  19 20  20 21  21 22  22 23  23 24  24 25  25 26  26 27  27 28  28 29  29 30  30 31  31 32  32 33  33 34  34 35  35 36  36 37  37 38  38 39  39 40  40 41  41 42  42 43  43 44  44 45  45 46  46 47  47 48  48 49  49 50  50 51  51 52  52 53  53 54  54 55  55 56  56 57  57 58  58 59  59 60  60 61  61 62  62 63  63 64  64 65  65 66  66 67  67 68  68 69  69 70  70 71  71 72  72 73  73 74  74 75  75 76  76 77  77 78  78 79  79 80  80 81  81 82  82 83  83 84  84 85  85 86  86 87  87 88  88 89  89 90  90 91  91 92  92 93  93 94  94 95  95 96  96 97  97 98  98 99  99 100  </DataArray>
<DataArray  type="UInt32"  Name="offsets"  format="ascii">2 4 6 8 10 12 14 16 18 20 22 24 26 28 30 32 34 36 38 40 42 44 46 48 50 52 54 56 58 60 62 64 66 68 70 72 74 76 78 80 82 84 86 88 90 92 94 96 98 100 102 104 106 108 110 112 114 116 118 120 122 124 126 128 130 132 134 136 138 140 142 144 146 148 150 152 154 156 158 160 162 164 166 168 170 172 174 176 178 180 182 184 186 188 190 192 194 196 198 200 </DataArray>
<DataArray  type="UInt8"  Name="types"  format="ascii">3 3 3 3 3 3 3 3 3 3 3 3 3 3 3 3 3 3 3 3 3 3 3 3 3 3 3 3 3 3 3 3 3 3 3 3 3 3 3 3 3 3 3 3 3 3 3 3 3 3 3 3 3 3 3 3 3 3 3 3 3 3 3 3 3 3 3 3 3 3 3 3 3 3 3 3 3 3 3 3 3 3 3 3 3 3 3 3 3 3 3 3 3 3 3 3 3 3 3 3 </DataArray>
</Cells>
<PointData  Scalars="pressure"> 
<DataArray  type="Float64"  Name="pressure"  format="ascii">0.0000000000000000e+00  4.3448925216953153e+43  3.1806078847835265e+43  3.4925968952679063e+43  3.4089943649547164e+43  3.4313970236751064e+43  3.4253938674665248e+43  3.4270025114788126e+43  3.4265714497930650e+43  3.4266869604307388e+43  3.4266560081228786e+43  3.4266643029438618e+43  3.4266620808582297e+43  3.4266626769488040e+43  3.4266625178632152e+43  3.4266625611393816e+43  3.4266625501894083e+43  3.4266625537702073e+43  3.4266625534572699e+43  3.4266625541876981e+43  3.4266625546385485e+43  3.4266625551643239e+43  3.4266625556700154e+43  3.4266625561810945e+43  3.4266625566907213e+43  3.4266625572007412e+43  3.4266625577106516e+43  3.4266625582206022e+43  3.4266625587305281e+43  3.4266625592404747e+43  3.4266625597504059e+43  3.4266625602603412e+43  3.4266625607702784e+43  3.4266625612802136e+43  3.4266625617901479e+43  3.4266625623000871e+43  3.4266625628100228e+43  3.4266625633199580e+43  3.4266625638298942e+43  3.4266625643398344e+43  3.4266625648497632e+43  3.4266625653597039e+43  3.4266625658696431e+43  3.4266625663795763e+43  3.4266625668895111e+43  3.4266625673994562e+43  3.4266625679093840e+43  3.4266625684193267e+43  3.4266625689292609e+43  3.4266625694392006e+43  3.4266625699491319e+43  3.4266625704590731e+43  3.4266625709690078e+43  3.4266625714789410e+43  3.4266625719888807e+43  3.4266625724988239e+43  3.4266625730087472e+43  3.4266625735186939e+43  3.4266625740286246e+43  3.4266625745385623e+43  3.4266625750484916e+43  3.4266625755584274e+43  3.4266625760683675e+43  3.4266625765782983e+43  3.4266625770882434e+43  3.4266625775981752e+43  3.4266625781081109e+43  3.4266625786180462e+43  3.4266625791279824e+43  3.4266625796379206e+43  3.4266625801478534e+43  3.4266625806577935e+43  3.4266625811677332e+43  3.4266625816776625e+43  3.4266625821876042e+43  3.4266625826975478e+43  3.4266625832074672e+43  3.4266625837174183e+43  3.4266625842273456e+43  3.4266625847372868e+43  3.4266625852472245e+43  3.4266625857571498e+43  3.4266625862671004e+43  3.4266625867770267e+43  3.4266625872869659e+43  3.4266625877969011e+43  3.4266625883068428e+43  3.4266625888167800e+43  3.4266625893267098e+43  3.4266625898366505e+43  3.4266625903465833e+43  3.4266625908565274e+43  3.4266625913664498e+43  3.4266625918763993e+43  3.4266625923863296e+43  3.4266625928962668e+43  3.4266625934061991e+43  3.4266625939161388e+43  3.4266625944260760e+43  3.4266625949360068e+43  3.4266625954459455e+43  </DataArray> 
</PointData> 
</Piece>
</UnstructuredGrid>
</VTKFile>