<?xml version="1.0"?>
<VTKFile type="UnstructuredGrid"  version="0.1"  >
<UnstructuredGrid>
<Piece  NumberOfPoints="101" NumberOfCells="100">
<Points>
<DataArray  type="Float64"  NumberOfComponents="3"  format="ascii">0 0 0  0.01 0 0  0.02 0 0  0.03 0 0  0.04 0 0  0.05 0 0  0.06 0 0  0.07000000000000001 0 0  0.08 0 0  0.09 0 0  0.1 0 0  0.11 0 0  0.12 0 0  0.13 0 0  0.14 0 0  0.15 0 0  0.16 0 0  0.17 0 0  0.18 0 0  0.19 0 0  0.2 0 0  0.21 0 0  0.22 0 0  0.23 0 0  0.24 0 0  0.25 0 0  0.26 0 0  0.27 0 0  0.28 0 0  0.29 0 0  0.3 0 0  0.31 0 0  0.32 0 0  0.33 0 0  0.34 0 0  0.35 0 0  0.36 0 0  0.37 0 0  0.38 0 0  0.39 0 0  0.4 0 0  0.41 0 0  0.42 0 0  0.43 0 0  0.44 0 0  0.45 0 0  0.46 0 0  0.47 0 0  0.48 0 0  0.49 0 0  0.5 0 0  0.51 0 0  0.52 0 0  0.53 0 0  0.54 0 0  0.55 0 0  0.5600000000000001 0 0  0.57 0 0  0.58 0 0  0.59 0 0  0.6 0 0  0.61 0 0  0.62 0 0  0.63 0 0  0.64 0 0  0.65 0 0  0.66 0 0  0.67 0 0  0.68 0 0  0.6899999999999999 0 0  0.7 0 0  0.71 0 0  0.72 0 0  0.73 0 0  0.74 0 0  0.75 0 0  0.76 0 0  0.77 0 0  0.78 0 0  0.79 0 0  0.8 0 0  0.8100000000000001 0 0  0.82 0 0  0.83 0 0  0.84 0 0  0.85 0 0  0.86 0 0  0.87 0 0  0.88 0 0  0.89 0 0  0.9 0 0  0.91 0 0  0.92 0 0  0.93 0 0  0.9399999999999999 0 0  0.95 0 0  0.96 0 0  0.97 0 0  0.98 0 0  0.99 0 0  1 0 0  </DataArray>
</Points>
<Cells>
<DataArray  type="UInt32"  Name="connectivity"  format="ascii">0 1  1 2  2 3  3 4  4 5  5 6  6 7  7 8  8 9  9 10  10 11  11 12  12 13  13 14  14 15  15 16  16 17  17 18  18 19  19 20  20 21  21 22  22 23  23 24  24 25  25 26  26 27  27 28  28 29  29 30  30 31  31 32  32 33  33 34  34 35  35 36  36 37  37 38  38 39  39 40  40 41  41 42  42 43  43 44  44 45  45 46  46 47  47 48  48 49  49 50  50 51  51 52  52 53  53 54  54 55  55 56  56 57  57 58  58 59  59 60  60 61  61 62  62 63  63 64  64 65  65 66  66 67  67 68  68 69  69 70  70 71  71 72  72 73  73 74  74 75  75 76  76 77  77 78  78 79  79 80  80 81  81 82  82 83  83 84  84 85  85 86  86 87  87 88  88 89  89 90  90 91  91 92  92 93  93 94  94 95  95 96  96 97  97 98  98 99  99 100  </DataArray>
<DataArray  type="UInt32"  Name="offsets"  format="ascii">2 4 6 8 10 12 14 16 18 20 22 24 26 28 30 32 34 36 38 40 42 44 46 48 50 52 54 56 58 60 62 64 66 68 70 72 74 76 78 80 82 84 86 88 90 92 94 96 98 100 102 104 106 108 110 112 114 116 118 120 122 124 126 128 130 132 134 136 138 140 142 144 146 148 150 152 154 156 158 160 162 164 166 168 170 172 174 176 178 180 182 184 186 188 190 192 194 196 198 200 </DataArray>
<DataArray  type="UInt8"  Name="types"  format="ascii">3 3 3 3 3 3 3 3 3 3 3 3 3 3 3 3 3 3 3 3 3 3 3 3 3 3 3 3 3 3 3 3 3 3 3 3 3 3 3 3 3 3 3 3 3 3 3 3 3 3 3 3 3 3 3 3 3 3 3 3 3 3 3 3 3 3 3 3 3 3 3 3 3 3 3 3 3 3 3 3 3 3 3 3 3 3 3 3 3 3 3 3 3 3 3 3 3 3 3 3 </DataArray>
</Cells>
<PointData  Scalars="pressure"> 
<DataArray  type="Float64"  Name="pressure"  format="ascii">1.4965776766268448e+53  7.2200808341847518e+68  5.2853704280473945e+68  5.8038001317174009e+68  5.6648804496344407e+68  5.7021057065359999e+68  5.6921307374949525e+68  5.6948036557105124e+68  5.6940874153179191e+68  5.6942793421028518e+68  5.6942279142037119e+68  5.6942416962171552e+68  5.6942380044239467e+68  5.6942389949544337e+68  5.6942387307980738e+68  5.6942388028506725e+68  5.6942387848118887e+68  5.6942387909142007e+68  5.6942387905476335e+68  5.6942387919144510e+68  5.6942387928167997e+68  5.6942387938436157e+68  5.6942387948370675e+68  5.6942387958394757e+68  5.6942387968394683e+68  5.6942387978401141e+68  5.6942387988405818e+68  5.6942387998411031e+68  5.6942388008415967e+68  5.6942388018421199e+68  5.6942388028426182e+68  5.6942388038431262e+68  5.6942388048436312e+68  5.6942388058441382e+68  5.6942388068446413e+68  5.6942388078451501e+68  5.6942388088456609e+68  5.6942388098461641e+68  5.6942388108466710e+68  5.6942388118471828e+68  5.6942388128476792e+68  5.6942388138481861e+68  5.6942388148487027e+68  5.6942388158492048e+68  5.6942388168497051e+68  5.6942388178502293e+68  5.6942388188507180e+68  5.6942388198512393e+68  5.6942388208517434e+68  5.6942388218522523e+68  5.6942388228527535e+68  5.6942388238532662e+68  5.6942388248537741e+68  5.6942388258542744e+68  5.6942388268547832e+68  5.6942388278552979e+68  5.6942388288557876e+68  5.6942388298563089e+68  5.6942388308568024e+68  5.6942388318573161e+68  5.6942388328578116e+68  5.6942388338583176e+68  5.6942388348588322e+68  5.6942388358593276e+68  5.6942388368598470e+68  5.6942388378603473e+68  5.6942388388608533e+68  5.6942388398613622e+68  5.6942388408618662e+68  5.6942388418623741e+68  5.6942388428628773e+68  5.6942388438633852e+68  5.6942388448638988e+68  5.6942388458643943e+68  5.6942388468649099e+68  5.6942388478654235e+68  5.6942388488659123e+68  5.6942388498664374e+68  5.6942388508669300e+68  5.6942388518674446e+68  5.6942388528679497e+68  5.6942388538684471e+68  5.6942388548689684e+68  5.6942388558694648e+68  5.6942388568699718e+68  5.6942388578704797e+68  5.6942388588709905e+68  5.6942388598714993e+68  5.6942388608719967e+68  5.6942388618725075e+68  5.6942388628730106e+68  5.6942388638735252e+68  5.6942388648740159e+68  5.6942388658745411e+68  5.6942388668750384e+68  5.6942388678755483e+68  5.6942388688760475e+68  5.6942388698765602e+68  5.6942388708770643e+68  5.6942388718775675e+68  5.6942388728780773e+68  </DataArray> 
</PointData> 
</Piece>
</UnstructuredGrid>
</VTKFile>