<?xml version="1.0"?>
<VTKFile type="UnstructuredGrid"  version="0.1"  >
<UnstructuredGrid>
<Piece  NumberOfPoints="101" NumberOfCells="100">
<Points>
<DataArray  type="Float64"  NumberOfComponents="3"  format="ascii">0 0 0  0.01 0 0  0.02 0 0  0.03 0 0  0.04 0 0  0.05 0 0  0.06 0 0  0.07000000000000001 0 0  0.08 0 0  0.09 0 0  0.1 0 0  0.11 0 0  0.12 0 0  0.13 0 0  0.14 0 0  0.15 0 0  0.16 0 0  0.17 0 0  0.18 0 0  0.19 0 0  0.2 0 0  0.21 0 0  0.22 0 0  0.23 0 0  0.24 0 0  0.25 0 0  0.26 0 0  0.27 0 0  0.28 0 0  0.29 0 0  0.3 0 0  0.31 0 0  0.32 0 0  0.33 0 0  0.34 0 0  0.35 0 0  0.36 0 0  0.37 0 0  0.38 0 0  0.39 0 0  0.4 0 0  0.41 0 0  0.42 0 0  0.43 0 0  0.44 0 0  0.45 0 0  0.46 0 0  0.47 0 0  0.48 0 0  0.49 0 0  0.5 0 0  0.51 0 0  0.52 0 0  0.53 0 0  0.54 0 0  0.55 0 0  0.5600000000000001 0 0  0.57 0 0  0.58 0 0  0.59 0 0  0.6 0 0  0.61 0 0  0.62 0 0  0.63 0 0  0.64 0 0  0.65 0 0  0.66 0 0  0.67 0 0  0.68 0 0  0.6899999999999999 0 0  0.7 0 0  0.71 0 0  0.72 0 0  0.73 0 0  0.74 0 0  0.75 0 0  0.76 0 0  0.77 0 0  0.78 0 0  0.79 0 0  0.8 0 0  0.8100000000000001 0 0  0.82 0 0  0.83 0 0  0.84 0 0  0.85 0 0  0.86 0 0  0.87 0 0  0.88 0 0  0.89 0 0  0.9 0 0  0.91 0 0  0.92 0 0  0.93 0 0  0.9399999999999999 0 0  0.95 0 0  0.96 0 0  0.97 0 0  0.98 0 0  0.99 0 0  1 0 0  </DataArray>
</Points>
<Cells>
<DataArray  type="UInt32"  Name="connectivity"  format="ascii">0 1  1 2  2 3  3 4  4 5  5 6  6 7  7 8  8 9  9 10  10 11  11 12  12 13  13 14  14 15  15 16  16 17  17 18  18 19  19 20  20 21  21 22  22 23  23 24  24 25  25 26  26 27  27 28  28 29  29 30  30 31  31 32  32 33  33 34  34 35  35 36  36 37  37 38  38 39  39 40  40 41  41 42  42 43  43 44  44 45  45 46  46 47  47 48  48 49  49 50  50 51  51 52  52 53  53 54  54 55  55 56  56 57  57 58  58 59  59 60  60 61  61 62  62 63  63 64  64 65  65 66  66 67  67 68  68 69  69 70  70 71  71 72  72 73  73 74  74 75  75 76  76 77  77 78  78 79  79 80  80 81  81 82  82 83  83 84  84 85  85 86  86 87  87 88  88 89  89 90  90 91  91 92  92 93  93 94  94 95  95 96  96 97  97 98  98 99  99 100  </DataArray>
<DataArray  type="UInt32"  Name="offsets"  format="ascii">2 4 6 8 10 12 14 16 18 20 22 24 26 28 30 32 34 36 38 40 42 44 46 48 50 52 54 56 58 60 62 64 66 68 70 72 74 76 78 80 82 84 86 88 90 92 94 96 98 100 102 104 106 108 110 112 114 116 118 120 122 124 126 128 130 132 134 136 138 140 142 144 146 148 150 152 154 156 158 160 162 164 166 168 170 172 174 176 178 180 182 184 186 188 190 192 194 196 198 200 </DataArray>
<DataArray  type="UInt8"  Name="types"  format="ascii">3 3 3 3 3 3 3 3 3 3 3 3 3 3 3 3 3 3 3 3 3 3 3 3 3 3 3 3 3 3 3 3 3 3 3 3 3 3 3 3 3 3 3 3 3 3 3 3 3 3 3 3 3 3 3 3 3 3 3 3 3 3 3 3 3 3 3 3 3 3 3 3 3 3 3 3 3 3 3 3 3 3 3 3 3 3 3 3 3 3 3 3 3 3 3 3 3 3 3 3 </DataArray>
</Cells>
<PointData  Scalars="pressure"> 
<DataArray  type="Float64"  Name="pressure"  format="ascii">-2.7105054312137615e-18  -3.2475831860902839e-02  -6.4924135831202531e-02  -9.7317519478477804e-02  -1.2962886003830604e-01  -1.6183143614234397e-01  -1.9389905586101489e-01  -2.2580617990115548e-01  -2.5752803885656300e-01  -2.8904074347969061e-01  -3.2032138702463259e-01  -3.5134813880382382e-01  -3.8210032820211465e-01  -4.1255851850058467e-01  -4.4270456997703039e-01  -4.7252169186884119e-01  -5.0199448290530546e-01  -5.3110896023858400e-01  -5.5985257672401645e-01  -5.8821422661953648e-01  -6.1618423988923865e-01  -6.4375436540629383e-01  -6.7091774345406441e-01  -6.9766886802053429e-01  -7.2400353946895579e-01  -7.4991880824627344e-01  -7.7541291035985571e-01  -8.0048519541187302e-01  -8.2513604802920837e-01  -8.4936680356493932e-01  -8.7317965897535454e-01  -8.9657757979440678e-01  -9.1956420413587592e-01  -9.4214374465277984e-01  -9.6432088937442173e-01  -9.8610070232445524e-01  -1.0074885247993597e+00  -1.0284898781563883e+00  -1.0491103689242673e+00  -1.0693555970093775e+00  -1.0892310677256909e+00  -1.1087421083289992e+00  -1.1278937896856600e+00  -1.1466908536538467e+00  -1.1651376467016099e+00  -1.1832380602313577e+00  -1.2009954780251892e+00  -1.2184127311699033e+00  -1.2354920607650017e+00  -1.2522350886613960e+00  -1.2686427964232847e+00  -1.2847155126504151e+00  -1.3004529087430408e+00  -1.3158540031369634e+00  -1.3309171739812693e+00  -1.3456401801764597e+00  -1.3600201906357312e+00  -1.3740538215769900e+00  -1.3877371815978248e+00  -1.4010659242301864e+00  -1.4140353076158996e+00  -1.4266402608886100e+00  -1.4388754567925226e+00  -1.4507353900136681e+00  -1.4622144606456631e+00  -1.4733070621597828e+00  -1.4840076731987732e+00  -1.4943109524661546e+00  -1.5042118359382763e+00  -1.5137056355858329e+00  -1.5227881387558067e+00  -1.5314557073344193e+00  -1.5397053757877170e+00  -1.5475349471594126e+00  -1.5549430860964255e+00  -1.5619294079718751e+00  -1.5684945631835907e+00  -1.5746403157242033e+00  -1.5803696151467670e+00  -1.5856866610880316e+00  -1.5905969595600127e+00  -1.5951073702793488e+00  -1.5992261443728701e+00  -1.6029629518764787e+00  -1.6063288985322444e+00  -1.6093365314848280e+00  -1.6119998335820631e+00  -1.6143342060946673e+00  -1.6163564397852501e+00  -1.6180846743760138e+00  -1.6195383465858793e+00  -1.6207381270299959e+00  -1.6217058463959289e+00  -1.6224644114295865e+00  -1.6230377113785133e+00  -1.6234505156489132e+00  -1.6237283635339492e+00  -1.6238974469631977e+00  -1.6239844873050016e+00  -1.6240166073237825e+00  -1.6240211994519647e+00  </DataArray> 
</PointData> 
</Piece>
</UnstructuredGrid>
</VTKFile>