<?xml version="1.0"?>
<VTKFile type="UnstructuredGrid"  version="0.1"  >
<UnstructuredGrid>
<Piece  NumberOfPoints="101" NumberOfCells="100">
<Points>
<DataArray  type="Float64"  NumberOfComponents="3"  format="ascii">0 0 0  0.01 0 0  0.02 0 0  0.03 0 0  0.04 0 0  0.05 0 0  0.06 0 0  0.07000000000000001 0 0  0.08 0 0  0.09 0 0  0.1 0 0  0.11 0 0  0.12 0 0  0.13 0 0  0.14 0 0  0.15 0 0  0.16 0 0  0.17 0 0  0.18 0 0  0.19 0 0  0.2 0 0  0.21 0 0  0.22 0 0  0.23 0 0  0.24 0 0  0.25 0 0  0.26 0 0  0.27 0 0  0.28 0 0  0.29 0 0  0.3 0 0  0.31 0 0  0.32 0 0  0.33 0 0  0.34 0 0  0.35 0 0  0.36 0 0  0.37 0 0  0.38 0 0  0.39 0 0  0.4 0 0  0.41 0 0  0.42 0 0  0.43 0 0  0.44 0 0  0.45 0 0  0.46 0 0  0.47 0 0  0.48 0 0  0.49 0 0  0.5 0 0  0.51 0 0  0.52 0 0  0.53 0 0  0.54 0 0  0.55 0 0  0.5600000000000001 0 0  0.57 0 0  0.58 0 0  0.59 0 0  0.6 0 0  0.61 0 0  0.62 0 0  0.63 0 0  0.64 0 0  0.65 0 0  0.66 0 0  0.67 0 0  0.68 0 0  0.6899999999999999 0 0  0.7 0 0  0.71 0 0  0.72 0 0  0.73 0 0  0.74 0 0  0.75 0 0  0.76 0 0  0.77 0 0  0.78 0 0  0.79 0 0  0.8 0 0  0.8100000000000001 0 0  0.82 0 0  0.83 0 0  0.84 0 0  0.85 0 0  0.86 0 0  0.87 0 0  0.88 0 0  0.89 0 0  0.9 0 0  0.91 0 0  0.92 0 0  0.93 0 0  0.9399999999999999 0 0  0.95 0 0  0.96 0 0  0.97 0 0  0.98 0 0  0.99 0 0  1 0 0  </DataArray>
</Points>
<Cells>
<DataArray  type="UInt32"  Name="connectivity"  format="ascii">0 1  1 2  2 3  3 4  4 5  5 6  6 7  7 8  8 9  9 10  10 11  11 12  12 13  13 14  14 15  15 16  16 17  17 18  18 19  19 20  20 21  21 22  22 23  23 24  24 25  25 26  26 27  27 28  28 29  29 30  30 31  31 32  32 33  33 34  34 35  35 36  36 37  37 38  38 39  39 40  40 41  41 42  42 43  43 44  44 45  45 46  46 47  47 48  48 49  49 50  50 51  51 52  52 53  53 54  54 55  55 56  56 57  57 58  58 59  59 60  60 61  61 62  62 63  63 64  64 65  65 66  66 67  67 68  68 69  69 70  70 71  71 72  72 73  73 74  74 75  75 76  76 77  77 78  78 79  79 80  80 81  81 82  82 83  83 84  84 85  85 86  86 87  87 88  88 89  89 90  90 91  91 92  92 93  93 94  94 95  95 96  96 97  97 98  98 99  99 100  </DataArray>
<DataArray  type="UInt32"  Name="offsets"  format="ascii">2 4 6 8 10 12 14 16 18 20 22 24 26 28 30 32 34 36 38 40 42 44 46 48 50 52 54 56 58 60 62 64 66 68 70 72 74 76 78 80 82 84 86 88 90 92 94 96 98 100 102 104 106 108 110 112 114 116 118 120 122 124 126 128 130 132 134 136 138 140 142 144 146 148 150 152 154 156 158 160 162 164 166 168 170 172 174 176 178 180 182 184 186 188 190 192 194 196 198 200 </DataArray>
<DataArray  type="UInt8"  Name="types"  format="ascii">3 3 3 3 3 3 3 3 3 3 3 3 3 3 3 3 3 3 3 3 3 3 3 3 3 3 3 3 3 3 3 3 3 3 3 3 3 3 3 3 3 3 3 3 3 3 3 3 3 3 3 3 3 3 3 3 3 3 3 3 3 3 3 3 3 3 3 3 3 3 3 3 3 3 3 3 3 3 3 3 3 3 3 3 3 3 3 3 3 3 3 3 3 3 3 3 3 3 3 3 </DataArray>
</Cells>
<PointData  Scalars="pressure"> 
<DataArray  type="Float64"  Name="pressure"  format="ascii">0.0000000000000000e+00  1.2379317291319372e-05  2.4952879480414542e-05  3.7709771357967687e-05  5.0638932114245427e-05  6.3729169898863843e-05  7.6969176466953518e-05  9.0347541894340185e-05  1.0385276934449799e-04  1.1747328986978447e-04  1.3119747722980689e-04  1.4501366270953253e-04  1.5891014991991739e-04  1.7287522956390268e-04  1.8689719415070189e-04  2.0096435264143164e-04  2.1506504500933053e-04  2.2918765669779225e-04  2.4332063295957556e-04  2.5745249306126253e-04  2.7157184433647093e-04  2.8566739607180266e-04  2.9972797321041656e-04  3.1374252985735243e-04  3.2770016257155669e-04  3.4159012342942658e-04  3.5540183284631257e-04  3.6912489214005007e-04  3.8274909582452804e-04  3.9626444361814966e-04  4.0966115215484734e-04  4.2292966638428635e-04  4.3606067064914803e-04  4.4904509942740714e-04  4.6187414772783065e-04  4.7453928112743254e-04  4.8703224544016514e-04  4.9934507600619428e-04  5.1147010659305977e-04  5.2339997789777406e-04  5.3512764564131714e-04  5.4664638824797470e-04  5.5794981410077439e-04  5.6903186836512656e-04  5.7988683937520351e-04  5.9050936457485199e-04  6.0089443600836096e-04  6.1103740535544315e-04  6.2093398850510768e-04  6.3058026966484736e-04  6.3997270500100055e-04  6.4910812580633325e-04  6.5798374119387917e-04  6.6659714031347211e-04  6.7494629408922991e-04  6.8302955647862418e-04  6.9084566525127512e-04  6.9839374228720800e-04  7.0567329339655995e-04  7.1268420766085747e-04  7.1942675629833820e-04  7.2590159105510117e-04  7.3210974212461425e-04  7.3805261559971346e-04  7.4373199046057074e-04  7.4915001510294881e-04  7.5430920341193648e-04  7.5921243038592047e-04  7.6386292731863456e-04  7.6826427654197362e-04  7.7242040574243998e-04  7.7633558185161980e-04  7.8001440452483354e-04  7.8346179921255892e-04  7.8668300983505794e-04  7.8968359106849765e-04  7.9246940025360345e-04  7.9504658893681196e-04  7.9742159405176436e-04  7.9960112875684583e-04  8.0159217293594514e-04  8.0340196337671469e-04  8.0503798363727925e-04  8.0650795361605302e-04  8.0781981883245571e-04  8.0898173943600501e-04  8.1000207895808951e-04  8.1088939281400731e-04  8.1165241657779261e-04  8.1230005403581148e-04  8.1284136504002026e-04  8.1328555317149739e-04  8.1364195323161174e-04  8.1392001857464051e-04  8.1412930829712245e-04  8.1427947430090812e-04  8.1438024824345982e-04  8.1444142839220794e-04  8.1447286639970220e-04  8.1448445401287003e-04  8.1448610973588510e-04  </DataArray> 
</PointData> 
</Piece>
</UnstructuredGrid>
</VTKFile>