<?xml version="1.0"?>
<VTKFile type="UnstructuredGrid"  version="0.1"  >
<UnstructuredGrid>
<Piece  NumberOfPoints="101" NumberOfCells="100">
<Points>
<DataArray  type="Float64"  NumberOfComponents="3"  format="ascii">0 0 0  0.01 0 0  0.02 0 0  0.03 0 0  0.04 0 0  0.05 0 0  0.06 0 0  0.07000000000000001 0 0  0.08 0 0  0.09 0 0  0.1 0 0  0.11 0 0  0.12 0 0  0.13 0 0  0.14 0 0  0.15 0 0  0.16 0 0  0.17 0 0  0.18 0 0  0.19 0 0  0.2 0 0  0.21 0 0  0.22 0 0  0.23 0 0  0.24 0 0  0.25 0 0  0.26 0 0  0.27 0 0  0.28 0 0  0.29 0 0  0.3 0 0  0.31 0 0  0.32 0 0  0.33 0 0  0.34 0 0  0.35 0 0  0.36 0 0  0.37 0 0  0.38 0 0  0.39 0 0  0.4 0 0  0.41 0 0  0.42 0 0  0.43 0 0  0.44 0 0  0.45 0 0  0.46 0 0  0.47 0 0  0.48 0 0  0.49 0 0  0.5 0 0  0.51 0 0  0.52 0 0  0.53 0 0  0.54 0 0  0.55 0 0  0.5600000000000001 0 0  0.57 0 0  0.58 0 0  0.59 0 0  0.6 0 0  0.61 0 0  0.62 0 0  0.63 0 0  0.64 0 0  0.65 0 0  0.66 0 0  0.67 0 0  0.68 0 0  0.6899999999999999 0 0  0.7 0 0  0.71 0 0  0.72 0 0  0.73 0 0  0.74 0 0  0.75 0 0  0.76 0 0  0.77 0 0  0.78 0 0  0.79 0 0  0.8 0 0  0.8100000000000001 0 0  0.82 0 0  0.83 0 0  0.84 0 0  0.85 0 0  0.86 0 0  0.87 0 0  0.88 0 0  0.89 0 0  0.9 0 0  0.91 0 0  0.92 0 0  0.93 0 0  0.9399999999999999 0 0  0.95 0 0  0.96 0 0  0.97 0 0  0.98 0 0  0.99 0 0  1 0 0  </DataArray>
</Points>
<Cells>
<DataArray  type="UInt32"  Name="connectivity"  format="ascii">0 1  1 2  2 3  3 4  4 5  5 6  6 7  7 8  8 9  9 10  10 11  11 12  12 13  13 14  14 15  15 16  16 17  17 18  18 19  19 20  20 21  21 22  22 23  23 24  24 25  25 26  26 27  27 28  28 29  29 30  30 31  31 32  32 33  33 34  34 35  35 36  36 37  37 38  38 39  39 40  40 41  41 42  42 43  43 44  44 45  45 46  46 47  47 48  48 49  49 50  50 51  51 52  52 53  53 54  54 55  55 56  56 57  57 58  58 59  59 60  60 61  61 62  62 63  63 64  64 65  65 66  66 67  67 68  68 69  69 70  70 71  71 72  72 73  73 74  74 75  75 76  76 77  77 78  78 79  79 80  80 81  81 82  82 83  83 84  84 85  85 86  86 87  87 88  88 89  89 90  90 91  91 92  92 93  93 94  94 95  95 96  96 97  97 98  98 99  99 100  </DataArray>
<DataArray  type="UInt32"  Name="offsets"  format="ascii">2 4 6 8 10 12 14 16 18 20 22 24 26 28 30 32 34 36 38 40 42 44 46 48 50 52 54 56 58 60 62 64 66 68 70 72 74 76 78 80 82 84 86 88 90 92 94 96 98 100 102 104 106 108 110 112 114 116 118 120 122 124 126 128 130 132 134 136 138 140 142 144 146 148 150 152 154 156 158 160 162 164 166 168 170 172 174 176 178 180 182 184 186 188 190 192 194 196 198 200 </DataArray>
<DataArray  type="UInt8"  Name="types"  format="ascii">3 3 3 3 3 3 3 3 3 3 3 3 3 3 3 3 3 3 3 3 3 3 3 3 3 3 3 3 3 3 3 3 3 3 3 3 3 3 3 3 3 3 3 3 3 3 3 3 3 3 3 3 3 3 3 3 3 3 3 3 3 3 3 3 3 3 3 3 3 3 3 3 3 3 3 3 3 3 3 3 3 3 3 3 3 3 3 3 3 3 3 3 3 3 3 3 3 3 3 3 </DataArray>
</Cells>
<PointData  Scalars="pressure"> 
<DataArray  type="Float64"  Name="pressure"  format="ascii">3.7414441915671120e+52  5.3713444171619831e+68  3.9320166461419468e+68  4.3177048973760941e+68  4.2143542713453863e+68  4.2420485350455690e+68  4.2346274655545216e+68  4.2366160466590456e+68  4.2360831786912352e+68  4.2362259686936669e+68  4.2361877065790494e+68  4.2361979599419605e+68  4.2361952128959476e+68  4.2361959494935230e+68  4.2361957525994777e+68  4.2361958058477497e+68  4.2361957920668310e+68  4.2361957962473251e+68  4.2361957956148287e+68  4.2361957962720136e+68  4.2361957965836202e+68  4.2361957969878394e+68  4.2361957973672316e+68  4.2361957977532864e+68  4.2361957981375439e+68  4.2361957985222869e+68  4.2361957989068978e+68  4.2361957992915518e+68  4.2361957996761823e+68  4.2361958000608373e+68  4.2361958004454711e+68  4.2361958008301131e+68  4.2361958012147494e+68  4.2361958015993924e+68  4.2361958019840291e+68  4.2361958023686721e+68  4.2361958027533136e+68  4.2361958031379513e+68  4.2361958035225919e+68  4.2361958039072363e+68  4.2361958042918716e+68  4.2361958046765117e+68  4.2361958050611619e+68  4.2361958054457967e+68  4.2361958058304344e+68  4.2361958062150879e+68  4.2361958065997156e+68  4.2361958069843652e+68  4.2361958073690058e+68  4.2361958077536459e+68  4.2361958081382851e+68  4.2361958085229280e+68  4.2361958089075696e+68  4.2361958092922054e+68  4.2361958096768493e+68  4.2361958100614975e+68  4.2361958104461233e+68  4.2361958108307753e+68  4.2361958112154082e+68  4.2361958116000541e+68  4.2361958119846851e+68  4.2361958123693242e+68  4.2361958127539729e+68  4.2361958131386035e+68  4.2361958135232536e+68  4.2361958139078937e+68  4.2361958142925290e+68  4.2361958146771744e+68  4.2361958150618097e+68  4.2361958154464555e+68  4.2361958158310932e+68  4.2361958162157338e+68  4.2361958166003821e+68  4.2361958169850131e+68  4.2361958173696589e+68  4.2361958177543076e+68  4.2361958181389310e+68  4.2361958185235859e+68  4.2361958189082169e+68  4.2361958192928642e+68  4.2361958196775038e+68  4.2361958200621362e+68  4.2361958204467897e+68  4.2361958208314227e+68  4.2361958212160642e+68  4.2361958216007053e+68  4.2361958219853511e+68  4.2361958223699941e+68  4.2361958227546265e+68  4.2361958231392723e+68  4.2361958235239096e+68  4.2361958239085578e+68  4.2361958242931840e+68  4.2361958246778399e+68  4.2361958250624733e+68  4.2361958254471168e+68  4.2361958258317526e+68  4.2361958262163965e+68  4.2361958266010371e+68  4.2361958269856738e+68  4.2361958273703149e+68  </DataArray> 
</PointData> 
</Piece>
</UnstructuredGrid>
</VTKFile>