<?xml version="1.0"?>
<VTKFile type="UnstructuredGrid"  version="0.1"  >
<UnstructuredGrid>
<Piece  NumberOfPoints="101" NumberOfCells="100">
<Points>
<DataArray  type="Float64"  NumberOfComponents="3"  format="ascii">0 0 0  0.01 0 0  0.02 0 0  0.03 0 0  0.04 0 0  0.05 0 0  0.06 0 0  0.07000000000000001 0 0  0.08 0 0  0.09 0 0  0.1 0 0  0.11 0 0  0.12 0 0  0.13 0 0  0.14 0 0  0.15 0 0  0.16 0 0  0.17 0 0  0.18 0 0  0.19 0 0  0.2 0 0  0.21 0 0  0.22 0 0  0.23 0 0  0.24 0 0  0.25 0 0  0.26 0 0  0.27 0 0  0.28 0 0  0.29 0 0  0.3 0 0  0.31 0 0  0.32 0 0  0.33 0 0  0.34 0 0  0.35 0 0  0.36 0 0  0.37 0 0  0.38 0 0  0.39 0 0  0.4 0 0  0.41 0 0  0.42 0 0  0.43 0 0  0.44 0 0  0.45 0 0  0.46 0 0  0.47 0 0  0.48 0 0  0.49 0 0  0.5 0 0  0.51 0 0  0.52 0 0  0.53 0 0  0.54 0 0  0.55 0 0  0.5600000000000001 0 0  0.57 0 0  0.58 0 0  0.59 0 0  0.6 0 0  0.61 0 0  0.62 0 0  0.63 0 0  0.64 0 0  0.65 0 0  0.66 0 0  0.67 0 0  0.68 0 0  0.6899999999999999 0 0  0.7 0 0  0.71 0 0  0.72 0 0  0.73 0 0  0.74 0 0  0.75 0 0  0.76 0 0  0.77 0 0  0.78 0 0  0.79 0 0  0.8 0 0  0.8100000000000001 0 0  0.82 0 0  0.83 0 0  0.84 0 0  0.85 0 0  0.86 0 0  0.87 0 0  0.88 0 0  0.89 0 0  0.9 0 0  0.91 0 0  0.92 0 0  0.93 0 0  0.9399999999999999 0 0  0.95 0 0  0.96 0 0  0.97 0 0  0.98 0 0  0.99 0 0  1 0 0  </DataArray>
</Points>
<Cells>
<DataArray  type="UInt32"  Name="connectivity"  format="ascii">0 1  1 2  2 3  3 4  4 5  5 6  6 7  7 8  8 9  9 10  10 11  11 12  12 13  13 14  14 15  15 16  16 17  17 18  18 19  19 20  20 21  21 22  22 23  23 24  24 25  25 26  26 27  27 28  28 29  29 30  30 31  31 32  32 33  33 34  34 35  35 36  36 37  37 38  38 39  39 40  40 41  41 42  42 43  43 44  44 45  45 46  46 47  47 48  48 49  49 50  50 51  51 52  52 53  53 54  54 55  55 56  56 57  57 58  58 59  59 60  60 61  61 62  62 63  63 64  64 65  65 66  66 67  67 68  68 69  69 70  70 71  71 72  72 73  73 74  74 75  75 76  76 77  77 78  78 79  79 80  80 81  81 82  82 83  83 84  84 85  85 86  86 87  87 88  88 89  89 90  90 91  91 92  92 93  93 94  94 95  95 96  96 97  97 98  98 99  99 100  </DataArray>
<DataArray  type="UInt32"  Name="offsets"  format="ascii">2 4 6 8 10 12 14 16 18 20 22 24 26 28 30 32 34 36 38 40 42 44 46 48 50 52 54 56 58 60 62 64 66 68 70 72 74 76 78 80 82 84 86 88 90 92 94 96 98 100 102 104 106 108 110 112 114 116 118 120 122 124 126 128 130 132 134 136 138 140 142 144 146 148 150 152 154 156 158 160 162 164 166 168 170 172 174 176 178 180 182 184 186 188 190 192 194 196 198 200 </DataArray>
<DataArray  type="UInt8"  Name="types"  format="ascii">3 3 3 3 3 3 3 3 3 3 3 3 3 3 3 3 3 3 3 3 3 3 3 3 3 3 3 3 3 3 3 3 3 3 3 3 3 3 3 3 3 3 3 3 3 3 3 3 3 3 3 3 3 3 3 3 3 3 3 3 3 3 3 3 3 3 3 3 3 3 3 3 3 3 3 3 3 3 3 3 3 3 3 3 3 3 3 3 3 3 3 3 3 3 3 3 3 3 3 3 </DataArray>
</Cells>
<PointData  Scalars="pressure"> 
<DataArray  type="Float64"  Name="pressure"  format="ascii">-2.7105054312137615e-18  -2.8989079071385315e-02  -5.7957996697436315e-02  -8.6886664399077565e-02  -1.1575513906036147e-01  -1.4454369419220531e-01  -1.7323288951042412e-01  -2.0180363829211664e-01  -2.3023727199629962e-01  -2.5851560166152410e-01  -2.8662097562468841e-01  -3.1453633314104867e-01  -3.4224525352509716e-01  -3.6973200047508209e-01  -3.9698156128997703e-01  -4.2397968073619074e-01  -4.5071288937166598e-01  -4.7716852618673572e-01  -5.0333475547361117e-01  -5.2920057788913055e-01  -5.5475583572785125e-01  -5.7999121247420571e-01  -6.0489822675275506e-01  -6.2946922084405343e-01  -6.5369734397993573e-01  -6.7757653067560319e-01  -7.0110147439648929e-01  -7.2426759689511699e-01  -7.4707101358676531e-01  -7.6950849536252663e-01  -7.9157742726403424e-01  -8.1327576446567851e-01  -8.3460198602737745e-01  -8.5555504689388073e-01  -8.7613432862519292e-01  -8.9633958934697500e-01  -9.1617091340984291e-01  -9.3562866124239019e-01  -9.5471341987470093e-01  -9.7342595459717574e-01  -9.9176716220393957e-01  -1.0097380262510318e+00  -1.0273395747373446e+00  -1.0445728405909398e+00  -1.0614388253154023e+00  -1.0779384661202667e+00  -1.0940726068267839e+00  -1.1098419728054967e+00  -1.1252471501655210e+00  -1.1402885693774976e+00  -1.1549664934729384e+00  -1.1692810109226028e+00  -1.1832320332557313e+00  -1.1968192974408127e+00  -1.2100423730072061e+00  -1.2229006738457937e+00  -1.2353934745860353e+00  -1.2475199314066787e+00  -1.2592791070981890e+00  -1.2706700001569846e+00  -1.2816915776549995e+00  -1.2923428115933446e+00  -1.3026227184159778e+00  -1.3125304013287749e+00  -1.3220650950413364e+00  -1.3312262125235788e+00  -1.3400133933469072e+00  -1.3484265531607091e+00  -1.3564659338393201e+00  -1.3641321538227362e+00  -1.3714262581662071e+00  -1.3783497678098167e+00  -1.3849047275791724e+00  -1.3910937524326428e+00  -1.3969200714791350e+00  -1.4023875693033709e+00  -1.4075008241528257e+00  -1.4122651425620687e+00  -1.4166865900158958e+00  -1.4207720172824754e+00  -1.4245290820812484e+00  -1.4279662657876591e+00  -1.4310928849172713e+00  -1.4339190971755305e+00  -1.4364559019055982e+00  -1.4387151348152640e+00  -1.4407094569141907e+00  -1.4424523376444387e+00  -1.4439580322395984e+00  -1.4452415534006970e+00  -1.4463186374294867e+00  -1.4472057050114748e+00  -1.4479198168914047e+00  -1.4484786247323789e+00  -1.4489003174958448e+00  -1.4492035637227885e+00  -1.4494074501361098e+00  -1.4495314170199922e+00  -1.4495951908635198e+00  -1.4496187147826429e+00  -1.4496220772564361e+00  </DataArray> 
</PointData> 
</Piece>
</UnstructuredGrid>
</VTKFile>