<?xml version="1.0"?>
<VTKFile type="UnstructuredGrid"  version="0.1"  >
<UnstructuredGrid>
<Piece  NumberOfPoints="101" NumberOfCells="100">
<Points>
<DataArray  type="Float64"  NumberOfComponents="3"  format="ascii">0 0 0  0.01 0 0  0.02 0 0  0.03 0 0  0.04 0 0  0.05 0 0  0.06 0 0  0.07000000000000001 0 0  0.08 0 0  0.09 0 0  0.1 0 0  0.11 0 0  0.12 0 0  0.13 0 0  0.14 0 0  0.15 0 0  0.16 0 0  0.17 0 0  0.18 0 0  0.19 0 0  0.2 0 0  0.21 0 0  0.22 0 0  0.23 0 0  0.24 0 0  0.25 0 0  0.26 0 0  0.27 0 0  0.28 0 0  0.29 0 0  0.3 0 0  0.31 0 0  0.32 0 0  0.33 0 0  0.34 0 0  0.35 0 0  0.36 0 0  0.37 0 0  0.38 0 0  0.39 0 0  0.4 0 0  0.41 0 0  0.42 0 0  0.43 0 0  0.44 0 0  0.45 0 0  0.46 0 0  0.47 0 0  0.48 0 0  0.49 0 0  0.5 0 0  0.51 0 0  0.52 0 0  0.53 0 0  0.54 0 0  0.55 0 0  0.5600000000000001 0 0  0.57 0 0  0.58 0 0  0.59 0 0  0.6 0 0  0.61 0 0  0.62 0 0  0.63 0 0  0.64 0 0  0.65 0 0  0.66 0 0  0.67 0 0  0.68 0 0  0.6899999999999999 0 0  0.7 0 0  0.71 0 0  0.72 0 0  0.73 0 0  0.74 0 0  0.75 0 0  0.76 0 0  0.77 0 0  0.78 0 0  0.79 0 0  0.8 0 0  0.8100000000000001 0 0  0.82 0 0  0.83 0 0  0.84 0 0  0.85 0 0  0.86 0 0  0.87 0 0  0.88 0 0  0.89 0 0  0.9 0 0  0.91 0 0  0.92 0 0  0.93 0 0  0.9399999999999999 0 0  0.95 0 0  0.96 0 0  0.97 0 0  0.98 0 0  0.99 0 0  1 0 0  </DataArray>
</Points>
<Cells>
<DataArray  type="UInt32"  Name="connectivity"  format="ascii">0 1  1 2  2 3  3 4  4 5  5 6  6 7  7 8  8 9  9 10  10 11  11 12  12 13  13 14  14 15  15 16  16 17  17 18  18 19  19 20  20 21  21 22  22 23  23 24  24 25  25 26  26 27  27 28  28 29  29 30  30 31  31 32  32 33  33 34  34 35  35 36  36 37  37 38  38 39  39 40  40 41  41 42  42 43  43 44  44 45  45 46  46 47  47 48  48 49  49 50  50 51  51 52  52 53  53 54  54 55  55 56  56 57  57 58  58 59  59 60  60 61  61 62  62 63  63 64  64 65  65 66  66 67  67 68  68 69  69 70  70 71  71 72  72 73  73 74  74 75  75 76  76 77  77 78  78 79  79 80  80 81  81 82  82 83  83 84  84 85  85 86  86 87  87 88  88 89  89 90  90 91  91 92  92 93  93 94  94 95  95 96  96 97  97 98  98 99  99 100  </DataArray>
<DataArray  type="UInt32"  Name="offsets"  format="ascii">2 4 6 8 10 12 14 16 18 20 22 24 26 28 30 32 34 36 38 40 42 44 46 48 50 52 54 56 58 60 62 64 66 68 70 72 74 76 78 80 82 84 86 88 90 92 94 96 98 100 102 104 106 108 110 112 114 116 118 120 122 124 126 128 130 132 134 136 138 140 142 144 146 148 150 152 154 156 158 160 162 164 166 168 170 172 174 176 178 180 182 184 186 188 190 192 194 196 198 200 </DataArray>
<DataArray  type="UInt8"  Name="types"  format="ascii">3 3 3 3 3 3 3 3 3 3 3 3 3 3 3 3 3 3 3 3 3 3 3 3 3 3 3 3 3 3 3 3 3 3 3 3 3 3 3 3 3 3 3 3 3 3 3 3 3 3 3 3 3 3 3 3 3 3 3 3 3 3 3 3 3 3 3 3 3 3 3 3 3 3 3 3 3 3 3 3 3 3 3 3 3 3 3 3 3 3 3 3 3 3 3 3 3 3 3 3 </DataArray>
</Cells>
<PointData  Scalars="pressure"> 
<DataArray  type="Float64"  Name="pressure"  format="ascii">2.8334198897217877e+24  8.8607904291988128e+39  6.4864495294037125e+39  7.1226788560968816e+39  6.9521945959541687e+39  6.9978776272346178e+39  6.9856363856798747e+39  6.9889165551721560e+39  6.9880376012224919e+39  6.9882731276355490e+39  6.9882100174496189e+39  6.9882269300449502e+39  6.9882223997041442e+39  6.9882236152209887e+39  6.9882232910755361e+39  6.9882233794986277e+39  6.9882233573696661e+39  6.9882233648642772e+39  6.9882233644209616e+39  6.9882233661046749e+39  6.9882233672184317e+39  6.9882233684849302e+39  6.9882233697104848e+39  6.9882233709470225e+39  6.9882233721806043e+39  6.9882233734149901e+39  6.9882233746491414e+39  6.9882233758833809e+39  6.9882233771175757e+39  6.9882233783518007e+39  6.9882233795860064e+39  6.9882233808202133e+39  6.9882233820544250e+39  6.9882233832886355e+39  6.9882233845228411e+39  6.9882233857570565e+39  6.9882233869912658e+39  6.9882233882254763e+39  6.9882233894596856e+39  6.9882233906938949e+39  6.9882233919281030e+39  6.9882233931623135e+39  6.9882233943965288e+39  6.9882233956307357e+39  6.9882233968649450e+39  6.9882233980991688e+39  6.9882233993333611e+39  6.9882234005675849e+39  6.9882234018017930e+39  6.9882234030360084e+39  6.9882234042702104e+39  6.9882234055044318e+39  6.9882234067386363e+39  6.9882234079728431e+39  6.9882234092070573e+39  6.9882234104412738e+39  6.9882234116754722e+39  6.9882234129096888e+39  6.9882234141438956e+39  6.9882234153781037e+39  6.9882234166123094e+39  6.9882234178465114e+39  6.9882234190807316e+39  6.9882234203149276e+39  6.9882234215491538e+39  6.9882234227833559e+39  6.9882234240175640e+39  6.9882234252517781e+39  6.9882234264859837e+39  6.9882234277201979e+39  6.9882234289544011e+39  6.9882234301886189e+39  6.9882234314228330e+39  6.9882234326570326e+39  6.9882234338912540e+39  6.9882234351254706e+39  6.9882234363596605e+39  6.9882234375938892e+39  6.9882234388280852e+39  6.9882234400623041e+39  6.9882234412965122e+39  6.9882234425307167e+39  6.9882234437649368e+39  6.9882234449991365e+39  6.9882234462333506e+39  6.9882234474675550e+39  6.9882234487017752e+39  6.9882234499359869e+39  6.9882234511701890e+39  6.9882234524044007e+39  6.9882234536386100e+39  6.9882234548728265e+39  6.9882234561070201e+39  6.9882234573412475e+39  6.9882234585754484e+39  6.9882234598096613e+39  6.9882234610438682e+39  6.9882234622780835e+39  6.9882234635122928e+39  6.9882234647464973e+39  6.9882234659807114e+39  </DataArray> 
</PointData> 
</Piece>
</UnstructuredGrid>
</VTKFile>