<?xml version="1.0"?>
<VTKFile type="UnstructuredGrid"  version="0.1"  >
<UnstructuredGrid>
<Piece  NumberOfPoints="101" NumberOfCells="100">
<Points>
<DataArray  type="Float64"  NumberOfComponents="3"  format="ascii">0 0 0  0.01 0 0  0.02 0 0  0.03 0 0  0.04 0 0  0.05 0 0  0.06 0 0  0.07000000000000001 0 0  0.08 0 0  0.09 0 0  0.1 0 0  0.11 0 0  0.12 0 0  0.13 0 0  0.14 0 0  0.15 0 0  0.16 0 0  0.17 0 0  0.18 0 0  0.19 0 0  0.2 0 0  0.21 0 0  0.22 0 0  0.23 0 0  0.24 0 0  0.25 0 0  0.26 0 0  0.27 0 0  0.28 0 0  0.29 0 0  0.3 0 0  0.31 0 0  0.32 0 0  0.33 0 0  0.34 0 0  0.35 0 0  0.36 0 0  0.37 0 0  0.38 0 0  0.39 0 0  0.4 0 0  0.41 0 0  0.42 0 0  0.43 0 0  0.44 0 0  0.45 0 0  0.46 0 0  0.47 0 0  0.48 0 0  0.49 0 0  0.5 0 0  0.51 0 0  0.52 0 0  0.53 0 0  0.54 0 0  0.55 0 0  0.5600000000000001 0 0  0.57 0 0  0.58 0 0  0.59 0 0  0.6 0 0  0.61 0 0  0.62 0 0  0.63 0 0  0.64 0 0  0.65 0 0  0.66 0 0  0.67 0 0  0.68 0 0  0.6899999999999999 0 0  0.7 0 0  0.71 0 0  0.72 0 0  0.73 0 0  0.74 0 0  0.75 0 0  0.76 0 0  0.77 0 0  0.78 0 0  0.79 0 0  0.8 0 0  0.8100000000000001 0 0  0.82 0 0  0.83 0 0  0.84 0 0  0.85 0 0  0.86 0 0  0.87 0 0  0.88 0 0  0.89 0 0  0.9 0 0  0.91 0 0  0.92 0 0  0.93 0 0  0.9399999999999999 0 0  0.95 0 0  0.96 0 0  0.97 0 0  0.98 0 0  0.99 0 0  1 0 0  </DataArray>
</Points>
<Cells>
<DataArray  type="UInt32"  Name="connectivity"  format="ascii">0 1  1 2  2 3  3 4  4 5  5 6  6 7  7 8  8 9  9 10  10 11  11 12  12 13  13 14  14 15  15 16  16 17  17 18  18 19  19 20  20 21  21 22  22 23  23 24  24 25  25 26  26 27  27 28  28 29  29 30  30 31  31 32  32 33  33 34  34 35  35 36  36 37  37 38  38 39  39 40  40 41  41 42  42 43  43 44  44 45  45 46  46 47  47 48  48 49  49 50  50 51  51 52  52 53  53 54  54 55  55 56  56 57  57 58  58 59  59 60  60 61  61 62  62 63  63 64  64 65  65 66  66 67  67 68  68 69  69 70  70 71  71 72  72 73  73 74  74 75  75 76  76 77  77 78  78 79  79 80  80 81  81 82  82 83  83 84  84 85  85 86  86 87  87 88  88 89  89 90  90 91  91 92  92 93  93 94  94 95  95 96  96 97  97 98  98 99  99 100  </DataArray>
<DataArray  type="UInt32"  Name="offsets"  format="ascii">2 4 6 8 10 12 14 16 18 20 22 24 26 28 30 32 34 36 38 40 42 44 46 48 50 52 54 56 58 60 62 64 66 68 70 72 74 76 78 80 82 84 86 88 90 92 94 96 98 100 102 104 106 108 110 112 114 116 118 120 122 124 126 128 130 132 134 136 138 140 142 144 146 148 150 152 154 156 158 160 162 164 166 168 170 172 174 176 178 180 182 184 186 188 190 192 194 196 198 200 </DataArray>
<DataArray  type="UInt8"  Name="types"  format="ascii">3 3 3 3 3 3 3 3 3 3 3 3 3 3 3 3 3 3 3 3 3 3 3 3 3 3 3 3 3 3 3 3 3 3 3 3 3 3 3 3 3 3 3 3 3 3 3 3 3 3 3 3 3 3 3 3 3 3 3 3 3 3 3 3 3 3 3 3 3 3 3 3 3 3 3 3 3 3 3 3 3 3 3 3 3 3 3 3 3 3 3 3 3 3 3 3 3 3 3 3 </DataArray>
</Cells>
<PointData  Scalars="pressure"> 
<DataArray  type="Float64"  Name="pressure"  format="ascii">3.0423614405477511e+33  1.1742178018846802e+49  8.5957372040404873e+48  9.4388593067994768e+48  9.2129358217976209e+48  9.2734744110219700e+48  9.2572524571010577e+48  9.2615993027303472e+48  9.2604345209327434e+48  9.2607466380089054e+48  9.2606630044085052e+48  9.2606854163883118e+48  9.2606794123331105e+48  9.2606810226550976e+48  9.2606805926241417e+48  9.2606807093273845e+48  9.2606806795273779e+48  9.2606806889844665e+48  9.2606806879222394e+48  9.2606806896787259e+48  9.2606806906799292e+48  9.2606806918835257e+48  9.2606806930328822e+48  9.2606806941967770e+48  9.2606806953567738e+48  9.2606806965178077e+48  9.2606806976785690e+48  9.2606806988394083e+48  9.2606807000002124e+48  9.2606807011610516e+48  9.2606807023218571e+48  9.2606807034826820e+48  9.2606807046434927e+48  9.2606807058043189e+48  9.2606807069651218e+48  9.2606807081259506e+48  9.2606807092867678e+48  9.2606807104475888e+48  9.2606807116083995e+48  9.2606807127692296e+48  9.2606807139300363e+48  9.2606807150908535e+48  9.2606807162516862e+48  9.2606807174124930e+48  9.2606807185733166e+48  9.2606807197341441e+48  9.2606807208949444e+48  9.2606807220557797e+48  9.2606807232165943e+48  9.2606807243774205e+48  9.2606807255382247e+48  9.2606807266990626e+48  9.2606807278598667e+48  9.2606807290206826e+48  9.2606807301815088e+48  9.2606807313423364e+48  9.2606807325031379e+48  9.2606807336639706e+48  9.2606807348247774e+48  9.2606807359855971e+48  9.2606807371464052e+48  9.2606807383072223e+48  9.2606807394680460e+48  9.2606807406288566e+48  9.2606807417896920e+48  9.2606807429504948e+48  9.2606807441113159e+48  9.2606807452721356e+48  9.2606807464329489e+48  9.2606807475937764e+48  9.2606807487545780e+48  9.2606807499154159e+48  9.2606807510762304e+48  9.2606807522370411e+48  9.2606807533978621e+48  9.2606807545586922e+48  9.2606807557194873e+48  9.2606807568803265e+48  9.2606807580411294e+48  9.2606807592019556e+48  9.2606807603627767e+48  9.2606807615235808e+48  9.2606807626844187e+48  9.2606807638452242e+48  9.2606807650060439e+48  9.2606807661668611e+48  9.2606807673276899e+48  9.2606807684885136e+48  9.2606807696493164e+48  9.2606807708101388e+48  9.2606807719709559e+48  9.2606807731317808e+48  9.2606807742925798e+48  9.2606807754534177e+48  9.2606807766142271e+48  9.2606807777750468e+48  9.2606807789358601e+48  9.2606807800966798e+48  9.2606807812574983e+48  9.2606807824183076e+48  9.2606807835791326e+48  </DataArray> 
</PointData> 
</Piece>
</UnstructuredGrid>
</VTKFile>