<?xml version="1.0"?>
<VTKFile type="UnstructuredGrid"  version="0.1"  >
<UnstructuredGrid>
<Piece  NumberOfPoints="101" NumberOfCells="100">
<Points>
<DataArray  type="Float64"  NumberOfComponents="3"  format="ascii">0 0 0  0.01 0 0  0.02 0 0  0.03 0 0  0.04 0 0  0.05 0 0  0.06 0 0  0.07000000000000001 0 0  0.08 0 0  0.09 0 0  0.1 0 0  0.11 0 0  0.12 0 0  0.13 0 0  0.14 0 0  0.15 0 0  0.16 0 0  0.17 0 0  0.18 0 0  0.19 0 0  0.2 0 0  0.21 0 0  0.22 0 0  0.23 0 0  0.24 0 0  0.25 0 0  0.26 0 0  0.27 0 0  0.28 0 0  0.29 0 0  0.3 0 0  0.31 0 0  0.32 0 0  0.33 0 0  0.34 0 0  0.35 0 0  0.36 0 0  0.37 0 0  0.38 0 0  0.39 0 0  0.4 0 0  0.41 0 0  0.42 0 0  0.43 0 0  0.44 0 0  0.45 0 0  0.46 0 0  0.47 0 0  0.48 0 0  0.49 0 0  0.5 0 0  0.51 0 0  0.52 0 0  0.53 0 0  0.54 0 0  0.55 0 0  0.5600000000000001 0 0  0.57 0 0  0.58 0 0  0.59 0 0  0.6 0 0  0.61 0 0  0.62 0 0  0.63 0 0  0.64 0 0  0.65 0 0  0.66 0 0  0.67 0 0  0.68 0 0  0.6899999999999999 0 0  0.7 0 0  0.71 0 0  0.72 0 0  0.73 0 0  0.74 0 0  0.75 0 0  0.76 0 0  0.77 0 0  0.78 0 0  0.79 0 0  0.8 0 0  0.8100000000000001 0 0  0.82 0 0  0.83 0 0  0.84 0 0  0.85 0 0  0.86 0 0  0.87 0 0  0.88 0 0  0.89 0 0  0.9 0 0  0.91 0 0  0.92 0 0  0.93 0 0  0.9399999999999999 0 0  0.95 0 0  0.96 0 0  0.97 0 0  0.98 0 0  0.99 0 0  1 0 0  </DataArray>
</Points>
<Cells>
<DataArray  type="UInt32"  Name="connectivity"  format="ascii">0 1  1 2  2 3  3 4  4 5  5 6  6 7  7 8  8 9  9 10  10 11  11 12  12 13  13 14  14 15  15 16  16 17  17 18  18 19  19 20  20 21  21 22  22 23  23 24  24 25  25 26  26 27  27 28  28 29  29 30  30 31  31 32  32 33  33 34  34 35  35 36  36 37  37 38  38 39  39 40  40 41  41 42  42 43  43 44  44 45  45 46  46 47  47 48  48 49  49 50  50 51  51 52  52 53  53 54  54 55  55 56  56 57  57 58  58 59  59 60  60 61  61 62  62 63  63 64  64 65  65 66  66 67  67 68  68 69  69 70  70 71  71 72  72 73  73 74  74 75  75 76  76 77  77 78  78 79  79 80  80 81  81 82  82 83  83 84  84 85  85 86  86 87  87 88  88 89  89 90  90 91  91 92  92 93  93 94  94 95  95 96  96 97  97 98  98 99  99 100  </DataArray>
<DataArray  type="UInt32"  Name="offsets"  format="ascii">2 4 6 8 10 12 14 16 18 20 22 24 26 28 30 32 34 36 38 40 42 44 46 48 50 52 54 56 58 60 62 64 66 68 70 72 74 76 78 80 82 84 86 88 90 92 94 96 98 100 102 104 106 108 110 112 114 116 118 120 122 124 126 128 130 132 134 136 138 140 142 144 146 148 150 152 154 156 158 160 162 164 166 168 170 172 174 176 178 180 182 184 186 188 190 192 194 196 198 200 </DataArray>
<DataArray  type="UInt8"  Name="types"  format="ascii">3 3 3 3 3 3 3 3 3 3 3 3 3 3 3 3 3 3 3 3 3 3 3 3 3 3 3 3 3 3 3 3 3 3 3 3 3 3 3 3 3 3 3 3 3 3 3 3 3 3 3 3 3 3 3 3 3 3 3 3 3 3 3 3 3 3 3 3 3 3 3 3 3 3 3 3 3 3 3 3 3 3 3 3 3 3 3 3 3 3 3 3 3 3 3 3 3 3 3 3 </DataArray>
</Cells>
<PointData  Scalars="displacement"> 
<DataArray  type="Float64"  Name="displacement"  format="ascii">-2.5993062103144769e-07  -9.9987004240186372e-03  -1.9994023442920821e-02  -2.9986233602943366e-02  -3.9975338591718000e-02  -4.9961349161305554e-02  -5.9944279117584973e-02  -6.9924145306628688e-02  -7.9900967598077549e-02  -8.9874768865531571e-02  -9.9845574963977071e-02  -1.0981341470427033e-01  -1.1977831982470499e-01  -1.2974032495969043e-01  -1.3969946760557114e-01  -1.4965578808362293e-01  -1.5960932950026085e-01  -1.6956013770449757e-01  -1.7950826124269659e-01  -1.8945375131066303e-01  -1.9939666170311865e-01  -2.0933704876061354e-01  -2.1927497131392548e-01  -2.2921049062599927e-01  -2.3914367033148934e-01  -2.4907457637395933e-01  -2.5900327694080327e-01  -2.6892984239595408e-01  -2.7885434521044161e-01  -2.8877685989087309e-01  -2.9869746290590449e-01  -3.0861623261077431e-01  -3.1853324916997716e-01  -3.2844859447814984e-01  -3.3836235207925303e-01  -3.4827460708412256e-01  -3.5818544608647479e-01  -3.6809495707745038e-01  -3.7800322935877623e-01  -3.8791035345463631e-01  -3.9781642102233533e-01  -4.0772152476184298e-01  -4.1762575832431237e-01  -4.2752921621965534e-01  -4.3743199372327318e-01  -4.4733418678203241e-01  -4.5723589191957503e-01  -4.6713720614106391e-01  -4.7703822683744745e-01  -4.8693905168934903e-01  -4.9683977857066614e-01  -5.0674050545198113e-01  -5.1664133030387738e-01  -5.2654235100025260e-01  -5.3644366522172904e-01  -5.4634537035925645e-01  -5.5624756341799675e-01  -5.6615034092159311e-01  -5.7605379881691188e-01  -5.8595803237935395e-01  -5.9586313611883135e-01  -6.0576920368649667e-01  -6.1567632778231873e-01  -6.2558460006360339e-01  -6.3549411105453457e-01  -6.4540495005683884e-01  -6.5531720506165714e-01  -6.6523096266270609e-01  -6.7514630797082076e-01  -6.8506332452996277e-01  -6.9498209423476942e-01  -7.0490269724973387e-01  -7.1482521193009518e-01  -7.2474971474451033e-01  -7.3467628019958364e-01  -7.4460498076634718e-01  -7.5453588680873307e-01  -7.6446906651413615e-01  -7.7440458582611871e-01  -7.8434250837933639e-01  -7.9428289543673392e-01  -8.0422580582908798e-01  -8.1417129589695048e-01  -8.2411941943504241e-01  -8.3407022763916849e-01  -8.4402376905569232e-01  -8.5398008953362614e-01  -8.6393923217938573e-01  -8.7390123731424563e-01  -8.8386614243455119e-01  -8.9383398217471277e-01  -9.0380478827302213e-01  -9.1377858954033686e-01  -9.2375541183164256e-01  -9.3373527802054146e-01  -9.4371820797667394e-01  -9.5370421854611076e-01  -9.6369332353473103e-01  -9.7368553369459543e-01  -9.8368085671333605e-01  -9.9367929720656845e-01  </DataArray> 
</PointData> 
</Piece>
</UnstructuredGrid>
</VTKFile>