<?xml version="1.0"?>
<VTKFile type="UnstructuredGrid"  version="0.1"  >
<UnstructuredGrid>
<Piece  NumberOfPoints="101" NumberOfCells="100">
<Points>
<DataArray  type="Float64"  NumberOfComponents="3"  format="ascii">0 0 0  0.01 0 0  0.02 0 0  0.03 0 0  0.04 0 0  0.05 0 0  0.06 0 0  0.07000000000000001 0 0  0.08 0 0  0.09 0 0  0.1 0 0  0.11 0 0  0.12 0 0  0.13 0 0  0.14 0 0  0.15 0 0  0.16 0 0  0.17 0 0  0.18 0 0  0.19 0 0  0.2 0 0  0.21 0 0  0.22 0 0  0.23 0 0  0.24 0 0  0.25 0 0  0.26 0 0  0.27 0 0  0.28 0 0  0.29 0 0  0.3 0 0  0.31 0 0  0.32 0 0  0.33 0 0  0.34 0 0  0.35 0 0  0.36 0 0  0.37 0 0  0.38 0 0  0.39 0 0  0.4 0 0  0.41 0 0  0.42 0 0  0.43 0 0  0.44 0 0  0.45 0 0  0.46 0 0  0.47 0 0  0.48 0 0  0.49 0 0  0.5 0 0  0.51 0 0  0.52 0 0  0.53 0 0  0.54 0 0  0.55 0 0  0.5600000000000001 0 0  0.57 0 0  0.58 0 0  0.59 0 0  0.6 0 0  0.61 0 0  0.62 0 0  0.63 0 0  0.64 0 0  0.65 0 0  0.66 0 0  0.67 0 0  0.68 0 0  0.6899999999999999 0 0  0.7 0 0  0.71 0 0  0.72 0 0  0.73 0 0  0.74 0 0  0.75 0 0  0.76 0 0  0.77 0 0  0.78 0 0  0.79 0 0  0.8 0 0  0.8100000000000001 0 0  0.82 0 0  0.83 0 0  0.84 0 0  0.85 0 0  0.86 0 0  0.87 0 0  0.88 0 0  0.89 0 0  0.9 0 0  0.91 0 0  0.92 0 0  0.93 0 0  0.9399999999999999 0 0  0.95 0 0  0.96 0 0  0.97 0 0  0.98 0 0  0.99 0 0  1 0 0  </DataArray>
</Points>
<Cells>
<DataArray  type="UInt32"  Name="connectivity"  format="ascii">0 1  1 2  2 3  3 4  4 5  5 6  6 7  7 8  8 9  9 10  10 11  11 12  12 13  13 14  14 15  15 16  16 17  17 18  18 19  19 20  20 21  21 22  22 23  23 24  24 25  25 26  26 27  27 28  28 29  29 30  30 31  31 32  32 33  33 34  34 35  35 36  36 37  37 38  38 39  39 40  40 41  41 42  42 43  43 44  44 45  45 46  46 47  47 48  48 49  49 50  50 51  51 52  52 53  53 54  54 55  55 56  56 57  57 58  58 59  59 60  60 61  61 62  62 63  63 64  64 65  65 66  66 67  67 68  68 69  69 70  70 71  71 72  72 73  73 74  74 75  75 76  76 77  77 78  78 79  79 80  80 81  81 82  82 83  83 84  84 85  85 86  86 87  87 88  88 89  89 90  90 91  91 92  92 93  93 94  94 95  95 96  96 97  97 98  98 99  99 100  </DataArray>
<DataArray  type="UInt32"  Name="offsets"  format="ascii">2 4 6 8 10 12 14 16 18 20 22 24 26 28 30 32 34 36 38 40 42 44 46 48 50 52 54 56 58 60 62 64 66 68 70 72 74 76 78 80 82 84 86 88 90 92 94 96 98 100 102 104 106 108 110 112 114 116 118 120 122 124 126 128 130 132 134 136 138 140 142 144 146 148 150 152 154 156 158 160 162 164 166 168 170 172 174 176 178 180 182 184 186 188 190 192 194 196 198 200 </DataArray>
<DataArray  type="UInt8"  Name="types"  format="ascii">3 3 3 3 3 3 3 3 3 3 3 3 3 3 3 3 3 3 3 3 3 3 3 3 3 3 3 3 3 3 3 3 3 3 3 3 3 3 3 3 3 3 3 3 3 3 3 3 3 3 3 3 3 3 3 3 3 3 3 3 3 3 3 3 3 3 3 3 3 3 3 3 3 3 3 3 3 3 3 3 3 3 3 3 3 3 3 3 3 3 3 3 3 3 3 3 3 3 3 3 </DataArray>
</Cells>
<PointData  Scalars="displacement"> 
<DataArray  type="Float64"  Name="displacement"  format="ascii">1.0328805242061597e-08  1.0004407255832473e-02  2.0008677653383329e-02  3.0012817626486533e-02  4.0016823741915168e-02  5.0020692714637001e-02  6.0024421494993499e-02  7.0028007248143440e-02  8.0031447362011884e-02  9.0034739447237694e-02  1.0003788133890089e-01  1.1004087109740847e-01  1.2004370700924152e-01  1.3004638758737527e-01  1.4004891157142427e-01  1.5005127792749898e-01  1.6005348584778062e-01  1.7005553474981336e-01  1.8005742427551688e-01  1.9005915428992298e-01  2.0006072487963589e-01  2.1006213635102317e-01  2.2006338922813773e-01  2.3006448425037551e-01  2.4006542236987310e-01  2.5006620474864927e-01  2.6006683275549553e-01  2.7006730796261891e-01  2.8006763214204389e-01  2.9006780726177872e-01  3.0006783548175048e-01  3.1006771914951536e-01  3.2006746079575088e-01  3.3006706312953582e-01  3.4006652903342433e-01  3.5006586155832203e-01  3.6006506391817028e-01  3.7006413948444533e-01  3.8006309178048087e-01  3.9006192447562177e-01  4.0006064137921549e-01  4.1005924643445080e-01  4.2005774371204940e-01  4.3005613740382442e-01  4.4005443181610343e-01  4.5005263136303952e-01  4.6005074055980288e-01  4.7004876401567652e-01  4.8004670642705494e-01  4.9004457257035666e-01  5.0004236729486462e-01  5.1004009551549778e-01  5.2003776220552522e-01  5.3003537238923193e-01  5.4003293113454909e-01  5.5003044354564845e-01  5.6002791475552349e-01  5.7002534991855258e-01  5.8002275420306826e-01  5.9002013278392529e-01  6.0001749083509415e-01  6.1001483352227426e-01  6.2001216599554598e-01  6.3000949338206624e-01  6.4000682077881732e-01  6.5000415324541827e-01  6.6000149579700573e-01  6.6999885339719967e-01  6.7999623095115291e-01  6.8999363329870245e-01  6.9999106520761967e-01  7.0998853136698181e-01  7.1998603638066205e-01  7.2998358476094960e-01  7.3998118092231024e-01  7.4997882917528702e-01  7.5997653372056018e-01  7.6997429864316380e-01  7.7997212790686832e-01  7.8997002534874272e-01  7.9996799467388990e-01  8.0996603945037526e-01  8.1996416310434606e-01  8.2996236891534902e-01  8.3996066001185421e-01  8.4995903936699124e-01  8.5995750979449381e-01  8.6995607394487540e-01  8.7995473430181792e-01  8.8995349317880157e-01  8.9995235271595564e-01  9.0995131487715986e-01  9.1995038144737595e-01  9.2994955403022528e-01  9.3994883404582363e-01  9.4994822272884427e-01  9.5994772112685711e-01  9.6994733009890299e-01  9.7994705031433549e-01  9.8994688225191019e-01  9.9994682619914199e-01  </DataArray> 
</PointData> 
</Piece>
</UnstructuredGrid>
</VTKFile>