<?xml version="1.0"?>
<VTKFile type="UnstructuredGrid"  version="0.1"  >
<UnstructuredGrid>
<Piece  NumberOfPoints="101" NumberOfCells="100">
<Points>
<DataArray  type="Float64"  NumberOfComponents="3"  format="ascii">0 0 0  0.01 0 0  0.02 0 0  0.03 0 0  0.04 0 0  0.05 0 0  0.06 0 0  0.07000000000000001 0 0  0.08 0 0  0.09 0 0  0.1 0 0  0.11 0 0  0.12 0 0  0.13 0 0  0.14 0 0  0.15 0 0  0.16 0 0  0.17 0 0  0.18 0 0  0.19 0 0  0.2 0 0  0.21 0 0  0.22 0 0  0.23 0 0  0.24 0 0  0.25 0 0  0.26 0 0  0.27 0 0  0.28 0 0  0.29 0 0  0.3 0 0  0.31 0 0  0.32 0 0  0.33 0 0  0.34 0 0  0.35 0 0  0.36 0 0  0.37 0 0  0.38 0 0  0.39 0 0  0.4 0 0  0.41 0 0  0.42 0 0  0.43 0 0  0.44 0 0  0.45 0 0  0.46 0 0  0.47 0 0  0.48 0 0  0.49 0 0  0.5 0 0  0.51 0 0  0.52 0 0  0.53 0 0  0.54 0 0  0.55 0 0  0.5600000000000001 0 0  0.57 0 0  0.58 0 0  0.59 0 0  0.6 0 0  0.61 0 0  0.62 0 0  0.63 0 0  0.64 0 0  0.65 0 0  0.66 0 0  0.67 0 0  0.68 0 0  0.6899999999999999 0 0  0.7 0 0  0.71 0 0  0.72 0 0  0.73 0 0  0.74 0 0  0.75 0 0  0.76 0 0  0.77 0 0  0.78 0 0  0.79 0 0  0.8 0 0  0.8100000000000001 0 0  0.82 0 0  0.83 0 0  0.84 0 0  0.85 0 0  0.86 0 0  0.87 0 0  0.88 0 0  0.89 0 0  0.9 0 0  0.91 0 0  0.92 0 0  0.93 0 0  0.9399999999999999 0 0  0.95 0 0  0.96 0 0  0.97 0 0  0.98 0 0  0.99 0 0  1 0 0  </DataArray>
</Points>
<Cells>
<DataArray  type="UInt32"  Name="connectivity"  format="ascii">0 1  1 2  2 3  3 4  4 5  5 6  6 7  7 8  8 9  9 10  10 11  11 12  12 13  13 14  14 15  15 16  16 17  17 18  18 19  19 20  20 21  21 22  22 23  23 24  24 25  25 26  26 27  27 28  28 29  29 30  30 31  31 32  32 33  33 34  34 35  35 36  36 37  37 38  38 39  39 40  40 41  41 42  42 43  43 44  44 45  45 46  46 47  47 48  48 49  49 50  50 51  51 52  52 53  53 54  54 55  55 56  56 57  57 58  58 59  59 60  60 61  61 62  62 63  63 64  64 65  65 66  66 67  67 68  68 69  69 70  70 71  71 72  72 73  73 74  74 75  75 76  76 77  77 78  78 79  79 80  80 81  81 82  82 83  83 84  84 85  85 86  86 87  87 88  88 89  89 90  90 91  91 92  92 93  93 94  94 95  95 96  96 97  97 98  98 99  99 100  </DataArray>
<DataArray  type="UInt32"  Name="offsets"  format="ascii">2 4 6 8 10 12 14 16 18 20 22 24 26 28 30 32 34 36 38 40 42 44 46 48 50 52 54 56 58 60 62 64 66 68 70 72 74 76 78 80 82 84 86 88 90 92 94 96 98 100 102 104 106 108 110 112 114 116 118 120 122 124 126 128 130 132 134 136 138 140 142 144 146 148 150 152 154 156 158 160 162 164 166 168 170 172 174 176 178 180 182 184 186 188 190 192 194 196 198 200 </DataArray>
<DataArray  type="UInt8"  Name="types"  format="ascii">3 3 3 3 3 3 3 3 3 3 3 3 3 3 3 3 3 3 3 3 3 3 3 3 3 3 3 3 3 3 3 3 3 3 3 3 3 3 3 3 3 3 3 3 3 3 3 3 3 3 3 3 3 3 3 3 3 3 3 3 3 3 3 3 3 3 3 3 3 3 3 3 3 3 3 3 3 3 3 3 3 3 3 3 3 3 3 3 3 3 3 3 3 3 3 3 3 3 3 3 </DataArray>
</Cells>
<PointData  Scalars="displacement"> 
<DataArray  type="Float64"  Name="displacement"  format="ascii">2.3136928145399926e-07  1.0029899134047586e-02  2.0056776042299478e-02  3.0080841699103852e-02  4.0102080497307804e-02  5.0120479723123584e-02  6.0136030069666516e-02  7.0148725500720321e-02  8.0158563284054005e-02  9.0165543974768114e-02  1.0016967140750878e-01  1.1017095268180843e-01  1.2016939814479888e-01  1.3016502137019181e-01  1.4015783913385982e-01  1.5014787138597124e-01  1.6013514121973735e-01  1.7011967483680585e-01  1.8010150150934853e-01  1.9008065353888789e-01  2.0005716621191452e-01  2.1003107775235014e-01  2.2000242927091132e-01  2.2997126471143708e-01  2.3993763079424019e-01  2.4990157695655232e-01  2.5986315529012932e-01  2.6982242047609034e-01  2.7977942971706471e-01  2.8973424266672587e-01  2.9968692135678954e-01  3.0963753012156198e-01  3.1958613552012005e-01  3.2953280625621478e-01  3.3947761309598257e-01  3.4942062878356112e-01  3.5936192795470184e-01  3.6930158704847099e-01  3.7923968421714432e-01  3.8917629923438718e-01  3.9911151340182704e-01  4.0904540945411733e-01  4.1897807146259691e-01  4.2890958473765273e-01  4.3884003572988795e-01  4.4876951193020925e-01  4.5869810176893289e-01  4.6862589451403064e-01  4.7855298016861419e-01  4.8847944936777637e-01  4.9840539327489863e-01  5.0833090347753407e-01  5.1825607188298140e-01  5.2818099061366208e-01  5.3810575190240850e-01  5.4803044798778311e-01  5.5795517100953207e-01  5.6788001290429202e-01  5.7780506530165876e-01  5.8773041942072712e-01  5.9765616596721682e-01  6.0758239503129041e-01  6.1750919598617271e-01  6.2743665738767973e-01  6.3736486687476701e-01  6.4729391107119638e-01  6.5722387548843142e-01  6.6715484442986317e-01  6.7708690089646506e-01  6.8702012649398347e-01  6.9695460134175136e-01  7.0689040398323044e-01  7.1682761129837713e-01  7.2676629841791818e-01  7.3670653863962876e-01  7.4664840334670801e-01  7.5659196192832467e-01  7.6653728170243518e-01  7.7648442784093341e-01  7.8643346329723529e-01  7.9638444873634662e-01  8.0633744246752026e-01  8.1629250037954160e-01  8.2624967587873621e-01  8.3620901982974383e-01  8.4617058049913918e-01  8.5613440350195014e-01  8.6610053175112056e-01  8.7606900540999433e-01  8.8603986184784578e-01  8.9601313559851847e-01  9.0598885832220899e-01  9.1596705877044227e-01  9.2594776275426438e-01  9.3593099311570094e-01  9.4591676970249583e-01  9.5590510934616824e-01  9.6589602584340328e-01  9.7588952994080291e-01  9.8588562932300716e-01  9.9588432860419929e-01  </DataArray> 
</PointData> 
</Piece>
</UnstructuredGrid>
</VTKFile>