<?xml version="1.0"?>
<VTKFile type="UnstructuredGrid"  version="0.1"  >
<UnstructuredGrid>
<Piece  NumberOfPoints="101" NumberOfCells="100">
<Points>
<DataArray  type="Float64"  NumberOfComponents="3"  format="ascii">0 0 0  0.01 0 0  0.02 0 0  0.03 0 0  0.04 0 0  0.05 0 0  0.06 0 0  0.07000000000000001 0 0  0.08 0 0  0.09 0 0  0.1 0 0  0.11 0 0  0.12 0 0  0.13 0 0  0.14 0 0  0.15 0 0  0.16 0 0  0.17 0 0  0.18 0 0  0.19 0 0  0.2 0 0  0.21 0 0  0.22 0 0  0.23 0 0  0.24 0 0  0.25 0 0  0.26 0 0  0.27 0 0  0.28 0 0  0.29 0 0  0.3 0 0  0.31 0 0  0.32 0 0  0.33 0 0  0.34 0 0  0.35 0 0  0.36 0 0  0.37 0 0  0.38 0 0  0.39 0 0  0.4 0 0  0.41 0 0  0.42 0 0  0.43 0 0  0.44 0 0  0.45 0 0  0.46 0 0  0.47 0 0  0.48 0 0  0.49 0 0  0.5 0 0  0.51 0 0  0.52 0 0  0.53 0 0  0.54 0 0  0.55 0 0  0.5600000000000001 0 0  0.57 0 0  0.58 0 0  0.59 0 0  0.6 0 0  0.61 0 0  0.62 0 0  0.63 0 0  0.64 0 0  0.65 0 0  0.66 0 0  0.67 0 0  0.68 0 0  0.6899999999999999 0 0  0.7 0 0  0.71 0 0  0.72 0 0  0.73 0 0  0.74 0 0  0.75 0 0  0.76 0 0  0.77 0 0  0.78 0 0  0.79 0 0  0.8 0 0  0.8100000000000001 0 0  0.82 0 0  0.83 0 0  0.84 0 0  0.85 0 0  0.86 0 0  0.87 0 0  0.88 0 0  0.89 0 0  0.9 0 0  0.91 0 0  0.92 0 0  0.93 0 0  0.9399999999999999 0 0  0.95 0 0  0.96 0 0  0.97 0 0  0.98 0 0  0.99 0 0  1 0 0  </DataArray>
</Points>
<Cells>
<DataArray  type="UInt32"  Name="connectivity"  format="ascii">0 1  1 2  2 3  3 4  4 5  5 6  6 7  7 8  8 9  9 10  10 11  11 12  12 13  13 14  14 15  15 16  16 17  17 18  18 19  19 20  20 21  21 22  22 23  23 24  24 25  25 26  26 27  27 28  28 29  29 30  30 31  31 32  32 33  33 34  34 35  35 36  36 37  37 38  38 39  39 40  40 41  41 42  42 43  43 44  44 45  45 46  46 47  47 48  48 49  49 50  50 51  51 52  52 53  53 54  54 55  55 56  56 57  57 58  58 59  59 60  60 61  61 62  62 63  63 64  64 65  65 66  66 67  67 68  68 69  69 70  70 71  71 72  72 73  73 74  74 75  75 76  76 77  77 78  78 79  79 80  80 81  81 82  82 83  83 84  84 85  85 86  86 87  87 88  88 89  89 90  90 91  91 92  92 93  93 94  94 95  95 96  96 97  97 98  98 99  99 100  </DataArray>
<DataArray  type="UInt32"  Name="offsets"  format="ascii">2 4 6 8 10 12 14 16 18 20 22 24 26 28 30 32 34 36 38 40 42 44 46 48 50 52 54 56 58 60 62 64 66 68 70 72 74 76 78 80 82 84 86 88 90 92 94 96 98 100 102 104 106 108 110 112 114 116 118 120 122 124 126 128 130 132 134 136 138 140 142 144 146 148 150 152 154 156 158 160 162 164 166 168 170 172 174 176 178 180 182 184 186 188 190 192 194 196 198 200 </DataArray>
<DataArray  type="UInt8"  Name="types"  format="ascii">3 3 3 3 3 3 3 3 3 3 3 3 3 3 3 3 3 3 3 3 3 3 3 3 3 3 3 3 3 3 3 3 3 3 3 3 3 3 3 3 3 3 3 3 3 3 3 3 3 3 3 3 3 3 3 3 3 3 3 3 3 3 3 3 3 3 3 3 3 3 3 3 3 3 3 3 3 3 3 3 3 3 3 3 3 3 3 3 3 3 3 3 3 3 3 3 3 3 3 3 </DataArray>
</Cells>
<PointData  Scalars="displacement"> 
<DataArray  type="Float64"  Name="displacement"  format="ascii">-6.4622343429914582e-07  -9.9967690743128605e-03  -1.9985141452904774e-02  -2.9965774834268696e-02  -3.9938688330919202e-02  -4.9903908673965054e-02  -5.9861470186728813e-02  -6.9811414750873824e-02  -7.9753791765072274e-02  -8.9688658096254176e-02  -9.9616078023487264e-02  -1.0953612317454073e-01  -1.1944887245519745e-01  -1.2935441197138389e-01  -1.3925283494419305e-01  -1.4914424161788731e-01  -1.5902873916096943e-01  -1.6890644156041937e-01  -1.7877746950920423e-01  -1.8864195028716760e-01  -1.9850001763542027e-01  -2.0835181162435354e-01  -2.1819747851540833e-01  -2.2803717061672948e-01  -2.3787104613285934e-01  -2.4769926900860689e-01  -2.5752200876725534e-01  -2.6733944034326157e-01  -2.7715174390961916e-01  -2.8695910470004676e-01  -2.9676171282618707e-01  -3.0655976308998839e-01  -3.1635345479145888e-01  -3.2614299153198084e-01  -3.3592858101338224e-01  -3.4571043483295877e-01  -3.5548876827465353e-01  -3.6526380009659803e-01  -3.7503575231522279e-01  -3.8480484998615555e-01  -3.9457132098211800e-01  -4.0433539576804378e-01  -4.1409730717363491e-01  -4.2385729016359042e-01  -4.3361558160572045e-01  -4.4337242003719085e-01  -4.5312804542911173e-01  -4.6288269894971806e-01  -4.7263662272636414e-01  -4.8239005960657338e-01  -4.9214325291837646e-01  -5.0189644623017826e-01  -5.1164988311038229e-01  -5.2140380688702004e-01  -5.3115846040761483e-01  -5.4091408579952094e-01  -5.5067092423097352e-01  -5.6042921567308368e-01  -5.7018919866301609e-01  -5.7995111006858158e-01  -5.8971518485447871e-01  -5.9948165585040947e-01  -6.0925075352130664e-01  -6.1902270573989238e-01  -6.2879773756179480e-01  -6.3857607100344438e-01  -6.4835792482297327e-01  -6.5814351430432261e-01  -6.6793305104478973e-01  -6.7772674274620293e-01  -6.8752479300994418e-01  -6.9732740113602176e-01  -7.0713476192638247e-01  -7.1694706549267095e-01  -7.2676449706860435e-01  -7.3658723682717631e-01  -7.4641545970284429e-01  -7.5624933521889182e-01  -7.6608902732012663e-01  -7.7593469421109196e-01  -7.8578648819993246e-01  -7.9564455554808899e-01  -8.0550903632595372e-01  -8.1538006427463650e-01  -8.2525776667398199e-01  -8.3514226421695503e-01  -8.4503367089053738e-01  -8.5493209386323055e-01  -8.6483763337929775e-01  -8.7475038265983129e-01  -8.8467042781075922e-01  -8.9459784773786233e-01  -9.0453271406891111e-01  -9.1447509108297320e-01  -9.2442503564697964e-01  -9.3438259715960348e-01  -9.4434781750250485e-01  -9.5432073099900805e-01  -9.6430136438022052e-01  -9.7428973675865782e-01  -9.8428585960937776e-01  </DataArray> 
</PointData> 
</Piece>
</UnstructuredGrid>
</VTKFile>