<?xml version="1.0"?>
<VTKFile type="UnstructuredGrid"  version="0.1"  >
<UnstructuredGrid>
<Piece  NumberOfPoints="101" NumberOfCells="100">
<Points>
<DataArray  type="Float64"  NumberOfComponents="3"  format="ascii">0 0 0  0.01 0 0  0.02 0 0  0.03 0 0  0.04 0 0  0.05 0 0  0.06 0 0  0.07000000000000001 0 0  0.08 0 0  0.09 0 0  0.1 0 0  0.11 0 0  0.12 0 0  0.13 0 0  0.14 0 0  0.15 0 0  0.16 0 0  0.17 0 0  0.18 0 0  0.19 0 0  0.2 0 0  0.21 0 0  0.22 0 0  0.23 0 0  0.24 0 0  0.25 0 0  0.26 0 0  0.27 0 0  0.28 0 0  0.29 0 0  0.3 0 0  0.31 0 0  0.32 0 0  0.33 0 0  0.34 0 0  0.35 0 0  0.36 0 0  0.37 0 0  0.38 0 0  0.39 0 0  0.4 0 0  0.41 0 0  0.42 0 0  0.43 0 0  0.44 0 0  0.45 0 0  0.46 0 0  0.47 0 0  0.48 0 0  0.49 0 0  0.5 0 0  0.51 0 0  0.52 0 0  0.53 0 0  0.54 0 0  0.55 0 0  0.5600000000000001 0 0  0.57 0 0  0.58 0 0  0.59 0 0  0.6 0 0  0.61 0 0  0.62 0 0  0.63 0 0  0.64 0 0  0.65 0 0  0.66 0 0  0.67 0 0  0.68 0 0  0.6899999999999999 0 0  0.7 0 0  0.71 0 0  0.72 0 0  0.73 0 0  0.74 0 0  0.75 0 0  0.76 0 0  0.77 0 0  0.78 0 0  0.79 0 0  0.8 0 0  0.8100000000000001 0 0  0.82 0 0  0.83 0 0  0.84 0 0  0.85 0 0  0.86 0 0  0.87 0 0  0.88 0 0  0.89 0 0  0.9 0 0  0.91 0 0  0.92 0 0  0.93 0 0  0.9399999999999999 0 0  0.95 0 0  0.96 0 0  0.97 0 0  0.98 0 0  0.99 0 0  1 0 0  </DataArray>
</Points>
<Cells>
<DataArray  type="UInt32"  Name="connectivity"  format="ascii">0 1  1 2  2 3  3 4  4 5  5 6  6 7  7 8  8 9  9 10  10 11  11 12  12 13  13 14  14 15  15 16  16 17  17 18  18 19  19 20  20 21  21 22  22 23  23 24  24 25  25 26  26 27  27 28  28 29  29 30  30 31  31 32  32 33  33 34  34 35  35 36  36 37  37 38  38 39  39 40  40 41  41 42  42 43  43 44  44 45  45 46  46 47  47 48  48 49  49 50  50 51  51 52  52 53  53 54  54 55  55 56  56 57  57 58  58 59  59 60  60 61  61 62  62 63  63 64  64 65  65 66  66 67  67 68  68 69  69 70  70 71  71 72  72 73  73 74  74 75  75 76  76 77  77 78  78 79  79 80  80 81  81 82  82 83  83 84  84 85  85 86  86 87  87 88  88 89  89 90  90 91  91 92  92 93  93 94  94 95  95 96  96 97  97 98  98 99  99 100  </DataArray>
<DataArray  type="UInt32"  Name="offsets"  format="ascii">2 4 6 8 10 12 14 16 18 20 22 24 26 28 30 32 34 36 38 40 42 44 46 48 50 52 54 56 58 60 62 64 66 68 70 72 74 76 78 80 82 84 86 88 90 92 94 96 98 100 102 104 106 108 110 112 114 116 118 120 122 124 126 128 130 132 134 136 138 140 142 144 146 148 150 152 154 156 158 160 162 164 166 168 170 172 174 176 178 180 182 184 186 188 190 192 194 196 198 200 </DataArray>
<DataArray  type="UInt8"  Name="types"  format="ascii">3 3 3 3 3 3 3 3 3 3 3 3 3 3 3 3 3 3 3 3 3 3 3 3 3 3 3 3 3 3 3 3 3 3 3 3 3 3 3 3 3 3 3 3 3 3 3 3 3 3 3 3 3 3 3 3 3 3 3 3 3 3 3 3 3 3 3 3 3 3 3 3 3 3 3 3 3 3 3 3 3 3 3 3 3 3 3 3 3 3 3 3 3 3 3 3 3 3 3 3 </DataArray>
</Cells>
<PointData  Scalars="displacement"> 
<DataArray  type="Float64"  Name="displacement"  format="ascii">-5.1781408124217793e-07  -9.9974110830626153e-03  -1.9988093955649600e-02  -2.9972575626722210e-02  -3.9950871410997645e-02  -4.9923002727916582e-02  -5.9888997080504693e-02  -6.9848888028230596e-02  -7.9802715153886622e-02  -8.9750524024525186e-02  -9.9692366146490269e-02  -1.0962829891458581e-01  -1.1955838555543523e-01  -1.2948269506508320e-01  -1.3940130214090557e-01  -1.4931428710789182e-01  -1.5922173583937435e-01  -1.6912373967228136e-01  -1.7902039531699876e-01  -1.8891180476192843e-01  -1.9879807517283812e-01  -2.0867931878710128e-01  -2.1855565280293382e-01  -2.2842719926373126e-01  -2.3829408493762863e-01  -2.4815644119239502e-01  -2.5801440386578917e-01  -2.6786811313150388e-01  -2.7771771336083267e-01  -2.8756335298019076e-01  -2.9740518432463792e-01  -3.0724336348754205e-01  -3.1707805016653196e-01  -3.2690940750589709e-01  -3.3673760193558305e-01  -3.4656280300694570e-01  -3.5638518322542395e-01  -3.6620491788029791e-01  -3.7602218487169969e-01  -3.8583716453504724e-01  -3.9565003946307514e-01  -4.0546099432563731e-01  -4.1527021568746192e-01  -4.2507789182403116e-01  -4.3488421253577941e-01  -4.4468936896078021e-01  -4.5449355338611880e-01  -4.6429695905812618e-01  -4.7409977999166913e-01  -4.8390221077868129e-01  -4.9370444639612182e-01  -5.0350668201356086e-01  -5.1330911280056735e-01  -5.2311193373410214e-01  -5.3291533940609781e-01  -5.4271952383142130e-01  -5.5252468025640433e-01  -5.6233100096813138e-01  -5.7213867710467758e-01  -5.8194789846647588e-01  -5.9175885332900902e-01  -6.0157172825700445e-01  -6.1138670792031546e-01  -6.2120397491167723e-01  -6.3102370956650877e-01  -6.4084608978494073e-01  -6.5067129085625464e-01  -6.6049948528588798e-01  -6.7033084262519704e-01  -6.8016552930412888e-01  -6.9000370846697145e-01  -6.9984553981135444e-01  -7.0969117943064519e-01  -7.1954077965990315e-01  -7.2939448892554382e-01  -7.3925245159886055e-01  -7.4911480785354567e-01  -7.5898169352735934e-01  -7.6885323998806909e-01  -7.7872957400381093e-01  -7.8861081761797969e-01  -7.9849708802879171e-01  -8.0838849747362074e-01  -8.1828515311823469e-01  -8.2818715695103495e-01  -8.3809460568240690e-01  -8.4800759064927911e-01  -8.5792619772498391e-01  -8.6785050723451107e-01  -8.7778059387523577e-01  -8.8771652664320400e-01  -8.9765836876503713e-01  -9.0760617763554041e-01  -9.1756000476105859e-01  -9.2751989570864390e-01  -9.3748589006108962e-01  -9.4745802137786195e-01  -9.5743631716198807e-01  -9.6742079883290732e-01  -9.7741148170533787e-01  -9.8740837497415834e-01  </DataArray> 
</PointData> 
</Piece>
</UnstructuredGrid>
</VTKFile>