<?xml version="1.0"?>
<VTKFile type="UnstructuredGrid"  version="0.1"  >
<UnstructuredGrid>
<Piece  NumberOfPoints="101" NumberOfCells="100">
<Points>
<DataArray  type="Float64"  NumberOfComponents="3"  format="ascii">0 0 0  0.01 0 0  0.02 0 0  0.03 0 0  0.04 0 0  0.05 0 0  0.06 0 0  0.07000000000000001 0 0  0.08 0 0  0.09 0 0  0.1 0 0  0.11 0 0  0.12 0 0  0.13 0 0  0.14 0 0  0.15 0 0  0.16 0 0  0.17 0 0  0.18 0 0  0.19 0 0  0.2 0 0  0.21 0 0  0.22 0 0  0.23 0 0  0.24 0 0  0.25 0 0  0.26 0 0  0.27 0 0  0.28 0 0  0.29 0 0  0.3 0 0  0.31 0 0  0.32 0 0  0.33 0 0  0.34 0 0  0.35 0 0  0.36 0 0  0.37 0 0  0.38 0 0  0.39 0 0  0.4 0 0  0.41 0 0  0.42 0 0  0.43 0 0  0.44 0 0  0.45 0 0  0.46 0 0  0.47 0 0  0.48 0 0  0.49 0 0  0.5 0 0  0.51 0 0  0.52 0 0  0.53 0 0  0.54 0 0  0.55 0 0  0.5600000000000001 0 0  0.57 0 0  0.58 0 0  0.59 0 0  0.6 0 0  0.61 0 0  0.62 0 0  0.63 0 0  0.64 0 0  0.65 0 0  0.66 0 0  0.67 0 0  0.68 0 0  0.6899999999999999 0 0  0.7 0 0  0.71 0 0  0.72 0 0  0.73 0 0  0.74 0 0  0.75 0 0  0.76 0 0  0.77 0 0  0.78 0 0  0.79 0 0  0.8 0 0  0.8100000000000001 0 0  0.82 0 0  0.83 0 0  0.84 0 0  0.85 0 0  0.86 0 0  0.87 0 0  0.88 0 0  0.89 0 0  0.9 0 0  0.91 0 0  0.92 0 0  0.93 0 0  0.9399999999999999 0 0  0.95 0 0  0.96 0 0  0.97 0 0  0.98 0 0  0.99 0 0  1 0 0  </DataArray>
</Points>
<Cells>
<DataArray  type="UInt32"  Name="connectivity"  format="ascii">0 1  1 2  2 3  3 4  4 5  5 6  6 7  7 8  8 9  9 10  10 11  11 12  12 13  13 14  14 15  15 16  16 17  17 18  18 19  19 20  20 21  21 22  22 23  23 24  24 25  25 26  26 27  27 28  28 29  29 30  30 31  31 32  32 33  33 34  34 35  35 36  36 37  37 38  38 39  39 40  40 41  41 42  42 43  43 44  44 45  45 46  46 47  47 48  48 49  49 50  50 51  51 52  52 53  53 54  54 55  55 56  56 57  57 58  58 59  59 60  60 61  61 62  62 63  63 64  64 65  65 66  66 67  67 68  68 69  69 70  70 71  71 72  72 73  73 74  74 75  75 76  76 77  77 78  78 79  79 80  80 81  81 82  82 83  83 84  84 85  85 86  86 87  87 88  88 89  89 90  90 91  91 92  92 93  93 94  94 95  95 96  96 97  97 98  98 99  99 100  </DataArray>
<DataArray  type="UInt32"  Name="offsets"  format="ascii">2 4 6 8 10 12 14 16 18 20 22 24 26 28 30 32 34 36 38 40 42 44 46 48 50 52 54 56 58 60 62 64 66 68 70 72 74 76 78 80 82 84 86 88 90 92 94 96 98 100 102 104 106 108 110 112 114 116 118 120 122 124 126 128 130 132 134 136 138 140 142 144 146 148 150 152 154 156 158 160 162 164 166 168 170 172 174 176 178 180 182 184 186 188 190 192 194 196 198 200 </DataArray>
<DataArray  type="UInt8"  Name="types"  format="ascii">3 3 3 3 3 3 3 3 3 3 3 3 3 3 3 3 3 3 3 3 3 3 3 3 3 3 3 3 3 3 3 3 3 3 3 3 3 3 3 3 3 3 3 3 3 3 3 3 3 3 3 3 3 3 3 3 3 3 3 3 3 3 3 3 3 3 3 3 3 3 3 3 3 3 3 3 3 3 3 3 3 3 3 3 3 3 3 3 3 3 3 3 3 3 3 3 3 3 3 3 </DataArray>
</Cells>
<PointData  Scalars="displacement"> 
<DataArray  type="Float64"  Name="displacement"  format="ascii">-1.0572559551333363e-06  -9.9947140333944261e-03  -1.9975690625397457e-02  -2.9944005805771352e-02  -3.9899690843607838e-02  -4.9842789472424501e-02  -5.9773357847005035e-02  -6.9691464487981289e-02  -7.9597190214211674e-02  -8.9490628063022590e-02  -9.9371883198392075e-02  -1.0924107280716526e-01  -1.1909832598340564e-01  -1.2894378360099443e-01  -1.3877759817460467e-01  -1.4859993370918861e-01  -1.5841096553812437e-01  -1.6821088015018190e-01  -1.7799987500548328e-01  -1.8777815834063108e-01  -1.9754594896320582e-01  -2.0730347603582749e-01  -2.1705097885000227e-01  -2.2678870658996786e-01  -2.3651691808678033e-01  -2.4623588156287968e-01  -2.5594587436738453e-01  -2.6564718270238424e-01  -2.7534010134049086e-01  -2.8502493333393425e-01  -2.9470198971548617e-01  -3.0437158919150908e-01  -3.1403405782743021e-01  -3.2368972872595536e-01  -3.3333894169833655e-01  -3.4298204292901879e-01  -3.5261938463399889e-01  -3.6225132471322979e-01  -3.7187822639741686e-01  -3.8150045788955339e-01  -3.9111839200154780e-01  -4.0073240578630487e-01  -4.1034288016561832e-01  -4.1995019955424828e-01  -4.2955475148054861e-01  -4.3915692620402585e-01  -4.4875711633019721e-01  -4.5835571642313866e-01  -4.6795312261609712e-01  -4.7754973222055469e-01  -4.8714594333412969e-01  -4.9674215444770325e-01  -5.0633876405215605e-01  -5.1593617024510674e-01  -5.2553477033803719e-01  -5.3513496046419429e-01  -5.4473713518765454e-01  -5.5434168711393561e-01  -5.6394900650254420e-01  -5.7355948088183295e-01  -5.8317349466656310e-01  -5.9279142877852709e-01  -6.0241366027062970e-01  -6.1204056195477985e-01  -6.2167250203397095e-01  -6.3130984373890786e-01  -6.4095294496954447e-01  -6.5060215794187648e-01  -6.6025782884034945e-01  -6.6992029747621640e-01  -6.7958989695218208e-01  -6.8926695333367427e-01  -6.9895178532705438e-01  -7.0864470396509527e-01  -7.1834601230002593e-01  -7.2805600510445800e-01  -7.3777496858048164e-01  -7.4750318007721572e-01  -7.5724090781709885e-01  -7.6698841063118828e-01  -7.7674593770372169e-01  -7.8651372832620414e-01  -7.9629201166125740e-01  -8.0608100651646175e-01  -8.1588092112841926e-01  -8.2569195295725095e-01  -8.3551428849172715e-01  -8.4534810306522723e-01  -8.5519356068270114e-01  -8.6505081385882432e-01  -8.7492000346747656e-01  -8.8480125860272196e-01  -8.9469469645140465e-01  -9.0460042217750447e-01  -9.1451852881834728e-01  -9.2444909719279333e-01  -9.3439219582147104e-01  -9.4434788085916577e-01  -9.5431619603939410e-01  -9.6429717263124859e-01  -9.7429082940853529e-01  </DataArray> 
</PointData> 
</Piece>
</UnstructuredGrid>
</VTKFile>