<?xml version="1.0"?>
<VTKFile type="UnstructuredGrid"  version="0.1"  >
<UnstructuredGrid>
<Piece  NumberOfPoints="101" NumberOfCells="100">
<Points>
<DataArray  type="Float64"  NumberOfComponents="3"  format="ascii">0 0 0  0.01 0 0  0.02 0 0  0.03 0 0  0.04 0 0  0.05 0 0  0.06 0 0  0.07000000000000001 0 0  0.08 0 0  0.09 0 0  0.1 0 0  0.11 0 0  0.12 0 0  0.13 0 0  0.14 0 0  0.15 0 0  0.16 0 0  0.17 0 0  0.18 0 0  0.19 0 0  0.2 0 0  0.21 0 0  0.22 0 0  0.23 0 0  0.24 0 0  0.25 0 0  0.26 0 0  0.27 0 0  0.28 0 0  0.29 0 0  0.3 0 0  0.31 0 0  0.32 0 0  0.33 0 0  0.34 0 0  0.35 0 0  0.36 0 0  0.37 0 0  0.38 0 0  0.39 0 0  0.4 0 0  0.41 0 0  0.42 0 0  0.43 0 0  0.44 0 0  0.45 0 0  0.46 0 0  0.47 0 0  0.48 0 0  0.49 0 0  0.5 0 0  0.51 0 0  0.52 0 0  0.53 0 0  0.54 0 0  0.55 0 0  0.5600000000000001 0 0  0.57 0 0  0.58 0 0  0.59 0 0  0.6 0 0  0.61 0 0  0.62 0 0  0.63 0 0  0.64 0 0  0.65 0 0  0.66 0 0  0.67 0 0  0.68 0 0  0.6899999999999999 0 0  0.7 0 0  0.71 0 0  0.72 0 0  0.73 0 0  0.74 0 0  0.75 0 0  0.76 0 0  0.77 0 0  0.78 0 0  0.79 0 0  0.8 0 0  0.8100000000000001 0 0  0.82 0 0  0.83 0 0  0.84 0 0  0.85 0 0  0.86 0 0  0.87 0 0  0.88 0 0  0.89 0 0  0.9 0 0  0.91 0 0  0.92 0 0  0.93 0 0  0.9399999999999999 0 0  0.95 0 0  0.96 0 0  0.97 0 0  0.98 0 0  0.99 0 0  1 0 0  </DataArray>
</Points>
<Cells>
<DataArray  type="UInt32"  Name="connectivity"  format="ascii">0 1  1 2  2 3  3 4  4 5  5 6  6 7  7 8  8 9  9 10  10 11  11 12  12 13  13 14  14 15  15 16  16 17  17 18  18 19  19 20  20 21  21 22  22 23  23 24  24 25  25 26  26 27  27 28  28 29  29 30  30 31  31 32  32 33  33 34  34 35  35 36  36 37  37 38  38 39  39 40  40 41  41 42  42 43  43 44  44 45  45 46  46 47  47 48  48 49  49 50  50 51  51 52  52 53  53 54  54 55  55 56  56 57  57 58  58 59  59 60  60 61  61 62  62 63  63 64  64 65  65 66  66 67  67 68  68 69  69 70  70 71  71 72  72 73  73 74  74 75  75 76  76 77  77 78  78 79  79 80  80 81  81 82  82 83  83 84  84 85  85 86  86 87  87 88  88 89  89 90  90 91  91 92  92 93  93 94  94 95  95 96  96 97  97 98  98 99  99 100  </DataArray>
<DataArray  type="UInt32"  Name="offsets"  format="ascii">2 4 6 8 10 12 14 16 18 20 22 24 26 28 30 32 34 36 38 40 42 44 46 48 50 52 54 56 58 60 62 64 66 68 70 72 74 76 78 80 82 84 86 88 90 92 94 96 98 100 102 104 106 108 110 112 114 116 118 120 122 124 126 128 130 132 134 136 138 140 142 144 146 148 150 152 154 156 158 160 162 164 166 168 170 172 174 176 178 180 182 184 186 188 190 192 194 196 198 200 </DataArray>
<DataArray  type="UInt8"  Name="types"  format="ascii">3 3 3 3 3 3 3 3 3 3 3 3 3 3 3 3 3 3 3 3 3 3 3 3 3 3 3 3 3 3 3 3 3 3 3 3 3 3 3 3 3 3 3 3 3 3 3 3 3 3 3 3 3 3 3 3 3 3 3 3 3 3 3 3 3 3 3 3 3 3 3 3 3 3 3 3 3 3 3 3 3 3 3 3 3 3 3 3 3 3 3 3 3 3 3 3 3 3 3 3 </DataArray>
</Cells>
<PointData  Scalars="displacement"> 
<DataArray  type="Float64"  Name="displacement"  format="ascii">-7.9945695517173007e-10  1.0000417385134103e-02  2.0000844884306351e-02  3.0001281262747537e-02  4.0001726110631936e-02  5.0002179011361177e-02  6.0002639550678784e-02  7.0003107314687951e-02  8.0003581890831385e-02  9.0004062868066143e-02  1.0000454983724195e-01  1.1000504239141294e-01  1.2000554012615489e-01  1.3000604263986798e-01  1.4000654953407049e-01  1.5000706041368142e-01  1.6000757488729367e-01  1.7000809256743424e-01  1.8000861307081575e-01  1.9000913601857569e-01  2.0000966103650450e-01  2.1001018775526292e-01  2.2001071581058818e-01  2.3001124484348853e-01  2.4001177450042588e-01  2.5001230443348876e-01  2.6001283430055205e-01  2.7001336376542667e-01  2.8001389249799724e-01  2.9001442017434992e-01  3.0001494647688670e-01  3.1001547109443112e-01  3.2001599372232120e-01  3.3001651406249294e-01  3.4001703182355114e-01  3.5001754672083329e-01  3.6001805847645796e-01  3.7001856681936851e-01  3.8001907148536179e-01  3.9001957221711048e-01  4.0002006876417368e-01  4.1002056088299971e-01  4.2002104833691889e-01  4.3002153089612666e-01  4.4002200833766031e-01  4.5002248044536475e-01  4.6002294700985091e-01  4.7002340782844726e-01  4.8002386270514408e-01  4.9002431145052749e-01  5.0002475388171064e-01  5.1002518982225475e-01  5.2002561910208589e-01  5.3002604155740518e-01  5.4002645703059271e-01  5.5002686537010848e-01  5.6002726643038492e-01  5.7002766007171746e-01  5.8002804616015013e-01  5.9002842456735649e-01  6.0002879517051755e-01  6.1002915785219736e-01  6.2002951250021321e-01  6.3002985900750696e-01  6.4003019727201083e-01  6.5003052719651444e-01  6.6003084868852602e-01  6.7003116166013699e-01  6.8003146602788522e-01  6.9003176171261560e-01  7.0003204863934243e-01  7.1003232673710981e-01  7.2003259593885560e-01  7.3003285618127545e-01  7.4003310740468720e-01  7.5003334955289780e-01  7.6003358257307030e-01  7.7003380641559582e-01  7.8003402103396824e-01  7.9003422638465615e-01  8.0003442242698619e-01  8.1003460912302139e-01  8.2003478643745153e-01  8.3003495433748009e-01  8.4003511279271881e-01  8.5003526177508626e-01  8.6003540125871147e-01  8.7003553121984012e-01  8.8003565163674891e-01  8.9003576248966509e-01  9.0003586376068334e-01  9.1003595543370175e-01  9.2003603749435181e-01  9.3003610992994057e-01  9.4003617272939743e-01  9.5003622588322412e-01  9.6003626938345510e-01  9.7003630322362111e-01  9.8003632739872082e-01  9.9003634190519885e-01  1.0000363467409277e+00  </DataArray> 
</PointData> 
</Piece>
</UnstructuredGrid>
</VTKFile>