<?xml version="1.0"?>
<VTKFile type="UnstructuredGrid"  version="0.1"  >
<UnstructuredGrid>
<Piece  NumberOfPoints="101" NumberOfCells="100">
<Points>
<DataArray  type="Float64"  NumberOfComponents="3"  format="ascii">0 0 0  0.01 0 0  0.02 0 0  0.03 0 0  0.04 0 0  0.05 0 0  0.06 0 0  0.07000000000000001 0 0  0.08 0 0  0.09 0 0  0.1 0 0  0.11 0 0  0.12 0 0  0.13 0 0  0.14 0 0  0.15 0 0  0.16 0 0  0.17 0 0  0.18 0 0  0.19 0 0  0.2 0 0  0.21 0 0  0.22 0 0  0.23 0 0  0.24 0 0  0.25 0 0  0.26 0 0  0.27 0 0  0.28 0 0  0.29 0 0  0.3 0 0  0.31 0 0  0.32 0 0  0.33 0 0  0.34 0 0  0.35 0 0  0.36 0 0  0.37 0 0  0.38 0 0  0.39 0 0  0.4 0 0  0.41 0 0  0.42 0 0  0.43 0 0  0.44 0 0  0.45 0 0  0.46 0 0  0.47 0 0  0.48 0 0  0.49 0 0  0.5 0 0  0.51 0 0  0.52 0 0  0.53 0 0  0.54 0 0  0.55 0 0  0.5600000000000001 0 0  0.57 0 0  0.58 0 0  0.59 0 0  0.6 0 0  0.61 0 0  0.62 0 0  0.63 0 0  0.64 0 0  0.65 0 0  0.66 0 0  0.67 0 0  0.68 0 0  0.6899999999999999 0 0  0.7 0 0  0.71 0 0  0.72 0 0  0.73 0 0  0.74 0 0  0.75 0 0  0.76 0 0  0.77 0 0  0.78 0 0  0.79 0 0  0.8 0 0  0.8100000000000001 0 0  0.82 0 0  0.83 0 0  0.84 0 0  0.85 0 0  0.86 0 0  0.87 0 0  0.88 0 0  0.89 0 0  0.9 0 0  0.91 0 0  0.92 0 0  0.93 0 0  0.9399999999999999 0 0  0.95 0 0  0.96 0 0  0.97 0 0  0.98 0 0  0.99 0 0  1 0 0  </DataArray>
</Points>
<Cells>
<DataArray  type="UInt32"  Name="connectivity"  format="ascii">0 1  1 2  2 3  3 4  4 5  5 6  6 7  7 8  8 9  9 10  10 11  11 12  12 13  13 14  14 15  15 16  16 17  17 18  18 19  19 20  20 21  21 22  22 23  23 24  24 25  25 26  26 27  27 28  28 29  29 30  30 31  31 32  32 33  33 34  34 35  35 36  36 37  37 38  38 39  39 40  40 41  41 42  42 43  43 44  44 45  45 46  46 47  47 48  48 49  49 50  50 51  51 52  52 53  53 54  54 55  55 56  56 57  57 58  58 59  59 60  60 61  61 62  62 63  63 64  64 65  65 66  66 67  67 68  68 69  69 70  70 71  71 72  72 73  73 74  74 75  75 76  76 77  77 78  78 79  79 80  80 81  81 82  82 83  83 84  84 85  85 86  86 87  87 88  88 89  89 90  90 91  91 92  92 93  93 94  94 95  95 96  96 97  97 98  98 99  99 100  </DataArray>
<DataArray  type="UInt32"  Name="offsets"  format="ascii">2 4 6 8 10 12 14 16 18 20 22 24 26 28 30 32 34 36 38 40 42 44 46 48 50 52 54 56 58 60 62 64 66 68 70 72 74 76 78 80 82 84 86 88 90 92 94 96 98 100 102 104 106 108 110 112 114 116 118 120 122 124 126 128 130 132 134 136 138 140 142 144 146 148 150 152 154 156 158 160 162 164 166 168 170 172 174 176 178 180 182 184 186 188 190 192 194 196 198 200 </DataArray>
<DataArray  type="UInt8"  Name="types"  format="ascii">3 3 3 3 3 3 3 3 3 3 3 3 3 3 3 3 3 3 3 3 3 3 3 3 3 3 3 3 3 3 3 3 3 3 3 3 3 3 3 3 3 3 3 3 3 3 3 3 3 3 3 3 3 3 3 3 3 3 3 3 3 3 3 3 3 3 3 3 3 3 3 3 3 3 3 3 3 3 3 3 3 3 3 3 3 3 3 3 3 3 3 3 3 3 3 3 3 3 3 3 </DataArray>
</Cells>
<PointData  Scalars="displacement"> 
<DataArray  type="Float64"  Name="displacement"  format="ascii">-4.0483228311985546e-07  -9.9979759586055778e-03  -1.9990691734248150e-02  -2.9978559347860985e-02  -3.9961590772644842e-02  -4.9939802754534995e-02  -5.9913216795674878e-02  -6.9881859133196320e-02  -7.9845760713326483e-02  -8.9804957160847618e-02  -9.9759488743939945e-02  -1.0970940033444165e-01  -1.1965474136356570e-01  -1.2959556577311765e-01  -1.3953193196226057e-01  -1.4946390272988355e-01  -1.5939154521262572e-01  -1.6931493081862092e-01  -1.7923413515702633e-01  -1.8914923796340583e-01  -1.9906032302103935e-01  -2.0896747807824065e-01  -2.1887079476175916e-01  -2.2877036848635549e-01  -2.3866629836063885e-01  -2.4855868708925929e-01  -2.5844764087154931e-01  -2.6833326929671952e-01  -2.7821568523570589e-01  -2.8809500472978083e-01  -2.9797134687603360e-01  -3.0784483370983701e-01  -3.1771559008441208e-01  -3.2758374354761305e-01  -3.3744942421605389e-01  -3.4731276464669830e-01  -3.5717389970604252e-01  -3.6703296643701760e-01  -3.7689010392374522e-01  -3.8674545315427805e-01  -3.9659915688146119e-01  -4.0645135948205413e-01  -4.1630220681424651e-01  -4.2615184607371404e-01  -4.3600042564835439e-01  -4.4584809497184630e-01  -4.5569500437617622e-01  -4.6554130494327939e-01  -4.7538714835593993e-01  -4.8523268674809816e-01  -4.9507807255471226e-01  -5.0492345836132457e-01  -5.1476899675347731e-01  -5.2461484016612936e-01  -5.3446114073322037e-01  -5.4430805013753514e-01  -5.5415571946100861e-01  -5.6400429903562821e-01  -5.7385393829507203e-01  -5.8370478562723782e-01  -5.9355698822780101e-01  -6.0341069195495123e-01  -6.1326604118544681e-01  -6.2312317867213440e-01  -6.3298224540306547e-01  -6.4284338046236333e-01  -6.5270672089295778e-01  -6.6257240156134545e-01  -6.7244055502448952e-01  -6.8231131139900536e-01  -6.9218479823274648e-01  -7.0206114037893441e-01  -7.1194045987294063e-01  -7.2182287581185556e-01  -7.3170850423695000e-01  -7.4159745801916155e-01  -7.5148984674769970e-01  -7.6138577662189788e-01  -7.7128535034640500e-01  -7.8118866702983081e-01  -7.9109582208693685e-01  -8.0100690714447087e-01  -8.1092200995074815e-01  -8.2084121428904822e-01  -8.3076459989493523e-01  -8.4069224237756512e-01  -8.5062421314507219e-01  -8.6056057933409624e-01  -8.7050140374352492e-01  -8.8044674477252249e-01  -8.9039665636289389e-01  -9.0035118794585334e-01  -9.1031038439323742e-01  -9.2027428597322780e-01  -9.3024292831060651e-01  -9.4021634235160190e-01  -9.5019455433334388e-01  -9.6017758575797640e-01  -9.7016545337143367e-01  -9.8015816914691822e-01  -9.9015574027307773e-01  </DataArray> 
</PointData> 
</Piece>
</UnstructuredGrid>
</VTKFile>