<?xml version="1.0"?>
<VTKFile type="UnstructuredGrid"  version="0.1"  >
<UnstructuredGrid>
<Piece  NumberOfPoints="101" NumberOfCells="100">
<Points>
<DataArray  type="Float64"  NumberOfComponents="3"  format="ascii">0 0 0  0.01 0 0  0.02 0 0  0.03 0 0  0.04 0 0  0.05 0 0  0.06 0 0  0.07000000000000001 0 0  0.08 0 0  0.09 0 0  0.1 0 0  0.11 0 0  0.12 0 0  0.13 0 0  0.14 0 0  0.15 0 0  0.16 0 0  0.17 0 0  0.18 0 0  0.19 0 0  0.2 0 0  0.21 0 0  0.22 0 0  0.23 0 0  0.24 0 0  0.25 0 0  0.26 0 0  0.27 0 0  0.28 0 0  0.29 0 0  0.3 0 0  0.31 0 0  0.32 0 0  0.33 0 0  0.34 0 0  0.35 0 0  0.36 0 0  0.37 0 0  0.38 0 0  0.39 0 0  0.4 0 0  0.41 0 0  0.42 0 0  0.43 0 0  0.44 0 0  0.45 0 0  0.46 0 0  0.47 0 0  0.48 0 0  0.49 0 0  0.5 0 0  0.51 0 0  0.52 0 0  0.53 0 0  0.54 0 0  0.55 0 0  0.5600000000000001 0 0  0.57 0 0  0.58 0 0  0.59 0 0  0.6 0 0  0.61 0 0  0.62 0 0  0.63 0 0  0.64 0 0  0.65 0 0  0.66 0 0  0.67 0 0  0.68 0 0  0.6899999999999999 0 0  0.7 0 0  0.71 0 0  0.72 0 0  0.73 0 0  0.74 0 0  0.75 0 0  0.76 0 0  0.77 0 0  0.78 0 0  0.79 0 0  0.8 0 0  0.8100000000000001 0 0  0.82 0 0  0.83 0 0  0.84 0 0  0.85 0 0  0.86 0 0  0.87 0 0  0.88 0 0  0.89 0 0  0.9 0 0  0.91 0 0  0.92 0 0  0.93 0 0  0.9399999999999999 0 0  0.95 0 0  0.96 0 0  0.97 0 0  0.98 0 0  0.99 0 0  1 0 0  </DataArray>
</Points>
<Cells>
<DataArray  type="UInt32"  Name="connectivity"  format="ascii">0 1  1 2  2 3  3 4  4 5  5 6  6 7  7 8  8 9  9 10  10 11  11 12  12 13  13 14  14 15  15 16  16 17  17 18  18 19  19 20  20 21  21 22  22 23  23 24  24 25  25 26  26 27  27 28  28 29  29 30  30 31  31 32  32 33  33 34  34 35  35 36  36 37  37 38  38 39  39 40  40 41  41 42  42 43  43 44  44 45  45 46  46 47  47 48  48 49  49 50  50 51  51 52  52 53  53 54  54 55  55 56  56 57  57 58  58 59  59 60  60 61  61 62  62 63  63 64  64 65  65 66  66 67  67 68  68 69  69 70  70 71  71 72  72 73  73 74  74 75  75 76  76 77  77 78  78 79  79 80  80 81  81 82  82 83  83 84  84 85  85 86  86 87  87 88  88 89  89 90  90 91  91 92  92 93  93 94  94 95  95 96  96 97  97 98  98 99  99 100  </DataArray>
<DataArray  type="UInt32"  Name="offsets"  format="ascii">2 4 6 8 10 12 14 16 18 20 22 24 26 28 30 32 34 36 38 40 42 44 46 48 50 52 54 56 58 60 62 64 66 68 70 72 74 76 78 80 82 84 86 88 90 92 94 96 98 100 102 104 106 108 110 112 114 116 118 120 122 124 126 128 130 132 134 136 138 140 142 144 146 148 150 152 154 156 158 160 162 164 166 168 170 172 174 176 178 180 182 184 186 188 190 192 194 196 198 200 </DataArray>
<DataArray  type="UInt8"  Name="types"  format="ascii">3 3 3 3 3 3 3 3 3 3 3 3 3 3 3 3 3 3 3 3 3 3 3 3 3 3 3 3 3 3 3 3 3 3 3 3 3 3 3 3 3 3 3 3 3 3 3 3 3 3 3 3 3 3 3 3 3 3 3 3 3 3 3 3 3 3 3 3 3 3 3 3 3 3 3 3 3 3 3 3 3 3 3 3 3 3 3 3 3 3 3 3 3 3 3 3 3 3 3 3 </DataArray>
</Cells>
<PointData  Scalars="displacement"> 
<DataArray  type="Float64"  Name="displacement"  format="ascii">-1.5946919891367254e-13  9.9999999849247258e-03  1.9999999971929062e-02  2.9999999960862344e-02  3.9999999951730467e-02  4.9999999944537382e-02  5.9999999939284968e-02  6.9999999935972751e-02  7.9999999934598234e-02  8.9999999935156921e-02  9.9999999937641942e-02  1.0999999994204439e-01  1.1999999994835329e-01  1.2999999995655567e-01  1.3999999996663631e-01  1.4999999997857794e-01  1.5999999999236153e-01  1.7000000000796586e-01  1.8000000002536787e-01  1.9000000004454251e-01  2.0000000006546298e-01  2.1000000008809994e-01  2.2000000011242316e-01  2.3000000013840038e-01  2.4000000016599668e-01  2.5000000019517682e-01  2.6000000022590281e-01  2.7000000025813570e-01  2.8000000029183414e-01  2.9000000032695616e-01  3.0000000036345753e-01  3.1000000040129350e-01  3.2000000044041704e-01  3.3000000048078082e-01  3.4000000052233453e-01  3.5000000056502800e-01  3.6000000060880977e-01  3.7000000065362681e-01  3.8000000069942563e-01  3.9000000074615176e-01  4.0000000079374870e-01  4.1000000084215976e-01  4.2000000089132777e-01  4.3000000094119467e-01  4.4000000099170145e-01  4.5000000104278925e-01  4.6000000109439726e-01  4.7000000114646517e-01  4.8000000119893210e-01  4.9000000125173720e-01  5.0000000130481848e-01  5.1000000135811485e-01  5.2000000141156422e-01  5.3000000146510495e-01  5.4000000151867389e-01  5.5000000157221063e-01  5.6000000162565278e-01  5.7000000167893861e-01  5.8000000173200705e-01  5.9000000178479750e-01  6.0000000183724866e-01  6.1000000188930115e-01  6.2000000194089477e-01  6.3000000199197070e-01  6.4000000204247087e-01  6.5000000209233733e-01  6.6000000214151378e-01  6.7000000218994338e-01  6.8000000223757051e-01  6.9000000228434255e-01  7.0000000233020587e-01  7.1000000237510807e-01  7.2000000241899842e-01  7.3000000246182695e-01  7.4000000250354547e-01  7.5000000254410548e-01  7.6000000258346279e-01  7.7000000262157164e-01  7.8000000265838865e-01  7.9000000269387372e-01  8.0000000272798566e-01  8.1000000276068507e-01  8.2000000279193752e-01  8.3000000282170561e-01  8.4000000284995668e-01  8.5000000287665922e-01  8.6000000290178158e-01  8.7000000292529656e-01  8.8000000294717728e-01  8.9000000296740045e-01  9.0000000298594141e-01  9.1000000300278083e-01  9.2000000301789853e-01  9.3000000303127794e-01  9.4000000304290343e-01  9.5000000305276244e-01  9.6000000306084476e-01  9.7000000306714018e-01  9.8000000307164137e-01  9.9000000307434477e-01  1.0000000030752465e+00  </DataArray> 
</PointData> 
</Piece>
</UnstructuredGrid>
</VTKFile>