<?xml version="1.0"?>
<VTKFile type="UnstructuredGrid"  version="0.1"  >
<UnstructuredGrid>
<Piece  NumberOfPoints="101" NumberOfCells="100">
<Points>
<DataArray  type="Float64"  NumberOfComponents="3"  format="ascii">0 0 0  0.01 0 0  0.02 0 0  0.03 0 0  0.04 0 0  0.05 0 0  0.06 0 0  0.07000000000000001 0 0  0.08 0 0  0.09 0 0  0.1 0 0  0.11 0 0  0.12 0 0  0.13 0 0  0.14 0 0  0.15 0 0  0.16 0 0  0.17 0 0  0.18 0 0  0.19 0 0  0.2 0 0  0.21 0 0  0.22 0 0  0.23 0 0  0.24 0 0  0.25 0 0  0.26 0 0  0.27 0 0  0.28 0 0  0.29 0 0  0.3 0 0  0.31 0 0  0.32 0 0  0.33 0 0  0.34 0 0  0.35 0 0  0.36 0 0  0.37 0 0  0.38 0 0  0.39 0 0  0.4 0 0  0.41 0 0  0.42 0 0  0.43 0 0  0.44 0 0  0.45 0 0  0.46 0 0  0.47 0 0  0.48 0 0  0.49 0 0  0.5 0 0  0.51 0 0  0.52 0 0  0.53 0 0  0.54 0 0  0.55 0 0  0.5600000000000001 0 0  0.57 0 0  0.58 0 0  0.59 0 0  0.6 0 0  0.61 0 0  0.62 0 0  0.63 0 0  0.64 0 0  0.65 0 0  0.66 0 0  0.67 0 0  0.68 0 0  0.6899999999999999 0 0  0.7 0 0  0.71 0 0  0.72 0 0  0.73 0 0  0.74 0 0  0.75 0 0  0.76 0 0  0.77 0 0  0.78 0 0  0.79 0 0  0.8 0 0  0.8100000000000001 0 0  0.82 0 0  0.83 0 0  0.84 0 0  0.85 0 0  0.86 0 0  0.87 0 0  0.88 0 0  0.89 0 0  0.9 0 0  0.91 0 0  0.92 0 0  0.93 0 0  0.9399999999999999 0 0  0.95 0 0  0.96 0 0  0.97 0 0  0.98 0 0  0.99 0 0  1 0 0  </DataArray>
</Points>
<Cells>
<DataArray  type="UInt32"  Name="connectivity"  format="ascii">0 1  1 2  2 3  3 4  4 5  5 6  6 7  7 8  8 9  9 10  10 11  11 12  12 13  13 14  14 15  15 16  16 17  17 18  18 19  19 20  20 21  21 22  22 23  23 24  24 25  25 26  26 27  27 28  28 29  29 30  30 31  31 32  32 33  33 34  34 35  35 36  36 37  37 38  38 39  39 40  40 41  41 42  42 43  43 44  44 45  45 46  46 47  47 48  48 49  49 50  50 51  51 52  52 53  53 54  54 55  55 56  56 57  57 58  58 59  59 60  60 61  61 62  62 63  63 64  64 65  65 66  66 67  67 68  68 69  69 70  70 71  71 72  72 73  73 74  74 75  75 76  76 77  77 78  78 79  79 80  80 81  81 82  82 83  83 84  84 85  85 86  86 87  87 88  88 89  89 90  90 91  91 92  92 93  93 94  94 95  95 96  96 97  97 98  98 99  99 100  </DataArray>
<DataArray  type="UInt32"  Name="offsets"  format="ascii">2 4 6 8 10 12 14 16 18 20 22 24 26 28 30 32 34 36 38 40 42 44 46 48 50 52 54 56 58 60 62 64 66 68 70 72 74 76 78 80 82 84 86 88 90 92 94 96 98 100 102 104 106 108 110 112 114 116 118 120 122 124 126 128 130 132 134 136 138 140 142 144 146 148 150 152 154 156 158 160 162 164 166 168 170 172 174 176 178 180 182 184 186 188 190 192 194 196 198 200 </DataArray>
<DataArray  type="UInt8"  Name="types"  format="ascii">3 3 3 3 3 3 3 3 3 3 3 3 3 3 3 3 3 3 3 3 3 3 3 3 3 3 3 3 3 3 3 3 3 3 3 3 3 3 3 3 3 3 3 3 3 3 3 3 3 3 3 3 3 3 3 3 3 3 3 3 3 3 3 3 3 3 3 3 3 3 3 3 3 3 3 3 3 3 3 3 3 3 3 3 3 3 3 3 3 3 3 3 3 3 3 3 3 3 3 3 </DataArray>
</Cells>
<PointData  Scalars="displacement"> 
<DataArray  type="Float64"  Name="displacement"  format="ascii">-2.1586708351307336e-06  -9.9892072850702208e-03  -1.9950365908946509e-02  -2.9885672874213148e-02  -3.9795192025085288e-02  -4.9679012655237650e-02  -5.9537249419682241e-02  -6.9370042221618008e-02  -7.9177556074363026e-02  -8.8959980938506183e-02  -9.8717531534439462e-02  -1.0845044713045426e-01  -1.1815899130661281e-01  -1.2784345169462658e-01  -1.3750413969399788e-01  -1.4714139016470679e-01  -1.5675556109674482e-01  -1.6634703325682115e-01  -1.7591620981259304e-01  -1.8546351593478747e-01  -1.9498939837760815e-01  -2.0449432503784412e-01  -2.1397878449311264e-01  -2.2344328551968998e-01  -2.3288835659041215e-01  -2.4231454535313654e-01  -2.5172241809027751e-01  -2.6111255915995657e-01  -2.7048557041930915e-01  -2.7984207063052557e-01  -2.8918269485020759e-01  -2.9850809380264343e-01  -3.0781893323762183e-01  -3.1711589327341744e-01  -3.2639966772559553e-01  -3.3567096342230129e-01  -3.4493049950670457e-01  -3.5417900672729280e-01  -3.6341722671670978e-01  -3.7264591125985519e-01  -3.8186582155196191e-01  -3.9107772744739056e-01  -4.0028240669987358e-01  -4.0948064419496855e-01  -4.1867323117546856e-01  -4.2786096446054328e-01  -4.3704464565937273e-01  -4.4622508038005720e-01  -4.5540307743458003e-01  -4.6457944804060536e-01  -4.7375500502090595e-01  -4.8293056200120527e-01  -4.9210693260722649e-01  -5.0128492966174210e-01  -5.1046536438241730e-01  -5.1964904558123426e-01  -5.2883677886629366e-01  -5.3802936584677707e-01  -5.4722760334185305e-01  -5.5643228259431521e-01  -5.6564418848971965e-01  -5.7486409878180000e-01  -5.8409278332491532e-01  -5.9333100331429967e-01  -6.0257951053485226e-01  -6.1183904661921795e-01  -6.2111034231588313e-01  -6.3039411676801838e-01  -6.3969107680376713e-01  -6.4900191623869752e-01  -6.5832731519108290e-01  -6.6766793941071167e-01  -6.7702443962187275e-01  -6.8639745088116666e-01  -6.9578759195078410e-01  -7.0519546468786054e-01  -7.1462165345051742e-01  -7.2406672452116960e-01  -7.3353122554767392e-01  -7.4301568500286619e-01  -7.5252061166302331e-01  -7.6204649410576142e-01  -7.7159380022787127e-01  -7.8116297678355640e-01  -7.9075444894354296e-01  -8.0036861987548757e-01  -8.1000587034609994e-01  -8.1966655834537172e-01  -8.2935101873328176e-01  -8.3905956290933414e-01  -8.4879247850523998e-01  -8.5855002910106049e-01  -8.6833245396508851e-01  -8.7813996781771475e-01  -8.8797276061953001e-01  -8.9783099738385208e-01  -9.0771481801387921e-01  -9.1762433716462222e-01  -9.2755964412975667e-01  -9.3752080275349725e-01  -9.4750785136759264e-01  </DataArray> 
</PointData> 
</Piece>
</UnstructuredGrid>
</VTKFile>