<?xml version="1.0"?>
<VTKFile type="UnstructuredGrid"  version="0.1"  >
<UnstructuredGrid>
<Piece  NumberOfPoints="101" NumberOfCells="100">
<Points>
<DataArray  type="Float64"  NumberOfComponents="3"  format="ascii">0 0 0  0.01 0 0  0.02 0 0  0.03 0 0  0.04 0 0  0.05 0 0  0.06 0 0  0.07000000000000001 0 0  0.08 0 0  0.09 0 0  0.1 0 0  0.11 0 0  0.12 0 0  0.13 0 0  0.14 0 0  0.15 0 0  0.16 0 0  0.17 0 0  0.18 0 0  0.19 0 0  0.2 0 0  0.21 0 0  0.22 0 0  0.23 0 0  0.24 0 0  0.25 0 0  0.26 0 0  0.27 0 0  0.28 0 0  0.29 0 0  0.3 0 0  0.31 0 0  0.32 0 0  0.33 0 0  0.34 0 0  0.35 0 0  0.36 0 0  0.37 0 0  0.38 0 0  0.39 0 0  0.4 0 0  0.41 0 0  0.42 0 0  0.43 0 0  0.44 0 0  0.45 0 0  0.46 0 0  0.47 0 0  0.48 0 0  0.49 0 0  0.5 0 0  0.51 0 0  0.52 0 0  0.53 0 0  0.54 0 0  0.55 0 0  0.5600000000000001 0 0  0.57 0 0  0.58 0 0  0.59 0 0  0.6 0 0  0.61 0 0  0.62 0 0  0.63 0 0  0.64 0 0  0.65 0 0  0.66 0 0  0.67 0 0  0.68 0 0  0.6899999999999999 0 0  0.7 0 0  0.71 0 0  0.72 0 0  0.73 0 0  0.74 0 0  0.75 0 0  0.76 0 0  0.77 0 0  0.78 0 0  0.79 0 0  0.8 0 0  0.8100000000000001 0 0  0.82 0 0  0.83 0 0  0.84 0 0  0.85 0 0  0.86 0 0  0.87 0 0  0.88 0 0  0.89 0 0  0.9 0 0  0.91 0 0  0.92 0 0  0.93 0 0  0.9399999999999999 0 0  0.95 0 0  0.96 0 0  0.97 0 0  0.98 0 0  0.99 0 0  1 0 0  </DataArray>
</Points>
<Cells>
<DataArray  type="UInt32"  Name="connectivity"  format="ascii">0 1  1 2  2 3  3 4  4 5  5 6  6 7  7 8  8 9  9 10  10 11  11 12  12 13  13 14  14 15  15 16  16 17  17 18  18 19  19 20  20 21  21 22  22 23  23 24  24 25  25 26  26 27  27 28  28 29  29 30  30 31  31 32  32 33  33 34  34 35  35 36  36 37  37 38  38 39  39 40  40 41  41 42  42 43  43 44  44 45  45 46  46 47  47 48  48 49  49 50  50 51  51 52  52 53  53 54  54 55  55 56  56 57  57 58  58 59  59 60  60 61  61 62  62 63  63 64  64 65  65 66  66 67  67 68  68 69  69 70  70 71  71 72  72 73  73 74  74 75  75 76  76 77  77 78  78 79  79 80  80 81  81 82  82 83  83 84  84 85  85 86  86 87  87 88  88 89  89 90  90 91  91 92  92 93  93 94  94 95  95 96  96 97  97 98  98 99  99 100  </DataArray>
<DataArray  type="UInt32"  Name="offsets"  format="ascii">2 4 6 8 10 12 14 16 18 20 22 24 26 28 30 32 34 36 38 40 42 44 46 48 50 52 54 56 58 60 62 64 66 68 70 72 74 76 78 80 82 84 86 88 90 92 94 96 98 100 102 104 106 108 110 112 114 116 118 120 122 124 126 128 130 132 134 136 138 140 142 144 146 148 150 152 154 156 158 160 162 164 166 168 170 172 174 176 178 180 182 184 186 188 190 192 194 196 198 200 </DataArray>
<DataArray  type="UInt8"  Name="types"  format="ascii">3 3 3 3 3 3 3 3 3 3 3 3 3 3 3 3 3 3 3 3 3 3 3 3 3 3 3 3 3 3 3 3 3 3 3 3 3 3 3 3 3 3 3 3 3 3 3 3 3 3 3 3 3 3 3 3 3 3 3 3 3 3 3 3 3 3 3 3 3 3 3 3 3 3 3 3 3 3 3 3 3 3 3 3 3 3 3 3 3 3 3 3 3 3 3 3 3 3 3 3 </DataArray>
</Cells>
<PointData  Scalars="displacement"> 
<DataArray  type="Float64"  Name="displacement"  format="ascii">9.7125350421485404e-06  1.0119618736618782e-02  2.0113085618440329e-02  2.9990359555518934e-02  3.9751796197450721e-02  4.9397865548413883e-02  5.8929149792105090e-02  6.8346342927621026e-02  7.7650249788122461e-02  8.6841785094087520e-02  9.5921972367801353e-02  1.0489194275694287e-01  1.1375293375597169e-01  1.2250628782997891e-01  1.3115345094150338e-01  1.3969597098203684e-01  1.4813549610972732e-01  1.5647377299495013e-01  1.6471264497548235e-01  1.7285405012310195e-01  1.8090001922351079e-01  1.8885267367156158e-01  1.9671422328384569e-01  2.0448696403077241e-01  2.1217327569034569e-01  2.1977561942591456e-01  2.2729653529024507e-01  2.3473863965832351e-01  2.4210462259137522e-01  2.4939724513463477e-01  2.5661933655147362e-01  2.6377379149654179e-01  2.7086356713064130e-01  2.7789168018009669e-01  2.8486120394344266e-01  2.9177526524829245e-01  2.9863704136129587e-01  3.0544975685414044e-01  3.1221668042858031e-01  3.1894112170352562e-01  3.2562642796723962e-01  3.3227598089774307e-01  3.3889319325452799e-01  3.4548150554472551e-01  3.5204438266688098e-01  3.5858531053551279e-01  3.6510779268964022e-01  3.7161534688848236e-01  3.7811150169753233e-01  3.8459979306821668e-01  3.9108376091435282e-01  3.9756694568861561e-01  4.0405288496221592e-01  4.1054511001098681e-01  4.1704714241106733e-01  4.2356249064735124e-01  4.3009464673785458e-01  4.3664708287713727e-01  4.4322324810189107e-01  4.4982656498177215e-01  4.5646042633854284e-01  4.6312819199653771e-01  4.6983318556745102e-01  4.7657869127239344e-01  4.8336795080413381e-01  4.9020416023239594e-01  4.9709046695503495e-01  5.0402996669787758e-01  5.1102570056594865e-01  5.1808065214877175e-01  5.2519774468235625e-01  5.3237983827044832e-01  5.3962972716755353e-01  5.4695013712617724e-01  5.5434372281067523e-01  5.6181306528003450e-01  5.6936066954184328e-01  5.7698896217964357e-01  5.8470028905577798e-01  5.9249691309179819e-01  6.0038101212838890e-01  6.0835467686673761e-01  6.1641990889315768e-01  6.2457861878873067e-01  6.3283262432563803e-01  6.4118364875177392e-01  6.4963331916516553e-01  6.5818316497962470e-01  6.6683461648299003e-01  6.7558900348922701e-01  6.8444755408557223e-01  6.9341139347582015e-01  7.0248154292077747e-01  7.1165891877679976e-01  7.2094433163326710e-01  7.3033848554974712e-01  7.3984197739351343e-01  7.4945529627800378e-01  7.5917882310270290e-01  7.6901283019485855e-01  7.7895748105333973e-01  </DataArray> 
</PointData> 
</Piece>
</UnstructuredGrid>
</VTKFile>