<?xml version="1.0"?>
<VTKFile type="UnstructuredGrid"  version="0.1"  >
<UnstructuredGrid>
<Piece  NumberOfPoints="101" NumberOfCells="100">
<Points>
<DataArray  type="Float64"  NumberOfComponents="3"  format="ascii">0 0 0  0.01 0 0  0.02 0 0  0.03 0 0  0.04 0 0  0.05 0 0  0.06 0 0  0.07000000000000001 0 0  0.08 0 0  0.09 0 0  0.1 0 0  0.11 0 0  0.12 0 0  0.13 0 0  0.14 0 0  0.15 0 0  0.16 0 0  0.17 0 0  0.18 0 0  0.19 0 0  0.2 0 0  0.21 0 0  0.22 0 0  0.23 0 0  0.24 0 0  0.25 0 0  0.26 0 0  0.27 0 0  0.28 0 0  0.29 0 0  0.3 0 0  0.31 0 0  0.32 0 0  0.33 0 0  0.34 0 0  0.35 0 0  0.36 0 0  0.37 0 0  0.38 0 0  0.39 0 0  0.4 0 0  0.41 0 0  0.42 0 0  0.43 0 0  0.44 0 0  0.45 0 0  0.46 0 0  0.47 0 0  0.48 0 0  0.49 0 0  0.5 0 0  0.51 0 0  0.52 0 0  0.53 0 0  0.54 0 0  0.55 0 0  0.5600000000000001 0 0  0.57 0 0  0.58 0 0  0.59 0 0  0.6 0 0  0.61 0 0  0.62 0 0  0.63 0 0  0.64 0 0  0.65 0 0  0.66 0 0  0.67 0 0  0.68 0 0  0.6899999999999999 0 0  0.7 0 0  0.71 0 0  0.72 0 0  0.73 0 0  0.74 0 0  0.75 0 0  0.76 0 0  0.77 0 0  0.78 0 0  0.79 0 0  0.8 0 0  0.8100000000000001 0 0  0.82 0 0  0.83 0 0  0.84 0 0  0.85 0 0  0.86 0 0  0.87 0 0  0.88 0 0  0.89 0 0  0.9 0 0  0.91 0 0  0.92 0 0  0.93 0 0  0.9399999999999999 0 0  0.95 0 0  0.96 0 0  0.97 0 0  0.98 0 0  0.99 0 0  1 0 0  </DataArray>
</Points>
<Cells>
<DataArray  type="UInt32"  Name="connectivity"  format="ascii">0 1  1 2  2 3  3 4  4 5  5 6  6 7  7 8  8 9  9 10  10 11  11 12  12 13  13 14  14 15  15 16  16 17  17 18  18 19  19 20  20 21  21 22  22 23  23 24  24 25  25 26  26 27  27 28  28 29  29 30  30 31  31 32  32 33  33 34  34 35  35 36  36 37  37 38  38 39  39 40  40 41  41 42  42 43  43 44  44 45  45 46  46 47  47 48  48 49  49 50  50 51  51 52  52 53  53 54  54 55  55 56  56 57  57 58  58 59  59 60  60 61  61 62  62 63  63 64  64 65  65 66  66 67  67 68  68 69  69 70  70 71  71 72  72 73  73 74  74 75  75 76  76 77  77 78  78 79  79 80  80 81  81 82  82 83  83 84  84 85  85 86  86 87  87 88  88 89  89 90  90 91  91 92  92 93  93 94  94 95  95 96  96 97  97 98  98 99  99 100  </DataArray>
<DataArray  type="UInt32"  Name="offsets"  format="ascii">2 4 6 8 10 12 14 16 18 20 22 24 26 28 30 32 34 36 38 40 42 44 46 48 50 52 54 56 58 60 62 64 66 68 70 72 74 76 78 80 82 84 86 88 90 92 94 96 98 100 102 104 106 108 110 112 114 116 118 120 122 124 126 128 130 132 134 136 138 140 142 144 146 148 150 152 154 156 158 160 162 164 166 168 170 172 174 176 178 180 182 184 186 188 190 192 194 196 198 200 </DataArray>
<DataArray  type="UInt8"  Name="types"  format="ascii">3 3 3 3 3 3 3 3 3 3 3 3 3 3 3 3 3 3 3 3 3 3 3 3 3 3 3 3 3 3 3 3 3 3 3 3 3 3 3 3 3 3 3 3 3 3 3 3 3 3 3 3 3 3 3 3 3 3 3 3 3 3 3 3 3 3 3 3 3 3 3 3 3 3 3 3 3 3 3 3 3 3 3 3 3 3 3 3 3 3 3 3 3 3 3 3 3 3 3 3 </DataArray>
</Cells>
<PointData  Scalars="displacement"> 
<DataArray  type="Float64"  Name="displacement"  format="ascii">1.5425614626007156e-06  1.0094013140104149e-02  2.0167943306643957e-02  3.0223299396765459e-02  4.0260071164867170e-02  5.0278267003373220e-02  6.0277915163879266e-02  7.0259063345063141e-02  8.0221778693304338e-02  9.0166147667960939e-02  1.0009227591833346e-01  1.1000028813312500e-01  1.1989032787312595e-01  1.2976255738449938e-01  1.3961715739364486e-01  1.4945432688367308e-01  1.5927428285280448e-01  1.6907726005494345e-01  1.7886351072272752e-01  1.8863330427335032e-01  1.9838692699748417e-01  2.0812468173163776e-01  2.1784688751430342e-01  2.2755387922626200e-01  2.3724600721542782e-01  2.4692363690663363e-01  2.5658714839676444e-01  2.6623693603566878e-01  2.7587340799328353e-01  2.8549698581342520e-01  2.9510810395471054e-01  3.0470720931908274e-01  3.1429476076842960e-01  3.2387122862979190e-01  3.3343709418966944e-01  3.4299284917794531e-01  3.5253899524195276e-01  3.6207604341122274e-01  3.7160451355345830e-01  3.8112493382228368e-01  3.9063784009733704e-01  4.0014377541726059e-01  4.0964328940617661e-01  4.1913693769421195e-01  4.2862528133266786e-01  4.3810888620441424e-01  4.4758832243010610e-01  4.5706416377081482e-01  4.6653698702767377e-01  4.7600737143913624e-01  4.8547589807645442e-01  4.9494314923797228e-01  5.0440970784284833e-01  5.1387615682480015e-01  5.2334307852648398e-01  5.3281105409510598e-01  5.4228066287986332e-01  5.5175248183181702e-01  5.6122708490679263e-01  5.7070504247189180e-01  5.8018692071621314e-01  5.8967328106635508e-01  5.9916467960728470e-01  6.0866166650914111e-01  6.1816478546054066e-01  6.2767457310894181e-01  6.3719155850861919e-01  6.4671626257679449e-01  6.5624919755845734e-01  6.6579086650040364e-01  6.7534176273500079e-01  6.8490236937420113e-01  6.9447315881429172e-01  7.0405459225185851e-01  7.1364711921146706e-01  7.2325117708548070e-01  7.3286719068651751e-01  7.4249557181293491e-01  7.5213671882780575e-01  7.6179101625178025e-01  7.7145883437022944e-01  7.8114052885506813e-01  7.9083644040161505e-01  8.0054689438084992e-01  8.1027220050740834e-01  8.2001265252363620e-01  8.2976852790001698e-01  8.3954008755225529e-01  8.4932757557530691e-01  8.5913121899459877e-01  8.6895122753469622e-01  8.7878779340563296e-01  8.8864109110712075e-01  8.9851127725081814e-01  9.0839849040084930e-01  9.1830285093270847e-01  9.2822446091069921e-01  9.3816340398403231e-01  9.4811974530166865e-01  9.5809353144600717e-01  9.6808479038546325e-01  </DataArray> 
</PointData> 
</Piece>
</UnstructuredGrid>
</VTKFile>