<?xml version="1.0"?>
<VTKFile type="UnstructuredGrid"  version="0.1"  >
<UnstructuredGrid>
<Piece  NumberOfPoints="101" NumberOfCells="100">
<Points>
<DataArray  type="Float64"  NumberOfComponents="3"  format="ascii">0 0 0  0.01 0 0  0.02 0 0  0.03 0 0  0.04 0 0  0.05 0 0  0.06 0 0  0.07000000000000001 0 0  0.08 0 0  0.09 0 0  0.1 0 0  0.11 0 0  0.12 0 0  0.13 0 0  0.14 0 0  0.15 0 0  0.16 0 0  0.17 0 0  0.18 0 0  0.19 0 0  0.2 0 0  0.21 0 0  0.22 0 0  0.23 0 0  0.24 0 0  0.25 0 0  0.26 0 0  0.27 0 0  0.28 0 0  0.29 0 0  0.3 0 0  0.31 0 0  0.32 0 0  0.33 0 0  0.34 0 0  0.35 0 0  0.36 0 0  0.37 0 0  0.38 0 0  0.39 0 0  0.4 0 0  0.41 0 0  0.42 0 0  0.43 0 0  0.44 0 0  0.45 0 0  0.46 0 0  0.47 0 0  0.48 0 0  0.49 0 0  0.5 0 0  0.51 0 0  0.52 0 0  0.53 0 0  0.54 0 0  0.55 0 0  0.5600000000000001 0 0  0.57 0 0  0.58 0 0  0.59 0 0  0.6 0 0  0.61 0 0  0.62 0 0  0.63 0 0  0.64 0 0  0.65 0 0  0.66 0 0  0.67 0 0  0.68 0 0  0.6899999999999999 0 0  0.7 0 0  0.71 0 0  0.72 0 0  0.73 0 0  0.74 0 0  0.75 0 0  0.76 0 0  0.77 0 0  0.78 0 0  0.79 0 0  0.8 0 0  0.8100000000000001 0 0  0.82 0 0  0.83 0 0  0.84 0 0  0.85 0 0  0.86 0 0  0.87 0 0  0.88 0 0  0.89 0 0  0.9 0 0  0.91 0 0  0.92 0 0  0.93 0 0  0.9399999999999999 0 0  0.95 0 0  0.96 0 0  0.97 0 0  0.98 0 0  0.99 0 0  1 0 0  </DataArray>
</Points>
<Cells>
<DataArray  type="UInt32"  Name="connectivity"  format="ascii">0 1  1 2  2 3  3 4  4 5  5 6  6 7  7 8  8 9  9 10  10 11  11 12  12 13  13 14  14 15  15 16  16 17  17 18  18 19  19 20  20 21  21 22  22 23  23 24  24 25  25 26  26 27  27 28  28 29  29 30  30 31  31 32  32 33  33 34  34 35  35 36  36 37  37 38  38 39  39 40  40 41  41 42  42 43  43 44  44 45  45 46  46 47  47 48  48 49  49 50  50 51  51 52  52 53  53 54  54 55  55 56  56 57  57 58  58 59  59 60  60 61  61 62  62 63  63 64  64 65  65 66  66 67  67 68  68 69  69 70  70 71  71 72  72 73  73 74  74 75  75 76  76 77  77 78  78 79  79 80  80 81  81 82  82 83  83 84  84 85  85 86  86 87  87 88  88 89  89 90  90 91  91 92  92 93  93 94  94 95  95 96  96 97  97 98  98 99  99 100  </DataArray>
<DataArray  type="UInt32"  Name="offsets"  format="ascii">2 4 6 8 10 12 14 16 18 20 22 24 26 28 30 32 34 36 38 40 42 44 46 48 50 52 54 56 58 60 62 64 66 68 70 72 74 76 78 80 82 84 86 88 90 92 94 96 98 100 102 104 106 108 110 112 114 116 118 120 122 124 126 128 130 132 134 136 138 140 142 144 146 148 150 152 154 156 158 160 162 164 166 168 170 172 174 176 178 180 182 184 186 188 190 192 194 196 198 200 </DataArray>
<DataArray  type="UInt8"  Name="types"  format="ascii">3 3 3 3 3 3 3 3 3 3 3 3 3 3 3 3 3 3 3 3 3 3 3 3 3 3 3 3 3 3 3 3 3 3 3 3 3 3 3 3 3 3 3 3 3 3 3 3 3 3 3 3 3 3 3 3 3 3 3 3 3 3 3 3 3 3 3 3 3 3 3 3 3 3 3 3 3 3 3 3 3 3 3 3 3 3 3 3 3 3 3 3 3 3 3 3 3 3 3 3 </DataArray>
</Cells>
<PointData  Scalars="displacement"> 
<DataArray  type="Float64"  Name="displacement"  format="ascii">-1.2724128933654095e-13  9.9999999869298528e-03  1.9999999975519760e-02  2.9999999965650496e-02  3.9999999957327774e-02  4.9999999950555672e-02  5.9999999945336495e-02  6.9999999941670943e-02  7.9999999939557684e-02  8.9999999938994116e-02  9.9999999939975492e-02  1.0999999994249549e-01  1.1999999994654617e-01  1.2999999995211783e-01  1.3999999995919901e-01  1.4999999996777669e-01  1.5999999997783618e-01  1.6999999998936119e-01  1.8000000000233402e-01  1.9000000001673520e-01  2.0000000003254342e-01  2.1000000004973671e-01  2.2000000006829032e-01  2.3000000008817961e-01  2.4000000010937692e-01  2.5000000013185442e-01  2.6000000015558233e-01  2.7000000018052955e-01  2.8000000020666366e-01  2.9000000023395106e-01  3.0000000026235724e-01  3.1000000029184616e-01  3.2000000032238057e-01  3.3000000035392291e-01  3.4000000038643291e-01  3.5000000041987100e-01  3.6000000045419583e-01  3.7000000048936532e-01  3.8000000052533672e-01  3.9000000056206585e-01  4.0000000059950869e-01  4.1000000063761904e-01  4.2000000067635168e-01  4.3000000071565975e-01  4.4000000075549645e-01  4.5000000079581426e-01  4.6000000083656450e-01  4.7000000087769916e-01  4.8000000091916872e-01  4.9000000096092500e-01  5.0000000100291808e-01  5.1000000104509891e-01  5.2000000108741762e-01  5.3000000112982493e-01  5.4000000117226976e-01  5.5000000121470360e-01  5.6000000125707627e-01  5.7000000129933825e-01  5.8000000134144114e-01  5.9000000138333475e-01  6.0000000142497112e-01  6.1000000146630173e-01  6.2000000150727819e-01  6.3000000154785363e-01  6.4000000158798032e-01  6.5000000162761296e-01  6.6000000166670514e-01  6.7000000170521079e-01  6.8000000174308617e-01  6.9000000178028820e-01  7.0000000181677435e-01  7.1000000185250167e-01  7.2000000188742963e-01  7.3000000192151770e-01  7.4000000195472704e-01  7.5000000198701910e-01  7.6000000201835760e-01  7.7000000204870500e-01  7.8000000207802811e-01  7.9000000210629295e-01  8.0000000213346678e-01  8.1000000215951906e-01  8.2000000218442037e-01  8.3000000220814141e-01  8.4000000223065596e-01  8.5000000225193606e-01  8.6000000227196061e-01  8.7000000229070440e-01  8.8000000230814646e-01  8.9000000232426835e-01  9.0000000233904986e-01  9.1000000235247536e-01  9.2000000236452850e-01  9.3000000237519620e-01  9.4000000238446602e-01  9.5000000239232774e-01  9.6000000239877237e-01  9.7000000240379225e-01  9.8000000240738183e-01  9.9000000240953745e-01  1.0000000024102562e+00  </DataArray> 
</PointData> 
</Piece>
</UnstructuredGrid>
</VTKFile>