<?xml version="1.0"?>
<VTKFile type="UnstructuredGrid"  version="0.1"  >
<UnstructuredGrid>
<Piece  NumberOfPoints="101" NumberOfCells="100">
<Points>
<DataArray  type="Float64"  NumberOfComponents="3"  format="ascii">0 0 0  0.01 0 0  0.02 0 0  0.03 0 0  0.04 0 0  0.05 0 0  0.06 0 0  0.07000000000000001 0 0  0.08 0 0  0.09 0 0  0.1 0 0  0.11 0 0  0.12 0 0  0.13 0 0  0.14 0 0  0.15 0 0  0.16 0 0  0.17 0 0  0.18 0 0  0.19 0 0  0.2 0 0  0.21 0 0  0.22 0 0  0.23 0 0  0.24 0 0  0.25 0 0  0.26 0 0  0.27 0 0  0.28 0 0  0.29 0 0  0.3 0 0  0.31 0 0  0.32 0 0  0.33 0 0  0.34 0 0  0.35 0 0  0.36 0 0  0.37 0 0  0.38 0 0  0.39 0 0  0.4 0 0  0.41 0 0  0.42 0 0  0.43 0 0  0.44 0 0  0.45 0 0  0.46 0 0  0.47 0 0  0.48 0 0  0.49 0 0  0.5 0 0  0.51 0 0  0.52 0 0  0.53 0 0  0.54 0 0  0.55 0 0  0.5600000000000001 0 0  0.57 0 0  0.58 0 0  0.59 0 0  0.6 0 0  0.61 0 0  0.62 0 0  0.63 0 0  0.64 0 0  0.65 0 0  0.66 0 0  0.67 0 0  0.68 0 0  0.6899999999999999 0 0  0.7 0 0  0.71 0 0  0.72 0 0  0.73 0 0  0.74 0 0  0.75 0 0  0.76 0 0  0.77 0 0  0.78 0 0  0.79 0 0  0.8 0 0  0.8100000000000001 0 0  0.82 0 0  0.83 0 0  0.84 0 0  0.85 0 0  0.86 0 0  0.87 0 0  0.88 0 0  0.89 0 0  0.9 0 0  0.91 0 0  0.92 0 0  0.93 0 0  0.9399999999999999 0 0  0.95 0 0  0.96 0 0  0.97 0 0  0.98 0 0  0.99 0 0  1 0 0  </DataArray>
</Points>
<Cells>
<DataArray  type="UInt32"  Name="connectivity"  format="ascii">0 1  1 2  2 3  3 4  4 5  5 6  6 7  7 8  8 9  9 10  10 11  11 12  12 13  13 14  14 15  15 16  16 17  17 18  18 19  19 20  20 21  21 22  22 23  23 24  24 25  25 26  26 27  27 28  28 29  29 30  30 31  31 32  32 33  33 34  34 35  35 36  36 37  37 38  38 39  39 40  40 41  41 42  42 43  43 44  44 45  45 46  46 47  47 48  48 49  49 50  50 51  51 52  52 53  53 54  54 55  55 56  56 57  57 58  58 59  59 60  60 61  61 62  62 63  63 64  64 65  65 66  66 67  67 68  68 69  69 70  70 71  71 72  72 73  73 74  74 75  75 76  76 77  77 78  78 79  79 80  80 81  81 82  82 83  83 84  84 85  85 86  86 87  87 88  88 89  89 90  90 91  91 92  92 93  93 94  94 95  95 96  96 97  97 98  98 99  99 100  </DataArray>
<DataArray  type="UInt32"  Name="offsets"  format="ascii">2 4 6 8 10 12 14 16 18 20 22 24 26 28 30 32 34 36 38 40 42 44 46 48 50 52 54 56 58 60 62 64 66 68 70 72 74 76 78 80 82 84 86 88 90 92 94 96 98 100 102 104 106 108 110 112 114 116 118 120 122 124 126 128 130 132 134 136 138 140 142 144 146 148 150 152 154 156 158 160 162 164 166 168 170 172 174 176 178 180 182 184 186 188 190 192 194 196 198 200 </DataArray>
<DataArray  type="UInt8"  Name="types"  format="ascii">3 3 3 3 3 3 3 3 3 3 3 3 3 3 3 3 3 3 3 3 3 3 3 3 3 3 3 3 3 3 3 3 3 3 3 3 3 3 3 3 3 3 3 3 3 3 3 3 3 3 3 3 3 3 3 3 3 3 3 3 3 3 3 3 3 3 3 3 3 3 3 3 3 3 3 3 3 3 3 3 3 3 3 3 3 3 3 3 3 3 3 3 3 3 3 3 3 3 3 3 </DataArray>
</Cells>
<PointData  Scalars="displacement"> 
<DataArray  type="Float64"  Name="displacement"  format="ascii">-8.4977794386712591e-11  1.0000007430244996e-02  2.0000015958875138e-02  3.0000025490519101e-02  4.0000036014511006e-02  5.0000047519236347e-02  6.0000059992328408e-02  7.0000073420631512e-02  8.0000087790227534e-02  9.0000103086446112e-02  1.0000011929388010e-01  1.1000013639639995e-01  1.2000015437716936e-01  1.3000017321866092e-01  1.4000019290267257e-01  1.5000021341034472e-01  1.6000023472217706e-01  1.7000025681804679e-01  1.8000027967722612e-01  1.9000030327840170e-01  2.0000032759969291e-01  2.1000035261867087e-01  2.2000037831237934e-01  2.3000040465735377e-01  2.4000043162964174e-01  2.5000045920482417e-01  2.6000048735803577e-01  2.7000051606398678e-01  2.8000054529698315e-01  2.9000057503095061e-01  3.0000060523945499e-01  3.1000063589572424e-01  3.2000066697267260e-01  3.3000069844292029e-01  3.4000073027881900e-01  3.5000076245247319e-01  3.6000079493576398e-01  3.7000082770037107e-01  3.8000086071779732e-01  3.9000089395939058e-01  4.0000092739636856e-01  4.1000096099984029e-01  4.2000099474083086e-01  4.3000102859030548e-01  4.4000106251918975e-01  4.5000109649839726e-01  4.6000113049884900e-01  4.7000116449149831e-01  4.8000119844735462e-01  4.9000123233750531e-01  5.0000126613313933e-01  5.1000129980556952e-01  5.2000133332625498e-01  5.3000136666682474e-01  5.4000139979909811e-01  5.5000143269510915e-01  5.6000146532712680e-01  5.7000149766767683e-01  5.8000152968956464e-01  5.9000156136589388e-01  6.0000159267008979e-01  6.1000162357591814e-01  6.2000165405750685e-01  6.3000168408936419e-01  6.4000171364640113e-01  6.5000174270394884e-01  6.6000177123777748e-01  6.7000179922411474e-01  6.8000182663966580e-01  6.9000185346163034e-01  7.0000187966772021e-01  7.1000190523617412e-01  7.2000193014577685e-01  7.3000195437587601e-01  7.4000197790639510e-01  7.5000200071785084e-01  7.6000202279136719e-01  7.7000204410869022e-01  7.8000206465220201e-01  7.9000208440493236e-01  8.0000210335057576e-01  8.1000212147349604e-01  8.2000213875874861e-01  8.3000215519208265e-01  8.4000217075995687e-01  8.5000218544954698e-01  8.6000219924875898e-01  8.7000221214623352e-01  8.8000222413135898e-01  8.9000223519427735e-01  9.0000224532589113e-01  9.1000225451786942e-01  9.2000226276265862e-01  9.3000227005348246e-01  9.4000227638435097e-01  9.5000228175006485e-01  9.6000228614621552e-01  9.7000228956919265e-01  9.8000229201618594e-01  9.9000229348518631e-01  1.0000022939749873e+00  </DataArray> 
</PointData> 
</Piece>
</UnstructuredGrid>
</VTKFile>