<?xml version="1.0"?>
<VTKFile type="UnstructuredGrid"  version="0.1"  >
<UnstructuredGrid>
<Piece  NumberOfPoints="101" NumberOfCells="100">
<Points>
<DataArray  type="Float64"  NumberOfComponents="3"  format="ascii">0 0 0  0.01 0 0  0.02 0 0  0.03 0 0  0.04 0 0  0.05 0 0  0.06 0 0  0.07000000000000001 0 0  0.08 0 0  0.09 0 0  0.1 0 0  0.11 0 0  0.12 0 0  0.13 0 0  0.14 0 0  0.15 0 0  0.16 0 0  0.17 0 0  0.18 0 0  0.19 0 0  0.2 0 0  0.21 0 0  0.22 0 0  0.23 0 0  0.24 0 0  0.25 0 0  0.26 0 0  0.27 0 0  0.28 0 0  0.29 0 0  0.3 0 0  0.31 0 0  0.32 0 0  0.33 0 0  0.34 0 0  0.35 0 0  0.36 0 0  0.37 0 0  0.38 0 0  0.39 0 0  0.4 0 0  0.41 0 0  0.42 0 0  0.43 0 0  0.44 0 0  0.45 0 0  0.46 0 0  0.47 0 0  0.48 0 0  0.49 0 0  0.5 0 0  0.51 0 0  0.52 0 0  0.53 0 0  0.54 0 0  0.55 0 0  0.5600000000000001 0 0  0.57 0 0  0.58 0 0  0.59 0 0  0.6 0 0  0.61 0 0  0.62 0 0  0.63 0 0  0.64 0 0  0.65 0 0  0.66 0 0  0.67 0 0  0.68 0 0  0.6899999999999999 0 0  0.7 0 0  0.71 0 0  0.72 0 0  0.73 0 0  0.74 0 0  0.75 0 0  0.76 0 0  0.77 0 0  0.78 0 0  0.79 0 0  0.8 0 0  0.8100000000000001 0 0  0.82 0 0  0.83 0 0  0.84 0 0  0.85 0 0  0.86 0 0  0.87 0 0  0.88 0 0  0.89 0 0  0.9 0 0  0.91 0 0  0.92 0 0  0.93 0 0  0.9399999999999999 0 0  0.95 0 0  0.96 0 0  0.97 0 0  0.98 0 0  0.99 0 0  1 0 0  </DataArray>
</Points>
<Cells>
<DataArray  type="UInt32"  Name="connectivity"  format="ascii">0 1  1 2  2 3  3 4  4 5  5 6  6 7  7 8  8 9  9 10  10 11  11 12  12 13  13 14  14 15  15 16  16 17  17 18  18 19  19 20  20 21  21 22  22 23  23 24  24 25  25 26  26 27  27 28  28 29  29 30  30 31  31 32  32 33  33 34  34 35  35 36  36 37  37 38  38 39  39 40  40 41  41 42  42 43  43 44  44 45  45 46  46 47  47 48  48 49  49 50  50 51  51 52  52 53  53 54  54 55  55 56  56 57  57 58  58 59  59 60  60 61  61 62  62 63  63 64  64 65  65 66  66 67  67 68  68 69  69 70  70 71  71 72  72 73  73 74  74 75  75 76  76 77  77 78  78 79  79 80  80 81  81 82  82 83  83 84  84 85  85 86  86 87  87 88  88 89  89 90  90 91  91 92  92 93  93 94  94 95  95 96  96 97  97 98  98 99  99 100  </DataArray>
<DataArray  type="UInt32"  Name="offsets"  format="ascii">2 4 6 8 10 12 14 16 18 20 22 24 26 28 30 32 34 36 38 40 42 44 46 48 50 52 54 56 58 60 62 64 66 68 70 72 74 76 78 80 82 84 86 88 90 92 94 96 98 100 102 104 106 108 110 112 114 116 118 120 122 124 126 128 130 132 134 136 138 140 142 144 146 148 150 152 154 156 158 160 162 164 166 168 170 172 174 176 178 180 182 184 186 188 190 192 194 196 198 200 </DataArray>
<DataArray  type="UInt8"  Name="types"  format="ascii">3 3 3 3 3 3 3 3 3 3 3 3 3 3 3 3 3 3 3 3 3 3 3 3 3 3 3 3 3 3 3 3 3 3 3 3 3 3 3 3 3 3 3 3 3 3 3 3 3 3 3 3 3 3 3 3 3 3 3 3 3 3 3 3 3 3 3 3 3 3 3 3 3 3 3 3 3 3 3 3 3 3 3 3 3 3 3 3 3 3 3 3 3 3 3 3 3 3 3 3 </DataArray>
</Cells>
<PointData  Scalars="displacement"> 
<DataArray  type="Float64"  Name="displacement"  format="ascii">2.6005813608351592e+27  7.1047460852500702e+27  4.3674717317981584e+27  5.5110031788158610e+27  5.0947099550994677e+27  5.2357000357876583e+27  5.1900318990067560e+27  5.2043828248255880e+27  5.1999709908087684e+27  5.2013049409763263e+27  5.2009068331771526e+27  5.2010244055899534e+27  5.2009899814708398e+27  5.2009999880098908e+27  5.2009970970546540e+27  5.2009979278777797e+27  5.2009976902016871e+27  5.2009977579216517e+27  5.2009977386949668e+27  5.2009977441364389e+27  5.2009977426007840e+27  5.2009977430330625e+27  5.2009977429116522e+27  5.2009977429456755e+27  5.2009977429361482e+27  5.2009977429388002e+27  5.2009977429380515e+27  5.2009977429382571e+27  5.2009977429381955e+27  5.2009977429382043e+27  5.2009977429381878e+27  5.2009977429381889e+27  5.2009977429381834e+27  5.2009977429381757e+27  5.2009977429381779e+27  5.2009977429381834e+27  5.2009977429381779e+27  5.2009977429381834e+27  5.2009977429381878e+27  5.2009977429381878e+27  5.2009977429381812e+27  5.2009977429381889e+27  5.2009977429381823e+27  5.2009977429381691e+27  5.2009977429381768e+27  5.2009977429381702e+27  5.2009977429381614e+27  5.2009977429381614e+27  5.2009977429381559e+27  5.2009977429381515e+27  5.2009977429381559e+27  5.2009977429381570e+27  5.2009977429381526e+27  5.2009977429381548e+27  5.2009977429381636e+27  5.2009977429381438e+27  5.2009977429381427e+27  5.2009977429381449e+27  5.2009977429381350e+27  5.2009977429381229e+27  5.2009977429381207e+27  5.2009977429381339e+27  5.2009977429381372e+27  5.2009977429381405e+27  5.2009977429381405e+27  5.2009977429381339e+27  5.2009977429381372e+27  5.2009977429381361e+27  5.2009977429381449e+27  5.2009977429381471e+27  5.2009977429381526e+27  5.2009977429381614e+27  5.2009977429381548e+27  5.2009977429381537e+27  5.2009977429381625e+27  5.2009977429381482e+27  5.2009977429381482e+27  5.2009977429381559e+27  5.2009977429381482e+27  5.2009977429381482e+27  5.2009977429381350e+27  5.2009977429381482e+27  5.2009977429381471e+27  5.2009977429381361e+27  5.2009977429381372e+27  5.2009977429381405e+27  5.2009977429381405e+27  5.2009977429381284e+27  5.2009977429381284e+27  5.2009977429381284e+27  5.2009977429381350e+27  5.2009977429381229e+27  5.2009977429381284e+27  5.2009977429381295e+27  5.2009977429381141e+27  5.2009977429381097e+27  5.2009977429381097e+27  5.2009977429381141e+27  5.2009977429381086e+27  5.2009977429381053e+27  5.2009977429381097e+27  </DataArray> 
</PointData> 
</Piece>
</UnstructuredGrid>
</VTKFile>