<?xml version="1.0"?>
<VTKFile type="UnstructuredGrid"  version="0.1"  >
<UnstructuredGrid>
<Piece  NumberOfPoints="101" NumberOfCells="100">
<Points>
<DataArray  type="Float64"  NumberOfComponents="3"  format="ascii">0 0 0  0.01 0 0  0.02 0 0  0.03 0 0  0.04 0 0  0.05 0 0  0.06 0 0  0.07000000000000001 0 0  0.08 0 0  0.09 0 0  0.1 0 0  0.11 0 0  0.12 0 0  0.13 0 0  0.14 0 0  0.15 0 0  0.16 0 0  0.17 0 0  0.18 0 0  0.19 0 0  0.2 0 0  0.21 0 0  0.22 0 0  0.23 0 0  0.24 0 0  0.25 0 0  0.26 0 0  0.27 0 0  0.28 0 0  0.29 0 0  0.3 0 0  0.31 0 0  0.32 0 0  0.33 0 0  0.34 0 0  0.35 0 0  0.36 0 0  0.37 0 0  0.38 0 0  0.39 0 0  0.4 0 0  0.41 0 0  0.42 0 0  0.43 0 0  0.44 0 0  0.45 0 0  0.46 0 0  0.47 0 0  0.48 0 0  0.49 0 0  0.5 0 0  0.51 0 0  0.52 0 0  0.53 0 0  0.54 0 0  0.55 0 0  0.5600000000000001 0 0  0.57 0 0  0.58 0 0  0.59 0 0  0.6 0 0  0.61 0 0  0.62 0 0  0.63 0 0  0.64 0 0  0.65 0 0  0.66 0 0  0.67 0 0  0.68 0 0  0.6899999999999999 0 0  0.7 0 0  0.71 0 0  0.72 0 0  0.73 0 0  0.74 0 0  0.75 0 0  0.76 0 0  0.77 0 0  0.78 0 0  0.79 0 0  0.8 0 0  0.8100000000000001 0 0  0.82 0 0  0.83 0 0  0.84 0 0  0.85 0 0  0.86 0 0  0.87 0 0  0.88 0 0  0.89 0 0  0.9 0 0  0.91 0 0  0.92 0 0  0.93 0 0  0.9399999999999999 0 0  0.95 0 0  0.96 0 0  0.97 0 0  0.98 0 0  0.99 0 0  1 0 0  </DataArray>
</Points>
<Cells>
<DataArray  type="UInt32"  Name="connectivity"  format="ascii">0 1  1 2  2 3  3 4  4 5  5 6  6 7  7 8  8 9  9 10  10 11  11 12  12 13  13 14  14 15  15 16  16 17  17 18  18 19  19 20  20 21  21 22  22 23  23 24  24 25  25 26  26 27  27 28  28 29  29 30  30 31  31 32  32 33  33 34  34 35  35 36  36 37  37 38  38 39  39 40  40 41  41 42  42 43  43 44  44 45  45 46  46 47  47 48  48 49  49 50  50 51  51 52  52 53  53 54  54 55  55 56  56 57  57 58  58 59  59 60  60 61  61 62  62 63  63 64  64 65  65 66  66 67  67 68  68 69  69 70  70 71  71 72  72 73  73 74  74 75  75 76  76 77  77 78  78 79  79 80  80 81  81 82  82 83  83 84  84 85  85 86  86 87  87 88  88 89  89 90  90 91  91 92  92 93  93 94  94 95  95 96  96 97  97 98  98 99  99 100  </DataArray>
<DataArray  type="UInt32"  Name="offsets"  format="ascii">2 4 6 8 10 12 14 16 18 20 22 24 26 28 30 32 34 36 38 40 42 44 46 48 50 52 54 56 58 60 62 64 66 68 70 72 74 76 78 80 82 84 86 88 90 92 94 96 98 100 102 104 106 108 110 112 114 116 118 120 122 124 126 128 130 132 134 136 138 140 142 144 146 148 150 152 154 156 158 160 162 164 166 168 170 172 174 176 178 180 182 184 186 188 190 192 194 196 198 200 </DataArray>
<DataArray  type="UInt8"  Name="types"  format="ascii">3 3 3 3 3 3 3 3 3 3 3 3 3 3 3 3 3 3 3 3 3 3 3 3 3 3 3 3 3 3 3 3 3 3 3 3 3 3 3 3 3 3 3 3 3 3 3 3 3 3 3 3 3 3 3 3 3 3 3 3 3 3 3 3 3 3 3 3 3 3 3 3 3 3 3 3 3 3 3 3 3 3 3 3 3 3 3 3 3 3 3 3 3 3 3 3 3 3 3 3 </DataArray>
</Cells>
<PointData  Scalars="displacement"> 
<DataArray  type="Float64"  Name="displacement"  format="ascii">5.4210108624275199e-18  1.0000000000149023e-02  2.0000000000297953e-02  3.0000000000446749e-02  4.0000000000595400e-02  5.0000000000743811e-02  6.0000000000892055e-02  7.0000000001040050e-02  8.0000000001187746e-02  9.0000000001335165e-02  1.0000000000148231e-01  1.1000000000162909e-01  1.2000000000177548e-01  1.3000000000192141e-01  1.4000000000206694e-01  1.5000000000221181e-01  1.6000000000235606e-01  1.7000000000249982e-01  1.8000000000264285e-01  1.9000000000278541e-01  2.0000000000292728e-01  2.1000000000306837e-01  2.2000000000320863e-01  2.3000000000334839e-01  2.4000000000348706e-01  2.5000000000362521e-01  2.6000000000376261e-01  2.7000000000389912e-01  2.8000000000403436e-01  2.9000000000416887e-01  3.0000000000430233e-01  3.1000000000443478e-01  3.2000000000456641e-01  3.3000000000469709e-01  3.4000000000482639e-01  3.5000000000495485e-01  3.6000000000508187e-01  3.7000000000520783e-01  3.8000000000533296e-01  3.9000000000545698e-01  4.0000000000557995e-01  4.1000000000570125e-01  4.2000000000582122e-01  4.3000000000593996e-01  4.4000000000605732e-01  4.5000000000617346e-01  4.6000000000628821e-01  4.7000000000640130e-01  4.8000000000651266e-01  4.9000000000662269e-01  5.0000000000673106e-01  5.1000000000683776e-01  5.2000000000694335e-01  5.3000000000704728e-01  5.4000000000714943e-01  5.5000000000724980e-01  5.6000000000734818e-01  5.7000000000744522e-01  5.8000000000754071e-01  5.9000000000763442e-01  6.0000000000772669e-01  6.1000000000781673e-01  6.2000000000790545e-01  6.3000000000799194e-01  6.4000000000807666e-01  6.5000000000815994e-01  6.6000000000824122e-01  6.7000000000831994e-01  6.8000000000839678e-01  6.9000000000847117e-01  7.0000000000854523e-01  7.1000000000861685e-01  7.2000000000868625e-01  7.3000000000875365e-01  7.4000000000881894e-01  7.5000000000888201e-01  7.6000000000894308e-01  7.7000000000900193e-01  7.8000000000905767e-01  7.9000000000911219e-01  8.0000000000916360e-01  8.1000000000921346e-01  8.2000000000925999e-01  8.3000000000930541e-01  8.4000000000934805e-01  8.5000000000938802e-01  8.6000000000942578e-01  8.7000000000946065e-01  8.8000000000949274e-01  8.9000000000952262e-01  9.0000000000955027e-01  9.1000000000957504e-01  9.2000000000959781e-01  9.3000000000961691e-01  9.4000000000963380e-01  9.5000000000964813e-01  9.6000000000966035e-01  9.7000000000966924e-01  9.8000000000967580e-01  9.9000000000967925e-01  1.0000000000096807e+00  </DataArray> 
</PointData> 
</Piece>
</UnstructuredGrid>
</VTKFile>