<?xml version="1.0"?>
<VTKFile type="UnstructuredGrid"  version="0.1"  >
<UnstructuredGrid>
<Piece  NumberOfPoints="101" NumberOfCells="100">
<Points>
<DataArray  type="Float64"  NumberOfComponents="3"  format="ascii">0 0 0  0.01 0 0  0.02 0 0  0.03 0 0  0.04 0 0  0.05 0 0  0.06 0 0  0.07000000000000001 0 0  0.08 0 0  0.09 0 0  0.1 0 0  0.11 0 0  0.12 0 0  0.13 0 0  0.14 0 0  0.15 0 0  0.16 0 0  0.17 0 0  0.18 0 0  0.19 0 0  0.2 0 0  0.21 0 0  0.22 0 0  0.23 0 0  0.24 0 0  0.25 0 0  0.26 0 0  0.27 0 0  0.28 0 0  0.29 0 0  0.3 0 0  0.31 0 0  0.32 0 0  0.33 0 0  0.34 0 0  0.35 0 0  0.36 0 0  0.37 0 0  0.38 0 0  0.39 0 0  0.4 0 0  0.41 0 0  0.42 0 0  0.43 0 0  0.44 0 0  0.45 0 0  0.46 0 0  0.47 0 0  0.48 0 0  0.49 0 0  0.5 0 0  0.51 0 0  0.52 0 0  0.53 0 0  0.54 0 0  0.55 0 0  0.5600000000000001 0 0  0.57 0 0  0.58 0 0  0.59 0 0  0.6 0 0  0.61 0 0  0.62 0 0  0.63 0 0  0.64 0 0  0.65 0 0  0.66 0 0  0.67 0 0  0.68 0 0  0.6899999999999999 0 0  0.7 0 0  0.71 0 0  0.72 0 0  0.73 0 0  0.74 0 0  0.75 0 0  0.76 0 0  0.77 0 0  0.78 0 0  0.79 0 0  0.8 0 0  0.8100000000000001 0 0  0.82 0 0  0.83 0 0  0.84 0 0  0.85 0 0  0.86 0 0  0.87 0 0  0.88 0 0  0.89 0 0  0.9 0 0  0.91 0 0  0.92 0 0  0.93 0 0  0.9399999999999999 0 0  0.95 0 0  0.96 0 0  0.97 0 0  0.98 0 0  0.99 0 0  1 0 0  </DataArray>
</Points>
<Cells>
<DataArray  type="UInt32"  Name="connectivity"  format="ascii">0 1  1 2  2 3  3 4  4 5  5 6  6 7  7 8  8 9  9 10  10 11  11 12  12 13  13 14  14 15  15 16  16 17  17 18  18 19  19 20  20 21  21 22  22 23  23 24  24 25  25 26  26 27  27 28  28 29  29 30  30 31  31 32  32 33  33 34  34 35  35 36  36 37  37 38  38 39  39 40  40 41  41 42  42 43  43 44  44 45  45 46  46 47  47 48  48 49  49 50  50 51  51 52  52 53  53 54  54 55  55 56  56 57  57 58  58 59  59 60  60 61  61 62  62 63  63 64  64 65  65 66  66 67  67 68  68 69  69 70  70 71  71 72  72 73  73 74  74 75  75 76  76 77  77 78  78 79  79 80  80 81  81 82  82 83  83 84  84 85  85 86  86 87  87 88  88 89  89 90  90 91  91 92  92 93  93 94  94 95  95 96  96 97  97 98  98 99  99 100  </DataArray>
<DataArray  type="UInt32"  Name="offsets"  format="ascii">2 4 6 8 10 12 14 16 18 20 22 24 26 28 30 32 34 36 38 40 42 44 46 48 50 52 54 56 58 60 62 64 66 68 70 72 74 76 78 80 82 84 86 88 90 92 94 96 98 100 102 104 106 108 110 112 114 116 118 120 122 124 126 128 130 132 134 136 138 140 142 144 146 148 150 152 154 156 158 160 162 164 166 168 170 172 174 176 178 180 182 184 186 188 190 192 194 196 198 200 </DataArray>
<DataArray  type="UInt8"  Name="types"  format="ascii">3 3 3 3 3 3 3 3 3 3 3 3 3 3 3 3 3 3 3 3 3 3 3 3 3 3 3 3 3 3 3 3 3 3 3 3 3 3 3 3 3 3 3 3 3 3 3 3 3 3 3 3 3 3 3 3 3 3 3 3 3 3 3 3 3 3 3 3 3 3 3 3 3 3 3 3 3 3 3 3 3 3 3 3 3 3 3 3 3 3 3 3 3 3 3 3 3 3 3 3 </DataArray>
</Cells>
<PointData  Scalars="displacement"> 
<DataArray  type="Float64"  Name="displacement"  format="ascii">5.7862602259643932e-07  1.0053474635215118e-02  2.0099404504204062e-02  3.0138337917166018e-02  4.0170254812664861e-02  5.0195142233300662e-02  6.0212995164579682e-02  7.0223816294550892e-02  8.0227616052333361e-02  9.0224412561677014e-02  1.0021423160710714e-01  1.1019710658658556e-01  1.2017307845774995e-01  1.3014219567592775e-01  1.4010451412450756e-01  1.5006009703761822e-01  1.6000901491524847e-01  1.6995134543089671e-01  1.7988717333186593e-01  1.8981659033231615e-01  1.9973969499920124e-01  2.0965659263121819e-01  2.1956739513090792e-01  2.2947222087005167e-01  2.3937119454850994e-01  2.4926444704666847e-01  2.5915211527164489e-01  2.6903434199743359e-01  2.7891127569915802e-01  2.8878307038161549e-01  2.9864988540229592e-01  3.0851188528906998e-01  3.1836923955274160e-01  3.2822212249466565e-01  3.3807071300963742e-01  3.4791519438426605e-01  3.5775575409104254e-01  3.6759258357832714e-01  3.7742587805647243e-01  3.8725583628031229e-01  3.9708266032824718e-01  4.0690655537815462e-01  4.1672772948036457e-01  4.2654639332793409e-01  4.3636276002446572e-01  4.4617704484971105e-01  4.5598946502320109e-01  4.6580023946615734e-01  4.7560958856192592e-01  4.8541773391518056e-01  4.9522489811015796e-01  5.0503130446815869e-01  5.1483717680458052e-01  5.2464273918572568e-01  5.3444821568563594e-01  5.4425383014321349e-01  5.5405980591986248e-01  5.6386636565792236e-01  5.7367373104011921e-01  5.8348212255030218e-01  5.9329175923569821e-01  6.0310285847093414e-01  6.1291563572406860e-01  6.2273030432487331e-01  6.3254707523559983e-01  6.4236615682446729e-01  6.5218775464210366e-01  6.6201207120116989e-01  6.7183930575938766e-01  6.8166965410620328e-01  6.9150330835328744e-01  7.0134045672910261e-01  7.1118128337773812e-01  7.2102596816222120e-01  7.3087468647250009e-01  7.4072760903830126e-01  7.5058490174704662e-01  7.6044672546701686e-01  7.7031323587594014e-01  7.8018458329518581e-01  7.9006091252971977e-01  7.9994236271399999e-01  8.0982906716395264e-01  8.1972115323519545e-01  8.2961874218762999e-01  8.3952194905656952e-01  8.4943088253050836e-01  8.5934564483566289e-01  8.6926633162741651e-01  8.7919303188875042e-01  8.8912582783579208e-01  8.9906479483055546e-01  9.0901000130097531e-01  9.1896150866830673e-01  9.2891937128197422e-01  9.3888363636192096e-01  9.4885434394853274e-01  9.5883152686018014e-01  9.6881521065841503e-01  9.7880541362087248e-01  9.8880214672189004e-01  </DataArray> 
</PointData> 
</Piece>
</UnstructuredGrid>
</VTKFile>