<?xml version="1.0"?>
<VTKFile type="UnstructuredGrid"  version="0.1"  >
<UnstructuredGrid>
<Piece  NumberOfPoints="101" NumberOfCells="100">
<Points>
<DataArray  type="Float64"  NumberOfComponents="3"  format="ascii">0 0 0  0.01 0 0  0.02 0 0  0.03 0 0  0.04 0 0  0.05 0 0  0.06 0 0  0.07000000000000001 0 0  0.08 0 0  0.09 0 0  0.1 0 0  0.11 0 0  0.12 0 0  0.13 0 0  0.14 0 0  0.15 0 0  0.16 0 0  0.17 0 0  0.18 0 0  0.19 0 0  0.2 0 0  0.21 0 0  0.22 0 0  0.23 0 0  0.24 0 0  0.25 0 0  0.26 0 0  0.27 0 0  0.28 0 0  0.29 0 0  0.3 0 0  0.31 0 0  0.32 0 0  0.33 0 0  0.34 0 0  0.35 0 0  0.36 0 0  0.37 0 0  0.38 0 0  0.39 0 0  0.4 0 0  0.41 0 0  0.42 0 0  0.43 0 0  0.44 0 0  0.45 0 0  0.46 0 0  0.47 0 0  0.48 0 0  0.49 0 0  0.5 0 0  0.51 0 0  0.52 0 0  0.53 0 0  0.54 0 0  0.55 0 0  0.5600000000000001 0 0  0.57 0 0  0.58 0 0  0.59 0 0  0.6 0 0  0.61 0 0  0.62 0 0  0.63 0 0  0.64 0 0  0.65 0 0  0.66 0 0  0.67 0 0  0.68 0 0  0.6899999999999999 0 0  0.7 0 0  0.71 0 0  0.72 0 0  0.73 0 0  0.74 0 0  0.75 0 0  0.76 0 0  0.77 0 0  0.78 0 0  0.79 0 0  0.8 0 0  0.8100000000000001 0 0  0.82 0 0  0.83 0 0  0.84 0 0  0.85 0 0  0.86 0 0  0.87 0 0  0.88 0 0  0.89 0 0  0.9 0 0  0.91 0 0  0.92 0 0  0.93 0 0  0.9399999999999999 0 0  0.95 0 0  0.96 0 0  0.97 0 0  0.98 0 0  0.99 0 0  1 0 0  </DataArray>
</Points>
<Cells>
<DataArray  type="UInt32"  Name="connectivity"  format="ascii">0 1  1 2  2 3  3 4  4 5  5 6  6 7  7 8  8 9  9 10  10 11  11 12  12 13  13 14  14 15  15 16  16 17  17 18  18 19  19 20  20 21  21 22  22 23  23 24  24 25  25 26  26 27  27 28  28 29  29 30  30 31  31 32  32 33  33 34  34 35  35 36  36 37  37 38  38 39  39 40  40 41  41 42  42 43  43 44  44 45  45 46  46 47  47 48  48 49  49 50  50 51  51 52  52 53  53 54  54 55  55 56  56 57  57 58  58 59  59 60  60 61  61 62  62 63  63 64  64 65  65 66  66 67  67 68  68 69  69 70  70 71  71 72  72 73  73 74  74 75  75 76  76 77  77 78  78 79  79 80  80 81  81 82  82 83  83 84  84 85  85 86  86 87  87 88  88 89  89 90  90 91  91 92  92 93  93 94  94 95  95 96  96 97  97 98  98 99  99 100  </DataArray>
<DataArray  type="UInt32"  Name="offsets"  format="ascii">2 4 6 8 10 12 14 16 18 20 22 24 26 28 30 32 34 36 38 40 42 44 46 48 50 52 54 56 58 60 62 64 66 68 70 72 74 76 78 80 82 84 86 88 90 92 94 96 98 100 102 104 106 108 110 112 114 116 118 120 122 124 126 128 130 132 134 136 138 140 142 144 146 148 150 152 154 156 158 160 162 164 166 168 170 172 174 176 178 180 182 184 186 188 190 192 194 196 198 200 </DataArray>
<DataArray  type="UInt8"  Name="types"  format="ascii">3 3 3 3 3 3 3 3 3 3 3 3 3 3 3 3 3 3 3 3 3 3 3 3 3 3 3 3 3 3 3 3 3 3 3 3 3 3 3 3 3 3 3 3 3 3 3 3 3 3 3 3 3 3 3 3 3 3 3 3 3 3 3 3 3 3 3 3 3 3 3 3 3 3 3 3 3 3 3 3 3 3 3 3 3 3 3 3 3 3 3 3 3 3 3 3 3 3 3 3 </DataArray>
</Cells>
<PointData  Scalars="displacement"> 
<DataArray  type="Float64"  Name="displacement"  format="ascii">-3.2917523145204590e-12  9.9999999695687680e-03  1.9999999981886275e-02  3.0000000033567398e-02  4.0000000124482515e-02  5.0000000254463307e-02  6.0000000423303626e-02  7.0000000630759784e-02  8.0000000876550556e-02  9.0000001160357890e-02  1.0000000148182701e-01  1.1000000184056696e-01  1.2000000223615083e-01  1.3000000266811662e-01  1.4000000313596736e-01  1.5000000363917182e-01  1.6000000417716528e-01  1.7000000474934970e-01  1.8000000535509467e-01  1.9000000599373801e-01  2.0000000666458648e-01  2.1000000736691607e-01  2.2000000809997361e-01  2.3000000886297664e-01  2.4000000965511481e-01  2.5000001047555054e-01  2.6000001132341971e-01  2.7000001219783287e-01  2.8000001309787526e-01  2.9000001402260905e-01  3.0000001497107331e-01  3.1000001594228560e-01  3.2000001693524199e-01  3.3000001794891926e-01  3.4000001898227489e-01  3.5000002003424840e-01  3.6000002110376300e-01  3.7000002218972589e-01  3.8000002329102978e-01  3.9000002440655362e-01  4.0000002553516334e-01  4.1000002667571411e-01  4.2000002782705065e-01  4.3000002898800810e-01  4.4000003015741435e-01  4.5000003133408994e-01  4.6000003251684957e-01  4.7000003370450288e-01  4.8000003489585669e-01  4.9000003608971554e-01  5.0000003728488296e-01  5.1000003848016096e-01  5.2000003967435526e-01  5.3000004086627106e-01  5.4000004205471930e-01  5.5000004323851304e-01  5.6000004441647377e-01  5.7000004558742734e-01  5.8000004675021000e-01  5.9000004790366356e-01  6.0000004904664372e-01  6.1000005017801506e-01  6.2000005129665481e-01  6.3000005240145440e-01  6.4000005349131905e-01  6.5000005456516952e-01  6.6000005562194330e-01  6.7000005666059448e-01  6.8000005768009641e-01  6.9000005867944270e-01  7.0000005965764611e-01  7.1000006061374132e-01  7.2000006154678398e-01  7.3000006245585536e-01  7.4000006334005874e-01  7.5000006419852294e-01  7.6000006503040207e-01  7.7000006583487746e-01  7.8000006661115728e-01  7.9000006735847783e-01  8.0000006807610435e-01  8.1000006876333031e-01  8.2000006941948156e-01  8.3000007004391274e-01  8.4000007063601034e-01  8.5000007119519239e-01  8.6000007172091009e-01  8.7000007221264641e-01  8.8000007266992009e-01  8.9000007309228202e-01  9.0000007347931710e-01  9.1000007383064652e-01  9.2000007414592422e-01  9.3000007442484267e-01  9.4000007466712732e-01  9.5000007487254068e-01  9.6000007504088136e-01  9.7000007517198483e-01  9.8000007526572130e-01  9.9000007532200074e-01  1.0000000753407661e+00  </DataArray> 
</PointData> 
</Piece>
</UnstructuredGrid>
</VTKFile>