<?xml version="1.0"?>
<VTKFile type="UnstructuredGrid"  version="0.1"  >
<UnstructuredGrid>
<Piece  NumberOfPoints="101" NumberOfCells="100">
<Points>
<DataArray  type="Float64"  NumberOfComponents="3"  format="ascii">0 0 0  0.01 0 0  0.02 0 0  0.03 0 0  0.04 0 0  0.05 0 0  0.06 0 0  0.07000000000000001 0 0  0.08 0 0  0.09 0 0  0.1 0 0  0.11 0 0  0.12 0 0  0.13 0 0  0.14 0 0  0.15 0 0  0.16 0 0  0.17 0 0  0.18 0 0  0.19 0 0  0.2 0 0  0.21 0 0  0.22 0 0  0.23 0 0  0.24 0 0  0.25 0 0  0.26 0 0  0.27 0 0  0.28 0 0  0.29 0 0  0.3 0 0  0.31 0 0  0.32 0 0  0.33 0 0  0.34 0 0  0.35 0 0  0.36 0 0  0.37 0 0  0.38 0 0  0.39 0 0  0.4 0 0  0.41 0 0  0.42 0 0  0.43 0 0  0.44 0 0  0.45 0 0  0.46 0 0  0.47 0 0  0.48 0 0  0.49 0 0  0.5 0 0  0.51 0 0  0.52 0 0  0.53 0 0  0.54 0 0  0.55 0 0  0.5600000000000001 0 0  0.57 0 0  0.58 0 0  0.59 0 0  0.6 0 0  0.61 0 0  0.62 0 0  0.63 0 0  0.64 0 0  0.65 0 0  0.66 0 0  0.67 0 0  0.68 0 0  0.6899999999999999 0 0  0.7 0 0  0.71 0 0  0.72 0 0  0.73 0 0  0.74 0 0  0.75 0 0  0.76 0 0  0.77 0 0  0.78 0 0  0.79 0 0  0.8 0 0  0.8100000000000001 0 0  0.82 0 0  0.83 0 0  0.84 0 0  0.85 0 0  0.86 0 0  0.87 0 0  0.88 0 0  0.89 0 0  0.9 0 0  0.91 0 0  0.92 0 0  0.93 0 0  0.9399999999999999 0 0  0.95 0 0  0.96 0 0  0.97 0 0  0.98 0 0  0.99 0 0  1 0 0  </DataArray>
</Points>
<Cells>
<DataArray  type="UInt32"  Name="connectivity"  format="ascii">0 1  1 2  2 3  3 4  4 5  5 6  6 7  7 8  8 9  9 10  10 11  11 12  12 13  13 14  14 15  15 16  16 17  17 18  18 19  19 20  20 21  21 22  22 23  23 24  24 25  25 26  26 27  27 28  28 29  29 30  30 31  31 32  32 33  33 34  34 35  35 36  36 37  37 38  38 39  39 40  40 41  41 42  42 43  43 44  44 45  45 46  46 47  47 48  48 49  49 50  50 51  51 52  52 53  53 54  54 55  55 56  56 57  57 58  58 59  59 60  60 61  61 62  62 63  63 64  64 65  65 66  66 67  67 68  68 69  69 70  70 71  71 72  72 73  73 74  74 75  75 76  76 77  77 78  78 79  79 80  80 81  81 82  82 83  83 84  84 85  85 86  86 87  87 88  88 89  89 90  90 91  91 92  92 93  93 94  94 95  95 96  96 97  97 98  98 99  99 100  </DataArray>
<DataArray  type="UInt32"  Name="offsets"  format="ascii">2 4 6 8 10 12 14 16 18 20 22 24 26 28 30 32 34 36 38 40 42 44 46 48 50 52 54 56 58 60 62 64 66 68 70 72 74 76 78 80 82 84 86 88 90 92 94 96 98 100 102 104 106 108 110 112 114 116 118 120 122 124 126 128 130 132 134 136 138 140 142 144 146 148 150 152 154 156 158 160 162 164 166 168 170 172 174 176 178 180 182 184 186 188 190 192 194 196 198 200 </DataArray>
<DataArray  type="UInt8"  Name="types"  format="ascii">3 3 3 3 3 3 3 3 3 3 3 3 3 3 3 3 3 3 3 3 3 3 3 3 3 3 3 3 3 3 3 3 3 3 3 3 3 3 3 3 3 3 3 3 3 3 3 3 3 3 3 3 3 3 3 3 3 3 3 3 3 3 3 3 3 3 3 3 3 3 3 3 3 3 3 3 3 3 3 3 3 3 3 3 3 3 3 3 3 3 3 3 3 3 3 3 3 3 3 3 </DataArray>
</Cells>
<PointData  Scalars="displacement"> 
<DataArray  type="Float64"  Name="displacement"  format="ascii">-1.3722340727910157e-10  1.0000015191205840e-02  2.0000032154084562e-02  3.0000050731527766e-02  4.0000070903468382e-02  5.0000092648327284e-02  6.0000115943397152e-02  7.0000140764768251e-02  8.0000167087377658e-02  9.0000194885026918e-02  1.0000022413040867e-01  1.1000025479513176e-01  1.2000028684974806e-01  1.3000032026377931e-01  1.4000035500574451e-01  1.5000039104318888e-01  1.6000042834271264e-01  1.7000046687000006e-01  1.8000050658984998e-01  1.9000054746620632e-01  2.0000058946218857e-01  2.1000063254012424e-01  2.2000067666158013e-01  2.3000072178739528e-01  2.4000076787771293e-01  2.5000081489201520e-01  2.6000086278915507e-01  2.7000091152739047e-01  2.8000096106441985e-01  2.9000101135741441e-01  3.0000106236305518e-01  3.1000111403756542e-01  3.2000116633674791e-01  3.3000121921601833e-01  3.4000127263044227e-01  3.5000132653476901e-01  3.6000138088346911e-01  3.7000143563076843e-01  3.8000149073068473e-01  3.9000154613706328e-01  4.0000160180361150e-01  4.1000165768393665e-01  4.2000171373157957e-01  4.3000176990005162e-01  4.4000182614286942e-01  4.5000188241359057e-01  4.6000193866584810e-01  4.7000199485338634e-01  4.8000205093009518e-01  4.9000210685004542e-01  5.0000216256752195e-01  5.1000221803705925e-01  5.2000227321347370e-01  5.3000232805189873e-01  5.4000238250781585e-01  5.5000243653708969e-01  5.6000249009599989e-01  5.7000254314127186e-01  5.8000259563011136e-01  5.9000264752023102e-01  6.0000269876988688e-01  6.1000274933790410e-01  6.2000279918370993e-01  6.3000284826735908e-01  6.4000289654957021e-01  6.5000294399174430e-01  6.6000299055600109e-01  6.7000303620519985e-01  6.8000308090297046e-01  6.9000312461373836e-01  7.0000316730274870e-01  7.1000320893609070e-01  7.2000324948072469e-01  7.3000328890450328e-01  7.4000332717619477e-01  7.5000336426550374e-01  7.6000340014309686e-01  7.7000343478061861e-01  7.8000346815071409e-01  7.9000350022704902e-01  8.0000353098432497e-01  8.1000356039830002e-01  8.2000358844580490e-01  8.3000361510476039e-01  8.4000364035418906e-01  8.5000366417423479e-01  8.6000368654617421e-01  8.7000370745242839e-01  8.8000372687657924e-01  8.9000374480337796e-01  9.0000376121875514e-01  9.1000377610983263e-01  9.2000378946493089e-01  9.3000380127357818e-01  9.4000381152651735e-01  9.5000382021571450e-01  9.6000382733435885e-01  9.7000383287687331e-01  9.8000383683891623e-01  9.9000383921738455e-01  1.0000038400104139e+00  </DataArray> 
</PointData> 
</Piece>
</UnstructuredGrid>
</VTKFile>