<?xml version="1.0"?>
<VTKFile type="UnstructuredGrid"  version="0.1"  >
<UnstructuredGrid>
<Piece  NumberOfPoints="101" NumberOfCells="100">
<Points>
<DataArray  type="Float64"  NumberOfComponents="3"  format="ascii">0 0 0  0.01 0 0  0.02 0 0  0.03 0 0  0.04 0 0  0.05 0 0  0.06 0 0  0.07000000000000001 0 0  0.08 0 0  0.09 0 0  0.1 0 0  0.11 0 0  0.12 0 0  0.13 0 0  0.14 0 0  0.15 0 0  0.16 0 0  0.17 0 0  0.18 0 0  0.19 0 0  0.2 0 0  0.21 0 0  0.22 0 0  0.23 0 0  0.24 0 0  0.25 0 0  0.26 0 0  0.27 0 0  0.28 0 0  0.29 0 0  0.3 0 0  0.31 0 0  0.32 0 0  0.33 0 0  0.34 0 0  0.35 0 0  0.36 0 0  0.37 0 0  0.38 0 0  0.39 0 0  0.4 0 0  0.41 0 0  0.42 0 0  0.43 0 0  0.44 0 0  0.45 0 0  0.46 0 0  0.47 0 0  0.48 0 0  0.49 0 0  0.5 0 0  0.51 0 0  0.52 0 0  0.53 0 0  0.54 0 0  0.55 0 0  0.5600000000000001 0 0  0.57 0 0  0.58 0 0  0.59 0 0  0.6 0 0  0.61 0 0  0.62 0 0  0.63 0 0  0.64 0 0  0.65 0 0  0.66 0 0  0.67 0 0  0.68 0 0  0.6899999999999999 0 0  0.7 0 0  0.71 0 0  0.72 0 0  0.73 0 0  0.74 0 0  0.75 0 0  0.76 0 0  0.77 0 0  0.78 0 0  0.79 0 0  0.8 0 0  0.8100000000000001 0 0  0.82 0 0  0.83 0 0  0.84 0 0  0.85 0 0  0.86 0 0  0.87 0 0  0.88 0 0  0.89 0 0  0.9 0 0  0.91 0 0  0.92 0 0  0.93 0 0  0.9399999999999999 0 0  0.95 0 0  0.96 0 0  0.97 0 0  0.98 0 0  0.99 0 0  1 0 0  </DataArray>
</Points>
<Cells>
<DataArray  type="UInt32"  Name="connectivity"  format="ascii">0 1  1 2  2 3  3 4  4 5  5 6  6 7  7 8  8 9  9 10  10 11  11 12  12 13  13 14  14 15  15 16  16 17  17 18  18 19  19 20  20 21  21 22  22 23  23 24  24 25  25 26  26 27  27 28  28 29  29 30  30 31  31 32  32 33  33 34  34 35  35 36  36 37  37 38  38 39  39 40  40 41  41 42  42 43  43 44  44 45  45 46  46 47  47 48  48 49  49 50  50 51  51 52  52 53  53 54  54 55  55 56  56 57  57 58  58 59  59 60  60 61  61 62  62 63  63 64  64 65  65 66  66 67  67 68  68 69  69 70  70 71  71 72  72 73  73 74  74 75  75 76  76 77  77 78  78 79  79 80  80 81  81 82  82 83  83 84  84 85  85 86  86 87  87 88  88 89  89 90  90 91  91 92  92 93  93 94  94 95  95 96  96 97  97 98  98 99  99 100  </DataArray>
<DataArray  type="UInt32"  Name="offsets"  format="ascii">2 4 6 8 10 12 14 16 18 20 22 24 26 28 30 32 34 36 38 40 42 44 46 48 50 52 54 56 58 60 62 64 66 68 70 72 74 76 78 80 82 84 86 88 90 92 94 96 98 100 102 104 106 108 110 112 114 116 118 120 122 124 126 128 130 132 134 136 138 140 142 144 146 148 150 152 154 156 158 160 162 164 166 168 170 172 174 176 178 180 182 184 186 188 190 192 194 196 198 200 </DataArray>
<DataArray  type="UInt8"  Name="types"  format="ascii">3 3 3 3 3 3 3 3 3 3 3 3 3 3 3 3 3 3 3 3 3 3 3 3 3 3 3 3 3 3 3 3 3 3 3 3 3 3 3 3 3 3 3 3 3 3 3 3 3 3 3 3 3 3 3 3 3 3 3 3 3 3 3 3 3 3 3 3 3 3 3 3 3 3 3 3 3 3 3 3 3 3 3 3 3 3 3 3 3 3 3 3 3 3 3 3 3 3 3 3 </DataArray>
</Cells>
<PointData  Scalars="displacement"> 
<DataArray  type="Float64"  Name="displacement"  format="ascii">-3.2248238367865711e-15  9.9999999987985845e-03  1.9999999997639874e-02  2.9999999996521781e-02  3.9999999995445339e-02  4.9999999994411508e-02  5.9999999993421177e-02  6.9999999992475193e-02  7.9999999991574339e-02  8.9999999990719323e-02  9.9999999989910757e-02  1.0999999998914919e-01  1.1999999998843518e-01  1.2999999998776895e-01  1.3999999998715110e-01  1.4999999998658148e-01  1.5999999998606060e-01  1.6999999998558848e-01  1.7999999998516533e-01  1.8999999998479100e-01  1.9999999998446588e-01  2.0999999998418886e-01  2.1999999998396075e-01  2.2999999998378079e-01  2.3999999998364854e-01  2.4999999998356390e-01  2.5999999998352641e-01  2.6999999998353541e-01  2.7999999998358999e-01  2.8999999998368986e-01  2.9999999998383414e-01  3.0999999998402217e-01  3.1999999998425338e-01  3.2999999998452667e-01  3.3999999998484093e-01  3.4999999998519515e-01  3.5999999998558879e-01  3.6999999998602018e-01  3.7999999998648887e-01  3.8999999998699342e-01  3.9999999998753238e-01  4.0999999998810444e-01  4.1999999998870852e-01  4.2999999998934302e-01  4.3999999999000700e-01  4.4999999999069878e-01  4.5999999999141711e-01  4.6999999999215969e-01  4.7999999999292625e-01  4.8999999999371424e-01  4.9999999999452271e-01  5.0999999999535039e-01  5.1999999999619506e-01  5.2999999999705560e-01  5.3999999999792991e-01  5.4999999999881699e-01  5.5999999999971439e-01  5.7000000000062157e-01  5.8000000000153618e-01  5.9000000000245667e-01  6.0000000000338138e-01  6.1000000000430910e-01  6.2000000000523758e-01  6.3000000000616518e-01  6.4000000000709090e-01  6.5000000000801350e-01  6.6000000000893044e-01  6.7000000000984050e-01  6.8000000001074135e-01  6.9000000001163275e-01  7.0000000001251317e-01  7.1000000001338082e-01  7.2000000001423392e-01  7.3000000001507104e-01  7.4000000001589128e-01  7.5000000001669243e-01  7.6000000001747392e-01  7.7000000001823332e-01  7.8000000001897019e-01  7.9000000001968429e-01  8.0000000002037286e-01  8.1000000002103545e-01  8.2000000002167028e-01  8.3000000002227881e-01  8.4000000002285635e-01  8.5000000002340459e-01  8.6000000002392207e-01  8.7000000002440658e-01  8.8000000002485901e-01  8.9000000002527746e-01  9.0000000002566272e-01  9.1000000002601267e-01  9.2000000002632731e-01  9.3000000002660599e-01  9.4000000002684847e-01  9.5000000002705443e-01  9.6000000002722319e-01  9.7000000002735476e-01  9.8000000002744836e-01  9.9000000002750543e-01  1.0000000000275242e+00  </DataArray> 
</PointData> 
</Piece>
</UnstructuredGrid>
</VTKFile>