<?xml version="1.0"?>
<VTKFile type="UnstructuredGrid"  version="0.1"  >
<UnstructuredGrid>
<Piece  NumberOfPoints="101" NumberOfCells="100">
<Points>
<DataArray  type="Float64"  NumberOfComponents="3"  format="ascii">0 0 0  0.01 0 0  0.02 0 0  0.03 0 0  0.04 0 0  0.05 0 0  0.06 0 0  0.07000000000000001 0 0  0.08 0 0  0.09 0 0  0.1 0 0  0.11 0 0  0.12 0 0  0.13 0 0  0.14 0 0  0.15 0 0  0.16 0 0  0.17 0 0  0.18 0 0  0.19 0 0  0.2 0 0  0.21 0 0  0.22 0 0  0.23 0 0  0.24 0 0  0.25 0 0  0.26 0 0  0.27 0 0  0.28 0 0  0.29 0 0  0.3 0 0  0.31 0 0  0.32 0 0  0.33 0 0  0.34 0 0  0.35 0 0  0.36 0 0  0.37 0 0  0.38 0 0  0.39 0 0  0.4 0 0  0.41 0 0  0.42 0 0  0.43 0 0  0.44 0 0  0.45 0 0  0.46 0 0  0.47 0 0  0.48 0 0  0.49 0 0  0.5 0 0  0.51 0 0  0.52 0 0  0.53 0 0  0.54 0 0  0.55 0 0  0.5600000000000001 0 0  0.57 0 0  0.58 0 0  0.59 0 0  0.6 0 0  0.61 0 0  0.62 0 0  0.63 0 0  0.64 0 0  0.65 0 0  0.66 0 0  0.67 0 0  0.68 0 0  0.6899999999999999 0 0  0.7 0 0  0.71 0 0  0.72 0 0  0.73 0 0  0.74 0 0  0.75 0 0  0.76 0 0  0.77 0 0  0.78 0 0  0.79 0 0  0.8 0 0  0.8100000000000001 0 0  0.82 0 0  0.83 0 0  0.84 0 0  0.85 0 0  0.86 0 0  0.87 0 0  0.88 0 0  0.89 0 0  0.9 0 0  0.91 0 0  0.92 0 0  0.93 0 0  0.9399999999999999 0 0  0.95 0 0  0.96 0 0  0.97 0 0  0.98 0 0  0.99 0 0  1 0 0  </DataArray>
</Points>
<Cells>
<DataArray  type="UInt32"  Name="connectivity"  format="ascii">0 1  1 2  2 3  3 4  4 5  5 6  6 7  7 8  8 9  9 10  10 11  11 12  12 13  13 14  14 15  15 16  16 17  17 18  18 19  19 20  20 21  21 22  22 23  23 24  24 25  25 26  26 27  27 28  28 29  29 30  30 31  31 32  32 33  33 34  34 35  35 36  36 37  37 38  38 39  39 40  40 41  41 42  42 43  43 44  44 45  45 46  46 47  47 48  48 49  49 50  50 51  51 52  52 53  53 54  54 55  55 56  56 57  57 58  58 59  59 60  60 61  61 62  62 63  63 64  64 65  65 66  66 67  67 68  68 69  69 70  70 71  71 72  72 73  73 74  74 75  75 76  76 77  77 78  78 79  79 80  80 81  81 82  82 83  83 84  84 85  85 86  86 87  87 88  88 89  89 90  90 91  91 92  92 93  93 94  94 95  95 96  96 97  97 98  98 99  99 100  </DataArray>
<DataArray  type="UInt32"  Name="offsets"  format="ascii">2 4 6 8 10 12 14 16 18 20 22 24 26 28 30 32 34 36 38 40 42 44 46 48 50 52 54 56 58 60 62 64 66 68 70 72 74 76 78 80 82 84 86 88 90 92 94 96 98 100 102 104 106 108 110 112 114 116 118 120 122 124 126 128 130 132 134 136 138 140 142 144 146 148 150 152 154 156 158 160 162 164 166 168 170 172 174 176 178 180 182 184 186 188 190 192 194 196 198 200 </DataArray>
<DataArray  type="UInt8"  Name="types"  format="ascii">3 3 3 3 3 3 3 3 3 3 3 3 3 3 3 3 3 3 3 3 3 3 3 3 3 3 3 3 3 3 3 3 3 3 3 3 3 3 3 3 3 3 3 3 3 3 3 3 3 3 3 3 3 3 3 3 3 3 3 3 3 3 3 3 3 3 3 3 3 3 3 3 3 3 3 3 3 3 3 3 3 3 3 3 3 3 3 3 3 3 3 3 3 3 3 3 3 3 3 3 </DataArray>
</Cells>
<PointData  Scalars="displacement"> 
<DataArray  type="Float64"  Name="displacement"  format="ascii">-2.3820227866180436e-06  -9.9880905914372740e-03  -1.9945230401027445e-02  -2.9873843749390974e-02  -3.9774001086535171e-02  -4.9645800945115087e-02  -5.9489369843193605e-02  -6.9304862159383737e-02  -7.9092459980494953e-02  -8.8852372921836023e-02  -9.8584837920349819e-02  -1.0829011900078490e-01  -1.1796850701513524e-01  -1.2762031935560475e-01  -1.3724589964137798e-01  -1.4684561737951149e-01  -1.5641986760027379e-01  -1.6596907046729786e-01  -1.7549367086293144e-01  -1.8499413794919117e-01  -1.9447096470475608e-01  -2.0392466743845725e-01  -2.1335578527974430e-01  -2.2276487964662792e-01  -2.3215253369162922e-01  -2.4151935172627895e-01  -2.5086595862473354e-01  -2.6019299920710121e-01  -2.6950113760308142e-01  -2.7879105659654874e-01  -2.8806345695172941e-01  -2.9731905672162967e-01  -3.0655859053940482e-01  -3.1578280889336485e-01  -3.2499247738633330e-01  -3.3418837598008988e-01  -3.4337129822564233e-01  -3.5254205048008663e-01  -3.6170145111083069e-01  -3.7085032968796444e-01  -3.7998952616557358e-01  -3.8911989005280762e-01  -3.9824227957551617e-01  -4.0735756082928387e-01  -4.1646660692469700e-01  -4.2557029712569200e-01  -4.3466951598182496e-01  -4.4376515245533010e-01  -4.5285809904382091e-01  -4.6194925089950217e-01  -4.7103950494576302e-01  -4.8012975899202248e-01  -4.8922091084769953e-01  -4.9831385743618345e-01  -5.0740949390967915e-01  -5.1650871276580024e-01  -5.2561240296678036e-01  -5.3472144906217733e-01  -5.4383673031592672e-01  -5.5295911983861401e-01  -5.6208948372582535e-01  -5.7122868020340845e-01  -5.8037755878051311e-01  -5.8953695941122519e-01  -5.9870771166563486e-01  -6.0789063391115039e-01  -6.1708653250486745e-01  -6.2629620099779371e-01  -6.3552041935170833e-01  -6.4475995316943679e-01  -6.5401555293928748e-01  -6.6328795329441648e-01  -6.7257787228782928e-01  -6.8188601068375232e-01  -6.9121305126605992e-01  -7.0055965816445120e-01  -7.0992647619903526e-01  -7.1931413024396806e-01  -7.2872322461078032e-01  -7.3815434245199230e-01  -7.4760804518561685e-01  -7.5708487194110119e-01  -7.6658533902727821e-01  -7.7610993942282680e-01  -7.8565914228976275e-01  -7.9523339251043357e-01  -8.0483311024847326e-01  -8.1445869053414810e-01  -8.2411050287451693e-01  -8.3378889088876273e-01  -8.4349417196909116e-01  -8.5322663696749423e-01  -8.6298654990872226e-01  -8.7277414772971695e-01  -8.8258964004578877e-01  -8.9243320894374722e-01  -9.0230500880220288e-01  -9.1220516613922076e-01  -9.2213377948745379e-01  -9.3209091929690979e-01  -9.4207662786542357e-01  </DataArray> 
</PointData> 
</Piece>
</UnstructuredGrid>
</VTKFile>