<?xml version="1.0"?>
<VTKFile type="UnstructuredGrid"  version="0.1"  >
<UnstructuredGrid>
<Piece  NumberOfPoints="101" NumberOfCells="100">
<Points>
<DataArray  type="Float64"  NumberOfComponents="3"  format="ascii">0 0 0  0.01 0 0  0.02 0 0  0.03 0 0  0.04 0 0  0.05 0 0  0.06 0 0  0.07000000000000001 0 0  0.08 0 0  0.09 0 0  0.1 0 0  0.11 0 0  0.12 0 0  0.13 0 0  0.14 0 0  0.15 0 0  0.16 0 0  0.17 0 0  0.18 0 0  0.19 0 0  0.2 0 0  0.21 0 0  0.22 0 0  0.23 0 0  0.24 0 0  0.25 0 0  0.26 0 0  0.27 0 0  0.28 0 0  0.29 0 0  0.3 0 0  0.31 0 0  0.32 0 0  0.33 0 0  0.34 0 0  0.35 0 0  0.36 0 0  0.37 0 0  0.38 0 0  0.39 0 0  0.4 0 0  0.41 0 0  0.42 0 0  0.43 0 0  0.44 0 0  0.45 0 0  0.46 0 0  0.47 0 0  0.48 0 0  0.49 0 0  0.5 0 0  0.51 0 0  0.52 0 0  0.53 0 0  0.54 0 0  0.55 0 0  0.5600000000000001 0 0  0.57 0 0  0.58 0 0  0.59 0 0  0.6 0 0  0.61 0 0  0.62 0 0  0.63 0 0  0.64 0 0  0.65 0 0  0.66 0 0  0.67 0 0  0.68 0 0  0.6899999999999999 0 0  0.7 0 0  0.71 0 0  0.72 0 0  0.73 0 0  0.74 0 0  0.75 0 0  0.76 0 0  0.77 0 0  0.78 0 0  0.79 0 0  0.8 0 0  0.8100000000000001 0 0  0.82 0 0  0.83 0 0  0.84 0 0  0.85 0 0  0.86 0 0  0.87 0 0  0.88 0 0  0.89 0 0  0.9 0 0  0.91 0 0  0.92 0 0  0.93 0 0  0.9399999999999999 0 0  0.95 0 0  0.96 0 0  0.97 0 0  0.98 0 0  0.99 0 0  1 0 0  </DataArray>
</Points>
<Cells>
<DataArray  type="UInt32"  Name="connectivity"  format="ascii">0 1  1 2  2 3  3 4  4 5  5 6  6 7  7 8  8 9  9 10  10 11  11 12  12 13  13 14  14 15  15 16  16 17  17 18  18 19  19 20  20 21  21 22  22 23  23 24  24 25  25 26  26 27  27 28  28 29  29 30  30 31  31 32  32 33  33 34  34 35  35 36  36 37  37 38  38 39  39 40  40 41  41 42  42 43  43 44  44 45  45 46  46 47  47 48  48 49  49 50  50 51  51 52  52 53  53 54  54 55  55 56  56 57  57 58  58 59  59 60  60 61  61 62  62 63  63 64  64 65  65 66  66 67  67 68  68 69  69 70  70 71  71 72  72 73  73 74  74 75  75 76  76 77  77 78  78 79  79 80  80 81  81 82  82 83  83 84  84 85  85 86  86 87  87 88  88 89  89 90  90 91  91 92  92 93  93 94  94 95  95 96  96 97  97 98  98 99  99 100  </DataArray>
<DataArray  type="UInt32"  Name="offsets"  format="ascii">2 4 6 8 10 12 14 16 18 20 22 24 26 28 30 32 34 36 38 40 42 44 46 48 50 52 54 56 58 60 62 64 66 68 70 72 74 76 78 80 82 84 86 88 90 92 94 96 98 100 102 104 106 108 110 112 114 116 118 120 122 124 126 128 130 132 134 136 138 140 142 144 146 148 150 152 154 156 158 160 162 164 166 168 170 172 174 176 178 180 182 184 186 188 190 192 194 196 198 200 </DataArray>
<DataArray  type="UInt8"  Name="types"  format="ascii">3 3 3 3 3 3 3 3 3 3 3 3 3 3 3 3 3 3 3 3 3 3 3 3 3 3 3 3 3 3 3 3 3 3 3 3 3 3 3 3 3 3 3 3 3 3 3 3 3 3 3 3 3 3 3 3 3 3 3 3 3 3 3 3 3 3 3 3 3 3 3 3 3 3 3 3 3 3 3 3 3 3 3 3 3 3 3 3 3 3 3 3 3 3 3 3 3 3 3 3 </DataArray>
</Cells>
<PointData  Scalars="displacement"> 
<DataArray  type="Float64"  Name="displacement"  format="ascii">-7.7360218383136472e-10  1.0000341890834250e-02  2.0000693607756019e-02  3.0001054016149362e-02  4.0001422774658617e-02  5.0001799534990413e-02  6.0002183949437314e-02  7.0002575669251263e-02  8.0002974345461900e-02  9.0003379629031335e-02  1.0000379117117858e-01  1.1000420862365025e-01  1.2000463163899669e-01  1.3000505987083744e-01  1.4000549297412090e-01  1.5000593060537520e-01  1.6000637242295321e-01  1.7000681808726734e-01  1.8000726726101884e-01  1.9000771960941729e-01  2.0000817480039315e-01  2.1000863250480092e-01  2.2000909239661562e-01  2.3000955415311958e-01  2.4001001745508060e-01  2.5001048198692410e-01  2.6001094743689313e-01  2.7001141349720281e-01  2.8001187986418546e-01  2.9001234623842675e-01  3.0001281232489474e-01  3.1001327783305871e-01  3.2001374247700110e-01  3.3001420597552089e-01  3.4001466805222813e-01  3.5001512843563143e-01  3.6001558685921708e-01  3.7001604306151964e-01  3.8001649678618554e-01  3.9001694778202833e-01  4.0001739580307755e-01  4.1001784060861829e-01  4.2001828196322671e-01  4.3001871963679439e-01  4.4001915340455000e-01  4.5001958304707113e-01  4.6002000835029067e-01  4.7002042910549702e-01  4.8002084510932935e-01  4.9002125616376474e-01  5.0002166207610033e-01  5.1002206265893246e-01  5.2002245773012512e-01  5.3002284711277992e-01  5.4002323063519675e-01  5.5002360813083184e-01  5.6002397943825055e-01  5.7002434440107719e-01  5.8002470286794050e-01  5.9002505469241484e-01  6.0002539973296076e-01  6.1002573785285807e-01  6.2002606892014178e-01  6.3002639280752926e-01  6.4002670939235196e-01  6.5002701855648015e-01  6.6002732018624566e-01  6.7002761417236745e-01  6.8002790040987260e-01  6.9002817879801770e-01  7.0002844924020902e-01  7.1002871164392023e-01  7.2002896592061361e-01  7.3002921198566151e-01  7.4002944975826201e-01  7.5002967916136232e-01  7.6002990012157901e-01  7.7003011256911891e-01  7.8003031643770493e-01  7.9003051166449878e-01  8.0003069819002515e-01  8.1003087595810430e-01  8.2003104491577783e-01  8.3003120501324379e-01  8.4003135620378899e-01  8.5003149844372650e-01  8.6003163169233610e-01  8.7003175591180548e-01  8.8003187106717640e-01  8.9003197712629689e-01  9.0003207405976460e-01  9.1003216184089031e-01  9.2003224044565357e-01  9.3003230985266327e-01  9.4003237004312801e-01  9.5003242100082208e-01  9.6003246271206166e-01  9.7003249516568091e-01  9.8003251835301419e-01  9.9003253226788279e-01  1.0000325369065841e+00  </DataArray> 
</PointData> 
</Piece>
</UnstructuredGrid>
</VTKFile>