<?xml version="1.0"?>
<VTKFile type="UnstructuredGrid"  version="0.1"  >
<UnstructuredGrid>
<Piece  NumberOfPoints="101" NumberOfCells="100">
<Points>
<DataArray  type="Float64"  NumberOfComponents="3"  format="ascii">0 0 0  0.01 0 0  0.02 0 0  0.03 0 0  0.04 0 0  0.05 0 0  0.06 0 0  0.07000000000000001 0 0  0.08 0 0  0.09 0 0  0.1 0 0  0.11 0 0  0.12 0 0  0.13 0 0  0.14 0 0  0.15 0 0  0.16 0 0  0.17 0 0  0.18 0 0  0.19 0 0  0.2 0 0  0.21 0 0  0.22 0 0  0.23 0 0  0.24 0 0  0.25 0 0  0.26 0 0  0.27 0 0  0.28 0 0  0.29 0 0  0.3 0 0  0.31 0 0  0.32 0 0  0.33 0 0  0.34 0 0  0.35 0 0  0.36 0 0  0.37 0 0  0.38 0 0  0.39 0 0  0.4 0 0  0.41 0 0  0.42 0 0  0.43 0 0  0.44 0 0  0.45 0 0  0.46 0 0  0.47 0 0  0.48 0 0  0.49 0 0  0.5 0 0  0.51 0 0  0.52 0 0  0.53 0 0  0.54 0 0  0.55 0 0  0.5600000000000001 0 0  0.57 0 0  0.58 0 0  0.59 0 0  0.6 0 0  0.61 0 0  0.62 0 0  0.63 0 0  0.64 0 0  0.65 0 0  0.66 0 0  0.67 0 0  0.68 0 0  0.6899999999999999 0 0  0.7 0 0  0.71 0 0  0.72 0 0  0.73 0 0  0.74 0 0  0.75 0 0  0.76 0 0  0.77 0 0  0.78 0 0  0.79 0 0  0.8 0 0  0.8100000000000001 0 0  0.82 0 0  0.83 0 0  0.84 0 0  0.85 0 0  0.86 0 0  0.87 0 0  0.88 0 0  0.89 0 0  0.9 0 0  0.91 0 0  0.92 0 0  0.93 0 0  0.9399999999999999 0 0  0.95 0 0  0.96 0 0  0.97 0 0  0.98 0 0  0.99 0 0  1 0 0  </DataArray>
</Points>
<Cells>
<DataArray  type="UInt32"  Name="connectivity"  format="ascii">0 1  1 2  2 3  3 4  4 5  5 6  6 7  7 8  8 9  9 10  10 11  11 12  12 13  13 14  14 15  15 16  16 17  17 18  18 19  19 20  20 21  21 22  22 23  23 24  24 25  25 26  26 27  27 28  28 29  29 30  30 31  31 32  32 33  33 34  34 35  35 36  36 37  37 38  38 39  39 40  40 41  41 42  42 43  43 44  44 45  45 46  46 47  47 48  48 49  49 50  50 51  51 52  52 53  53 54  54 55  55 56  56 57  57 58  58 59  59 60  60 61  61 62  62 63  63 64  64 65  65 66  66 67  67 68  68 69  69 70  70 71  71 72  72 73  73 74  74 75  75 76  76 77  77 78  78 79  79 80  80 81  81 82  82 83  83 84  84 85  85 86  86 87  87 88  88 89  89 90  90 91  91 92  92 93  93 94  94 95  95 96  96 97  97 98  98 99  99 100  </DataArray>
<DataArray  type="UInt32"  Name="offsets"  format="ascii">2 4 6 8 10 12 14 16 18 20 22 24 26 28 30 32 34 36 38 40 42 44 46 48 50 52 54 56 58 60 62 64 66 68 70 72 74 76 78 80 82 84 86 88 90 92 94 96 98 100 102 104 106 108 110 112 114 116 118 120 122 124 126 128 130 132 134 136 138 140 142 144 146 148 150 152 154 156 158 160 162 164 166 168 170 172 174 176 178 180 182 184 186 188 190 192 194 196 198 200 </DataArray>
<DataArray  type="UInt8"  Name="types"  format="ascii">3 3 3 3 3 3 3 3 3 3 3 3 3 3 3 3 3 3 3 3 3 3 3 3 3 3 3 3 3 3 3 3 3 3 3 3 3 3 3 3 3 3 3 3 3 3 3 3 3 3 3 3 3 3 3 3 3 3 3 3 3 3 3 3 3 3 3 3 3 3 3 3 3 3 3 3 3 3 3 3 3 3 3 3 3 3 3 3 3 3 3 3 3 3 3 3 3 3 3 3 </DataArray>
</Cells>
<PointData  Scalars="displacement"> 
<DataArray  type="Float64"  Name="displacement"  format="ascii">-6.0696233563141712e-06  -9.9696536803443748e-03  -1.9860441789696849e-02  -2.9678541731750441e-02  -3.9424133022197307e-02  -4.9097466734904623e-02  -5.8698865254106350e-02  -6.8228721956213378e-02  -7.7687500821555053e-02  -8.7075735976436197e-02  -9.6394031165962887e-02  -1.0564305915815546e-01  -1.1482356107994005e-01  -1.2393634568567276e-01  -1.3298228855891936e-01  -1.4196233124827956e-01  -1.5087748033810919e-01  -1.5972880645505647e-01  -1.6851744321139706e-01  -1.7724458608620783e-01  -1.8591149124548609e-01  -1.9451947430237965e-01  -2.0306990901875180e-01  -2.1156422594936139e-01  -2.2000391103000033e-01  -2.2839050411098050e-01  -2.3672559743741611e-01  -2.4501083407780666e-01  -2.5324790630246768e-01  -2.6143855391341120e-01  -2.6958456252732660e-01  -2.7768776181335325e-01  -2.8575002368738822e-01  -2.9377326046470603e-01  -3.0175942297272224e-01  -3.0971049862575334e-01  -3.1762850946368071e-01  -3.2551551015645169e-01  -3.3337358597638517e-01  -3.4120485074028506e-01  -3.4901144472339324e-01  -3.5679553254723534e-01  -3.6455930104345025e-01  -3.7230495709570416e-01  -3.8003472546182437e-01  -3.8775084657829911e-01  -3.9545557434930639e-01  -4.0315117392246141e-01  -4.1083991945346698e-01  -4.1852409186187978e-01  -4.2620597658020243e-01  -4.3388786129852369e-01  -4.4157203370693360e-01  -4.4926077923793445e-01  -4.5695637881108309e-01  -4.6466110658208232e-01  -4.7237722769854673e-01  -4.8010699606465596e-01  -4.8785265211689760e-01  -4.9561642061309830e-01  -5.0340050843692519e-01  -5.1120710242001588e-01  -5.1903836718389607e-01  -5.2689644300380778e-01  -5.3478344369655484e-01  -5.4270145453445751e-01  -5.5065253018746130e-01  -5.5863869269544852e-01  -5.6666192947273530e-01  -5.7472419134673780e-01  -5.8282739063273081e-01  -5.9097339924661074e-01  -5.9916404685751623e-01  -6.0740111908213790e-01  -6.1568635572248642e-01  -6.2402144904887802e-01  -6.3240804212981216e-01  -6.4084772721040284e-01  -6.4934204414096230e-01  -6.5789247885728164e-01  -6.6650046191412016e-01  -6.7516736707334157e-01  -6.8389450994809309e-01  -6.9268314670437281e-01  -7.0153447282125692e-01  -7.1044962191102079e-01  -7.1942966460031221e-01  -7.2847560747348761e-01  -7.3758839207914639e-01  -7.4676889400085467e-01  -7.5601792199296858e-01  -7.6533621718241385e-01  -7.7472445233721077e-01  -7.8418323120246525e-01  -7.9371308790448425e-01  -8.0331448642359571e-01  -8.1298782013621018e-01  -8.2273341142656098e-01  -8.3255151136851568e-01  -8.4244229947776628e-01  -8.5240588353464986e-01  </DataArray> 
</PointData> 
</Piece>
</UnstructuredGrid>
</VTKFile>