<?xml version="1.0"?>
<VTKFile type="UnstructuredGrid"  version="0.1"  >
<UnstructuredGrid>
<Piece  NumberOfPoints="101" NumberOfCells="100">
<Points>
<DataArray  type="Float64"  NumberOfComponents="3"  format="ascii">0 0 0  0.01 0 0  0.02 0 0  0.03 0 0  0.04 0 0  0.05 0 0  0.06 0 0  0.07000000000000001 0 0  0.08 0 0  0.09 0 0  0.1 0 0  0.11 0 0  0.12 0 0  0.13 0 0  0.14 0 0  0.15 0 0  0.16 0 0  0.17 0 0  0.18 0 0  0.19 0 0  0.2 0 0  0.21 0 0  0.22 0 0  0.23 0 0  0.24 0 0  0.25 0 0  0.26 0 0  0.27 0 0  0.28 0 0  0.29 0 0  0.3 0 0  0.31 0 0  0.32 0 0  0.33 0 0  0.34 0 0  0.35 0 0  0.36 0 0  0.37 0 0  0.38 0 0  0.39 0 0  0.4 0 0  0.41 0 0  0.42 0 0  0.43 0 0  0.44 0 0  0.45 0 0  0.46 0 0  0.47 0 0  0.48 0 0  0.49 0 0  0.5 0 0  0.51 0 0  0.52 0 0  0.53 0 0  0.54 0 0  0.55 0 0  0.5600000000000001 0 0  0.57 0 0  0.58 0 0  0.59 0 0  0.6 0 0  0.61 0 0  0.62 0 0  0.63 0 0  0.64 0 0  0.65 0 0  0.66 0 0  0.67 0 0  0.68 0 0  0.6899999999999999 0 0  0.7 0 0  0.71 0 0  0.72 0 0  0.73 0 0  0.74 0 0  0.75 0 0  0.76 0 0  0.77 0 0  0.78 0 0  0.79 0 0  0.8 0 0  0.8100000000000001 0 0  0.82 0 0  0.83 0 0  0.84 0 0  0.85 0 0  0.86 0 0  0.87 0 0  0.88 0 0  0.89 0 0  0.9 0 0  0.91 0 0  0.92 0 0  0.93 0 0  0.9399999999999999 0 0  0.95 0 0  0.96 0 0  0.97 0 0  0.98 0 0  0.99 0 0  1 0 0  </DataArray>
</Points>
<Cells>
<DataArray  type="UInt32"  Name="connectivity"  format="ascii">0 1  1 2  2 3  3 4  4 5  5 6  6 7  7 8  8 9  9 10  10 11  11 12  12 13  13 14  14 15  15 16  16 17  17 18  18 19  19 20  20 21  21 22  22 23  23 24  24 25  25 26  26 27  27 28  28 29  29 30  30 31  31 32  32 33  33 34  34 35  35 36  36 37  37 38  38 39  39 40  40 41  41 42  42 43  43 44  44 45  45 46  46 47  47 48  48 49  49 50  50 51  51 52  52 53  53 54  54 55  55 56  56 57  57 58  58 59  59 60  60 61  61 62  62 63  63 64  64 65  65 66  66 67  67 68  68 69  69 70  70 71  71 72  72 73  73 74  74 75  75 76  76 77  77 78  78 79  79 80  80 81  81 82  82 83  83 84  84 85  85 86  86 87  87 88  88 89  89 90  90 91  91 92  92 93  93 94  94 95  95 96  96 97  97 98  98 99  99 100  </DataArray>
<DataArray  type="UInt32"  Name="offsets"  format="ascii">2 4 6 8 10 12 14 16 18 20 22 24 26 28 30 32 34 36 38 40 42 44 46 48 50 52 54 56 58 60 62 64 66 68 70 72 74 76 78 80 82 84 86 88 90 92 94 96 98 100 102 104 106 108 110 112 114 116 118 120 122 124 126 128 130 132 134 136 138 140 142 144 146 148 150 152 154 156 158 160 162 164 166 168 170 172 174 176 178 180 182 184 186 188 190 192 194 196 198 200 </DataArray>
<DataArray  type="UInt8"  Name="types"  format="ascii">3 3 3 3 3 3 3 3 3 3 3 3 3 3 3 3 3 3 3 3 3 3 3 3 3 3 3 3 3 3 3 3 3 3 3 3 3 3 3 3 3 3 3 3 3 3 3 3 3 3 3 3 3 3 3 3 3 3 3 3 3 3 3 3 3 3 3 3 3 3 3 3 3 3 3 3 3 3 3 3 3 3 3 3 3 3 3 3 3 3 3 3 3 3 3 3 3 3 3 3 </DataArray>
</Cells>
<PointData  Scalars="displacement"> 
<DataArray  type="Float64"  Name="displacement"  format="ascii">9.8371923328902716e+34  2.6875020696565823e+35  1.6520759626761135e+35  2.0846389697926092e+35  1.9271678129604336e+35  1.9805001509443097e+35  1.9632252433946257e+35  1.9686537794474674e+35  1.9669849101076862e+35  1.9674895053347740e+35  1.9673389124067368e+35  1.9673833867640231e+35  1.9673703650713068e+35  1.9673741502715343e+35  1.9673730567012906e+35  1.9673733709794832e+35  1.9673732810728934e+35  1.9673733066895903e+35  1.9673732994166294e+35  1.9673733014750009e+35  1.9673733008940992e+35  1.9673733010576193e+35  1.9673733010116965e+35  1.9673733010245627e+35  1.9673733010209586e+35  1.9673733010219628e+35  1.9673733010216814e+35  1.9673733010217570e+35  1.9673733010217326e+35  1.9673733010217371e+35  1.9673733010217304e+35  1.9673733010217300e+35  1.9673733010217293e+35  1.9673733010217282e+35  1.9673733010217278e+35  1.9673733010217297e+35  1.9673733010217293e+35  1.9673733010217293e+35  1.9673733010217319e+35  1.9673733010217315e+35  1.9673733010217289e+35  1.9673733010217304e+35  1.9673733010217289e+35  1.9673733010217245e+35  1.9673733010217260e+35  1.9673733010217223e+35  1.9673733010217208e+35  1.9673733010217194e+35  1.9673733010217175e+35  1.9673733010217168e+35  1.9673733010217168e+35  1.9673733010217186e+35  1.9673733010217164e+35  1.9673733010217160e+35  1.9673733010217171e+35  1.9673733010217105e+35  1.9673733010217101e+35  1.9673733010217101e+35  1.9673733010217061e+35  1.9673733010217035e+35  1.9673733010217009e+35  1.9673733010217064e+35  1.9673733010217079e+35  1.9673733010217098e+35  1.9673733010217101e+35  1.9673733010217075e+35  1.9673733010217094e+35  1.9673733010217109e+35  1.9673733010217138e+35  1.9673733010217138e+35  1.9673733010217146e+35  1.9673733010217197e+35  1.9673733010217168e+35  1.9673733010217168e+35  1.9673733010217212e+35  1.9673733010217146e+35  1.9673733010217142e+35  1.9673733010217171e+35  1.9673733010217146e+35  1.9673733010217168e+35  1.9673733010217109e+35  1.9673733010217138e+35  1.9673733010217138e+35  1.9673733010217105e+35  1.9673733010217116e+35  1.9673733010217116e+35  1.9673733010217123e+35  1.9673733010217057e+35  1.9673733010217050e+35  1.9673733010217068e+35  1.9673733010217064e+35  1.9673733010217050e+35  1.9673733010217057e+35  1.9673733010217057e+35  1.9673733010216987e+35  1.9673733010216983e+35  1.9673733010216980e+35  1.9673733010216987e+35  1.9673733010216965e+35  1.9673733010216965e+35  1.9673733010216987e+35  </DataArray> 
</PointData> 
</Piece>
</UnstructuredGrid>
</VTKFile>