<?xml version="1.0"?>
<VTKFile type="UnstructuredGrid"  version="0.1"  >
<UnstructuredGrid>
<Piece  NumberOfPoints="101" NumberOfCells="100">
<Points>
<DataArray  type="Float64"  NumberOfComponents="3"  format="ascii">0 0 0  0.01 0 0  0.02 0 0  0.03 0 0  0.04 0 0  0.05 0 0  0.06 0 0  0.07000000000000001 0 0  0.08 0 0  0.09 0 0  0.1 0 0  0.11 0 0  0.12 0 0  0.13 0 0  0.14 0 0  0.15 0 0  0.16 0 0  0.17 0 0  0.18 0 0  0.19 0 0  0.2 0 0  0.21 0 0  0.22 0 0  0.23 0 0  0.24 0 0  0.25 0 0  0.26 0 0  0.27 0 0  0.28 0 0  0.29 0 0  0.3 0 0  0.31 0 0  0.32 0 0  0.33 0 0  0.34 0 0  0.35 0 0  0.36 0 0  0.37 0 0  0.38 0 0  0.39 0 0  0.4 0 0  0.41 0 0  0.42 0 0  0.43 0 0  0.44 0 0  0.45 0 0  0.46 0 0  0.47 0 0  0.48 0 0  0.49 0 0  0.5 0 0  0.51 0 0  0.52 0 0  0.53 0 0  0.54 0 0  0.55 0 0  0.5600000000000001 0 0  0.57 0 0  0.58 0 0  0.59 0 0  0.6 0 0  0.61 0 0  0.62 0 0  0.63 0 0  0.64 0 0  0.65 0 0  0.66 0 0  0.67 0 0  0.68 0 0  0.6899999999999999 0 0  0.7 0 0  0.71 0 0  0.72 0 0  0.73 0 0  0.74 0 0  0.75 0 0  0.76 0 0  0.77 0 0  0.78 0 0  0.79 0 0  0.8 0 0  0.8100000000000001 0 0  0.82 0 0  0.83 0 0  0.84 0 0  0.85 0 0  0.86 0 0  0.87 0 0  0.88 0 0  0.89 0 0  0.9 0 0  0.91 0 0  0.92 0 0  0.93 0 0  0.9399999999999999 0 0  0.95 0 0  0.96 0 0  0.97 0 0  0.98 0 0  0.99 0 0  1 0 0  </DataArray>
</Points>
<Cells>
<DataArray  type="UInt32"  Name="connectivity"  format="ascii">0 1  1 2  2 3  3 4  4 5  5 6  6 7  7 8  8 9  9 10  10 11  11 12  12 13  13 14  14 15  15 16  16 17  17 18  18 19  19 20  20 21  21 22  22 23  23 24  24 25  25 26  26 27  27 28  28 29  29 30  30 31  31 32  32 33  33 34  34 35  35 36  36 37  37 38  38 39  39 40  40 41  41 42  42 43  43 44  44 45  45 46  46 47  47 48  48 49  49 50  50 51  51 52  52 53  53 54  54 55  55 56  56 57  57 58  58 59  59 60  60 61  61 62  62 63  63 64  64 65  65 66  66 67  67 68  68 69  69 70  70 71  71 72  72 73  73 74  74 75  75 76  76 77  77 78  78 79  79 80  80 81  81 82  82 83  83 84  84 85  85 86  86 87  87 88  88 89  89 90  90 91  91 92  92 93  93 94  94 95  95 96  96 97  97 98  98 99  99 100  </DataArray>
<DataArray  type="UInt32"  Name="offsets"  format="ascii">2 4 6 8 10 12 14 16 18 20 22 24 26 28 30 32 34 36 38 40 42 44 46 48 50 52 54 56 58 60 62 64 66 68 70 72 74 76 78 80 82 84 86 88 90 92 94 96 98 100 102 104 106 108 110 112 114 116 118 120 122 124 126 128 130 132 134 136 138 140 142 144 146 148 150 152 154 156 158 160 162 164 166 168 170 172 174 176 178 180 182 184 186 188 190 192 194 196 198 200 </DataArray>
<DataArray  type="UInt8"  Name="types"  format="ascii">3 3 3 3 3 3 3 3 3 3 3 3 3 3 3 3 3 3 3 3 3 3 3 3 3 3 3 3 3 3 3 3 3 3 3 3 3 3 3 3 3 3 3 3 3 3 3 3 3 3 3 3 3 3 3 3 3 3 3 3 3 3 3 3 3 3 3 3 3 3 3 3 3 3 3 3 3 3 3 3 3 3 3 3 3 3 3 3 3 3 3 3 3 3 3 3 3 3 3 3 </DataArray>
</Cells>
<PointData  Scalars="displacement"> 
<DataArray  type="Float64"  Name="displacement"  format="ascii">-1.2451974537195857e-11  1.0000000305666454e-02  2.0000000772776125e-02  3.0000001388114778e-02  4.0000002150817102e-02  5.0000003059873843e-02  6.0000004114144412e-02  7.0000005312354993e-02  8.0000006653100780e-02  9.0000008134847750e-02  1.0000000975593347e-01  1.1000001151456974e-01  1.2000001340884407e-01  1.3000001543672152e-01  1.4000001759604722e-01  1.5000001988454789e-01  1.6000002229983512e-01  1.7000002483940679e-01  1.8000002750064986e-01  1.9000003028084350e-01  2.0000003317716072e-01  2.1000003618667193e-01  2.2000003930634751e-01  2.3000004253306078e-01  2.4000004586359081e-01  2.5000004929462577e-01  2.6000005282276600e-01  2.7000005644452713e-01  2.8000006015634332e-01  2.9000006395457095e-01  3.0000006783549216e-01  3.1000007179531736e-01  3.2000007583019036e-01  3.3000007993618991e-01  3.4000008410933524e-01  3.5000008834558871e-01  3.6000009264086025e-01  3.7000009699101061e-01  3.8000010139185497e-01  3.9000010583916755e-01  4.0000011032868493e-01  4.1000011485610943e-01  4.2000011941711474e-01  4.3000012400734838e-01  4.4000012862243632e-01  4.5000013325798688e-01  4.6000013790959410e-01  4.7000014257284223e-01  4.8000014724331075e-01  4.9000015191657648e-01  5.0000015658821928e-01  5.1000016125382497e-01  5.2000016590898945e-01  5.3000017054932280e-01  5.4000017517045340e-01  5.5000017976803217e-01  5.6000018433773491e-01  5.7000018887526893e-01  5.8000019337637432e-01  5.9000019783682811e-01  6.0000020225245065e-01  6.1000020661910559e-01  6.2000021093270552e-01  6.3000021518921701e-01  6.4000021938466045e-01  6.5000022351511855e-01  6.6000022757673438e-01  6.7000023156571853e-01  6.8000023547835153e-01  6.9000023931098786e-01  7.0000024306005892e-01  7.1000024672207296e-01  7.2000025029362291e-01  7.3000025377138700e-01  7.4000025715213302e-01  7.5000026043271872e-01  7.6000026361009709e-01  7.7000026668131771e-01  7.8000026964353064e-01  7.9000027249398774e-01  8.0000027523004558e-01  8.1000027784916540e-01  8.2000028034892258e-01  8.3000028272699811e-01  8.4000028498119128e-01  8.5000028710941289e-01  8.6000028910969206e-01  8.7000029098017795e-01  8.8000029271913938e-01  8.9000029432496752e-01  9.0000029579617635e-01  9.1000029713140540e-01  9.2000029832941888e-01  9.3000029938910933e-01  9.4000030030949699e-01  9.5000030108973132e-01  9.6000030172909134e-01  9.7000030222698397e-01  9.8000030258295123e-01  9.9000030279666318e-01  1.0000003028679230e+00  </DataArray> 
</PointData> 
</Piece>
</UnstructuredGrid>
</VTKFile>