<?xml version="1.0"?>
<VTKFile type="UnstructuredGrid"  version="0.1"  >
<UnstructuredGrid>
<Piece  NumberOfPoints="101" NumberOfCells="100">
<Points>
<DataArray  type="Float64"  NumberOfComponents="3"  format="ascii">0 0 0  0.01 0 0  0.02 0 0  0.03 0 0  0.04 0 0  0.05 0 0  0.06 0 0  0.07000000000000001 0 0  0.08 0 0  0.09 0 0  0.1 0 0  0.11 0 0  0.12 0 0  0.13 0 0  0.14 0 0  0.15 0 0  0.16 0 0  0.17 0 0  0.18 0 0  0.19 0 0  0.2 0 0  0.21 0 0  0.22 0 0  0.23 0 0  0.24 0 0  0.25 0 0  0.26 0 0  0.27 0 0  0.28 0 0  0.29 0 0  0.3 0 0  0.31 0 0  0.32 0 0  0.33 0 0  0.34 0 0  0.35 0 0  0.36 0 0  0.37 0 0  0.38 0 0  0.39 0 0  0.4 0 0  0.41 0 0  0.42 0 0  0.43 0 0  0.44 0 0  0.45 0 0  0.46 0 0  0.47 0 0  0.48 0 0  0.49 0 0  0.5 0 0  0.51 0 0  0.52 0 0  0.53 0 0  0.54 0 0  0.55 0 0  0.5600000000000001 0 0  0.57 0 0  0.58 0 0  0.59 0 0  0.6 0 0  0.61 0 0  0.62 0 0  0.63 0 0  0.64 0 0  0.65 0 0  0.66 0 0  0.67 0 0  0.68 0 0  0.6899999999999999 0 0  0.7 0 0  0.71 0 0  0.72 0 0  0.73 0 0  0.74 0 0  0.75 0 0  0.76 0 0  0.77 0 0  0.78 0 0  0.79 0 0  0.8 0 0  0.8100000000000001 0 0  0.82 0 0  0.83 0 0  0.84 0 0  0.85 0 0  0.86 0 0  0.87 0 0  0.88 0 0  0.89 0 0  0.9 0 0  0.91 0 0  0.92 0 0  0.93 0 0  0.9399999999999999 0 0  0.95 0 0  0.96 0 0  0.97 0 0  0.98 0 0  0.99 0 0  1 0 0  </DataArray>
</Points>
<Cells>
<DataArray  type="UInt32"  Name="connectivity"  format="ascii">0 1  1 2  2 3  3 4  4 5  5 6  6 7  7 8  8 9  9 10  10 11  11 12  12 13  13 14  14 15  15 16  16 17  17 18  18 19  19 20  20 21  21 22  22 23  23 24  24 25  25 26  26 27  27 28  28 29  29 30  30 31  31 32  32 33  33 34  34 35  35 36  36 37  37 38  38 39  39 40  40 41  41 42  42 43  43 44  44 45  45 46  46 47  47 48  48 49  49 50  50 51  51 52  52 53  53 54  54 55  55 56  56 57  57 58  58 59  59 60  60 61  61 62  62 63  63 64  64 65  65 66  66 67  67 68  68 69  69 70  70 71  71 72  72 73  73 74  74 75  75 76  76 77  77 78  78 79  79 80  80 81  81 82  82 83  83 84  84 85  85 86  86 87  87 88  88 89  89 90  90 91  91 92  92 93  93 94  94 95  95 96  96 97  97 98  98 99  99 100  </DataArray>
<DataArray  type="UInt32"  Name="offsets"  format="ascii">2 4 6 8 10 12 14 16 18 20 22 24 26 28 30 32 34 36 38 40 42 44 46 48 50 52 54 56 58 60 62 64 66 68 70 72 74 76 78 80 82 84 86 88 90 92 94 96 98 100 102 104 106 108 110 112 114 116 118 120 122 124 126 128 130 132 134 136 138 140 142 144 146 148 150 152 154 156 158 160 162 164 166 168 170 172 174 176 178 180 182 184 186 188 190 192 194 196 198 200 </DataArray>
<DataArray  type="UInt8"  Name="types"  format="ascii">3 3 3 3 3 3 3 3 3 3 3 3 3 3 3 3 3 3 3 3 3 3 3 3 3 3 3 3 3 3 3 3 3 3 3 3 3 3 3 3 3 3 3 3 3 3 3 3 3 3 3 3 3 3 3 3 3 3 3 3 3 3 3 3 3 3 3 3 3 3 3 3 3 3 3 3 3 3 3 3 3 3 3 3 3 3 3 3 3 3 3 3 3 3 3 3 3 3 3 3 </DataArray>
</Cells>
<PointData  Scalars="displacement"> 
<DataArray  type="Float64"  Name="displacement"  format="ascii">5.9291959217416135e-08  1.0012413756433140e-02  2.0024050020745161e-02  3.0034958242825850e-02  4.0045130191094881e-02  5.0054558404869609e-02  6.0063236425336314e-02  7.0071158738252468e-02  8.0078320792477814e-02  9.0084718996775323e-02  1.0009035072102444e-01  1.1009521429484695e-01  1.2009930900552560e-01  1.3010263509471809e-01  1.4010519375410990e-01  1.5010698711997567e-01  1.6010801826666990e-01  1.7010829119905319e-01  1.8010781084386743e-01  1.9010658304007216e-01  2.0010461452815559e-01  2.1010191293843467e-01  2.2009848677836261e-01  2.3009434541885648e-01  2.4008949907966703e-01  2.5008395881380846e-01  2.6007773649106591e-01  2.7007084478060522e-01  2.8006329713270472e-01  2.9005510775963228e-01  3.0004629161569135e-01  3.1003686437646061e-01  3.2002684241725260e-01  3.3001624279081776e-01  3.4000508320432055e-01  3.4999338199561586e-01  3.5998115810885351e-01  3.6996843106944022e-01  3.7995522095838991e-01  3.8994154838608908e-01  3.9992743446551515e-01  4.0991290078493120e-01  4.1989796938009522e-01  4.2988266270601272e-01  4.3986700360826902e-01  4.4985101529397170e-01  4.5983472130233605e-01  4.6981814547495337e-01  4.7980131192577086e-01  4.8978424501081796e-01  4.9976696929771852e-01  5.0974950953501796e-01  5.1973189062136671e-01  5.2971413757458907e-01  5.3969627550067711e-01  5.4967832956274654e-01  5.5966032494998064e-01  5.6964228684661145e-01  5.7962424040096083e-01  5.8960621069458452e-01  5.9958822271155077e-01  6.0957030130789014e-01  6.1955247118124757e-01  6.2953475684077687e-01  6.3951718257730583e-01  6.4949977243380919e-01  6.5948255017621893e-01  6.6946553926461205e-01  6.7944876282479949e-01  6.8943224362035616e-01  6.9941600402511361e-01  7.0940006599615757e-01  7.1938445104735271e-01  7.2936918022342834e-01  7.3935427407464982e-01  7.4933975263210861e-01  7.5932563538365838e-01  7.6931194125051638e-01  7.7929868856457118e-01  7.8928589504640445e-01  7.9927357778406305e-01  8.0926175321260607e-01  8.1925043709443812e-01  8.2923964450046816e-01  8.3922938979208894e-01  8.4921968660403369e-01  8.5921054782809281e-01  8.6920198559772910e-01  8.7919401127360663e-01  8.8918663543004484e-01  8.9917986784241155e-01  9.0917371747547704e-01  9.1916819247273707e-01  9.2916330014670867e-01  9.3915904697023422e-01  9.4915543856876505e-01  9.5915247971367623e-01  9.6915017431658113e-01  9.7914852542468578e-01  9.8914753521715448e-01  9.9914720500252741e-01  </DataArray> 
</PointData> 
</Piece>
</UnstructuredGrid>
</VTKFile>