<?xml version="1.0"?>
<VTKFile type="UnstructuredGrid"  version="0.1"  >
<UnstructuredGrid>
<Piece  NumberOfPoints="101" NumberOfCells="100">
<Points>
<DataArray  type="Float64"  NumberOfComponents="3"  format="ascii">0 0 0  0.01 0 0  0.02 0 0  0.03 0 0  0.04 0 0  0.05 0 0  0.06 0 0  0.07000000000000001 0 0  0.08 0 0  0.09 0 0  0.1 0 0  0.11 0 0  0.12 0 0  0.13 0 0  0.14 0 0  0.15 0 0  0.16 0 0  0.17 0 0  0.18 0 0  0.19 0 0  0.2 0 0  0.21 0 0  0.22 0 0  0.23 0 0  0.24 0 0  0.25 0 0  0.26 0 0  0.27 0 0  0.28 0 0  0.29 0 0  0.3 0 0  0.31 0 0  0.32 0 0  0.33 0 0  0.34 0 0  0.35 0 0  0.36 0 0  0.37 0 0  0.38 0 0  0.39 0 0  0.4 0 0  0.41 0 0  0.42 0 0  0.43 0 0  0.44 0 0  0.45 0 0  0.46 0 0  0.47 0 0  0.48 0 0  0.49 0 0  0.5 0 0  0.51 0 0  0.52 0 0  0.53 0 0  0.54 0 0  0.55 0 0  0.5600000000000001 0 0  0.57 0 0  0.58 0 0  0.59 0 0  0.6 0 0  0.61 0 0  0.62 0 0  0.63 0 0  0.64 0 0  0.65 0 0  0.66 0 0  0.67 0 0  0.68 0 0  0.6899999999999999 0 0  0.7 0 0  0.71 0 0  0.72 0 0  0.73 0 0  0.74 0 0  0.75 0 0  0.76 0 0  0.77 0 0  0.78 0 0  0.79 0 0  0.8 0 0  0.8100000000000001 0 0  0.82 0 0  0.83 0 0  0.84 0 0  0.85 0 0  0.86 0 0  0.87 0 0  0.88 0 0  0.89 0 0  0.9 0 0  0.91 0 0  0.92 0 0  0.93 0 0  0.9399999999999999 0 0  0.95 0 0  0.96 0 0  0.97 0 0  0.98 0 0  0.99 0 0  1 0 0  </DataArray>
</Points>
<Cells>
<DataArray  type="UInt32"  Name="connectivity"  format="ascii">0 1  1 2  2 3  3 4  4 5  5 6  6 7  7 8  8 9  9 10  10 11  11 12  12 13  13 14  14 15  15 16  16 17  17 18  18 19  19 20  20 21  21 22  22 23  23 24  24 25  25 26  26 27  27 28  28 29  29 30  30 31  31 32  32 33  33 34  34 35  35 36  36 37  37 38  38 39  39 40  40 41  41 42  42 43  43 44  44 45  45 46  46 47  47 48  48 49  49 50  50 51  51 52  52 53  53 54  54 55  55 56  56 57  57 58  58 59  59 60  60 61  61 62  62 63  63 64  64 65  65 66  66 67  67 68  68 69  69 70  70 71  71 72  72 73  73 74  74 75  75 76  76 77  77 78  78 79  79 80  80 81  81 82  82 83  83 84  84 85  85 86  86 87  87 88  88 89  89 90  90 91  91 92  92 93  93 94  94 95  95 96  96 97  97 98  98 99  99 100  </DataArray>
<DataArray  type="UInt32"  Name="offsets"  format="ascii">2 4 6 8 10 12 14 16 18 20 22 24 26 28 30 32 34 36 38 40 42 44 46 48 50 52 54 56 58 60 62 64 66 68 70 72 74 76 78 80 82 84 86 88 90 92 94 96 98 100 102 104 106 108 110 112 114 116 118 120 122 124 126 128 130 132 134 136 138 140 142 144 146 148 150 152 154 156 158 160 162 164 166 168 170 172 174 176 178 180 182 184 186 188 190 192 194 196 198 200 </DataArray>
<DataArray  type="UInt8"  Name="types"  format="ascii">3 3 3 3 3 3 3 3 3 3 3 3 3 3 3 3 3 3 3 3 3 3 3 3 3 3 3 3 3 3 3 3 3 3 3 3 3 3 3 3 3 3 3 3 3 3 3 3 3 3 3 3 3 3 3 3 3 3 3 3 3 3 3 3 3 3 3 3 3 3 3 3 3 3 3 3 3 3 3 3 3 3 3 3 3 3 3 3 3 3 3 3 3 3 3 3 3 3 3 3 </DataArray>
</Cells>
<PointData  Scalars="displacement"> 
<DataArray  type="Float64"  Name="displacement"  format="ascii">-4.0000019626857520e-12  9.9999999823601575e-03  2.0000000016654581e-02  3.0000000098751003e-02  4.0000000228474671e-02  5.0000000405603921e-02  6.0000000629871646e-02  7.0000000900965573e-02  8.0000001218528294e-02  9.0000001582158054e-02  1.0000000199140897e-01  1.1000000244579194e-01  1.2000000294477431e-01  1.3000000348778165e-01  1.4000000407419730e-01  1.5000000470336367e-01  1.6000000537458287e-01  1.7000000608711713e-01  1.8000000684019002e-01  1.9000000763298708e-01  2.0000000846465613e-01  2.1000000933430871e-01  2.2000001024102162e-01  2.3000001118383603e-01  2.4000001216176045e-01  2.5000001317376996e-01  2.6000001421880908e-01  2.7000001529579087e-01  2.8000001640359928e-01  2.9000001754109039e-01  3.0000001870709253e-01  3.1000001990040832e-01  3.2000002111981546e-01  3.3000002236406839e-01  3.4000002363189796e-01  3.5000002492201487e-01  3.6000002623310989e-01  3.7000002756385431e-01  3.8000002891290358e-01  3.9000003027889529e-01  4.0000003166045317e-01  4.1000003305618704e-01  4.2000003446469547e-01  4.3000003588456570e-01  4.4000003731437581e-01  4.5000003875269595e-01  4.6000004019808871e-01  4.7000004164911258e-01  4.8000004310432165e-01  4.9000004456226759e-01  5.0000004602150128e-01  5.1000004748057326e-01  5.2000004893803620e-01  5.3000005039244558e-01  5.4000005184236044e-01  5.5000005328634738e-01  5.6000005472297820e-01  5.7000005615083471e-01  5.8000005756850737e-01  5.9000005897459840e-01  6.0000006036772235e-01  6.1000006174650778e-01  6.2000006310959721e-01  6.3000006445565160e-01  6.4000006578334634e-01  6.5000006709137992e-01  6.6000006837846736e-01  6.7000006964334569e-01  6.8000007088477432e-01  6.9000007210153824e-01  7.0000007329244596e-01  7.1000007445633073e-01  7.2000007559205403e-01  7.3000007669850486e-01  7.4000007777460231e-01  7.5000007881929387e-01  7.6000007983155915e-01  7.7000008081041038e-01  7.8000008175489044e-01  7.9000008266408028e-01  8.0000008353709162e-01  8.1000008437307258e-01  8.2000008517120915e-01  8.3000008593072383e-01  8.4000008665087478e-01  8.5000008733096233e-01  8.6000008797032268e-01  8.7000008856833366e-01  8.8000008912441363e-01  8.9000008963802124e-01  9.0000009010865656e-01  9.1000009053586162e-01  9.2000009091922053e-01  9.3000009125836025e-01  9.4000009155295094e-01  9.5000009180270661e-01  9.6000009200738456e-01  9.7000009216678473e-01  9.8000009228075269e-01  9.9000009234917830e-01  1.0000000923719941e+00  </DataArray> 
</PointData> 
</Piece>
</UnstructuredGrid>
</VTKFile>