<?xml version="1.0"?>
<VTKFile type="UnstructuredGrid"  version="0.1"  >
<UnstructuredGrid>
<Piece  NumberOfPoints="101" NumberOfCells="100">
<Points>
<DataArray  type="Float64"  NumberOfComponents="3"  format="ascii">0 0 0  0.01 0 0  0.02 0 0  0.03 0 0  0.04 0 0  0.05 0 0  0.06 0 0  0.07000000000000001 0 0  0.08 0 0  0.09 0 0  0.1 0 0  0.11 0 0  0.12 0 0  0.13 0 0  0.14 0 0  0.15 0 0  0.16 0 0  0.17 0 0  0.18 0 0  0.19 0 0  0.2 0 0  0.21 0 0  0.22 0 0  0.23 0 0  0.24 0 0  0.25 0 0  0.26 0 0  0.27 0 0  0.28 0 0  0.29 0 0  0.3 0 0  0.31 0 0  0.32 0 0  0.33 0 0  0.34 0 0  0.35 0 0  0.36 0 0  0.37 0 0  0.38 0 0  0.39 0 0  0.4 0 0  0.41 0 0  0.42 0 0  0.43 0 0  0.44 0 0  0.45 0 0  0.46 0 0  0.47 0 0  0.48 0 0  0.49 0 0  0.5 0 0  0.51 0 0  0.52 0 0  0.53 0 0  0.54 0 0  0.55 0 0  0.5600000000000001 0 0  0.57 0 0  0.58 0 0  0.59 0 0  0.6 0 0  0.61 0 0  0.62 0 0  0.63 0 0  0.64 0 0  0.65 0 0  0.66 0 0  0.67 0 0  0.68 0 0  0.6899999999999999 0 0  0.7 0 0  0.71 0 0  0.72 0 0  0.73 0 0  0.74 0 0  0.75 0 0  0.76 0 0  0.77 0 0  0.78 0 0  0.79 0 0  0.8 0 0  0.8100000000000001 0 0  0.82 0 0  0.83 0 0  0.84 0 0  0.85 0 0  0.86 0 0  0.87 0 0  0.88 0 0  0.89 0 0  0.9 0 0  0.91 0 0  0.92 0 0  0.93 0 0  0.9399999999999999 0 0  0.95 0 0  0.96 0 0  0.97 0 0  0.98 0 0  0.99 0 0  1 0 0  </DataArray>
</Points>
<Cells>
<DataArray  type="UInt32"  Name="connectivity"  format="ascii">0 1  1 2  2 3  3 4  4 5  5 6  6 7  7 8  8 9  9 10  10 11  11 12  12 13  13 14  14 15  15 16  16 17  17 18  18 19  19 20  20 21  21 22  22 23  23 24  24 25  25 26  26 27  27 28  28 29  29 30  30 31  31 32  32 33  33 34  34 35  35 36  36 37  37 38  38 39  39 40  40 41  41 42  42 43  43 44  44 45  45 46  46 47  47 48  48 49  49 50  50 51  51 52  52 53  53 54  54 55  55 56  56 57  57 58  58 59  59 60  60 61  61 62  62 63  63 64  64 65  65 66  66 67  67 68  68 69  69 70  70 71  71 72  72 73  73 74  74 75  75 76  76 77  77 78  78 79  79 80  80 81  81 82  82 83  83 84  84 85  85 86  86 87  87 88  88 89  89 90  90 91  91 92  92 93  93 94  94 95  95 96  96 97  97 98  98 99  99 100  </DataArray>
<DataArray  type="UInt32"  Name="offsets"  format="ascii">2 4 6 8 10 12 14 16 18 20 22 24 26 28 30 32 34 36 38 40 42 44 46 48 50 52 54 56 58 60 62 64 66 68 70 72 74 76 78 80 82 84 86 88 90 92 94 96 98 100 102 104 106 108 110 112 114 116 118 120 122 124 126 128 130 132 134 136 138 140 142 144 146 148 150 152 154 156 158 160 162 164 166 168 170 172 174 176 178 180 182 184 186 188 190 192 194 196 198 200 </DataArray>
<DataArray  type="UInt8"  Name="types"  format="ascii">3 3 3 3 3 3 3 3 3 3 3 3 3 3 3 3 3 3 3 3 3 3 3 3 3 3 3 3 3 3 3 3 3 3 3 3 3 3 3 3 3 3 3 3 3 3 3 3 3 3 3 3 3 3 3 3 3 3 3 3 3 3 3 3 3 3 3 3 3 3 3 3 3 3 3 3 3 3 3 3 3 3 3 3 3 3 3 3 3 3 3 3 3 3 3 3 3 3 3 3 </DataArray>
</Cells>
<PointData  Scalars="displacement"> 
<DataArray  type="Float64"  Name="displacement"  format="ascii">-3.9498924078338818e-07  -9.9980251709033702e-03  -1.9990918054285291e-02  -2.9979080653252721e-02  -3.9962524649891487e-02  -4.9941266382978196e-02  -5.9915326831855936e-02  -6.9884731595729971e-02  -7.9849510868404874e-02  -8.9809699408486168e-02  -9.9765336505078656e-02  -1.0971646593901202e-01  -1.1966313593963480e-01  -1.2960539913721825e-01  -1.3954331251101521e-01  -1.4947693733303044e-01  -1.5940633910755109e-01  -1.6933158750650226e-01  -1.7925275630068963e-01  -1.8916992328699606e-01  -1.9908317021160563e-01  -2.0899258268932966e-01  -2.1889825011911673e-01  -2.2880026559582436e-01  -2.3869872581834731e-01  -2.4859373099418738e-01  -2.5848538474055965e-01  -2.6837379398213596e-01  -2.7825906884552271e-01  -2.8814132255057801e-01  -2.9802067129868026e-01  -3.0789723415804870e-01  -3.1777113294623871e-01  -3.2764249210992152e-01  -3.3751143860207178e-01  -3.4737810175667966e-01  -3.5724261316111378e-01  -3.6710510652626016e-01  -3.7696571755456643e-01  -3.8682458380611867e-01  -3.9668184456288769e-01  -4.0653764069127363e-01  -4.1639211450308811e-01  -4.2624540961510943e-01  -4.3609767080735040e-01  -4.4594904388017687e-01  -4.5579967551042239e-01  -4.6564971310663456e-01  -4.7549930466360085e-01  -4.8534859861629598e-01  -4.9519774369339298e-01  -5.0504688877048876e-01  -5.1489618272317816e-01  -5.2474577428013613e-01  -5.3459581187633642e-01  -5.4444644350656679e-01  -5.5429781657937460e-01  -5.6415007777159454e-01  -5.7400337288359238e-01  -5.8385784669538021e-01  -5.9371364282373629e-01  -6.0357090358047227e-01  -6.1342976983198783e-01  -6.2329038086025357e-01  -6.3315287422535627e-01  -6.4301738562974364e-01  -6.5288404878430162e-01  -6.6275299527639853e-01  -6.7262435444002433e-01  -6.8249825322815494e-01  -6.9237481608746132e-01  -7.0225416483549796e-01  -7.1213641854048515e-01  -7.2202169340379985e-01  -7.3191010264530054e-01  -7.4180175639159351e-01  -7.5169676156735166e-01  -7.6159522178978900e-01  -7.7149723726640729e-01  -7.8140290469610196e-01  -7.9131231717373018e-01  -8.0122556409824064e-01  -8.1114273108444446e-01  -8.2106389987852679e-01  -8.3098914827736936e-01  -8.4091855005177774e-01  -8.5085217487367693e-01  -8.6079008824735426e-01  -8.7073235144481487e-01  -8.8067902144531074e-01  -8.9063015087911379e-01  -9.0058578797557332e-01  -9.1054597651551683e-01  -9.2051075578805175e-01  -9.3048016055178318e-01  -9.4045422100051634e-01  -9.5043296273345457e-01  -9.6041640672994144e-01  -9.7040456932875363e-01  -9.8039746221197621e-01  -9.9039509239347634e-01  </DataArray> 
</PointData> 
</Piece>
</UnstructuredGrid>
</VTKFile>