<?xml version="1.0"?>
<VTKFile type="UnstructuredGrid"  version="0.1"  >
<UnstructuredGrid>
<Piece  NumberOfPoints="101" NumberOfCells="100">
<Points>
<DataArray  type="Float64"  NumberOfComponents="3"  format="ascii">0 0 0  0.01 0 0  0.02 0 0  0.03 0 0  0.04 0 0  0.05 0 0  0.06 0 0  0.07000000000000001 0 0  0.08 0 0  0.09 0 0  0.1 0 0  0.11 0 0  0.12 0 0  0.13 0 0  0.14 0 0  0.15 0 0  0.16 0 0  0.17 0 0  0.18 0 0  0.19 0 0  0.2 0 0  0.21 0 0  0.22 0 0  0.23 0 0  0.24 0 0  0.25 0 0  0.26 0 0  0.27 0 0  0.28 0 0  0.29 0 0  0.3 0 0  0.31 0 0  0.32 0 0  0.33 0 0  0.34 0 0  0.35 0 0  0.36 0 0  0.37 0 0  0.38 0 0  0.39 0 0  0.4 0 0  0.41 0 0  0.42 0 0  0.43 0 0  0.44 0 0  0.45 0 0  0.46 0 0  0.47 0 0  0.48 0 0  0.49 0 0  0.5 0 0  0.51 0 0  0.52 0 0  0.53 0 0  0.54 0 0  0.55 0 0  0.5600000000000001 0 0  0.57 0 0  0.58 0 0  0.59 0 0  0.6 0 0  0.61 0 0  0.62 0 0  0.63 0 0  0.64 0 0  0.65 0 0  0.66 0 0  0.67 0 0  0.68 0 0  0.6899999999999999 0 0  0.7 0 0  0.71 0 0  0.72 0 0  0.73 0 0  0.74 0 0  0.75 0 0  0.76 0 0  0.77 0 0  0.78 0 0  0.79 0 0  0.8 0 0  0.8100000000000001 0 0  0.82 0 0  0.83 0 0  0.84 0 0  0.85 0 0  0.86 0 0  0.87 0 0  0.88 0 0  0.89 0 0  0.9 0 0  0.91 0 0  0.92 0 0  0.93 0 0  0.9399999999999999 0 0  0.95 0 0  0.96 0 0  0.97 0 0  0.98 0 0  0.99 0 0  1 0 0  </DataArray>
</Points>
<Cells>
<DataArray  type="UInt32"  Name="connectivity"  format="ascii">0 1  1 2  2 3  3 4  4 5  5 6  6 7  7 8  8 9  9 10  10 11  11 12  12 13  13 14  14 15  15 16  16 17  17 18  18 19  19 20  20 21  21 22  22 23  23 24  24 25  25 26  26 27  27 28  28 29  29 30  30 31  31 32  32 33  33 34  34 35  35 36  36 37  37 38  38 39  39 40  40 41  41 42  42 43  43 44  44 45  45 46  46 47  47 48  48 49  49 50  50 51  51 52  52 53  53 54  54 55  55 56  56 57  57 58  58 59  59 60  60 61  61 62  62 63  63 64  64 65  65 66  66 67  67 68  68 69  69 70  70 71  71 72  72 73  73 74  74 75  75 76  76 77  77 78  78 79  79 80  80 81  81 82  82 83  83 84  84 85  85 86  86 87  87 88  88 89  89 90  90 91  91 92  92 93  93 94  94 95  95 96  96 97  97 98  98 99  99 100  </DataArray>
<DataArray  type="UInt32"  Name="offsets"  format="ascii">2 4 6 8 10 12 14 16 18 20 22 24 26 28 30 32 34 36 38 40 42 44 46 48 50 52 54 56 58 60 62 64 66 68 70 72 74 76 78 80 82 84 86 88 90 92 94 96 98 100 102 104 106 108 110 112 114 116 118 120 122 124 126 128 130 132 134 136 138 140 142 144 146 148 150 152 154 156 158 160 162 164 166 168 170 172 174 176 178 180 182 184 186 188 190 192 194 196 198 200 </DataArray>
<DataArray  type="UInt8"  Name="types"  format="ascii">3 3 3 3 3 3 3 3 3 3 3 3 3 3 3 3 3 3 3 3 3 3 3 3 3 3 3 3 3 3 3 3 3 3 3 3 3 3 3 3 3 3 3 3 3 3 3 3 3 3 3 3 3 3 3 3 3 3 3 3 3 3 3 3 3 3 3 3 3 3 3 3 3 3 3 3 3 3 3 3 3 3 3 3 3 3 3 3 3 3 3 3 3 3 3 3 3 3 3 3 </DataArray>
</Cells>
<PointData  Scalars="displacement"> 
<DataArray  type="Float64"  Name="displacement"  format="ascii">-2.3772487884460282e-14  9.9999999956669507e-03  1.9999999991645284e-02  2.9999999987914680e-02  3.9999999984477917e-02  4.9999999981337549e-02  5.9999999978495686e-02  6.9999999975954116e-02  7.9999999973714306e-02  8.9999999971777142e-02  9.9999999970143444e-02  1.0999999996881329e-01  1.1999999996778669e-01  1.2999999996706321e-01  1.3999999996664189e-01  1.4999999996652152e-01  1.5999999996670058e-01  1.6999999996717707e-01  1.7999999996794891e-01  1.8999999996901334e-01  1.9999999997036744e-01  2.0999999997200799e-01  2.1999999997393085e-01  2.2999999997613282e-01  2.3999999997860888e-01  2.4999999998135491e-01  2.5999999998436574e-01  2.6999999998763635e-01  2.7999999999116088e-01  2.8999999999493320e-01  2.9999999999894772e-01  3.1000000000319794e-01  3.2000000000767709e-01  3.3000000001237861e-01  3.4000000001729480e-01  3.5000000002241860e-01  3.6000000002774185e-01  3.7000000003325739e-01  3.8000000003895701e-01  3.9000000004483226e-01  4.0000000005087488e-01  4.1000000005707610e-01  4.2000000006342636e-01  4.3000000006991779e-01  4.4000000007654072e-01  4.5000000008328611e-01  4.6000000009014475e-01  4.7000000009710607e-01  4.8000000010416155e-01  4.9000000011130107e-01  5.0000000011851509e-01  5.1000000012579383e-01  5.2000000013312753e-01  5.3000000014050652e-01  5.4000000014791916e-01  5.5000000015535766e-01  5.6000000016281082e-01  5.7000000017026975e-01  5.8000000017772280e-01  5.9000000018516174e-01  6.0000000019257627e-01  6.1000000019995593e-01  6.2000000020729185e-01  6.3000000021457314e-01  6.4000000022179127e-01  6.5000000022893734e-01  6.6000000023600069e-01  6.7000000024297279e-01  6.8000000024984308e-01  6.9000000025660524e-01  7.0000000026324882e-01  7.1000000026976562e-01  7.2000000027614697e-01  7.3000000028238410e-01  7.4000000028846991e-01  7.5000000029439573e-01  7.6000000030015435e-01  7.7000000030573779e-01  7.8000000031113881e-01  7.9000000031635143e-01  8.0000000032136798e-01  8.1000000032618280e-01  8.2000000033078835e-01  8.3000000033518051e-01  8.4000000033935296e-01  8.5000000034329926e-01  8.6000000034701596e-01  8.7000000035049685e-01  8.8000000035373793e-01  8.9000000035673510e-01  9.0000000035948524e-01  9.1000000036198425e-01  9.2000000036422824e-01  9.3000000036621577e-01  9.4000000036794262e-01  9.5000000036940757e-01  9.6000000037060906e-01  9.7000000037154477e-01  9.8000000037221413e-01  9.9000000037261582e-01  1.0000000003727498e+00  </DataArray> 
</PointData> 
</Piece>
</UnstructuredGrid>
</VTKFile>