<?xml version="1.0"?>
<VTKFile type="UnstructuredGrid"  version="0.1"  >
<UnstructuredGrid>
<Piece  NumberOfPoints="101" NumberOfCells="100">
<Points>
<DataArray  type="Float64"  NumberOfComponents="3"  format="ascii">0 0 0  0.01 0 0  0.02 0 0  0.03 0 0  0.04 0 0  0.05 0 0  0.06 0 0  0.07000000000000001 0 0  0.08 0 0  0.09 0 0  0.1 0 0  0.11 0 0  0.12 0 0  0.13 0 0  0.14 0 0  0.15 0 0  0.16 0 0  0.17 0 0  0.18 0 0  0.19 0 0  0.2 0 0  0.21 0 0  0.22 0 0  0.23 0 0  0.24 0 0  0.25 0 0  0.26 0 0  0.27 0 0  0.28 0 0  0.29 0 0  0.3 0 0  0.31 0 0  0.32 0 0  0.33 0 0  0.34 0 0  0.35 0 0  0.36 0 0  0.37 0 0  0.38 0 0  0.39 0 0  0.4 0 0  0.41 0 0  0.42 0 0  0.43 0 0  0.44 0 0  0.45 0 0  0.46 0 0  0.47 0 0  0.48 0 0  0.49 0 0  0.5 0 0  0.51 0 0  0.52 0 0  0.53 0 0  0.54 0 0  0.55 0 0  0.5600000000000001 0 0  0.57 0 0  0.58 0 0  0.59 0 0  0.6 0 0  0.61 0 0  0.62 0 0  0.63 0 0  0.64 0 0  0.65 0 0  0.66 0 0  0.67 0 0  0.68 0 0  0.6899999999999999 0 0  0.7 0 0  0.71 0 0  0.72 0 0  0.73 0 0  0.74 0 0  0.75 0 0  0.76 0 0  0.77 0 0  0.78 0 0  0.79 0 0  0.8 0 0  0.8100000000000001 0 0  0.82 0 0  0.83 0 0  0.84 0 0  0.85 0 0  0.86 0 0  0.87 0 0  0.88 0 0  0.89 0 0  0.9 0 0  0.91 0 0  0.92 0 0  0.93 0 0  0.9399999999999999 0 0  0.95 0 0  0.96 0 0  0.97 0 0  0.98 0 0  0.99 0 0  1 0 0  </DataArray>
</Points>
<Cells>
<DataArray  type="UInt32"  Name="connectivity"  format="ascii">0 1  1 2  2 3  3 4  4 5  5 6  6 7  7 8  8 9  9 10  10 11  11 12  12 13  13 14  14 15  15 16  16 17  17 18  18 19  19 20  20 21  21 22  22 23  23 24  24 25  25 26  26 27  27 28  28 29  29 30  30 31  31 32  32 33  33 34  34 35  35 36  36 37  37 38  38 39  39 40  40 41  41 42  42 43  43 44  44 45  45 46  46 47  47 48  48 49  49 50  50 51  51 52  52 53  53 54  54 55  55 56  56 57  57 58  58 59  59 60  60 61  61 62  62 63  63 64  64 65  65 66  66 67  67 68  68 69  69 70  70 71  71 72  72 73  73 74  74 75  75 76  76 77  77 78  78 79  79 80  80 81  81 82  82 83  83 84  84 85  85 86  86 87  87 88  88 89  89 90  90 91  91 92  92 93  93 94  94 95  95 96  96 97  97 98  98 99  99 100  </DataArray>
<DataArray  type="UInt32"  Name="offsets"  format="ascii">2 4 6 8 10 12 14 16 18 20 22 24 26 28 30 32 34 36 38 40 42 44 46 48 50 52 54 56 58 60 62 64 66 68 70 72 74 76 78 80 82 84 86 88 90 92 94 96 98 100 102 104 106 108 110 112 114 116 118 120 122 124 126 128 130 132 134 136 138 140 142 144 146 148 150 152 154 156 158 160 162 164 166 168 170 172 174 176 178 180 182 184 186 188 190 192 194 196 198 200 </DataArray>
<DataArray  type="UInt8"  Name="types"  format="ascii">3 3 3 3 3 3 3 3 3 3 3 3 3 3 3 3 3 3 3 3 3 3 3 3 3 3 3 3 3 3 3 3 3 3 3 3 3 3 3 3 3 3 3 3 3 3 3 3 3 3 3 3 3 3 3 3 3 3 3 3 3 3 3 3 3 3 3 3 3 3 3 3 3 3 3 3 3 3 3 3 3 3 3 3 3 3 3 3 3 3 3 3 3 3 3 3 3 3 3 3 </DataArray>
</Cells>
<PointData  Scalars="displacement"> 
<DataArray  type="Float64"  Name="displacement"  format="ascii">-1.6429274661642478e-12  9.9999999562726486e-03  1.9999999933899452e-02  2.9999999931218636e-02  3.9999999948190992e-02  4.9999999984757758e-02  6.0000000040840662e-02  7.0000000116341846e-02  8.0000000211144132e-02  9.0000000325111365e-02  1.0000000045808809e-01  1.1000000060990021e-01  1.2000000078035511e-01  1.3000000096924122e-01  1.4000000117632957e-01  1.5000000140137276e-01  1.6000000164410608e-01  1.7000000190424730e-01  1.8000000218149734e-01  1.9000000247554036e-01  2.0000000278604430e-01  2.1000000311266057e-01  2.2000000345502546e-01  2.3000000381276037e-01  2.4000000418547060e-01  2.5000000457274851e-01  2.6000000497417131e-01  2.7000000538930335e-01  2.8000000581769507e-01  2.9000000625888500e-01  3.0000000671239918e-01  3.1000000717775211e-01  3.2000000765444697e-01  3.3000000814197644e-01  3.4000000863982238e-01  3.5000000914745771e-01  3.6000000966434570e-01  3.7000001018994144e-01  3.8000001072369227e-01  3.9000001126503742e-01  4.0000001181340922e-01  4.1000001236823352e-01  4.2000001292893119e-01  4.3000001349491723e-01  4.4000001406560235e-01  4.5000001464039335e-01  4.6000001521869283e-01  4.7000001579990103e-01  4.8000001638341644e-01  4.9000001696863538e-01  5.0000001755495316e-01  5.1000001814176499e-01  5.2000001872846535e-01  5.3000001931445062e-01  5.4000001989911761e-01  5.5000002048186536e-01  5.6000002106209557e-01  5.7000002163921337e-01  5.8000002221262614e-01  5.9000002278174768e-01  6.0000002334599456e-01  6.1000002390479091e-01  6.2000002445756475e-01  6.3000002500375174e-01  6.4000002554279423e-01  6.5000002607414364e-01  6.6000002659725743e-01  6.7000002711160234e-01  6.8000002761665512e-01  6.9000002811190209e-01  7.0000002859684074e-01  7.1000002907097626e-01  7.2000002953382747e-01  7.3000002998492497e-01  7.4000003042381013e-01  7.5000003085003808e-01  7.6000003126317606e-01  7.7000003166280528e-01  7.8000003204852097e-01  7.9000003241993233e-01  8.0000003277666354e-01  8.1000003311835289e-01  8.2000003344465444e-01  8.3000003375523856e-01  8.4000003404979107e-01  8.5000003432801430e-01  8.6000003458962548e-01  8.7000003483436195e-01  8.8000003506197433e-01  8.9000003527223459e-01  9.0000003546492968e-01  9.1000003563986454e-01  9.2000003579686318e-01  9.3000003593576586e-01  9.4000003605643245e-01  9.5000003615874251e-01  9.6000003624259211e-01  9.7000003630789622e-01  9.8000003635458899e-01  9.9000003638262346e-01  1.0000000363919712e+00  </DataArray> 
</PointData> 
</Piece>
</UnstructuredGrid>
</VTKFile>