<?xml version="1.0"?>
<VTKFile type="UnstructuredGrid"  version="0.1"  >
<UnstructuredGrid>
<Piece  NumberOfPoints="101" NumberOfCells="100">
<Points>
<DataArray  type="Float64"  NumberOfComponents="3"  format="ascii">0 0 0  0.01 0 0  0.02 0 0  0.03 0 0  0.04 0 0  0.05 0 0  0.06 0 0  0.07000000000000001 0 0  0.08 0 0  0.09 0 0  0.1 0 0  0.11 0 0  0.12 0 0  0.13 0 0  0.14 0 0  0.15 0 0  0.16 0 0  0.17 0 0  0.18 0 0  0.19 0 0  0.2 0 0  0.21 0 0  0.22 0 0  0.23 0 0  0.24 0 0  0.25 0 0  0.26 0 0  0.27 0 0  0.28 0 0  0.29 0 0  0.3 0 0  0.31 0 0  0.32 0 0  0.33 0 0  0.34 0 0  0.35 0 0  0.36 0 0  0.37 0 0  0.38 0 0  0.39 0 0  0.4 0 0  0.41 0 0  0.42 0 0  0.43 0 0  0.44 0 0  0.45 0 0  0.46 0 0  0.47 0 0  0.48 0 0  0.49 0 0  0.5 0 0  0.51 0 0  0.52 0 0  0.53 0 0  0.54 0 0  0.55 0 0  0.5600000000000001 0 0  0.57 0 0  0.58 0 0  0.59 0 0  0.6 0 0  0.61 0 0  0.62 0 0  0.63 0 0  0.64 0 0  0.65 0 0  0.66 0 0  0.67 0 0  0.68 0 0  0.6899999999999999 0 0  0.7 0 0  0.71 0 0  0.72 0 0  0.73 0 0  0.74 0 0  0.75 0 0  0.76 0 0  0.77 0 0  0.78 0 0  0.79 0 0  0.8 0 0  0.8100000000000001 0 0  0.82 0 0  0.83 0 0  0.84 0 0  0.85 0 0  0.86 0 0  0.87 0 0  0.88 0 0  0.89 0 0  0.9 0 0  0.91 0 0  0.92 0 0  0.93 0 0  0.9399999999999999 0 0  0.95 0 0  0.96 0 0  0.97 0 0  0.98 0 0  0.99 0 0  1 0 0  </DataArray>
</Points>
<Cells>
<DataArray  type="UInt32"  Name="connectivity"  format="ascii">0 1  1 2  2 3  3 4  4 5  5 6  6 7  7 8  8 9  9 10  10 11  11 12  12 13  13 14  14 15  15 16  16 17  17 18  18 19  19 20  20 21  21 22  22 23  23 24  24 25  25 26  26 27  27 28  28 29  29 30  30 31  31 32  32 33  33 34  34 35  35 36  36 37  37 38  38 39  39 40  40 41  41 42  42 43  43 44  44 45  45 46  46 47  47 48  48 49  49 50  50 51  51 52  52 53  53 54  54 55  55 56  56 57  57 58  58 59  59 60  60 61  61 62  62 63  63 64  64 65  65 66  66 67  67 68  68 69  69 70  70 71  71 72  72 73  73 74  74 75  75 76  76 77  77 78  78 79  79 80  80 81  81 82  82 83  83 84  84 85  85 86  86 87  87 88  88 89  89 90  90 91  91 92  92 93  93 94  94 95  95 96  96 97  97 98  98 99  99 100  </DataArray>
<DataArray  type="UInt32"  Name="offsets"  format="ascii">2 4 6 8 10 12 14 16 18 20 22 24 26 28 30 32 34 36 38 40 42 44 46 48 50 52 54 56 58 60 62 64 66 68 70 72 74 76 78 80 82 84 86 88 90 92 94 96 98 100 102 104 106 108 110 112 114 116 118 120 122 124 126 128 130 132 134 136 138 140 142 144 146 148 150 152 154 156 158 160 162 164 166 168 170 172 174 176 178 180 182 184 186 188 190 192 194 196 198 200 </DataArray>
<DataArray  type="UInt8"  Name="types"  format="ascii">3 3 3 3 3 3 3 3 3 3 3 3 3 3 3 3 3 3 3 3 3 3 3 3 3 3 3 3 3 3 3 3 3 3 3 3 3 3 3 3 3 3 3 3 3 3 3 3 3 3 3 3 3 3 3 3 3 3 3 3 3 3 3 3 3 3 3 3 3 3 3 3 3 3 3 3 3 3 3 3 3 3 3 3 3 3 3 3 3 3 3 3 3 3 3 3 3 3 3 3 </DataArray>
</Cells>
<PointData  Scalars="displacement"> 
<DataArray  type="Float64"  Name="displacement"  format="ascii">-1.4249804678248540e-13  9.9999999859553979e-03  1.9999999973769476e-02  2.9999999963308158e-02  3.9999999954577252e-02  4.9999999947580781e-02  5.9999999942320914e-02  6.9999999938797824e-02  7.9999999937009583e-02  8.9999999936952693e-02  9.9999999938621520e-02  1.0999999994200847e-01  1.1999999994710425e-01  1.2999999995389760e-01  1.3999999996237525e-01  1.4999999997252211e-01  1.5999999998432168e-01  1.6999999999775509e-01  1.8000000001280231e-01  1.9000000002944117e-01  2.0000000004764779e-01  2.1000000006739666e-01  2.2000000008866064e-01  2.3000000011141111e-01  2.4000000013561740e-01  2.5000000016124790e-01  2.6000000018826924e-01  2.7000000021664622e-01  2.8000000024634258e-01  2.9000000027732065e-01  3.0000000030954121e-01  3.1000000034296410e-01  3.2000000037754756e-01  3.3000000041324917e-01  3.4000000045002426e-01  3.5000000048782798e-01  3.6000000052661429e-01  3.7000000056633597e-01  3.8000000060694528e-01  3.9000000064839285e-01  4.0000000069062885e-01  4.1000000073360238e-01  4.2000000077726263e-01  4.3000000082155670e-01  4.4000000086643282e-01  4.5000000091183728e-01  4.6000000095771665e-01  4.7000000100401640e-01  4.8000000105068186e-01  4.9000000109765851e-01  5.0000000114489151e-01  5.1000000119232558e-01  5.2000000123990464e-01  5.3000000128757374e-01  5.4000000133527704e-01  5.5000000138295912e-01  5.6000000143056505e-01  5.7000000147803864e-01  5.8000000152532616e-01  5.9000000157237198e-01  6.0000000161912226e-01  6.1000000166552293e-01  6.2000000171152003e-01  6.3000000175706139e-01  6.4000000180209404e-01  6.5000000184656659e-01  6.6000000189042851e-01  6.7000000193362819e-01  6.8000000197611665e-01  6.9000000201784562e-01  7.0000000205876745e-01  7.1000000209883540e-01  7.2000000213800330e-01  7.3000000217622640e-01  7.4000000221346163e-01  7.5000000224966568e-01  7.6000000228479758e-01  7.7000000231881705e-01  7.8000000235168609e-01  7.9000000238336676e-01  8.0000000241382396e-01  8.1000000244302184e-01  8.2000000247092764e-01  8.3000000249751005e-01  8.4000000252273999e-01  8.5000000254658548e-01  8.6000000256902309e-01  8.7000000259002486e-01  8.8000000260956734e-01  8.9000000262763002e-01  9.0000000264419067e-01  9.1000000265923131e-01  9.2000000267273485e-01  9.3000000268468574e-01  9.4000000269507067e-01  9.5000000270387797e-01  9.6000000271109787e-01  9.7000000271672127e-01  9.8000000272074228e-01  9.9000000272315714e-01  1.0000000027239624e+00  </DataArray> 
</PointData> 
</Piece>
</UnstructuredGrid>
</VTKFile>