<?xml version="1.0"?>
<VTKFile type="UnstructuredGrid"  version="0.1"  >
<UnstructuredGrid>
<Piece  NumberOfPoints="101" NumberOfCells="100">
<Points>
<DataArray  type="Float64"  NumberOfComponents="3"  format="ascii">0 0 0  0.01 0 0  0.02 0 0  0.03 0 0  0.04 0 0  0.05 0 0  0.06 0 0  0.07000000000000001 0 0  0.08 0 0  0.09 0 0  0.1 0 0  0.11 0 0  0.12 0 0  0.13 0 0  0.14 0 0  0.15 0 0  0.16 0 0  0.17 0 0  0.18 0 0  0.19 0 0  0.2 0 0  0.21 0 0  0.22 0 0  0.23 0 0  0.24 0 0  0.25 0 0  0.26 0 0  0.27 0 0  0.28 0 0  0.29 0 0  0.3 0 0  0.31 0 0  0.32 0 0  0.33 0 0  0.34 0 0  0.35 0 0  0.36 0 0  0.37 0 0  0.38 0 0  0.39 0 0  0.4 0 0  0.41 0 0  0.42 0 0  0.43 0 0  0.44 0 0  0.45 0 0  0.46 0 0  0.47 0 0  0.48 0 0  0.49 0 0  0.5 0 0  0.51 0 0  0.52 0 0  0.53 0 0  0.54 0 0  0.55 0 0  0.5600000000000001 0 0  0.57 0 0  0.58 0 0  0.59 0 0  0.6 0 0  0.61 0 0  0.62 0 0  0.63 0 0  0.64 0 0  0.65 0 0  0.66 0 0  0.67 0 0  0.68 0 0  0.6899999999999999 0 0  0.7 0 0  0.71 0 0  0.72 0 0  0.73 0 0  0.74 0 0  0.75 0 0  0.76 0 0  0.77 0 0  0.78 0 0  0.79 0 0  0.8 0 0  0.8100000000000001 0 0  0.82 0 0  0.83 0 0  0.84 0 0  0.85 0 0  0.86 0 0  0.87 0 0  0.88 0 0  0.89 0 0  0.9 0 0  0.91 0 0  0.92 0 0  0.93 0 0  0.9399999999999999 0 0  0.95 0 0  0.96 0 0  0.97 0 0  0.98 0 0  0.99 0 0  1 0 0  </DataArray>
</Points>
<Cells>
<DataArray  type="UInt32"  Name="connectivity"  format="ascii">0 1  1 2  2 3  3 4  4 5  5 6  6 7  7 8  8 9  9 10  10 11  11 12  12 13  13 14  14 15  15 16  16 17  17 18  18 19  19 20  20 21  21 22  22 23  23 24  24 25  25 26  26 27  27 28  28 29  29 30  30 31  31 32  32 33  33 34  34 35  35 36  36 37  37 38  38 39  39 40  40 41  41 42  42 43  43 44  44 45  45 46  46 47  47 48  48 49  49 50  50 51  51 52  52 53  53 54  54 55  55 56  56 57  57 58  58 59  59 60  60 61  61 62  62 63  63 64  64 65  65 66  66 67  67 68  68 69  69 70  70 71  71 72  72 73  73 74  74 75  75 76  76 77  77 78  78 79  79 80  80 81  81 82  82 83  83 84  84 85  85 86  86 87  87 88  88 89  89 90  90 91  91 92  92 93  93 94  94 95  95 96  96 97  97 98  98 99  99 100  </DataArray>
<DataArray  type="UInt32"  Name="offsets"  format="ascii">2 4 6 8 10 12 14 16 18 20 22 24 26 28 30 32 34 36 38 40 42 44 46 48 50 52 54 56 58 60 62 64 66 68 70 72 74 76 78 80 82 84 86 88 90 92 94 96 98 100 102 104 106 108 110 112 114 116 118 120 122 124 126 128 130 132 134 136 138 140 142 144 146 148 150 152 154 156 158 160 162 164 166 168 170 172 174 176 178 180 182 184 186 188 190 192 194 196 198 200 </DataArray>
<DataArray  type="UInt8"  Name="types"  format="ascii">3 3 3 3 3 3 3 3 3 3 3 3 3 3 3 3 3 3 3 3 3 3 3 3 3 3 3 3 3 3 3 3 3 3 3 3 3 3 3 3 3 3 3 3 3 3 3 3 3 3 3 3 3 3 3 3 3 3 3 3 3 3 3 3 3 3 3 3 3 3 3 3 3 3 3 3 3 3 3 3 3 3 3 3 3 3 3 3 3 3 3 3 3 3 3 3 3 3 3 3 </DataArray>
</Cells>
<PointData  Scalars="displacement"> 
<DataArray  type="Float64"  Name="displacement"  format="ascii">8.7257392201886469e-08  1.0015895988426893e-02  2.0030649273669199e-02  3.0044334933812769e-02  4.0056942968108807e-02  5.0068464495609782e-02  6.0078892045458306e-02  7.0088219483743067e-02  8.0096442035780049e-02  9.0103556280870953e-02  1.0010956015248637e-01  1.1011445293505399e-01  1.2011823525972232e-01  1.3012090909847626e-01  1.4012247775678546e-01  1.5012294586474992e-01  1.6012231936677249e-01  1.7012060550976563e-01  1.8011781282991465e-01  1.9011395113801235e-01  2.0010903150338624e-01  2.1010306623644068e-01  2.2009606886983496e-01  2.3008805413832223e-01  2.4007903795727453e-01  2.5006903739992320e-01  2.6005807067333891e-01  2.7004615709318391e-01  2.8003331705726808e-01  2.9001957201793649e-01  3.0000494445332826e-01  3.0998945783753445e-01  3.1997313660969540e-01  3.2995600614207304e-01  3.3993809270713382e-01  3.4991942344368460e-01  3.5990002632209639e-01  3.6987993010866305e-01  3.7985916432912936e-01  3.8983775923143460e-01  3.9981574574771572e-01  4.0979315545561018e-01  4.1977002053890777e-01  4.2974637374758906e-01  4.3972224835730689e-01  4.4969767812834499e-01  4.5967269726411109e-01  4.6964734036920391e-01  4.7962164240710842e-01  4.8959563865755756e-01  4.9956936467362262e-01  5.0954285623856310e-01  5.1951614932250378e-01  5.2948928003896922e-01  5.3946228460133916e-01  5.4943519927926632e-01  5.5940806035510504e-01  5.6938090408040154e-01  5.7935376663249682e-01  5.8932668407128264e-01  5.9929969229616931e-01  6.0927282700330321e-01  6.1924612364308818e-01  6.2921961737805443e-01  6.3919334304112707e-01  6.4916733509432933e-01  6.5914162758797956e-01  6.6911625412041753e-01  6.7909124779830843e-01  6.8906664119757244e-01  6.9904246632496825e-01  7.0901875458039176e-01  7.1899553671992100e-01  7.2897284281964769e-01  7.3895070224033788e-01  7.4892914359296214e-01  7.5890819470512705e-01  7.6888788258845375e-01  7.7886823340692857e-01  7.8884927244627356e-01  7.9883102408435358e-01  8.0881351176267346e-01  8.1879675795897544e-01  8.2878078416098222e-01  8.3876561084130619e-01  8.4875125743355562e-01  8.5873774230966549e-01  8.6872508275846905e-01  8.7871329496554840e-01  8.8870239399436912e-01  8.9869239376873777e-01  9.0868330705657918e-01  9.1867514545507800e-01  9.2866791937717452e-01  9.3866163803945035e-01  9.4865630945140333e-01  9.5865194040612778e-01  9.6864853647241755e-01  9.7864610198828428e-01  9.8864464005591857e-01  9.9864415253807626e-01  </DataArray> 
</PointData> 
</Piece>
</UnstructuredGrid>
</VTKFile>