<?xml version="1.0"?>
<VTKFile type="UnstructuredGrid"  version="0.1"  >
<UnstructuredGrid>
<Piece  NumberOfPoints="101" NumberOfCells="100">
<Points>
<DataArray  type="Float64"  NumberOfComponents="3"  format="ascii">0 0 0  0.01 0 0  0.02 0 0  0.03 0 0  0.04 0 0  0.05 0 0  0.06 0 0  0.07000000000000001 0 0  0.08 0 0  0.09 0 0  0.1 0 0  0.11 0 0  0.12 0 0  0.13 0 0  0.14 0 0  0.15 0 0  0.16 0 0  0.17 0 0  0.18 0 0  0.19 0 0  0.2 0 0  0.21 0 0  0.22 0 0  0.23 0 0  0.24 0 0  0.25 0 0  0.26 0 0  0.27 0 0  0.28 0 0  0.29 0 0  0.3 0 0  0.31 0 0  0.32 0 0  0.33 0 0  0.34 0 0  0.35 0 0  0.36 0 0  0.37 0 0  0.38 0 0  0.39 0 0  0.4 0 0  0.41 0 0  0.42 0 0  0.43 0 0  0.44 0 0  0.45 0 0  0.46 0 0  0.47 0 0  0.48 0 0  0.49 0 0  0.5 0 0  0.51 0 0  0.52 0 0  0.53 0 0  0.54 0 0  0.55 0 0  0.5600000000000001 0 0  0.57 0 0  0.58 0 0  0.59 0 0  0.6 0 0  0.61 0 0  0.62 0 0  0.63 0 0  0.64 0 0  0.65 0 0  0.66 0 0  0.67 0 0  0.68 0 0  0.6899999999999999 0 0  0.7 0 0  0.71 0 0  0.72 0 0  0.73 0 0  0.74 0 0  0.75 0 0  0.76 0 0  0.77 0 0  0.78 0 0  0.79 0 0  0.8 0 0  0.8100000000000001 0 0  0.82 0 0  0.83 0 0  0.84 0 0  0.85 0 0  0.86 0 0  0.87 0 0  0.88 0 0  0.89 0 0  0.9 0 0  0.91 0 0  0.92 0 0  0.93 0 0  0.9399999999999999 0 0  0.95 0 0  0.96 0 0  0.97 0 0  0.98 0 0  0.99 0 0  1 0 0  </DataArray>
</Points>
<Cells>
<DataArray  type="UInt32"  Name="connectivity"  format="ascii">0 1  1 2  2 3  3 4  4 5  5 6  6 7  7 8  8 9  9 10  10 11  11 12  12 13  13 14  14 15  15 16  16 17  17 18  18 19  19 20  20 21  21 22  22 23  23 24  24 25  25 26  26 27  27 28  28 29  29 30  30 31  31 32  32 33  33 34  34 35  35 36  36 37  37 38  38 39  39 40  40 41  41 42  42 43  43 44  44 45  45 46  46 47  47 48  48 49  49 50  50 51  51 52  52 53  53 54  54 55  55 56  56 57  57 58  58 59  59 60  60 61  61 62  62 63  63 64  64 65  65 66  66 67  67 68  68 69  69 70  70 71  71 72  72 73  73 74  74 75  75 76  76 77  77 78  78 79  79 80  80 81  81 82  82 83  83 84  84 85  85 86  86 87  87 88  88 89  89 90  90 91  91 92  92 93  93 94  94 95  95 96  96 97  97 98  98 99  99 100  </DataArray>
<DataArray  type="UInt32"  Name="offsets"  format="ascii">2 4 6 8 10 12 14 16 18 20 22 24 26 28 30 32 34 36 38 40 42 44 46 48 50 52 54 56 58 60 62 64 66 68 70 72 74 76 78 80 82 84 86 88 90 92 94 96 98 100 102 104 106 108 110 112 114 116 118 120 122 124 126 128 130 132 134 136 138 140 142 144 146 148 150 152 154 156 158 160 162 164 166 168 170 172 174 176 178 180 182 184 186 188 190 192 194 196 198 200 </DataArray>
<DataArray  type="UInt8"  Name="types"  format="ascii">3 3 3 3 3 3 3 3 3 3 3 3 3 3 3 3 3 3 3 3 3 3 3 3 3 3 3 3 3 3 3 3 3 3 3 3 3 3 3 3 3 3 3 3 3 3 3 3 3 3 3 3 3 3 3 3 3 3 3 3 3 3 3 3 3 3 3 3 3 3 3 3 3 3 3 3 3 3 3 3 3 3 3 3 3 3 3 3 3 3 3 3 3 3 3 3 3 3 3 3 </DataArray>
</Cells>
<PointData  Scalars="displacement"> 
<DataArray  type="Float64"  Name="displacement"  format="ascii">5.1960587146572211e-08  1.0011418867673689e-02  2.0022156038126678e-02  3.0032254322247119e-02  4.0041706025282876e-02  5.0050504131403779e-02  6.0058642517407383e-02  7.0066115899961923e-02  8.0072919852981886e-02  9.0079050804945687e-02  1.0008450604032407e-01  1.1008928369864597e-01  1.2009338277294218e-01  1.3009680310710398e-01  1.4009954539229061e-01  1.5010161116235685e-01  1.6010300278831890e-01  1.7010372347186392e-01  1.8010377723791651e-01  1.9010316892626997e-01  2.0010190418229706e-01  2.1009998944675229e-01  2.2009743194467962e-01  2.3009423967344145e-01  2.4009042138988357e-01  2.5008598659665621e-01  2.6008094552770167e-01  2.7007530913293870e-01  2.8006908906214978e-01  2.9006229764810459e-01  3.0005494788892967e-01  3.1004705342975442e-01  3.2003862854365056e-01  3.3002968811189309e-01  3.4002024760356142e-01  3.5001032305451307e-01  3.5999993104574524e-01  3.6998908868118163e-01  3.7997781356490112e-01  3.8996612377784134e-01  3.9995403785400463e-01  4.0994157475619114e-01  4.1992875385129197e-01  4.2991559488516845e-01  4.3990211795714795e-01  4.4988834349416773e-01  4.5987429222459320e-01  4.6985998515174621e-01  4.7984544352717179e-01  4.8983068882367042e-01  4.9981574270813595e-01  5.0980062701422169e-01  5.1978536371487272e-01  5.2976997489475175e-01  5.3975448272259297e-01  5.4973890942351467e-01  5.5972327725132298e-01  5.6970760846083568e-01  5.7969192528026370e-01  5.8967624988367495e-01  5.9966060436357660e-01  6.0964501070364596e-01  6.1962949075164009e-01  6.2961406619251548e-01  6.3959875852178893e-01  6.4958358901916935e-01  6.5956857872248909e-01  6.6955374840196824e-01  6.7953911853483429e-01  6.8952470928033638e-01  6.9951054045516969e-01  7.0949663150934472e-01  7.1948300150253286e-01  7.2946966908090582e-01  7.3945665245449799e-01  7.4944396937512503e-01  7.5943163711486794e-01  7.6941967244516274e-01  7.7940809161650948e-01  7.8939691033882786e-01  7.9938614376247463e-01  8.0937580645995821e-01  8.1936591240835333e-01  8.2935647497245080e-01  8.3934750688864934e-01  8.4933902024961661e-01  8.5933102648973136e-01  8.6932353637132542e-01  8.7931655997173874e-01  8.8931010667120214e-01  8.9930418514156796e-01  9.0929880333588498e-01  9.1929396847885470e-01  9.2928968705814841e-01  9.3928596481662752e-01  9.4928280674544374e-01  9.5928021707805622e-01  9.6927819928514847e-01  9.7927675607046716e-01  9.8927588936758348e-01  9.9927560033756213e-01  </DataArray> 
</PointData> 
</Piece>
</UnstructuredGrid>
</VTKFile>