<?xml version="1.0"?>
<VTKFile type="UnstructuredGrid"  version="0.1"  >
<UnstructuredGrid>
<Piece  NumberOfPoints="101" NumberOfCells="100">
<Points>
<DataArray  type="Float64"  NumberOfComponents="3"  format="ascii">0 0 0  0.01 0 0  0.02 0 0  0.03 0 0  0.04 0 0  0.05 0 0  0.06 0 0  0.07000000000000001 0 0  0.08 0 0  0.09 0 0  0.1 0 0  0.11 0 0  0.12 0 0  0.13 0 0  0.14 0 0  0.15 0 0  0.16 0 0  0.17 0 0  0.18 0 0  0.19 0 0  0.2 0 0  0.21 0 0  0.22 0 0  0.23 0 0  0.24 0 0  0.25 0 0  0.26 0 0  0.27 0 0  0.28 0 0  0.29 0 0  0.3 0 0  0.31 0 0  0.32 0 0  0.33 0 0  0.34 0 0  0.35 0 0  0.36 0 0  0.37 0 0  0.38 0 0  0.39 0 0  0.4 0 0  0.41 0 0  0.42 0 0  0.43 0 0  0.44 0 0  0.45 0 0  0.46 0 0  0.47 0 0  0.48 0 0  0.49 0 0  0.5 0 0  0.51 0 0  0.52 0 0  0.53 0 0  0.54 0 0  0.55 0 0  0.5600000000000001 0 0  0.57 0 0  0.58 0 0  0.59 0 0  0.6 0 0  0.61 0 0  0.62 0 0  0.63 0 0  0.64 0 0  0.65 0 0  0.66 0 0  0.67 0 0  0.68 0 0  0.6899999999999999 0 0  0.7 0 0  0.71 0 0  0.72 0 0  0.73 0 0  0.74 0 0  0.75 0 0  0.76 0 0  0.77 0 0  0.78 0 0  0.79 0 0  0.8 0 0  0.8100000000000001 0 0  0.82 0 0  0.83 0 0  0.84 0 0  0.85 0 0  0.86 0 0  0.87 0 0  0.88 0 0  0.89 0 0  0.9 0 0  0.91 0 0  0.92 0 0  0.93 0 0  0.9399999999999999 0 0  0.95 0 0  0.96 0 0  0.97 0 0  0.98 0 0  0.99 0 0  1 0 0  </DataArray>
</Points>
<Cells>
<DataArray  type="UInt32"  Name="connectivity"  format="ascii">0 1  1 2  2 3  3 4  4 5  5 6  6 7  7 8  8 9  9 10  10 11  11 12  12 13  13 14  14 15  15 16  16 17  17 18  18 19  19 20  20 21  21 22  22 23  23 24  24 25  25 26  26 27  27 28  28 29  29 30  30 31  31 32  32 33  33 34  34 35  35 36  36 37  37 38  38 39  39 40  40 41  41 42  42 43  43 44  44 45  45 46  46 47  47 48  48 49  49 50  50 51  51 52  52 53  53 54  54 55  55 56  56 57  57 58  58 59  59 60  60 61  61 62  62 63  63 64  64 65  65 66  66 67  67 68  68 69  69 70  70 71  71 72  72 73  73 74  74 75  75 76  76 77  77 78  78 79  79 80  80 81  81 82  82 83  83 84  84 85  85 86  86 87  87 88  88 89  89 90  90 91  91 92  92 93  93 94  94 95  95 96  96 97  97 98  98 99  99 100  </DataArray>
<DataArray  type="UInt32"  Name="offsets"  format="ascii">2 4 6 8 10 12 14 16 18 20 22 24 26 28 30 32 34 36 38 40 42 44 46 48 50 52 54 56 58 60 62 64 66 68 70 72 74 76 78 80 82 84 86 88 90 92 94 96 98 100 102 104 106 108 110 112 114 116 118 120 122 124 126 128 130 132 134 136 138 140 142 144 146 148 150 152 154 156 158 160 162 164 166 168 170 172 174 176 178 180 182 184 186 188 190 192 194 196 198 200 </DataArray>
<DataArray  type="UInt8"  Name="types"  format="ascii">3 3 3 3 3 3 3 3 3 3 3 3 3 3 3 3 3 3 3 3 3 3 3 3 3 3 3 3 3 3 3 3 3 3 3 3 3 3 3 3 3 3 3 3 3 3 3 3 3 3 3 3 3 3 3 3 3 3 3 3 3 3 3 3 3 3 3 3 3 3 3 3 3 3 3 3 3 3 3 3 3 3 3 3 3 3 3 3 3 3 3 3 3 3 3 3 3 3 3 3 </DataArray>
</Cells>
<PointData  Scalars="displacement"> 
<DataArray  type="Float64"  Name="displacement"  format="ascii">-1.4747501748781833e-05  -9.9262669154956389e-03  -1.9660913635383057e-02  -2.9218953000089819e-02  -3.8600826915579971e-02  -4.7807153368007921e-02  -5.6838725743093239e-02  -6.5696511953265771e-02  -7.4381653374238813e-02  -8.2895463593022259e-02  -9.1239426969724480e-02  -9.9415197015822118e-02  -1.0742459459189095e-01  -1.1526960592808801e-01  -1.2295238047096069e-01  -1.3047522856042001e-01  -1.3784061894096272e-01  -1.4505117611144838e-01  -1.5210967751795093e-01  -1.5901905059437557e-01  -1.6578236965570442e-01  -1.7240285264886812e-01  -1.7888385776635879e-01  -1.8522887992779744e-01  -1.9144154713474046e-01  -1.9752561670406540e-01  -2.0348497138530169e-01  -2.0932361536729427e-01  -2.1504567017956924e-01  -2.2065537049375405e-01  -2.2615705983035930e-01  -2.3155518617617046e-01  -2.3685429751742781e-01  -2.4205903729388939e-01  -2.4717413977877234e-01  -2.5220442538946736e-01  -2.5715479593380364e-01  -2.6203022979652707e-01  -2.6683577707052919e-01  -2.7157655463723629e-01  -2.7625774120044738e-01  -2.8088457227777563e-01  -2.8546233515373409e-01  -2.8999636379837640e-01  -2.9449203375530053e-01  -2.9895475700270679e-01  -3.0338997679111268e-01  -3.0780316246122685e-01  -3.1219980424541965e-01  -3.1658540805614643e-01  -3.2096549026463922e-01  -3.2534557247313167e-01  -3.2973117628385729e-01  -3.3412781806804837e-01  -3.3854100373816015e-01  -3.4297622352656271e-01  -3.4743894677396514e-01  -3.5193461673088533e-01  -3.5646864537552342e-01  -3.6104640825147721e-01  -3.6567323932880014e-01  -3.7035442589200496e-01  -3.7509520345870512e-01  -3.7990075073269897e-01  -3.8477618459541374e-01  -3.8972655513974069e-01  -3.9475684075042550e-01  -3.9987194323529768e-01  -4.0507668301174726e-01  -4.1037579435299265e-01  -4.1577392069879071e-01  -4.2127561003538239e-01  -4.2688531034955274e-01  -4.3260736516181225e-01  -4.3844600914378817e-01  -4.4440536382500695e-01  -4.5048943339431319e-01  -4.5670210060123673e-01  -4.6304712276265425e-01  -4.6952812788012277e-01  -4.7614861087326310e-01  -4.8291192993456739e-01  -4.8982130301096616e-01  -4.9687980441744234e-01  -5.0409036158790010e-01  -5.1145575196841309e-01  -5.1897860005784124e-01  -5.2666137460068119e-01  -5.3450638593684341e-01  -5.4251578351287588e-01  -5.5069155355893595e-01  -5.5903551693559872e-01  -5.6754932715434081e-01  -5.7623446857527083e-01  -5.8509225478539950e-01  -5.9412382716043954e-01  -6.0333015361282016e-01  -6.1271202752826115e-01  -6.2227006689291675e-01  -6.3200471361275057e-01  -6.4191623302644130e-01  </DataArray> 
</PointData> 
</Piece>
</UnstructuredGrid>
</VTKFile>