<?xml version="1.0"?>
<VTKFile type="UnstructuredGrid"  version="0.1"  >
<UnstructuredGrid>
<Piece  NumberOfPoints="101" NumberOfCells="100">
<Points>
<DataArray  type="Float64"  NumberOfComponents="3"  format="ascii">0 0 0  0.01 0 0  0.02 0 0  0.03 0 0  0.04 0 0  0.05 0 0  0.06 0 0  0.07000000000000001 0 0  0.08 0 0  0.09 0 0  0.1 0 0  0.11 0 0  0.12 0 0  0.13 0 0  0.14 0 0  0.15 0 0  0.16 0 0  0.17 0 0  0.18 0 0  0.19 0 0  0.2 0 0  0.21 0 0  0.22 0 0  0.23 0 0  0.24 0 0  0.25 0 0  0.26 0 0  0.27 0 0  0.28 0 0  0.29 0 0  0.3 0 0  0.31 0 0  0.32 0 0  0.33 0 0  0.34 0 0  0.35 0 0  0.36 0 0  0.37 0 0  0.38 0 0  0.39 0 0  0.4 0 0  0.41 0 0  0.42 0 0  0.43 0 0  0.44 0 0  0.45 0 0  0.46 0 0  0.47 0 0  0.48 0 0  0.49 0 0  0.5 0 0  0.51 0 0  0.52 0 0  0.53 0 0  0.54 0 0  0.55 0 0  0.5600000000000001 0 0  0.57 0 0  0.58 0 0  0.59 0 0  0.6 0 0  0.61 0 0  0.62 0 0  0.63 0 0  0.64 0 0  0.65 0 0  0.66 0 0  0.67 0 0  0.68 0 0  0.6899999999999999 0 0  0.7 0 0  0.71 0 0  0.72 0 0  0.73 0 0  0.74 0 0  0.75 0 0  0.76 0 0  0.77 0 0  0.78 0 0  0.79 0 0  0.8 0 0  0.8100000000000001 0 0  0.82 0 0  0.83 0 0  0.84 0 0  0.85 0 0  0.86 0 0  0.87 0 0  0.88 0 0  0.89 0 0  0.9 0 0  0.91 0 0  0.92 0 0  0.93 0 0  0.9399999999999999 0 0  0.95 0 0  0.96 0 0  0.97 0 0  0.98 0 0  0.99 0 0  1 0 0  </DataArray>
</Points>
<Cells>
<DataArray  type="UInt32"  Name="connectivity"  format="ascii">0 1  1 2  2 3  3 4  4 5  5 6  6 7  7 8  8 9  9 10  10 11  11 12  12 13  13 14  14 15  15 16  16 17  17 18  18 19  19 20  20 21  21 22  22 23  23 24  24 25  25 26  26 27  27 28  28 29  29 30  30 31  31 32  32 33  33 34  34 35  35 36  36 37  37 38  38 39  39 40  40 41  41 42  42 43  43 44  44 45  45 46  46 47  47 48  48 49  49 50  50 51  51 52  52 53  53 54  54 55  55 56  56 57  57 58  58 59  59 60  60 61  61 62  62 63  63 64  64 65  65 66  66 67  67 68  68 69  69 70  70 71  71 72  72 73  73 74  74 75  75 76  76 77  77 78  78 79  79 80  80 81  81 82  82 83  83 84  84 85  85 86  86 87  87 88  88 89  89 90  90 91  91 92  92 93  93 94  94 95  95 96  96 97  97 98  98 99  99 100  </DataArray>
<DataArray  type="UInt32"  Name="offsets"  format="ascii">2 4 6 8 10 12 14 16 18 20 22 24 26 28 30 32 34 36 38 40 42 44 46 48 50 52 54 56 58 60 62 64 66 68 70 72 74 76 78 80 82 84 86 88 90 92 94 96 98 100 102 104 106 108 110 112 114 116 118 120 122 124 126 128 130 132 134 136 138 140 142 144 146 148 150 152 154 156 158 160 162 164 166 168 170 172 174 176 178 180 182 184 186 188 190 192 194 196 198 200 </DataArray>
<DataArray  type="UInt8"  Name="types"  format="ascii">3 3 3 3 3 3 3 3 3 3 3 3 3 3 3 3 3 3 3 3 3 3 3 3 3 3 3 3 3 3 3 3 3 3 3 3 3 3 3 3 3 3 3 3 3 3 3 3 3 3 3 3 3 3 3 3 3 3 3 3 3 3 3 3 3 3 3 3 3 3 3 3 3 3 3 3 3 3 3 3 3 3 3 3 3 3 3 3 3 3 3 3 3 3 3 3 3 3 3 3 </DataArray>
</Cells>
<PointData  Scalars="displacement"> 
<DataArray  type="Float64"  Name="displacement"  format="ascii">-1.2255170878668446e-06  -9.9938727775447083e-03  -1.9971821814875931e-02  -2.9935094390719636e-02  -3.9883726750609409e-02  -4.9817769588204504e-02  -5.9737287995261283e-02  -6.9642361397395394e-02  -7.9533083475698513e-02  -8.9409562074286159e-02  -9.9271919093868718e-02  -1.0912029037145030e-01  -1.1895482554627344e-01  -1.2877568791214425e-01  -1.3858305425627979e-01  -1.4837711468484163e-01  -1.5815807243532368e-01  -1.6792614367598091e-01  -1.7768155729249788e-01  -1.8742455466210617e-01  -1.9715538941537325e-01  -2.0687432718590143e-01  -2.1658164534817859e-01  -2.2627763274384216e-01  -2.3596258939662901e-01  -2.4563682621628768e-01  -2.5530066469174700e-01  -2.6495443657384676e-01  -2.7459848354793909e-01  -2.8423315689668510e-01  -2.9385881715338402e-01  -3.0347583374616799e-01  -3.1308458463342204e-01  -3.2268545593078379e-01  -3.3227884153009618e-01  -3.4186514271068075e-01  -3.5144476774332678e-01  -3.6101813148737416e-01  -3.7058565498129931e-01  -3.8014776502720021e-01  -3.8970489376959450e-01  -3.9925747826894536e-01  -4.0880596007033509e-01  -4.1835078476771309e-01  -4.2789240156414943e-01  -4.3743126282852474e-01  -4.4696782364909660e-01  -4.5650254138438356e-01  -4.6603587521180750e-01  -4.7556828567453890e-01  -4.8510023422699866e-01  -4.9463218277945709e-01  -5.0416459324218343e-01  -5.1369792706959982e-01  -5.2323264480487630e-01  -5.3276920562543451e-01  -5.4230806688979272e-01  -5.5184968368621012e-01  -5.6139450838356730e-01  -5.7094299018493311e-01  -5.8049557468425705e-01  -5.9005270342662219e-01  -5.9961481347248957e-01  -6.0918233696637858e-01  -6.1875570071038666e-01  -6.2833532574299078e-01  -6.3792162692353060e-01  -6.4751501252279453e-01  -6.5711588382010544e-01  -6.6672463470730536e-01  -6.7634165130003399e-01  -6.8596731155667412e-01  -6.9560198490535841e-01  -7.0524603187938573e-01  -7.1489980376141715e-01  -7.2456364223680547e-01  -7.3423787905638971e-01  -7.4392283570909945e-01  -7.5361882310468198e-01  -7.6332614126687559e-01  -7.7304507903731712e-01  -7.8277591379049394e-01  -7.9251891116000917e-01  -8.0227432477643090e-01  -8.1204239601698947e-01  -8.2182335376736915e-01  -8.3161741419582580e-01  -8.4142478053985192e-01  -8.5124564290561078e-01  -8.6108017808031811e-01  -8.7092854935778063e-01  -8.8079090637724111e-01  -8.9066738497570275e-01  -9.0055810705387762e-01  -9.1046318045588071e-01  -9.2038269886280477e-01  -9.3031674170026335e-01  -9.4026537406001343e-01  -9.5022864663571427e-01  -9.6020659567289879e-01  -9.7019924293320559e-01  </DataArray> 
</PointData> 
</Piece>
</UnstructuredGrid>
</VTKFile>