<?xml version="1.0"?>
<VTKFile type="UnstructuredGrid"  version="0.1"  >
<UnstructuredGrid>
<Piece  NumberOfPoints="101" NumberOfCells="100">
<Points>
<DataArray  type="Float64"  NumberOfComponents="3"  format="ascii">0 0 0  0.01 0 0  0.02 0 0  0.03 0 0  0.04 0 0  0.05 0 0  0.06 0 0  0.07000000000000001 0 0  0.08 0 0  0.09 0 0  0.1 0 0  0.11 0 0  0.12 0 0  0.13 0 0  0.14 0 0  0.15 0 0  0.16 0 0  0.17 0 0  0.18 0 0  0.19 0 0  0.2 0 0  0.21 0 0  0.22 0 0  0.23 0 0  0.24 0 0  0.25 0 0  0.26 0 0  0.27 0 0  0.28 0 0  0.29 0 0  0.3 0 0  0.31 0 0  0.32 0 0  0.33 0 0  0.34 0 0  0.35 0 0  0.36 0 0  0.37 0 0  0.38 0 0  0.39 0 0  0.4 0 0  0.41 0 0  0.42 0 0  0.43 0 0  0.44 0 0  0.45 0 0  0.46 0 0  0.47 0 0  0.48 0 0  0.49 0 0  0.5 0 0  0.51 0 0  0.52 0 0  0.53 0 0  0.54 0 0  0.55 0 0  0.5600000000000001 0 0  0.57 0 0  0.58 0 0  0.59 0 0  0.6 0 0  0.61 0 0  0.62 0 0  0.63 0 0  0.64 0 0  0.65 0 0  0.66 0 0  0.67 0 0  0.68 0 0  0.6899999999999999 0 0  0.7 0 0  0.71 0 0  0.72 0 0  0.73 0 0  0.74 0 0  0.75 0 0  0.76 0 0  0.77 0 0  0.78 0 0  0.79 0 0  0.8 0 0  0.8100000000000001 0 0  0.82 0 0  0.83 0 0  0.84 0 0  0.85 0 0  0.86 0 0  0.87 0 0  0.88 0 0  0.89 0 0  0.9 0 0  0.91 0 0  0.92 0 0  0.93 0 0  0.9399999999999999 0 0  0.95 0 0  0.96 0 0  0.97 0 0  0.98 0 0  0.99 0 0  1 0 0  </DataArray>
</Points>
<Cells>
<DataArray  type="UInt32"  Name="connectivity"  format="ascii">0 1  1 2  2 3  3 4  4 5  5 6  6 7  7 8  8 9  9 10  10 11  11 12  12 13  13 14  14 15  15 16  16 17  17 18  18 19  19 20  20 21  21 22  22 23  23 24  24 25  25 26  26 27  27 28  28 29  29 30  30 31  31 32  32 33  33 34  34 35  35 36  36 37  37 38  38 39  39 40  40 41  41 42  42 43  43 44  44 45  45 46  46 47  47 48  48 49  49 50  50 51  51 52  52 53  53 54  54 55  55 56  56 57  57 58  58 59  59 60  60 61  61 62  62 63  63 64  64 65  65 66  66 67  67 68  68 69  69 70  70 71  71 72  72 73  73 74  74 75  75 76  76 77  77 78  78 79  79 80  80 81  81 82  82 83  83 84  84 85  85 86  86 87  87 88  88 89  89 90  90 91  91 92  92 93  93 94  94 95  95 96  96 97  97 98  98 99  99 100  </DataArray>
<DataArray  type="UInt32"  Name="offsets"  format="ascii">2 4 6 8 10 12 14 16 18 20 22 24 26 28 30 32 34 36 38 40 42 44 46 48 50 52 54 56 58 60 62 64 66 68 70 72 74 76 78 80 82 84 86 88 90 92 94 96 98 100 102 104 106 108 110 112 114 116 118 120 122 124 126 128 130 132 134 136 138 140 142 144 146 148 150 152 154 156 158 160 162 164 166 168 170 172 174 176 178 180 182 184 186 188 190 192 194 196 198 200 </DataArray>
<DataArray  type="UInt8"  Name="types"  format="ascii">3 3 3 3 3 3 3 3 3 3 3 3 3 3 3 3 3 3 3 3 3 3 3 3 3 3 3 3 3 3 3 3 3 3 3 3 3 3 3 3 3 3 3 3 3 3 3 3 3 3 3 3 3 3 3 3 3 3 3 3 3 3 3 3 3 3 3 3 3 3 3 3 3 3 3 3 3 3 3 3 3 3 3 3 3 3 3 3 3 3 3 3 3 3 3 3 3 3 3 3 </DataArray>
</Cells>
<PointData  Scalars="displacement"> 
<DataArray  type="Float64"  Name="displacement"  format="ascii">3.3706777601963219e+53  9.2085883759095676e+53  5.6607368479442090e+53  7.1429052804291907e+53  6.6033315524065853e+53  6.7860750345079390e+53  6.7268822932041126e+53  6.7454833179114509e+53  6.7397648737527173e+53  6.7414938940102356e+53  6.7409778783188750e+53  6.7411302728539136e+53  6.7410856529600244e+53  6.7410986232989013e+53  6.7410948760674127e+53  6.7410959529775264e+53  6.7410956449013560e+53  6.7410957326804431e+53  6.7410957077585760e+53  6.7410957148119097e+53  6.7410957128213540e+53  6.7410957133816876e+53  6.7410957132243130e+53  6.7410957132684085e+53  6.7410957132560579e+53  6.7410957132594914e+53  6.7410957132585326e+53  6.7410957132587853e+53  6.7410957132587087e+53  6.7410957132587223e+53  6.7410957132586951e+53  6.7410957132586900e+53  6.7410957132586815e+53  6.7410957132586900e+53  6.7410957132586849e+53  6.7410957132586892e+53  6.7410957132586875e+53  6.7410957132586875e+53  6.7410957132586977e+53  6.7410957132586926e+53  6.7410957132586866e+53  6.7410957132586960e+53  6.7410957132586832e+53  6.7410957132586619e+53  6.7410957132586764e+53  6.7410957132586662e+53  6.7410957132586543e+53  6.7410957132586594e+53  6.7410957132586475e+53  6.7410957132586390e+53  6.7410957132586483e+53  6.7410957132586483e+53  6.7410957132586330e+53  6.7410957132586364e+53  6.7410957132586407e+53  6.7410957132586177e+53  6.7410957132586186e+53  6.7410957132586169e+53  6.7410957132585990e+53  6.7410957132585888e+53  6.7410957132585777e+53  6.7410957132585981e+53  6.7410957132585939e+53  6.7410957132586024e+53  6.7410957132586032e+53  6.7410957132585888e+53  6.7410957132585981e+53  6.7410957132586049e+53  6.7410957132586092e+53  6.7410957132586152e+53  6.7410957132586203e+53  6.7410957132586390e+53  6.7410957132586262e+53  6.7410957132586288e+53  6.7410957132586475e+53  6.7410957132586203e+53  6.7410957132586245e+53  6.7410957132586364e+53  6.7410957132586194e+53  6.7410957132586330e+53  6.7410957132586049e+53  6.7410957132586211e+53  6.7410957132586211e+53  6.7410957132586058e+53  6.7410957132586118e+53  6.7410957132586084e+53  6.7410957132586126e+53  6.7410957132585862e+53  6.7410957132585862e+53  6.7410957132585862e+53  6.7410957132585913e+53  6.7410957132585811e+53  6.7410957132585777e+53  6.7410957132585769e+53  6.7410957132585573e+53  6.7410957132585514e+53  6.7410957132585480e+53  6.7410957132585505e+53  6.7410957132585445e+53  6.7410957132585445e+53  6.7410957132585488e+53  </DataArray> 
</PointData> 
</Piece>
</UnstructuredGrid>
</VTKFile>