<?xml version="1.0"?>
<VTKFile type="UnstructuredGrid"  version="0.1"  >
<UnstructuredGrid>
<Piece  NumberOfPoints="101" NumberOfCells="100">
<Points>
<DataArray  type="Float64"  NumberOfComponents="3"  format="ascii">0 0 0  0.01 0 0  0.02 0 0  0.03 0 0  0.04 0 0  0.05 0 0  0.06 0 0  0.07000000000000001 0 0  0.08 0 0  0.09 0 0  0.1 0 0  0.11 0 0  0.12 0 0  0.13 0 0  0.14 0 0  0.15 0 0  0.16 0 0  0.17 0 0  0.18 0 0  0.19 0 0  0.2 0 0  0.21 0 0  0.22 0 0  0.23 0 0  0.24 0 0  0.25 0 0  0.26 0 0  0.27 0 0  0.28 0 0  0.29 0 0  0.3 0 0  0.31 0 0  0.32 0 0  0.33 0 0  0.34 0 0  0.35 0 0  0.36 0 0  0.37 0 0  0.38 0 0  0.39 0 0  0.4 0 0  0.41 0 0  0.42 0 0  0.43 0 0  0.44 0 0  0.45 0 0  0.46 0 0  0.47 0 0  0.48 0 0  0.49 0 0  0.5 0 0  0.51 0 0  0.52 0 0  0.53 0 0  0.54 0 0  0.55 0 0  0.5600000000000001 0 0  0.57 0 0  0.58 0 0  0.59 0 0  0.6 0 0  0.61 0 0  0.62 0 0  0.63 0 0  0.64 0 0  0.65 0 0  0.66 0 0  0.67 0 0  0.68 0 0  0.6899999999999999 0 0  0.7 0 0  0.71 0 0  0.72 0 0  0.73 0 0  0.74 0 0  0.75 0 0  0.76 0 0  0.77 0 0  0.78 0 0  0.79 0 0  0.8 0 0  0.8100000000000001 0 0  0.82 0 0  0.83 0 0  0.84 0 0  0.85 0 0  0.86 0 0  0.87 0 0  0.88 0 0  0.89 0 0  0.9 0 0  0.91 0 0  0.92 0 0  0.93 0 0  0.9399999999999999 0 0  0.95 0 0  0.96 0 0  0.97 0 0  0.98 0 0  0.99 0 0  1 0 0  </DataArray>
</Points>
<Cells>
<DataArray  type="UInt32"  Name="connectivity"  format="ascii">0 1  1 2  2 3  3 4  4 5  5 6  6 7  7 8  8 9  9 10  10 11  11 12  12 13  13 14  14 15  15 16  16 17  17 18  18 19  19 20  20 21  21 22  22 23  23 24  24 25  25 26  26 27  27 28  28 29  29 30  30 31  31 32  32 33  33 34  34 35  35 36  36 37  37 38  38 39  39 40  40 41  41 42  42 43  43 44  44 45  45 46  46 47  47 48  48 49  49 50  50 51  51 52  52 53  53 54  54 55  55 56  56 57  57 58  58 59  59 60  60 61  61 62  62 63  63 64  64 65  65 66  66 67  67 68  68 69  69 70  70 71  71 72  72 73  73 74  74 75  75 76  76 77  77 78  78 79  79 80  80 81  81 82  82 83  83 84  84 85  85 86  86 87  87 88  88 89  89 90  90 91  91 92  92 93  93 94  94 95  95 96  96 97  97 98  98 99  99 100  </DataArray>
<DataArray  type="UInt32"  Name="offsets"  format="ascii">2 4 6 8 10 12 14 16 18 20 22 24 26 28 30 32 34 36 38 40 42 44 46 48 50 52 54 56 58 60 62 64 66 68 70 72 74 76 78 80 82 84 86 88 90 92 94 96 98 100 102 104 106 108 110 112 114 116 118 120 122 124 126 128 130 132 134 136 138 140 142 144 146 148 150 152 154 156 158 160 162 164 166 168 170 172 174 176 178 180 182 184 186 188 190 192 194 196 198 200 </DataArray>
<DataArray  type="UInt8"  Name="types"  format="ascii">3 3 3 3 3 3 3 3 3 3 3 3 3 3 3 3 3 3 3 3 3 3 3 3 3 3 3 3 3 3 3 3 3 3 3 3 3 3 3 3 3 3 3 3 3 3 3 3 3 3 3 3 3 3 3 3 3 3 3 3 3 3 3 3 3 3 3 3 3 3 3 3 3 3 3 3 3 3 3 3 3 3 3 3 3 3 3 3 3 3 3 3 3 3 3 3 3 3 3 3 </DataArray>
</Cells>
<PointData  Scalars="displacement"> 
<DataArray  type="Float64"  Name="displacement"  format="ascii">-1.1666474267406999e-06  -9.9941671084218461e-03  -1.9973175398800263e-02  -2.9938212234845153e-02  -3.9889312120978335e-02  -4.9826523315708561e-02  -5.9749907784006170e-02  -6.9659541136151207e-02  -7.9555512553115118e-02  -8.9437924698550011e-02  -9.9306893617471886e-02  -1.0916254862173835e-01  -1.1900503216243324e-01  -1.2883449968928506e-01  -1.3865111949725592e-01  -1.4845507256045587e-01  -1.5824655235354265e-01  -1.6802576466078545e-01  -1.7779292737298133e-01  -1.8754827027242285e-01  -1.9729203480613025e-01  -2.0702447384757305e-01  -2.1674585144711508e-01  -2.2645644257142677e-01  -2.3615653283212792e-01  -2.4584641820392297e-01  -2.5552640473250898e-01  -2.6519680823254721e-01  -2.7485795397599005e-01  -2.8451017637107906e-01  -2.9415381863232209e-01  -3.0378923244178452e-01  -3.1341677760201941e-01  -3.2303682168098596e-01  -3.3264973964930622e-01  -3.4225591351021240e-01  -3.5185573192255681e-01  -3.6144958981725206e-01  -3.7103788800752202e-01  -3.8062103279334747e-01  -3.9019943556049747e-01  -3.9977351237454067e-01  -4.0934368357024009e-01  -4.1891037333673181e-01  -4.2847400929890173e-01  -4.3803502209537243e-01  -4.4759384495351451e-01  -4.5715091326190244e-01  -4.6670666414064116e-01  -4.7626153600997734e-01  -4.8581596815763622e-01  -4.9537040030529333e-01  -5.0492527217462546e-01  -5.1448102305335563e-01  -5.2403809136173340e-01  -5.3359691421986144e-01  -5.4315792701631549e-01  -5.5272156297846664e-01  -5.6228825274493688e-01  -5.7185842394061237e-01  -5.8143250075462882e-01  -5.9101090352174868e-01  -6.0059404830754093e-01  -6.1018234649777436e-01  -6.1977620439242975e-01  -6.2937602280473215e-01  -6.3898219666559330e-01  -6.4859511463386521e-01  -6.5821515871278014e-01  -6.6784270387296152e-01  -6.7747811768236699e-01  -6.8712175994355107e-01  -6.9677398233857768e-01  -7.0643512808195597e-01  -7.1610553158192558e-01  -7.2578551811043934e-01  -7.3547540348215945e-01  -7.4517549374278313e-01  -7.5488608486701314e-01  -7.6460746246647127e-01  -7.7433990150782717e-01  -7.8408366604144353e-01  -7.9383900894079140e-01  -8.0360617165289139e-01  -8.1338538396003457e-01  -8.2317686375301879e-01  -8.3298081681611258e-01  -8.4279743662397422e-01  -8.5262690415071241e-01  -8.6246938769129100e-01  -8.7232504269543754e-01  -8.8219401161423661e-01  -8.9207642375954532e-01  -9.0197239517637950e-01  -9.1188202852839317e-01  -9.2180541299655772e-01  -9.3174262419115073e-01  -9.4169372407714325e-01  -9.5165876091304513e-01  -9.6163776920327559e-01  -9.7163076966411988e-01  </DataArray> 
</PointData> 
</Piece>
</UnstructuredGrid>
</VTKFile>