<?xml version="1.0"?>
<VTKFile type="UnstructuredGrid"  version="0.1"  >
<UnstructuredGrid>
<Piece  NumberOfPoints="101" NumberOfCells="100">
<Points>
<DataArray  type="Float64"  NumberOfComponents="3"  format="ascii">0 0 0  0.01 0 0  0.02 0 0  0.03 0 0  0.04 0 0  0.05 0 0  0.06 0 0  0.07000000000000001 0 0  0.08 0 0  0.09 0 0  0.1 0 0  0.11 0 0  0.12 0 0  0.13 0 0  0.14 0 0  0.15 0 0  0.16 0 0  0.17 0 0  0.18 0 0  0.19 0 0  0.2 0 0  0.21 0 0  0.22 0 0  0.23 0 0  0.24 0 0  0.25 0 0  0.26 0 0  0.27 0 0  0.28 0 0  0.29 0 0  0.3 0 0  0.31 0 0  0.32 0 0  0.33 0 0  0.34 0 0  0.35 0 0  0.36 0 0  0.37 0 0  0.38 0 0  0.39 0 0  0.4 0 0  0.41 0 0  0.42 0 0  0.43 0 0  0.44 0 0  0.45 0 0  0.46 0 0  0.47 0 0  0.48 0 0  0.49 0 0  0.5 0 0  0.51 0 0  0.52 0 0  0.53 0 0  0.54 0 0  0.55 0 0  0.5600000000000001 0 0  0.57 0 0  0.58 0 0  0.59 0 0  0.6 0 0  0.61 0 0  0.62 0 0  0.63 0 0  0.64 0 0  0.65 0 0  0.66 0 0  0.67 0 0  0.68 0 0  0.6899999999999999 0 0  0.7 0 0  0.71 0 0  0.72 0 0  0.73 0 0  0.74 0 0  0.75 0 0  0.76 0 0  0.77 0 0  0.78 0 0  0.79 0 0  0.8 0 0  0.8100000000000001 0 0  0.82 0 0  0.83 0 0  0.84 0 0  0.85 0 0  0.86 0 0  0.87 0 0  0.88 0 0  0.89 0 0  0.9 0 0  0.91 0 0  0.92 0 0  0.93 0 0  0.9399999999999999 0 0  0.95 0 0  0.96 0 0  0.97 0 0  0.98 0 0  0.99 0 0  1 0 0  </DataArray>
</Points>
<Cells>
<DataArray  type="UInt32"  Name="connectivity"  format="ascii">0 1  1 2  2 3  3 4  4 5  5 6  6 7  7 8  8 9  9 10  10 11  11 12  12 13  13 14  14 15  15 16  16 17  17 18  18 19  19 20  20 21  21 22  22 23  23 24  24 25  25 26  26 27  27 28  28 29  29 30  30 31  31 32  32 33  33 34  34 35  35 36  36 37  37 38  38 39  39 40  40 41  41 42  42 43  43 44  44 45  45 46  46 47  47 48  48 49  49 50  50 51  51 52  52 53  53 54  54 55  55 56  56 57  57 58  58 59  59 60  60 61  61 62  62 63  63 64  64 65  65 66  66 67  67 68  68 69  69 70  70 71  71 72  72 73  73 74  74 75  75 76  76 77  77 78  78 79  79 80  80 81  81 82  82 83  83 84  84 85  85 86  86 87  87 88  88 89  89 90  90 91  91 92  92 93  93 94  94 95  95 96  96 97  97 98  98 99  99 100  </DataArray>
<DataArray  type="UInt32"  Name="offsets"  format="ascii">2 4 6 8 10 12 14 16 18 20 22 24 26 28 30 32 34 36 38 40 42 44 46 48 50 52 54 56 58 60 62 64 66 68 70 72 74 76 78 80 82 84 86 88 90 92 94 96 98 100 102 104 106 108 110 112 114 116 118 120 122 124 126 128 130 132 134 136 138 140 142 144 146 148 150 152 154 156 158 160 162 164 166 168 170 172 174 176 178 180 182 184 186 188 190 192 194 196 198 200 </DataArray>
<DataArray  type="UInt8"  Name="types"  format="ascii">3 3 3 3 3 3 3 3 3 3 3 3 3 3 3 3 3 3 3 3 3 3 3 3 3 3 3 3 3 3 3 3 3 3 3 3 3 3 3 3 3 3 3 3 3 3 3 3 3 3 3 3 3 3 3 3 3 3 3 3 3 3 3 3 3 3 3 3 3 3 3 3 3 3 3 3 3 3 3 3 3 3 3 3 3 3 3 3 3 3 3 3 3 3 3 3 3 3 3 3 </DataArray>
</Cells>
<PointData  Scalars="displacement"> 
<DataArray  type="Float64"  Name="displacement"  format="ascii">-4.6719883765750798e-05  -9.7664723025820150e-03  -1.8927162831354170e-02  -2.7533068180745544e-02  -3.5591239834588805e-02  -4.3111391760279338e-02  -5.0105747629004743e-02  -5.6588851750928960e-02  -6.2577348830800697e-02  -6.8089738347332368e-02  -7.3146109833938905e-02  -7.7767865579455822e-02  -8.1977437277249196e-02  -8.5798002942426080e-02  -8.9253210011830703e-02  -9.2366909969885433e-02  -9.5162909140201257e-02  -9.7664739486416727e-02  -9.9895452414885247e-02  -1.0187743770426239e-01  -1.0363226883730729e-01  -1.0518057520832264e-01  -1.0654194095015235e-01  -1.0773482948600978e-01  -1.0877653237592423e-01  -1.0968314060160095e-01  -1.1046953611790522e-01  -1.1114940129021229e-01  -1.1173524372691913e-01  -1.1223843399500938e-01  -1.1266925376132657e-01  -1.1303695201966404e-01  -1.1334980723025587e-01  -1.1361519340042234e-01  -1.1383964836061557e-01  -1.1402894272784712e-01  -1.1418814828892555e-01  -1.1432170477122877e-01  -1.1443348419270692e-01  -1.1452685219091595e-01  -1.1460472592005448e-01  -1.1466962827349711e-01  -1.1472373833656971e-01  -1.1476893810060010e-01  -1.1480685557561789e-01  -1.1483890452696606e-01  -1.1486632113238006e-01  -1.1489019791276230e-01  -1.1491151533396309e-01  -1.1493117151029388e-01  -1.1495001046496273e-01  -1.1496884941963163e-01  -1.1498850559596221e-01  -1.1500982301716296e-01  -1.1503369979754505e-01  -1.1506111640295892e-01  -1.1509316535430687e-01  -1.1513108282932458e-01  -1.1517628259335512e-01  -1.1523039265642786e-01  -1.1529529500987067e-01  -1.1537316873900935e-01  -1.1546653673721843e-01  -1.1557831615869661e-01  -1.1571187264099968e-01  -1.1587107820207818e-01  -1.1606037256930969e-01  -1.1628482752950284e-01  -1.1655021369966918e-01  -1.1686306891026094e-01  -1.1723076716859843e-01  -1.1766158693491574e-01  -1.1816477720300603e-01  -1.1875061963971283e-01  -1.1943048481201993e-01  -1.2021688032832398e-01  -1.2112348855400057e-01  -1.2216519144391481e-01  -1.2335807997977183e-01  -1.2471944572160121e-01  -1.2626775209261615e-01  -1.2802258322566046e-01  -1.3000456851503703e-01  -1.3223528144350488e-01  -1.3473711178971959e-01  -1.3753311096003432e-01  -1.4064681091808784e-01  -1.4410201798749087e-01  -1.4792258365266592e-01  -1.5213215535045721e-01  -1.5675391109597187e-01  -1.6181028258257571e-01  -1.6732267209910442e-01  -1.7331116917897277e-01  -1.7979427330089334e-01  -1.8678862916961489e-01  -1.9430878109530103e-01  -2.0236695274913952e-01  -2.1097285809852517e-01  -2.2013354862729118e-01  -2.2985330104610030e-01  </DataArray> 
</PointData> 
</Piece>
</UnstructuredGrid>
</VTKFile>