<?xml version="1.0"?>
<VTKFile type="UnstructuredGrid"  version="0.1"  >
<UnstructuredGrid>
<Piece  NumberOfPoints="101" NumberOfCells="100">
<Points>
<DataArray  type="Float64"  NumberOfComponents="3"  format="ascii">0 0 0  0.01 0 0  0.02 0 0  0.03 0 0  0.04 0 0  0.05 0 0  0.06 0 0  0.07000000000000001 0 0  0.08 0 0  0.09 0 0  0.1 0 0  0.11 0 0  0.12 0 0  0.13 0 0  0.14 0 0  0.15 0 0  0.16 0 0  0.17 0 0  0.18 0 0  0.19 0 0  0.2 0 0  0.21 0 0  0.22 0 0  0.23 0 0  0.24 0 0  0.25 0 0  0.26 0 0  0.27 0 0  0.28 0 0  0.29 0 0  0.3 0 0  0.31 0 0  0.32 0 0  0.33 0 0  0.34 0 0  0.35 0 0  0.36 0 0  0.37 0 0  0.38 0 0  0.39 0 0  0.4 0 0  0.41 0 0  0.42 0 0  0.43 0 0  0.44 0 0  0.45 0 0  0.46 0 0  0.47 0 0  0.48 0 0  0.49 0 0  0.5 0 0  0.51 0 0  0.52 0 0  0.53 0 0  0.54 0 0  0.55 0 0  0.5600000000000001 0 0  0.57 0 0  0.58 0 0  0.59 0 0  0.6 0 0  0.61 0 0  0.62 0 0  0.63 0 0  0.64 0 0  0.65 0 0  0.66 0 0  0.67 0 0  0.68 0 0  0.6899999999999999 0 0  0.7 0 0  0.71 0 0  0.72 0 0  0.73 0 0  0.74 0 0  0.75 0 0  0.76 0 0  0.77 0 0  0.78 0 0  0.79 0 0  0.8 0 0  0.8100000000000001 0 0  0.82 0 0  0.83 0 0  0.84 0 0  0.85 0 0  0.86 0 0  0.87 0 0  0.88 0 0  0.89 0 0  0.9 0 0  0.91 0 0  0.92 0 0  0.93 0 0  0.9399999999999999 0 0  0.95 0 0  0.96 0 0  0.97 0 0  0.98 0 0  0.99 0 0  1 0 0  </DataArray>
</Points>
<Cells>
<DataArray  type="UInt32"  Name="connectivity"  format="ascii">0 1  1 2  2 3  3 4  4 5  5 6  6 7  7 8  8 9  9 10  10 11  11 12  12 13  13 14  14 15  15 16  16 17  17 18  18 19  19 20  20 21  21 22  22 23  23 24  24 25  25 26  26 27  27 28  28 29  29 30  30 31  31 32  32 33  33 34  34 35  35 36  36 37  37 38  38 39  39 40  40 41  41 42  42 43  43 44  44 45  45 46  46 47  47 48  48 49  49 50  50 51  51 52  52 53  53 54  54 55  55 56  56 57  57 58  58 59  59 60  60 61  61 62  62 63  63 64  64 65  65 66  66 67  67 68  68 69  69 70  70 71  71 72  72 73  73 74  74 75  75 76  76 77  77 78  78 79  79 80  80 81  81 82  82 83  83 84  84 85  85 86  86 87  87 88  88 89  89 90  90 91  91 92  92 93  93 94  94 95  95 96  96 97  97 98  98 99  99 100  </DataArray>
<DataArray  type="UInt32"  Name="offsets"  format="ascii">2 4 6 8 10 12 14 16 18 20 22 24 26 28 30 32 34 36 38 40 42 44 46 48 50 52 54 56 58 60 62 64 66 68 70 72 74 76 78 80 82 84 86 88 90 92 94 96 98 100 102 104 106 108 110 112 114 116 118 120 122 124 126 128 130 132 134 136 138 140 142 144 146 148 150 152 154 156 158 160 162 164 166 168 170 172 174 176 178 180 182 184 186 188 190 192 194 196 198 200 </DataArray>
<DataArray  type="UInt8"  Name="types"  format="ascii">3 3 3 3 3 3 3 3 3 3 3 3 3 3 3 3 3 3 3 3 3 3 3 3 3 3 3 3 3 3 3 3 3 3 3 3 3 3 3 3 3 3 3 3 3 3 3 3 3 3 3 3 3 3 3 3 3 3 3 3 3 3 3 3 3 3 3 3 3 3 3 3 3 3 3 3 3 3 3 3 3 3 3 3 3 3 3 3 3 3 3 3 3 3 3 3 3 3 3 3 </DataArray>
</Cells>
<PointData  Scalars="displacement"> 
<DataArray  type="Float64"  Name="displacement"  format="ascii">-2.5645757276414895e-06  -9.9871778807772964e-03  -1.9941032980461883e-02  -2.9864175414227683e-02  -3.9756681031214741e-02  -4.9618655915402862e-02  -5.9450236280919513e-02  -6.9251588337612857e-02  -7.9022908127022964e-02  -8.8764421328911935e-02  -9.8476383038545667e-02  -1.0815907751494555e-01  -1.1781281790035859e-01  -1.2743794591122470e-01  -1.3703483150094251e-01  -1.4660387249477128e-01  -1.5614549419722470e-01  -1.6566014897234674e-01  -1.7514831579728282e-01  -1.8461049978958760e-01  -1.9404723170873414e-01  -2.0345906743231854e-01  -2.1284658740747714e-01  -2.2221039607805279e-01  -2.3155112128808353e-01  -2.4086941366219641e-01  -2.5016594596351782e-01  -2.5944141242973917e-01  -2.6869652808798766e-01  -2.7793202804917988e-01  -2.8714866678255729e-01  -2.9634721737111586e-01  -3.0552847074866590e-01  -3.1469323491927575e-01  -3.2384233415987024e-01  -3.3297660820676866e-01  -3.4209691142696591e-01  -3.5120411197497575e-01  -3.6029909093606688e-01  -3.6938274145673833e-01  -3.7845596786329194e-01  -3.8751968476937054e-01  -3.9657481617334733e-01  -4.0562229454644694e-01  -4.1466305991251284e-01  -4.2369805892031437e-01  -4.3272824390932119e-01  -4.4175457196985657e-01  -4.5077800399856821e-01  -4.5979950375013656e-01  -4.6882003688616619e-01  -4.7784057002219460e-01  -4.8686206977375862e-01  -4.9588550180246388e-01  -5.0491182986298988e-01  -5.1394201485198465e-01  -5.2297701385977180e-01  -5.3201777922582139e-01  -5.4106525759890323e-01  -5.5012038900285920e-01  -5.5918410590891554e-01  -5.6825733231544318e-01  -5.7734098283608604e-01  -5.8643596179714597e-01  -5.9554316234512206e-01  -6.0466346556528328e-01  -6.1379773961214279e-01  -6.2294683885269619e-01  -6.3211160302326175e-01  -6.4129285640076550e-01  -6.5049140698927554e-01  -6.5970804572260211e-01  -6.6894354568374081e-01  -6.7819866134193330e-01  -6.8747412780809536e-01  -6.9677066010935496e-01  -7.0608895248340275e-01  -7.1542967769336663e-01  -7.2479348636387120e-01  -7.3418100633895689e-01  -7.4359284206246523e-01  -7.5302957398153259e-01  -7.6249175797375612e-01  -7.7197992479860844e-01  -7.8149457957364421e-01  -7.9103620127600760e-01  -8.0060524226974339e-01  -8.1020212785936463e-01  -8.1982725587013150e-01  -8.2948099625544247e-01  -8.3916369073173691e-01  -8.4887565244126206e-01  -8.5861716564303958e-01  -8.6838848543233482e-01  -8.7818983748891188e-01  -8.8802141785430966e-01  -8.9788339273837692e-01  -9.0777589835523842e-01  -9.1769904078887621e-01  -9.2765289588842947e-01  -9.3763750919334399e-01  </DataArray> 
</PointData> 
</Piece>
</UnstructuredGrid>
</VTKFile>