<?xml version="1.0"?>
<VTKFile type="UnstructuredGrid"  version="0.1"  >
<UnstructuredGrid>
<Piece  NumberOfPoints="101" NumberOfCells="100">
<Points>
<DataArray  type="Float64"  NumberOfComponents="3"  format="ascii">0 0 0  0.01 0 0  0.02 0 0  0.03 0 0  0.04 0 0  0.05 0 0  0.06 0 0  0.07000000000000001 0 0  0.08 0 0  0.09 0 0  0.1 0 0  0.11 0 0  0.12 0 0  0.13 0 0  0.14 0 0  0.15 0 0  0.16 0 0  0.17 0 0  0.18 0 0  0.19 0 0  0.2 0 0  0.21 0 0  0.22 0 0  0.23 0 0  0.24 0 0  0.25 0 0  0.26 0 0  0.27 0 0  0.28 0 0  0.29 0 0  0.3 0 0  0.31 0 0  0.32 0 0  0.33 0 0  0.34 0 0  0.35 0 0  0.36 0 0  0.37 0 0  0.38 0 0  0.39 0 0  0.4 0 0  0.41 0 0  0.42 0 0  0.43 0 0  0.44 0 0  0.45 0 0  0.46 0 0  0.47 0 0  0.48 0 0  0.49 0 0  0.5 0 0  0.51 0 0  0.52 0 0  0.53 0 0  0.54 0 0  0.55 0 0  0.5600000000000001 0 0  0.57 0 0  0.58 0 0  0.59 0 0  0.6 0 0  0.61 0 0  0.62 0 0  0.63 0 0  0.64 0 0  0.65 0 0  0.66 0 0  0.67 0 0  0.68 0 0  0.6899999999999999 0 0  0.7 0 0  0.71 0 0  0.72 0 0  0.73 0 0  0.74 0 0  0.75 0 0  0.76 0 0  0.77 0 0  0.78 0 0  0.79 0 0  0.8 0 0  0.8100000000000001 0 0  0.82 0 0  0.83 0 0  0.84 0 0  0.85 0 0  0.86 0 0  0.87 0 0  0.88 0 0  0.89 0 0  0.9 0 0  0.91 0 0  0.92 0 0  0.93 0 0  0.9399999999999999 0 0  0.95 0 0  0.96 0 0  0.97 0 0  0.98 0 0  0.99 0 0  1 0 0  </DataArray>
</Points>
<Cells>
<DataArray  type="UInt32"  Name="connectivity"  format="ascii">0 1  1 2  2 3  3 4  4 5  5 6  6 7  7 8  8 9  9 10  10 11  11 12  12 13  13 14  14 15  15 16  16 17  17 18  18 19  19 20  20 21  21 22  22 23  23 24  24 25  25 26  26 27  27 28  28 29  29 30  30 31  31 32  32 33  33 34  34 35  35 36  36 37  37 38  38 39  39 40  40 41  41 42  42 43  43 44  44 45  45 46  46 47  47 48  48 49  49 50  50 51  51 52  52 53  53 54  54 55  55 56  56 57  57 58  58 59  59 60  60 61  61 62  62 63  63 64  64 65  65 66  66 67  67 68  68 69  69 70  70 71  71 72  72 73  73 74  74 75  75 76  76 77  77 78  78 79  79 80  80 81  81 82  82 83  83 84  84 85  85 86  86 87  87 88  88 89  89 90  90 91  91 92  92 93  93 94  94 95  95 96  96 97  97 98  98 99  99 100  </DataArray>
<DataArray  type="UInt32"  Name="offsets"  format="ascii">2 4 6 8 10 12 14 16 18 20 22 24 26 28 30 32 34 36 38 40 42 44 46 48 50 52 54 56 58 60 62 64 66 68 70 72 74 76 78 80 82 84 86 88 90 92 94 96 98 100 102 104 106 108 110 112 114 116 118 120 122 124 126 128 130 132 134 136 138 140 142 144 146 148 150 152 154 156 158 160 162 164 166 168 170 172 174 176 178 180 182 184 186 188 190 192 194 196 198 200 </DataArray>
<DataArray  type="UInt8"  Name="types"  format="ascii">3 3 3 3 3 3 3 3 3 3 3 3 3 3 3 3 3 3 3 3 3 3 3 3 3 3 3 3 3 3 3 3 3 3 3 3 3 3 3 3 3 3 3 3 3 3 3 3 3 3 3 3 3 3 3 3 3 3 3 3 3 3 3 3 3 3 3 3 3 3 3 3 3 3 3 3 3 3 3 3 3 3 3 3 3 3 3 3 3 3 3 3 3 3 3 3 3 3 3 3 </DataArray>
</Cells>
<PointData  Scalars="displacement"> 
<DataArray  type="Float64"  Name="displacement"  format="ascii">1.2177436532425805e-08  1.0004816953360005e-02  2.0009472793136435e-02  3.0013975472927116e-02  4.0018321282679001e-02  5.0022506684709339e-02  6.0026528408560063e-02  7.0030383428547976e-02  8.0034068972339140e-02  9.0037582520802004e-02  1.0004092180978755e-01  1.1004408483098371e-01  1.2004706983260921e-01  1.3004987531974052e-01  1.4005250005433115e-01  1.5005494305490619e-01  1.6005720359594225e-01  1.7005928120692862e-01  1.8006117567111712e-01  1.9006288702396090e-01  2.0006441555124510e-01  2.1006576178691566e-01  2.2006692651060536e-01  2.3006791074486815e-01  2.4006871575211758e-01  2.5006934303128325e-01  2.6006979431418364e-01  2.7007007156162371e-01  2.8007017695922332e-01  2.9007011291298213e-01  3.0006988204458623e-01  3.1006948718646521e-01  3.2006893137660331e-01  3.3006821785311852e-01  3.4006735004860683e-01  3.5006633158427092e-01  3.6006516626383156e-01  3.7006385806723469e-01  3.8006241114416367e-01  3.9006082980735940e-01  4.0005911852576620e-01  4.1005728191750207e-01  4.2005532474267276e-01  4.3005325189602917e-01  4.4005106839948588e-01  4.5004877939450538e-01  4.6004639013435911e-01  4.7004390597627627e-01  4.8004133237348906e-01  4.9003867486718483e-01  5.0003593907837474e-01  5.1003313069969203e-01  5.2003025548712423e-01  5.3002731925169722e-01  5.4002432785111532e-01  5.5002128718137211e-01  5.6001820316833861e-01  5.7001508175934379e-01  5.8001192891475095e-01  5.9000875059955105e-01  6.0000555277497114e-01  6.1000234139011877e-01  6.1999912237366417e-01  6.2999590162557606e-01  6.3999268500892348e-01  6.4998947834174015e-01  6.5998628738898135e-01  6.6998311785456444e-01  6.7997997537351595e-01  6.8997686550423054e-01  6.9997379372084445e-01  7.0997076540574300e-01  7.1996778584220966e-01  7.2996486020721663e-01  7.3996199356437764e-01  7.4995919085706120e-01  7.5995645690168279e-01  7.6995379638117145e-01  7.7995121383863397e-01  7.8994871367120800e-01  7.9994630012412860e-01  8.0994397728499423e-01  8.1994174907826678e-01  8.2993961925998261e-01  8.3993759141270319e-01  8.4993566894070161e-01  8.5993385506539144e-01  8.6993215282100500e-01  8.7993056505052680e-01  8.8992909440188461e-01  8.9992774332440251e-01  9.0992651406552727e-01  9.1992540866781702e-01  9.2992442896621907e-01  9.3992357658560932e-01  9.4992285293862877e-01  9.5992225922379382e-01  9.6992179642389598e-01  9.7992146530469360e-01  9.8992126641388745e-01  9.9992120008038998e-01  </DataArray> 
</PointData> 
</Piece>
</UnstructuredGrid>
</VTKFile>