<?xml version="1.0"?>
<VTKFile type="UnstructuredGrid"  version="0.1"  >
<UnstructuredGrid>
<Piece  NumberOfPoints="101" NumberOfCells="100">
<Points>
<DataArray  type="Float64"  NumberOfComponents="3"  format="ascii">0 0 0  0.01 0 0  0.02 0 0  0.03 0 0  0.04 0 0  0.05 0 0  0.06 0 0  0.07000000000000001 0 0  0.08 0 0  0.09 0 0  0.1 0 0  0.11 0 0  0.12 0 0  0.13 0 0  0.14 0 0  0.15 0 0  0.16 0 0  0.17 0 0  0.18 0 0  0.19 0 0  0.2 0 0  0.21 0 0  0.22 0 0  0.23 0 0  0.24 0 0  0.25 0 0  0.26 0 0  0.27 0 0  0.28 0 0  0.29 0 0  0.3 0 0  0.31 0 0  0.32 0 0  0.33 0 0  0.34 0 0  0.35 0 0  0.36 0 0  0.37 0 0  0.38 0 0  0.39 0 0  0.4 0 0  0.41 0 0  0.42 0 0  0.43 0 0  0.44 0 0  0.45 0 0  0.46 0 0  0.47 0 0  0.48 0 0  0.49 0 0  0.5 0 0  0.51 0 0  0.52 0 0  0.53 0 0  0.54 0 0  0.55 0 0  0.5600000000000001 0 0  0.57 0 0  0.58 0 0  0.59 0 0  0.6 0 0  0.61 0 0  0.62 0 0  0.63 0 0  0.64 0 0  0.65 0 0  0.66 0 0  0.67 0 0  0.68 0 0  0.6899999999999999 0 0  0.7 0 0  0.71 0 0  0.72 0 0  0.73 0 0  0.74 0 0  0.75 0 0  0.76 0 0  0.77 0 0  0.78 0 0  0.79 0 0  0.8 0 0  0.8100000000000001 0 0  0.82 0 0  0.83 0 0  0.84 0 0  0.85 0 0  0.86 0 0  0.87 0 0  0.88 0 0  0.89 0 0  0.9 0 0  0.91 0 0  0.92 0 0  0.93 0 0  0.9399999999999999 0 0  0.95 0 0  0.96 0 0  0.97 0 0  0.98 0 0  0.99 0 0  1 0 0  </DataArray>
</Points>
<Cells>
<DataArray  type="UInt32"  Name="connectivity"  format="ascii">0 1  1 2  2 3  3 4  4 5  5 6  6 7  7 8  8 9  9 10  10 11  11 12  12 13  13 14  14 15  15 16  16 17  17 18  18 19  19 20  20 21  21 22  22 23  23 24  24 25  25 26  26 27  27 28  28 29  29 30  30 31  31 32  32 33  33 34  34 35  35 36  36 37  37 38  38 39  39 40  40 41  41 42  42 43  43 44  44 45  45 46  46 47  47 48  48 49  49 50  50 51  51 52  52 53  53 54  54 55  55 56  56 57  57 58  58 59  59 60  60 61  61 62  62 63  63 64  64 65  65 66  66 67  67 68  68 69  69 70  70 71  71 72  72 73  73 74  74 75  75 76  76 77  77 78  78 79  79 80  80 81  81 82  82 83  83 84  84 85  85 86  86 87  87 88  88 89  89 90  90 91  91 92  92 93  93 94  94 95  95 96  96 97  97 98  98 99  99 100  </DataArray>
<DataArray  type="UInt32"  Name="offsets"  format="ascii">2 4 6 8 10 12 14 16 18 20 22 24 26 28 30 32 34 36 38 40 42 44 46 48 50 52 54 56 58 60 62 64 66 68 70 72 74 76 78 80 82 84 86 88 90 92 94 96 98 100 102 104 106 108 110 112 114 116 118 120 122 124 126 128 130 132 134 136 138 140 142 144 146 148 150 152 154 156 158 160 162 164 166 168 170 172 174 176 178 180 182 184 186 188 190 192 194 196 198 200 </DataArray>
<DataArray  type="UInt8"  Name="types"  format="ascii">3 3 3 3 3 3 3 3 3 3 3 3 3 3 3 3 3 3 3 3 3 3 3 3 3 3 3 3 3 3 3 3 3 3 3 3 3 3 3 3 3 3 3 3 3 3 3 3 3 3 3 3 3 3 3 3 3 3 3 3 3 3 3 3 3 3 3 3 3 3 3 3 3 3 3 3 3 3 3 3 3 3 3 3 3 3 3 3 3 3 3 3 3 3 3 3 3 3 3 3 </DataArray>
</Cells>
<PointData  Scalars="displacement"> 
<DataArray  type="Float64"  Name="displacement"  format="ascii">2.4637192873553505e-05  9.8666508284003685e-03  1.9413446101915064e-02  2.8665955017307971e-02  3.7625505700275862e-02  4.6293840408311963e-02  5.4673103081888268e-02  6.2765833337429536e-02  7.0574957092962270e-02  7.8103776544004438e-02  8.5355958860303588e-02  9.2335523878763953e-02  9.9046830831634278e-02  1.0549456421681577e-01  1.1168371890205403e-01  1.1761958456083911e-01  1.2330772953755749e-01  1.2875398424052795e-01  1.3396442416219975e-01  1.3894535262662186e-01  1.4370328336516924e-01  1.4824492302238512e-01  1.5257715369452199e-01  1.5670701560373437e-01  1.6064169001069895e-01  1.6438848246748991e-01  1.6795480651063002e-01  1.7134816789121879e-01  1.7457614943479197e-01  1.7764639661801984e-01  1.8056660394250945e-01  1.8334450217786763e-01  1.8598784653688494e-01  1.8850440583536132e-01  1.9090195267785448e-01  1.9318825469867959e-01  1.9537106687503106e-01  1.9745812491634140e-01  1.9945713972115084e-01  2.0137579288004770e-01  2.0322173319086226e-01  2.0500257414042924e-01  2.0672589229607508e-01  2.0839922653966789e-01  2.1003007806775234e-01  2.1162591107307849e-01  2.1319415401583558e-01  2.1474220138719322e-01  2.1627741586338878e-01  2.1780713074564567e-01  2.1933865257965068e-01  2.2087926384821494e-01  2.2243622563203352e-01  2.2401678013615955e-01  2.2562815298385430e-01  2.2727755518480666e-01  2.2897218469126540e-01  2.3071922746329318e-01  2.3252585797302136e-01  2.3439923908731419e-01  2.3634652127851569e-01  2.3837484112373966e-01  2.4049131906432791e-01  2.4270305640840545e-01  2.4501713157070493e-01  2.4744059555478939e-01  2.4998046669323201e-01  2.5264372467101048e-01  2.5543730386609281e-01  2.5836808604877587e-01  2.6144289248758357e-01  2.6466847551434608e-01  2.6805150960435148e-01  2.7159858202921133e-01  2.7531618314032641e-01  2.7921069633971823e-01  2.8328838779272414e-01  2.8755539593386886e-01  2.9201772081351851e-01  2.9668121332905006e-01  3.0155156438067049e-01  3.0663429398914460e-01  3.1193474041089864e-01  3.1745804928563487e-01  3.2320916285291651e-01  3.2919280927722816e-01  3.3541349212567062e-01  3.4187548004837431e-01  3.4858279671836651e-01  3.5553921109423170e-01  3.6274822807464524e-01  3.7021307961770528e-01  3.7793671639919968e-01  3.8592180008178378e-01  3.9417069626138801e-01  4.0268546814823647e-01  4.1146787102860033e-01  4.2051934754127435e-01  4.2984102379148725e-01  4.3943370631627093e-01  4.4929787990997488e-01  </DataArray> 
</PointData> 
</Piece>
</UnstructuredGrid>
</VTKFile>