<?xml version="1.0"?>
<VTKFile type="UnstructuredGrid"  version="0.1"  >
<UnstructuredGrid>
<Piece  NumberOfPoints="101" NumberOfCells="100">
<Points>
<DataArray  type="Float64"  NumberOfComponents="3"  format="ascii">0 0 0  0.01 0 0  0.02 0 0  0.03 0 0  0.04 0 0  0.05 0 0  0.06 0 0  0.07000000000000001 0 0  0.08 0 0  0.09 0 0  0.1 0 0  0.11 0 0  0.12 0 0  0.13 0 0  0.14 0 0  0.15 0 0  0.16 0 0  0.17 0 0  0.18 0 0  0.19 0 0  0.2 0 0  0.21 0 0  0.22 0 0  0.23 0 0  0.24 0 0  0.25 0 0  0.26 0 0  0.27 0 0  0.28 0 0  0.29 0 0  0.3 0 0  0.31 0 0  0.32 0 0  0.33 0 0  0.34 0 0  0.35 0 0  0.36 0 0  0.37 0 0  0.38 0 0  0.39 0 0  0.4 0 0  0.41 0 0  0.42 0 0  0.43 0 0  0.44 0 0  0.45 0 0  0.46 0 0  0.47 0 0  0.48 0 0  0.49 0 0  0.5 0 0  0.51 0 0  0.52 0 0  0.53 0 0  0.54 0 0  0.55 0 0  0.5600000000000001 0 0  0.57 0 0  0.58 0 0  0.59 0 0  0.6 0 0  0.61 0 0  0.62 0 0  0.63 0 0  0.64 0 0  0.65 0 0  0.66 0 0  0.67 0 0  0.68 0 0  0.6899999999999999 0 0  0.7 0 0  0.71 0 0  0.72 0 0  0.73 0 0  0.74 0 0  0.75 0 0  0.76 0 0  0.77 0 0  0.78 0 0  0.79 0 0  0.8 0 0  0.8100000000000001 0 0  0.82 0 0  0.83 0 0  0.84 0 0  0.85 0 0  0.86 0 0  0.87 0 0  0.88 0 0  0.89 0 0  0.9 0 0  0.91 0 0  0.92 0 0  0.93 0 0  0.9399999999999999 0 0  0.95 0 0  0.96 0 0  0.97 0 0  0.98 0 0  0.99 0 0  1 0 0  </DataArray>
</Points>
<Cells>
<DataArray  type="UInt32"  Name="connectivity"  format="ascii">0 1  1 2  2 3  3 4  4 5  5 6  6 7  7 8  8 9  9 10  10 11  11 12  12 13  13 14  14 15  15 16  16 17  17 18  18 19  19 20  20 21  21 22  22 23  23 24  24 25  25 26  26 27  27 28  28 29  29 30  30 31  31 32  32 33  33 34  34 35  35 36  36 37  37 38  38 39  39 40  40 41  41 42  42 43  43 44  44 45  45 46  46 47  47 48  48 49  49 50  50 51  51 52  52 53  53 54  54 55  55 56  56 57  57 58  58 59  59 60  60 61  61 62  62 63  63 64  64 65  65 66  66 67  67 68  68 69  69 70  70 71  71 72  72 73  73 74  74 75  75 76  76 77  77 78  78 79  79 80  80 81  81 82  82 83  83 84  84 85  85 86  86 87  87 88  88 89  89 90  90 91  91 92  92 93  93 94  94 95  95 96  96 97  97 98  98 99  99 100  </DataArray>
<DataArray  type="UInt32"  Name="offsets"  format="ascii">2 4 6 8 10 12 14 16 18 20 22 24 26 28 30 32 34 36 38 40 42 44 46 48 50 52 54 56 58 60 62 64 66 68 70 72 74 76 78 80 82 84 86 88 90 92 94 96 98 100 102 104 106 108 110 112 114 116 118 120 122 124 126 128 130 132 134 136 138 140 142 144 146 148 150 152 154 156 158 160 162 164 166 168 170 172 174 176 178 180 182 184 186 188 190 192 194 196 198 200 </DataArray>
<DataArray  type="UInt8"  Name="types"  format="ascii">3 3 3 3 3 3 3 3 3 3 3 3 3 3 3 3 3 3 3 3 3 3 3 3 3 3 3 3 3 3 3 3 3 3 3 3 3 3 3 3 3 3 3 3 3 3 3 3 3 3 3 3 3 3 3 3 3 3 3 3 3 3 3 3 3 3 3 3 3 3 3 3 3 3 3 3 3 3 3 3 3 3 3 3 3 3 3 3 3 3 3 3 3 3 3 3 3 3 3 3 </DataArray>
</Cells>
<PointData  Scalars="displacement"> 
<DataArray  type="Float64"  Name="displacement"  format="ascii">2.2402615286903765e+38  6.1203374408589752e+38  3.7623211121314713e+38  4.7474160602825321e+38  4.3887992788457804e+38  4.5102558547952032e+38  4.4709147151171946e+38  4.4832774544199073e+38  4.4794768288015961e+38  4.4806259786352528e+38  4.4802830222773118e+38  4.4803843071809688e+38  4.4803546518184900e+38  4.4803632721785359e+38  4.4803607816932242e+38  4.4803614974282966e+38  4.4803612926752696e+38  4.4803613510147670e+38  4.4803613344512872e+38  4.4803613391390414e+38  4.4803613378160912e+38  4.4803613381884948e+38  4.4803613380839076e+38  4.4803613381132127e+38  4.4803613381050018e+38  4.4803613381072912e+38  4.4803613381066475e+38  4.4803613381068175e+38  4.4803613381067661e+38  4.4803613381067782e+38  4.4803613381067593e+38  4.4803613381067570e+38  4.4803613381067525e+38  4.4803613381067510e+38  4.4803613381067525e+38  4.4803613381067547e+38  4.4803613381067540e+38  4.4803613381067570e+38  4.4803613381067600e+38  4.4803613381067585e+38  4.4803613381067555e+38  4.4803613381067631e+38  4.4803613381067547e+38  4.4803613381067427e+38  4.4803613381067510e+38  4.4803613381067404e+38  4.4803613381067366e+38  4.4803613381067366e+38  4.4803613381067275e+38  4.4803613381067253e+38  4.4803613381067253e+38  4.4803613381067328e+38  4.4803613381067230e+38  4.4803613381067245e+38  4.4803613381067283e+38  4.4803613381067147e+38  4.4803613381067124e+38  4.4803613381067162e+38  4.4803613381067003e+38  4.4803613381066958e+38  4.4803613381066898e+38  4.4803613381067041e+38  4.4803613381067026e+38  4.4803613381067049e+38  4.4803613381067064e+38  4.4803613381067026e+38  4.4803613381067049e+38  4.4803613381067079e+38  4.4803613381067132e+38  4.4803613381067162e+38  4.4803613381067230e+38  4.4803613381067321e+38  4.4803613381067253e+38  4.4803613381067260e+38  4.4803613381067359e+38  4.4803613381067170e+38  4.4803613381067245e+38  4.4803613381067275e+38  4.4803613381067200e+38  4.4803613381067268e+38  4.4803613381067102e+38  4.4803613381067207e+38  4.4803613381067207e+38  4.4803613381067132e+38  4.4803613381067139e+38  4.4803613381067139e+38  4.4803613381067132e+38  4.4803613381066981e+38  4.4803613381066943e+38  4.4803613381067026e+38  4.4803613381067019e+38  4.4803613381066890e+38  4.4803613381066958e+38  4.4803613381066943e+38  4.4803613381066807e+38  4.4803613381066777e+38  4.4803613381066747e+38  4.4803613381066769e+38  4.4803613381066762e+38  4.4803613381066739e+38  4.4803613381066807e+38  </DataArray> 
</PointData> 
</Piece>
</UnstructuredGrid>
</VTKFile>