<?xml version="1.0"?>
<VTKFile type="UnstructuredGrid"  version="0.1"  >
<UnstructuredGrid>
<Piece  NumberOfPoints="101" NumberOfCells="100">
<Points>
<DataArray  type="Float64"  NumberOfComponents="3"  format="ascii">0 0 0  0.01 0 0  0.02 0 0  0.03 0 0  0.04 0 0  0.05 0 0  0.06 0 0  0.07000000000000001 0 0  0.08 0 0  0.09 0 0  0.1 0 0  0.11 0 0  0.12 0 0  0.13 0 0  0.14 0 0  0.15 0 0  0.16 0 0  0.17 0 0  0.18 0 0  0.19 0 0  0.2 0 0  0.21 0 0  0.22 0 0  0.23 0 0  0.24 0 0  0.25 0 0  0.26 0 0  0.27 0 0  0.28 0 0  0.29 0 0  0.3 0 0  0.31 0 0  0.32 0 0  0.33 0 0  0.34 0 0  0.35 0 0  0.36 0 0  0.37 0 0  0.38 0 0  0.39 0 0  0.4 0 0  0.41 0 0  0.42 0 0  0.43 0 0  0.44 0 0  0.45 0 0  0.46 0 0  0.47 0 0  0.48 0 0  0.49 0 0  0.5 0 0  0.51 0 0  0.52 0 0  0.53 0 0  0.54 0 0  0.55 0 0  0.5600000000000001 0 0  0.57 0 0  0.58 0 0  0.59 0 0  0.6 0 0  0.61 0 0  0.62 0 0  0.63 0 0  0.64 0 0  0.65 0 0  0.66 0 0  0.67 0 0  0.68 0 0  0.6899999999999999 0 0  0.7 0 0  0.71 0 0  0.72 0 0  0.73 0 0  0.74 0 0  0.75 0 0  0.76 0 0  0.77 0 0  0.78 0 0  0.79 0 0  0.8 0 0  0.8100000000000001 0 0  0.82 0 0  0.83 0 0  0.84 0 0  0.85 0 0  0.86 0 0  0.87 0 0  0.88 0 0  0.89 0 0  0.9 0 0  0.91 0 0  0.92 0 0  0.93 0 0  0.9399999999999999 0 0  0.95 0 0  0.96 0 0  0.97 0 0  0.98 0 0  0.99 0 0  1 0 0  </DataArray>
</Points>
<Cells>
<DataArray  type="UInt32"  Name="connectivity"  format="ascii">0 1  1 2  2 3  3 4  4 5  5 6  6 7  7 8  8 9  9 10  10 11  11 12  12 13  13 14  14 15  15 16  16 17  17 18  18 19  19 20  20 21  21 22  22 23  23 24  24 25  25 26  26 27  27 28  28 29  29 30  30 31  31 32  32 33  33 34  34 35  35 36  36 37  37 38  38 39  39 40  40 41  41 42  42 43  43 44  44 45  45 46  46 47  47 48  48 49  49 50  50 51  51 52  52 53  53 54  54 55  55 56  56 57  57 58  58 59  59 60  60 61  61 62  62 63  63 64  64 65  65 66  66 67  67 68  68 69  69 70  70 71  71 72  72 73  73 74  74 75  75 76  76 77  77 78  78 79  79 80  80 81  81 82  82 83  83 84  84 85  85 86  86 87  87 88  88 89  89 90  90 91  91 92  92 93  93 94  94 95  95 96  96 97  97 98  98 99  99 100  </DataArray>
<DataArray  type="UInt32"  Name="offsets"  format="ascii">2 4 6 8 10 12 14 16 18 20 22 24 26 28 30 32 34 36 38 40 42 44 46 48 50 52 54 56 58 60 62 64 66 68 70 72 74 76 78 80 82 84 86 88 90 92 94 96 98 100 102 104 106 108 110 112 114 116 118 120 122 124 126 128 130 132 134 136 138 140 142 144 146 148 150 152 154 156 158 160 162 164 166 168 170 172 174 176 178 180 182 184 186 188 190 192 194 196 198 200 </DataArray>
<DataArray  type="UInt8"  Name="types"  format="ascii">3 3 3 3 3 3 3 3 3 3 3 3 3 3 3 3 3 3 3 3 3 3 3 3 3 3 3 3 3 3 3 3 3 3 3 3 3 3 3 3 3 3 3 3 3 3 3 3 3 3 3 3 3 3 3 3 3 3 3 3 3 3 3 3 3 3 3 3 3 3 3 3 3 3 3 3 3 3 3 3 3 3 3 3 3 3 3 3 3 3 3 3 3 3 3 3 3 3 3 3 </DataArray>
</Cells>
<PointData  Scalars="displacement"> 
<DataArray  type="Float64"  Name="displacement"  format="ascii">-3.8226936179109565e-05  -9.8089041406032966e-03  -1.9121711776658355e-02  -2.7978969775638261e-02  -3.6384517713120776e-02  -4.4343674855294619e-02  -5.1863185232475406e-02  -5.8951148716913079e-02  -6.5616939317317380e-02  -7.1871112107063859e-02  -7.7725300372165587e-02  -8.3192104695349059e-02  -8.8284975781783223e-02  -9.3018092879278605e-02  -9.7406239651497209e-02  -1.0146467932851058e-01  -1.0520903088761714e-01  -1.0865514791238014e-01  -1.1181900164382877e-01  -1.1471656957974602e-01  -1.1736373080140486e-01  -1.1977616901763742e-01  -1.2196928411935980e-01  -1.2395811283904608e-01  -1.2575725891423559e-01  -1.2738083296650962e-01  -1.2884240213150719e-01  -1.3015494931473054e-01  -1.3133084180473781e-01  -1.3238180885167913e-01  -1.3331892771615225e-01  -1.3415261761150429e-01  -1.3489264090183187e-01  -1.3554811087732840e-01  -1.3612750540711949e-01  -1.3663868576576646e-01  -1.3708891994135777e-01  -1.3748490975849173e-01  -1.3783282118632323e-01  -1.3813831724796621e-01  -1.3840659300072050e-01  -1.3864241211468786e-01  -1.3885014463833875e-01  -1.3903380560162396e-01  -1.3919709416858150e-01  -1.3934343311056394e-01  -1.3947600842685856e-01  -1.3959780899046345e-01  -1.3971166614213471e-01  -1.3982029319475550e-01  -1.3992632484194364e-01  -1.4003235648913198e-01  -1.4014098354175247e-01  -1.4025484069342359e-01  -1.4037664125702831e-01  -1.4050921657332277e-01  -1.4065555551530487e-01  -1.4081884408226236e-01  -1.4100250504554773e-01  -1.4121023756919876e-01  -1.4144605668316626e-01  -1.4171433243592077e-01  -1.4201982849756364e-01  -1.4236773992539514e-01  -1.4276372974252899e-01  -1.4321396391812016e-01  -1.4372514427676708e-01  -1.4430453880655780e-01  -1.4496000878205406e-01  -1.4570003207238136e-01  -1.4653372196773323e-01  -1.4747084083220630e-01  -1.4852180787914754e-01  -1.4969770036915467e-01  -1.5101024755237749e-01  -1.5247181671737464e-01  -1.5409539076964809e-01  -1.5589453684483678e-01  -1.5788336556452218e-01  -1.6007648066624350e-01  -1.6248891888247499e-01  -1.6513608010413233e-01  -1.6803364804004803e-01  -1.7119750177149504e-01  -1.7464361879625620e-01  -1.7838797035536047e-01  -1.8244641003237119e-01  -1.8683455680458680e-01  -1.9156767390207863e-01  -1.9666054498850899e-01  -2.0212734931168816e-01  -2.0798153757678534e-01  -2.1423571036652658e-01  -2.2090150096692526e-01  -2.2798946445135684e-01  -2.3550897482853142e-01  -2.4346813197069817e-01  -2.5187367990817283e-01  -2.6073093790714436e-01  -2.7004374554318983e-01  -2.7981442274760365e-01  </DataArray> 
</PointData> 
</Piece>
</UnstructuredGrid>
</VTKFile>