<?xml version="1.0"?>
<VTKFile type="UnstructuredGrid"  version="0.1"  >
<UnstructuredGrid>
<Piece  NumberOfPoints="101" NumberOfCells="100">
<Points>
<DataArray  type="Float64"  NumberOfComponents="3"  format="ascii">0 0 0  0.01 0 0  0.02 0 0  0.03 0 0  0.04 0 0  0.05 0 0  0.06 0 0  0.07000000000000001 0 0  0.08 0 0  0.09 0 0  0.1 0 0  0.11 0 0  0.12 0 0  0.13 0 0  0.14 0 0  0.15 0 0  0.16 0 0  0.17 0 0  0.18 0 0  0.19 0 0  0.2 0 0  0.21 0 0  0.22 0 0  0.23 0 0  0.24 0 0  0.25 0 0  0.26 0 0  0.27 0 0  0.28 0 0  0.29 0 0  0.3 0 0  0.31 0 0  0.32 0 0  0.33 0 0  0.34 0 0  0.35 0 0  0.36 0 0  0.37 0 0  0.38 0 0  0.39 0 0  0.4 0 0  0.41 0 0  0.42 0 0  0.43 0 0  0.44 0 0  0.45 0 0  0.46 0 0  0.47 0 0  0.48 0 0  0.49 0 0  0.5 0 0  0.51 0 0  0.52 0 0  0.53 0 0  0.54 0 0  0.55 0 0  0.5600000000000001 0 0  0.57 0 0  0.58 0 0  0.59 0 0  0.6 0 0  0.61 0 0  0.62 0 0  0.63 0 0  0.64 0 0  0.65 0 0  0.66 0 0  0.67 0 0  0.68 0 0  0.6899999999999999 0 0  0.7 0 0  0.71 0 0  0.72 0 0  0.73 0 0  0.74 0 0  0.75 0 0  0.76 0 0  0.77 0 0  0.78 0 0  0.79 0 0  0.8 0 0  0.8100000000000001 0 0  0.82 0 0  0.83 0 0  0.84 0 0  0.85 0 0  0.86 0 0  0.87 0 0  0.88 0 0  0.89 0 0  0.9 0 0  0.91 0 0  0.92 0 0  0.93 0 0  0.9399999999999999 0 0  0.95 0 0  0.96 0 0  0.97 0 0  0.98 0 0  0.99 0 0  1 0 0  </DataArray>
</Points>
<Cells>
<DataArray  type="UInt32"  Name="connectivity"  format="ascii">0 1  1 2  2 3  3 4  4 5  5 6  6 7  7 8  8 9  9 10  10 11  11 12  12 13  13 14  14 15  15 16  16 17  17 18  18 19  19 20  20 21  21 22  22 23  23 24  24 25  25 26  26 27  27 28  28 29  29 30  30 31  31 32  32 33  33 34  34 35  35 36  36 37  37 38  38 39  39 40  40 41  41 42  42 43  43 44  44 45  45 46  46 47  47 48  48 49  49 50  50 51  51 52  52 53  53 54  54 55  55 56  56 57  57 58  58 59  59 60  60 61  61 62  62 63  63 64  64 65  65 66  66 67  67 68  68 69  69 70  70 71  71 72  72 73  73 74  74 75  75 76  76 77  77 78  78 79  79 80  80 81  81 82  82 83  83 84  84 85  85 86  86 87  87 88  88 89  89 90  90 91  91 92  92 93  93 94  94 95  95 96  96 97  97 98  98 99  99 100  </DataArray>
<DataArray  type="UInt32"  Name="offsets"  format="ascii">2 4 6 8 10 12 14 16 18 20 22 24 26 28 30 32 34 36 38 40 42 44 46 48 50 52 54 56 58 60 62 64 66 68 70 72 74 76 78 80 82 84 86 88 90 92 94 96 98 100 102 104 106 108 110 112 114 116 118 120 122 124 126 128 130 132 134 136 138 140 142 144 146 148 150 152 154 156 158 160 162 164 166 168 170 172 174 176 178 180 182 184 186 188 190 192 194 196 198 200 </DataArray>
<DataArray  type="UInt8"  Name="types"  format="ascii">3 3 3 3 3 3 3 3 3 3 3 3 3 3 3 3 3 3 3 3 3 3 3 3 3 3 3 3 3 3 3 3 3 3 3 3 3 3 3 3 3 3 3 3 3 3 3 3 3 3 3 3 3 3 3 3 3 3 3 3 3 3 3 3 3 3 3 3 3 3 3 3 3 3 3 3 3 3 3 3 3 3 3 3 3 3 3 3 3 3 3 3 3 3 3 3 3 3 3 3 </DataArray>
</Cells>
<PointData  Scalars="displacement"> 
<DataArray  type="Float64"  Name="displacement"  format="ascii">5.2607052679638719e+47  1.4372118583302307e+48  8.8348953301365186e+47  1.1148148360245449e+48  1.0306025409502611e+48  1.0591236090274430e+48  1.0498853199051343e+48  1.0527884011358024e+48  1.0518959192023573e+48  1.0521657682358392e+48  1.0520852335564832e+48  1.0521090177627343e+48  1.0521020539505789e+48  1.0521040782235894e+48  1.0521034933964304e+48  1.0521036614685661e+48  1.0521036133875508e+48  1.0521036270870868e+48  1.0521036231975802e+48  1.0521036242983781e+48  1.0521036239877167e+48  1.0521036240751665e+48  1.0521036240506063e+48  1.0521036240574883e+48  1.0521036240555605e+48  1.0521036240560975e+48  1.0521036240559462e+48  1.0521036240559863e+48  1.0521036240559741e+48  1.0521036240559758e+48  1.0521036240559715e+48  1.0521036240559711e+48  1.0521036240559702e+48  1.0521036240559696e+48  1.0521036240559704e+48  1.0521036240559709e+48  1.0521036240559702e+48  1.0521036240559702e+48  1.0521036240559711e+48  1.0521036240559715e+48  1.0521036240559706e+48  1.0521036240559714e+48  1.0521036240559704e+48  1.0521036240559670e+48  1.0521036240559693e+48  1.0521036240559667e+48  1.0521036240559652e+48  1.0521036240559659e+48  1.0521036240559641e+48  1.0521036240559633e+48  1.0521036240559639e+48  1.0521036240559638e+48  1.0521036240559615e+48  1.0521036240559623e+48  1.0521036240559642e+48  1.0521036240559599e+48  1.0521036240559587e+48  1.0521036240559594e+48  1.0521036240559568e+48  1.0521036240559545e+48  1.0521036240559537e+48  1.0521036240559566e+48  1.0521036240559563e+48  1.0521036240559573e+48  1.0521036240559576e+48  1.0521036240559563e+48  1.0521036240559573e+48  1.0521036240559574e+48  1.0521036240559594e+48  1.0521036240559597e+48  1.0521036240559608e+48  1.0521036240559638e+48  1.0521036240559615e+48  1.0521036240559608e+48  1.0521036240559631e+48  1.0521036240559595e+48  1.0521036240559603e+48  1.0521036240559615e+48  1.0521036240559600e+48  1.0521036240559603e+48  1.0521036240559571e+48  1.0521036240559597e+48  1.0521036240559597e+48  1.0521036240559577e+48  1.0521036240559581e+48  1.0521036240559581e+48  1.0521036240559579e+48  1.0521036240559552e+48  1.0521036240559542e+48  1.0521036240559547e+48  1.0521036240559556e+48  1.0521036240559529e+48  1.0521036240559539e+48  1.0521036240559545e+48  1.0521036240559509e+48  1.0521036240559508e+48  1.0521036240559500e+48  1.0521036240559504e+48  1.0521036240559496e+48  1.0521036240559493e+48  1.0521036240559503e+48  </DataArray> 
</PointData> 
</Piece>
</UnstructuredGrid>
</VTKFile>