<?xml version="1.0"?>
<VTKFile type="UnstructuredGrid"  version="0.1"  >
<UnstructuredGrid>
<Piece  NumberOfPoints="1554" NumberOfCells="2944">
<Points>
<DataArray  type="Float64"  NumberOfComponents="3"  format="ascii">0 0 0  0.05 0 0  0.05 -0.1 0  0 -0.1 0  0.0006329113924050643 0 0  0.001265822784810129 0 0  0.001898734177215193 0 0  0.002531645569620257 0 0  0.003164556962025321 0 0  0.003797468354430385 0 0  0.00443037974683545 0 0  0.005063291139240515 0 0  0.005696202531645579 0 0  0.006329113924050643 0 0  0.006962025316455709 0 0  0.007594936708860772 0 0  0.008227848101265837 0 0  0.008860759493670902 0 0  0.009493670886075967 0 0  0.01012658227848103 0 0  0.0107594936708861 0 0  0.01139240506329116 0 0  0.01202531645569622 0 0  0.01265822784810129 0 0  0.01329113924050635 0 0  0.01392405063291142 0 0  0.01455696202531648 0 0  0.01518987341772155 0 0  0.01582278481012661 0 0  0.01645569620253167 0 0  0.01708860759493673 0 0  0.0177215189873418 0 0  0.01835443037974686 0 0  0.01898734177215192 0 0  0.01962025316455699 0 0  0.02025316455696205 0 0  0.02088607594936711 0 0  0.02151898734177217 0 0  0.02215189873417724 0 0  0.0227848101265823 0 0  0.02341772151898736 0 0  0.02405063291139242 0 0  0.02468354430379749 0 0  0.02531645569620255 0 0  0.02594936708860762 0 0  0.02658227848101268 0 0  0.02721518987341774 0 0  0.0278481012658228 0 0  0.02848101265822787 0 0  0.02911392405063293 0 0  0.02974683544303799 0 0  0.03037974683544306 0 0  0.03101265822784813 0 0  0.03164556962025319 0 0  0.03227848101265825 0 0  0.03291139240506331 0 0  0.03354430379746838 0 0  0.03417721518987343 0 0  0.0348101265822785 0 0  0.03544303797468357 0 0  0.03607594936708863 0 0  0.03670886075949369 0 0  0.03734177215189875 0 0  0.03797468354430381 0 0  0.03860759493670887 0 0  0.03924050632911394 0 0  0.039873417721519 0 0  0.04050632911392407 0 0  0.04113924050632913 0 0  0.04177215189873418 0 0  0.04240506329113925 0 0  0.04303797468354431 0 0  0.04367088607594938 0 0  0.04430379746835444 0 0  0.0449367088607595 0 0  0.04556962025316456 0 0  0.04620253164556962 0 0  0.04683544303797469 0 0  0.04746835443037975 0 0  0.04810126582278482 0 0  0.04873417721518987 0 0  0.04936708860759494 0 0  0.05 -0.0008764624534039011 0  0.05 -0.001796747998277331 0  0.05 -0.002763047819002842 0  0.05 -0.003777662642945664 0  0.05 -0.004843008198704184 0  0.05 -0.005961621020185714 0  0.05 -0.007136164486518962 0  0.05 -0.008369435152759713 0  0.05 -0.009664369334984248 0  0.05 -0.01102405022575231 0  0.05 -0.01245171516555089 0  0.05 -0.01395076334851523 0  0.05 -0.01552476394478985 0  0.05 -0.01717746455289665 0  0.05 -0.01891280017743463 0  0.05 -0.02073490259296818 0  0.05 -0.02264811013263011 0  0.05 -0.02465697805933633 0  0.05 -0.02676628939403253 0  0.05 -0.02898106627571796 0  0.05 -0.03130658199302094 0  0.05 -0.03374837352625826 0  0.05 -0.0363122546307483 0  0.05 -0.0390043297753143 0  0.05 -0.04183100868223239 0  0.05 -0.04479902152724673 0  0.05 -0.04791543499163506 0  0.05 -0.05118766912339436 0  0.05 -0.05462351497286431 0  0.05 -0.05823115311912687 0  0.05 -0.06201917318059941 0  0.05 -0.06599659425752613 0  0.05 -0.07017288639920882 0  0.05 -0.07455799313053731 0  0.05 -0.07916235517485178 0  0.05 -0.08399693531806585 0  0.05 -0.0890732444772248 0  0.05 -0.09440336911374125 0  0.03999999999999999 -0.1 0  0.02999999999999998 -0.1 0  0.02 -0.1 0  0.009999999999999995 -0.1 0  0 -0.09440336914151665 0  0 -0.08907324449716499 0  0 -0.08399693533085423 0  0 -0.07916235518112424 0  0 -0.07455799313088532 0  0 -0.07017288639418245 0  0 -0.06599659424763628 0  0 -0.06201917316632072 0  0 -0.05823115310089969 0  0 -0.05462351495109712 0  0 -0.0511876690984656 0  0 -0.04791543496389521 0  0 -0.04479902149702007 0  0 -0.04183100864981863 0  0 -0.03900432974099029 0  0 -0.03631225459476947 0  0 -0.03374837348792512 0  0 -0.03130658195442013 0  0 -0.02898106623611381 0  0 -0.02676628935360821 0  0 -0.02465697801825972 0  0 -0.02264811009105497 0  0 -0.02073490255103518 0  0 -0.01891280013527211 0  0 -0.01717746451062158 0  0 -0.01552476390250855 0  0 -0.01395076330632414 0  0 -0.01245171512353731 0  0 -0.01102405018399499 0  0 -0.009664369293554062 0  0 -0.008369435111720197 0  0 -0.007136164445926865 0  0 -0.005961620980091481 0  0 -0.004843008159152451 0  0 -0.003777662603975662 0  0 -0.002763047780535835 0  0 -0.00179674796056907 0  0 -0.0008764624163668244 0  0.02499785305334181 -0.0005883320458915306 0  0.02943037974683546 -0.000548117344167362 0  0.02057237329777709 -0.0005287446180530994 0  0.03322784810126585 -0.0005373393096861495 0  0.01677425794674972 -0.0005322724541947724 0  0.04830169150528274 -0.02365254409598323 0  0.00168300145754437 -0.02367379478516428 0  0.03642949305137719 -0.0005190543160617442 0  0.01362218740907669 -0.0005280322826475142 0  0.03960937791880317 -0.0005573779533750087 0  0.01045311747228144 -0.0004942949853096942 0  0.04858238385613768 -0.01638795865393368 0  0.001382472559220159 -0.01636698231302624 0  0.00204814751415424 -0.03255531706708671 0  0.0479686395717156 -0.03247795110264674 0  0.04208860759493672 -0.0005472567036111306 0  0.007911392405063302 -0.000548117344167369 0  0.04886753188284145 -0.01015727362788417 0  0.001068838780639621 -0.01031733386641841 0  0.002566588374160229 -0.04330174605790554 0  0.04732731321596549 -0.04341612281551373 0  0.04675236858254128 -0.0565077619174409 0  0.005363565051914133 -0.0005540993823790336 0  0.04471456828011758 -0.0006733054024164117 0  0.002970650524898356 -0.05656631819955903 0  0.04901586627550847 -0.006543805977373106 0  0.0009437608403435986 -0.00648244041968675 0  0.003395908129391275 -0.06806867338678066 0  0.0462028998095191 -0.06810369688955817 0  0.02691740653035796 -0.0005561576639814964 0  0.02308450412770484 -0.0005627261242821119 0  0.03140601818714063 -0.0005248932151129052 0  0.01867088607594939 -0.000548117344167362 0  0.04645872910779643 -0.0005726402925699189 0  0.003532278600933945 -0.000544980979404093 0  0.04915796303231687 -0.003147868123058582 0  0.0009651973678222008 -0.003133536081384621 0  0.02409629969136109 -0.09155849102570193 0  0.001463675694503737 -0.01304042126719156 0  0.04875098997048143 -0.01318126710414894 0  0.001597446142481276 -0.01982360883152949 0  0.04856417476854837 -0.01970030433800369 0  0.001842620603430285 -0.02793071033610579 0  0.04802770460796459 -0.02768756175901937 0  0.002224186013515837 -0.03765245636883344 0  0.04781700531398361 -0.03780414051243434 0  0.003892554168009436 -0.0768601741560048 0  0.04659344683675115 -0.07681307925697438 0  0.002735649184216971 -0.0495908829071507 0  0.04732429769976428 -0.04949194635957994 0  0.02816455696202533 -0.000548117344167369 0  0.02182463430401193 -0.0004286401269838133 0  0.03447920819777296 -0.0005271693874061914 0  0.01540248163054762 -0.0005096437804725934 0  0.0375760808398555 -0.000525574313076288 0  0.01234322280789459 -0.0005366390899669282 0  0.00920391131281691 -0.0005192598173814969 0  0.04076971547154577 -0.0005523250007232958 0  0.006628260244885435 -0.0005948819644851153 0  0.04335443037974685 -0.0005402762692139004 0  0.04778481012658228 -0.000548117344167362 0  0.002215189873417695 -0.0005339553128171429 0  0.04602702066114506 -0.08655148232833468 0  0.004291540960893531 -0.08653508991400961 0  0.0005639952342539646 -0.001196294505093572 0  0.04928204250931896 -0.001253551398748894 0  0.01500759671486957 -0.09193032701368048 0  0.01989523220542124 -0.08358631088189528 0  0.02745511195059643 -0.08392277558135516 0  0.02419243091066598 -0.07808067200071511 0  0.03016808485228364 -0.07795757857951965 0  0.02677363599421406 -0.0731858161756945 0  0.02196757203003456 -0.07326977264799825 0  0.02419238082906422 -0.06885601987530676 0  0.02889723833448046 -0.06845607220922992 0  0.02617067805316583 -0.06448258447505902 0  0.02185608437631156 -0.06490175850566648 0  0.02403692688470872 -0.06081352828384041 0  0.02845457792833278 -0.05986429477888826 0  0.02572048479186493 -0.05678433919805648 0  0.02208042022562453 -0.05706027503343655 0  0.02383587790280271 -0.05357461250510945 0  0.02713187728061182 -0.05352510881840344 0  0.02540055735626316 -0.05042338850510797 0  0.02201505041274248 -0.05036168685255393 0  0.02378488401090785 -0.0473124504031799 0  0.02722224241537905 -0.04717635269015489 0  0.02542945591489349 -0.04433041803765904 0  0.02172796942054589 -0.04406746570171968 0  0.0238337865061107 -0.04153208670245789 0  0.02684059553842916 -0.04151317813208484 0  0.02521137817246824 -0.03899295014561417 0  0.0225266518348188 -0.0389880136848607 0  0.02375128974598649 -0.03655429871707286 0  0.02652032652881334 -0.03649355033993049 0  0.02503026628131681 -0.03419291727889915 0  0.02214801693937738 -0.03410278424139676 0  0.02372393983283434 -0.03196929846404486 0  0.0262155187860458 -0.03192957970073196 0  0.02507869505894476 -0.02993285641347104 0  0.02738966614350206 -0.02981942944037919 0  0.02615462524413406 -0.02785635661837029 0  0.0236794749884742 -0.02802991066074463 0  0.02502109894891923 -0.02602836563538014 0  0.02730740170391735 -0.02592815918779382 0  0.02607992808057965 -0.02413500436965434 0  0.02378350924928129 -0.02429284861804635 0  0.02495369866992312 -0.02244020999667535 0  0.0268280547798818 -0.02230420925354785 0  0.02579896872069257 -0.02070341625952951 0  0.02402206565677668 -0.02077208115165185 0  0.02490198929565436 -0.01918637895043494 0  0.0266031269342557 -0.01908794287014531 0  0.02316925673538998 -0.01919960611031577 0  0.0239927487867216 -0.01771639003910357 0  0.02233291221197864 -0.01771305782865696 0  0.02312239918944797 -0.0163091792113279 0  0.02151794872739572 -0.01631169480165203 0  0.02071699190014966 -0.01769178237767185 0  0.01991864151581862 -0.01630076657528173 0  0.02230787916755419 -0.01496283314999557 0  0.01911396195607112 -0.01767359176965567 0  0.01833757300225202 -0.01628469459082531 0  0.02383691854445111 -0.01494090408055321 0  0.02308047071201105 -0.01367436950095414 0  0.024567293173
[...]
<PointData  Vectors="flow"> 
<DataArray  type="Float64"  Name="flow"  NumberOfComponents="3" format="ascii">-1.8564094904696880e-10 4.1001117973542948e-10 0.0000000000000000e+00  3.2224193756565841e-10 9.3791510050224390e-11 0.0000000000000000e+00  -2.1786247405693679e-13 1.2208171385181850e-12 0.0000000000000000e+00  7.8754049143941129e-14 -7.2499500003340679e-13 0.0000000000000000e+00  3.4878312100962677e-10 5.4152282779797118e-10 0.0000000000000000e+00  -4.1471829334826347e-10 1.4093666079718587e-10 0.0000000000000000e+00  2.4391578296578820e-10 -2.1561049359611258e-10 0.0000000000000000e+00  -2.7571392355628071e-10 1.3217110022528456e-10 0.0000000000000000e+00  1.6539719041373293e-10 -8.4996260623653343e-11 0.0000000000000000e+00  2.1273766765755305e-10 1.1113779725890910e-10 0.0000000000000000e+00  -6.3734555046243177e-12 1.4202931981135547e-09 0.0000000000000000e+00  -6.2435481296846651e-11 4.8497323312554966e-10 0.0000000000000000e+00  -4.5745621639049452e-10 3.9338055454526664e-10 0.0000000000000000e+00  2.9321416943769738e-10 -1.6459476545156578e-10 0.0000000000000000e+00  2.1639041046902806e-11 -2.7134596115827422e-10 0.0000000000000000e+00  5.0548785805795669e-10 4.8578490397456413e-10 0.0000000000000000e+00  -6.4742001283647560e-10 4.1564287280370986e-10 0.0000000000000000e+00  2.3068663404265769e-11 -5.4780036865660099e-10 0.0000000000000000e+00  5.4031128478154605e-10 8.8901852000941344e-10 0.0000000000000000e+00  -3.0082175143575599e-10 6.0813377995785218e-10 0.0000000000000000e+00  -1.9971374802721336e-10 1.0967000876086072e-10 0.0000000000000000e+00  1.1908497251152254e-10 4.4475909128527512e-11 0.0000000000000000e+00  -1.2828563505137924e-10 -2.5762592952498231e-10 0.0000000000000000e+00  4.3460859943154383e-10 -3.8411462310663559e-10 0.0000000000000000e+00  -1.5153884318611873e-10 -6.7769530812771902e-10 0.0000000000000000e+00  -4.2904468163020653e-10 -8.6596725928841628e-10 0.0000000000000000e+00  3.1063164948708412e-10 -1.7595114515322521e-09 0.0000000000000000e+00  -3.7788541408103111e-10 -5.6844340011732172e-10 0.0000000000000000e+00  5.3800863758032066e-11 -8.4944448126571819e-10 0.0000000000000000e+00  3.7476779327638033e-10 3.0765939689384800e-10 0.0000000000000000e+00  -2.4938022013800156e-10 7.5314905876656057e-10 0.0000000000000000e+00  9.1194693035273914e-11 -4.0213139856350266e-10 0.0000000000000000e+00  1.4259207691993858e-10 -6.8303012486276573e-11 0.0000000000000000e+00  1.6766771876221574e-11 2.6353299867718351e-10 0.0000000000000000e+00  1.1926402923026364e-10 1.4602867630915939e-09 0.0000000000000000e+00  -1.7165240753275737e-11 1.2282634150310872e-09 0.0000000000000000e+00  -6.6501716424271597e-11 4.6001399922631955e-10 0.0000000000000000e+00  1.6218693748740224e-10 1.0252378677480460e-09 0.0000000000000000e+00  -9.9941237176324304e-11 5.3785215360364017e-10 0.0000000000000000e+00  3.3159340165530607e-11 1.7231832993042846e-10 0.0000000000000000e+00  -1.9551498715818371e-10 2.7360355949899444e-10 0.0000000000000000e+00  7.6823865431996200e-11 -7.9640516369202705e-11 0.0000000000000000e+00  -4.7563838666514977e-11 4.7047154745439479e-10 0.0000000000000000e+00  2.1208187369637818e-10 3.2829635510987103e-10 0.0000000000000000e+00  -3.8481128364851310e-10 -2.3439083601105950e-11 0.0000000000000000e+00  -9.1030226668775392e-11 -5.1342298665018596e-10 0.0000000000000000e+00  -1.0981707767087654e-10 -4.5987131965192733e-10 0.0000000000000000e+00  2.0910785221708734e-10 -6.8069578990626420e-10 0.0000000000000000e+00  2.3380434341991383e-10 -2.2047436089107408e-10 0.0000000000000000e+00  -2.3197830628242518e-10 1.0417183630170939e-10 0.0000000000000000e+00  5.1868074293263837e-10 -4.7346498792275317e-10 0.0000000000000000e+00  -2.4763503739153217e-10 4.1217412824132905e-10 0.0000000000000000e+00  -1.0159195207748962e-10 3.3802942066867401e-10 0.0000000000000000e+00  -4.7037135470341566e-11 6.7451668146887945e-11 0.0000000000000000e+00  2.2215583654367139e-11 -1.3957065741862784e-10 0.0000000000000000e+00  1.6239782833837652e-10 2.4195125128869850e-10 0.0000000000000000e+00  1.9391306614647520e-12 -4.9054134351107277e-10 0.0000000000000000e+00  3.3075696742527744e-11 2.3671317628785040e-10 0.0000000000000000e+00  3.8806560572591879e-11 5.3149971833040528e-10 0.0000000000000000e+00  -2.0887208523305158e-10 -3.4270706482543664e-11 0.0000000000000000e+00  1.7918565511706279e-10 -2.2479364123726485e-10 0.0000000000000000e+00  -3.8020366254054553e-11 7.0066053900848989e-10 0.0000000000000000e+00  1.6580333906497342e-10 2.5491341350866766e-10 0.0000000000000000e+00  -1.7306317080222279e-10 3.4126189012769752e-10 0.0000000000000000e+00  6.0383193186547482e-11 4.0183824792129278e-10 0.0000000000000000e+00  1.6169679614311970e-10 4.2672498909588389e-10 0.0000000000000000e+00  -3.1973332268419095e-10 7.4953224940662601e-10 0.0000000000000000e+00  1.6583735309693700e-10 -7.9806681302714109e-11 0.0000000000000000e+00  1.7457425135398440e-10 4.5467470296899885e-10 0.0000000000000000e+00  -1.9090538809152427e-11 1.6978179346315851e-10 0.0000000000000000e+00  -1.4784246381943330e-10 5.1890220839073672e-10 0.0000000000000000e+00  4.1087143476628703e-10 2.7990201298084744e-10 0.0000000000000000e+00  -4.6767266316828854e-10 7.1797598865293292e-10 0.0000000000000000e+00  -1.7176380370716013e-10 1.5413606189423755e-10 0.0000000000000000e+00  2.6148646442126041e-10 -8.6435397384593141e-11 0.0000000000000000e+00  8.3173425579974522e-11 7.3260891547343687e-10 0.0000000000000000e+00  -5.6046666512740114e-11 3.5983931328711468e-10 0.0000000000000000e+00  2.0102745733190410e-10 7.9329842060785412e-10 0.0000000000000000e+00  -3.0372017705684075e-10 3.6980452089281727e-10 0.0000000000000000e+00  -1.1794140505621704e-10 -8.3008299015217655e-11 0.0000000000000000e+00  -5.2538558807803973e-11 -3.3073854623182534e-10 0.0000000000000000e+00  3.6525521449037979e-10 -5.3712266313933371e-10 0.0000000000000000e+00  1.8460182927225322e-10 9.9588540767382691e-11 0.0000000000000000e+00  5.4342024645902803e-10 -1.7409584058487418e-10 0.0000000000000000e+00  3.2630618022735734e-10 7.0177352216606801e-11 0.0000000000000000e+00  4.0620126744460326e-10 -1.3729346873242535e-10 0.0000000000000000e+00  2.0521212972559042e-10 8.6457681159782812e-11 0.0000000000000000e+00  -8.5984427272993600e-12 1.4678596854040536e-10 0.0000000000000000e+00  -4.2374571426389757e-11 -2.3722309485562973e-11 0.0000000000000000e+00  -1.4504305038959857e-10 1.5999471773016737e-11 0.0000000000000000e+00  -3.1872449149747666e-10 1.0206051714856258e-10 0.0000000000000000e+00  -1.6203082857901050e-10 -1.1639765812129321e-10 0.0000000000000000e+00  -1.0441595760784792e-10 -1.9533023028559936e-12 0.0000000000000000e+00  -6.3166587759657511e-11 -1.3258343519340268e-11 0.0000000000000000e+00  -6.8196124668080997e-12 -3.8195393056502431e-11 0.0000000000000000e+00  -9.1071038465067249e-11 9.2969834880240175e-11 0.0000000000000000e+00  -9.8882863683868744e-11 -5.9417016221961131e-11 0.0000000000000000e+00  -3.9119716804540473e-11 3.9423711830820895e-12 0.0000000000000000e+00  1.7636331485148837e-11 -6.9824591211344816e-12 0.0000000000000000e+00  -3.9450705504227475e-11 1.7613106350870093e-11 0.0000000000000000e+00  1.0201364978416797e-11 -4.5893011729338241e-12 0.0000000000000000e+00  1.7457272400187537e-11 -2.1836458381900913e-11 0.0000000000000000e+00  1.8208050723580897e-11 2.2814012825825545e-12 0.0000000000000000e+00  8.5479036548512823e-12 7.7125933068196028e-12 0.0000000000000000e+00  -6.4380578925929911e-12 3.7849175753325183e-12 0.0000000000000000e+00  -1.6739893448377278e-11 -4.3903230780450226e-13 0.0000000000000000e+00  -1.7906545115342108e-11 4.1438573580253299e-12 0.0000000000000000e+00  2.1039930958205043e-12 -3.6406552531838223e-12 0.0000000000000000e+00  5.0096642159628223e-12 -1.3021633726742766e-12 0.0000000000000000e+00  7.5390474692746379e-12 -7.6799496711858040e-13 0.0000000000000000e+00  1.6103207574433393e-12 -9.8360732276294270e-13 0.0000000000000000e+00  1.1659876453728004e-11 5.9486161670203223e-12 0.0000000000000000e+00  6.4521835785668469e-12 -6.0982869385144931e-12 0.0000000000000000e+00  5.3195019113587367e-12 1.1399414820737767e-12 0.0000000000000000e+00  -2.7650856225146698e-12 4.0025057521961294e-12 0.0000000000000000e+00  1.4296631931028107e-13 -3.5135889171512345e-12 0.0000000000000000e+00  1.9425504930891406e-12 1.7589397035994950e-12 0.0000000000000000e+00  8.8924070749822853e-13 2.0624846816028836e-13 0.0000000000000000e+00  1.4863268525892869e-12 -1.9190315161718590e-12 0.0000000000000000e+00  4.1312822666500387e-13 1.4128363054143569e-12 0.0000000000000000e+00  -3.3059062324286433e-13 6.3457891493155869e-13 0.0000000000000000e+00  6.0834839879548416e-14 4.5574814739198818e-13 0.0000000000000000e+00  -5.7538240635529508e-14 -9.9649650044869812e-14 0.0000000000000000e+00  2.0552386393657538e-13 -1.6988731712121863e-13 0.0000000000000000e+00  8.8321954482776725e-13 -4.3349081499649043e-13 0.0000000000000000e+00  -3.0986629282459412e-13 -1.7829588229275229e-13 0.0000000000000000e+00  -1.4498308731656460e-12 8.5503088654474357e-13 0.0000000000000000e+00  3.1798253190184420e-12 -9.4961649141145150e-13 0.0000000000000000e+00  2.2090371176901835e-12 -4.0712260580123389e-13 0.0000000000000000e+00  5.7502307153370363e-12 -1.0126826825499521e-12 0.0000000000000000e+00  3.2479109243108622e-12 1.7458674773601184e-12 0.0000000000000000e+00  -9.2031529680589172e-13 1.8779738280029287e-12 0.0000000000000000e+00  -5.3663150826490971e-12 3.4217794190740737e-12 0.0000000000000000e+00  -1.2151705694429244e-11 -6.5266244589693226e-12 0.0000000000000000e+00  8.4124926146124144e-13 8.8471757485626221e-12 0.0000000000000000e+00  -3.9689082019570617e-12 -1.3846856540547850e-11 0.0000000000000000e+00  -1.5010611903060874e-12 4.7323601538230437e-12 0.0000000000000000e+00  -2.1177742691137515e-12 -3.2246264751900384e-12 0.0000000000000000e+00  2.3818070133491052e-11 -5.8833234932085297e-12 0.0000000000000000e+00  2.8202151271050554e-11 9.9289693681332768e-12 0.0000000000000000e+00  5.3761567159722783e-11 -1.3736974448878408e-11 0.0000000000000000e+00  3.6569162706398779e-11 1.8916597032250129e-11 0.0000000000000000e+00  9.4674194290455624e-12 2.3766193842261287e-12 0.0000000000000000e+00  5.0239905560688010e-12 -1.2121229704001913e-11 0.0000000000000000e+00  -1.5170486054251604e-11 9.8291344227903876e-12 0.0000000000000000e+00  4.4049758203314999e-11 1.0950197841461178e-12 0.0000000000000000e+00  2.8141699438277574e-11 3.6436277661089358e-11 0.0000000000000000e+00  -2.2833149926965852e-11 -3.4332907996556652e-11 0.0000000000000000e+00  3.6495098379939556e-11 -2.4363927026195617e-11 0.0000000000000000e+00  1.2722469521136396e-10 -2.7970355608816088e-11 0.0000000000000000e+00  1.0001821945878053e-11 3.7805154050012365e-11 0.0000000000000000e+00  -6.4636725798621025e-11 5.3106518704516162e-11 0.0000000000000000e+00  -1.1492930792508624e-10 3.1240760818654558e-11 0.0000000000000000e+00  -1.0519636516196178e-10 -8.6890014513836523e-11 0.0000000000000000e+00  -9.3301146443852857e-11 -1.9281787338533186e-12 0.0000000000000000e+00  -7.1210986174549733e-11 -4.2325061073483109e-11 0.0000000000000000e+00  1.2665709862788804e-10 1.3788761656789035e-10 0.0000000000000000e+00  4.3933643025128267e-11 -1.0333815442502691e-10 0.0000000000000000e+00  -1.0431281801128098e-10 8.5827839759586931e-11 0.0000000000000000e+00  -2.8299130575040734e-10 3.7018475645433261e-11 0.0000000000000000e+00  -8.9156702840463299e-11 -7.1241486443536024e-11 0.0000000000000000e+00  -3.1386733119075753e-10 -1.8910439289263340e-10 0.0000000000000000e+00  7.2900017623284267e-11 -1.0728408051232970e-10 0.0000000000000000e+00  4.6439274199366003e-11 7.6309901266134176e-11 0.0000000000000000e+00  -4.8996289167784148e-11 -1.2371844704410238e-10 0.0000000000000000e+00  2.6655347452703632e-10 2.0652071481816580e-10 0.0000000000000000e+00  -2.4141884100495603e-11 -1.9508683077504545e-10 0.0000000000000000e+00  -6.7473953687780765e-12 -1.0025818569644869e-11 0.0000000000000000e+00  6.3695896734314112e-13 1.4421033412442172e-11 0.0000000000000000e+00  3.0838543917948620e-11 8.3125294336742965e-11 0.0000000000000000e+00  -6.9092900298494313e-11 5.2901002806137459e-10 0.0000000000000000e+00  6.1690885849053526e-11 1.0268232102832732e-10 0.0000000000000000e+00  -1.3627271427203976e-10 -3.7565064443655917e-11 0.0000000000000000e+00  4.3629901606552915e-11 6.2863634684365806e-12 0.0000000000000000e+00  1.7952180636376465e-11 5.8636650756436594e-12 0.0000000000000000e+00  7.4935862998569111e-12 -5.6387921772486429e-12 0.0000000000000000e+00  1.1919751175990833e-11 -2.6807676459983704e-12 0.0000000000000000e+00  1.5415242704353000e-11 8.7000890280009006e-11 0.0000000000000000e+00  -8.3573711844781574e-11 5.9835942959293587e-10 0.0000000000000000e+00  -3.6574983564108269e-11 -1.7263994070437362e-11 0.0000000000000000e+00  -5.9897329064569794e-11 -6.8406279780184052e-11 0.0000000000000000e+00  5.1066058116917240e-12 9.7188296980832944e-12 0.0000000000000000e+00  -1.4922433388536841e-12 8.3928087093315474e-13 0.0000000000000000e+00  -1.8015897217726056e-12 -3.0363876324081536e-12 0.0000000000000000e+00  8.2202597970169694e-11 -8.9857772127110021e-11 0.0000000000000000e+00  -4.2712255391065619e-11 -3.0583879298052152e-10 0.0000000000000000e+00  -1.2353143973456915e-12 -3.4246333176289653e-12 0.0000000000000000e+00  4.6558309517494439e-12 7.7354275441723109e-11 0.0000000000000000e+00  6.8479346892863076e-12 1.3655800953566864e-10 0.0000000000000000e+00  -5.3457586185296580e-13 5.3174770928158667e-13 0.0000000000000000e+00  1.5396917155232594e-12 -1.0033606210501821e-12 0.0000000000000000e+00  7.4829692922068354e-11 -2.3368989032572969e-10 0.0000000000000000e+00  2.7692687527952795e-11 1.2841664628831318e-10 0.0000000000000000e+00  4.9886850854842121e-10 -9.3601246504221747e-11 0.0000000000000000e+00  -2.0039022524426521e-10 8.8035321834780057e-12 0.0000000000000000e+00  -1.6396927308317569e-10 -1.9014140431585833e-10 0.0000000000000000e+00  1.5886658567057692e-10 -1.2421561154749166e-10 0.0000000000000000e+00  -2.7776247645573599e-11 4.7321476376614955e-11 0.0000000000000000e+00  7.0346039603798190e-11 3.0601553391605204e-11 0.0000000000000000e+00  1.8415691074518632e-13 -2.2085713377265948e-13 0.0000000000000000e+00  4.0038901926578883e-12 -7.2241240875051998e-12 0.0000000000000000e+00  -1.2843423638595262e-11 4.2844536356225847e-11 0.0000000000000000e+00  -2.7555727506137682e-11 -2.3833515573841680e-11 0.0000000000000000e+00  2.7671397735786999e-11 -1.4226450073437907e-11 0.0000000000000000e+00  1.2998135683504139e-12 -1.6765474629775409e-11 0.0000000000000000e+00  -1.5317766910211860e-11 5.1967785051663443e-12 0.0000000000000000e+00  1.1232268624061785e-12 8.2412488128362057e-12 0.0000000000000000e+00  2.1075067926211199e-12 -2.7514048030796586e-12 0.0000000000000000e+00  1.3574286093003624e-12 1.4800349974776583e-12 0.0000000000000000e+00  1.4098721943375700e-12 2.1917046870809607e-13 0.0000000000000000e+00  -1.7477528141682723e-12 2.1982010558686868e-12 0.0000000000000000e+00  -1.0517855905662537e-11 -6.0768599087821079e-12 0.0000000000000000e+00  5.2072872074489997e-11 -8.6943185235775344e-11 0.0000000000000000e+00  -2.4210383607512284e-11 1.2620349301120570e-12 0.0000000000000000e+00  -1.3360636339988270e-11 3.7238105943696533e-10 0.0000000000000000e+00  -3.7831881904366910e-10 -1.3223119035374257e-10 0.0000000000000000e+00  4.1506554549880379e-11 -7.0298852196936209e-11 0.0000000000000000e+00  1.7427130464925203e-10 3.2736155552392880e-10 0.0000000000000000e+00  -1.2699219893710287e-10 -2.3502458665628094e-10 0.0000000000000000e+00  2.5558659800680507e-10 -6.5935260942677319e-11 0.0000000000000000e+00  2.2455339371139821e-10 -1.3742279366251657e-10 0.0000000000000000e+00  8.5629962366239525e-11 6.6367676244023375e-10 0.0000000000000000e+00  4.7460091115762477e-11 -4.7389714872297583e-11 0.0000000000000000e+00  6.8263199835750770e-11 1.1575942668929991e-10 0.0000000000000000e+00  -8.7163980126816531e-13 -9.0197840579237288e-13 0.0000000000000000e+00  -5.7279574920145599e-13 -5.9890741172917848e-13 0.0000000000000000e+00  3.3390080429111770e-11 1.2245200431163587e-11 0.0000000000000000e+00  -3.6826916211737209e-11 7.3878829470857336e-11 0.0000000000000000e+00  -4.4173509256643191e-13 4.5390795436315610e-13 0.0000000000000000e+00  -9.5622101680510766e-13 3.8874161542072528e-14 0.0000000000000000e+00  -4.9982475406864577e-13 -2.2514430039140690e-13 0.0000000000000000e+00  6.7524722151124186e-13 1.2921849855141047e-13 0.0000000000000000e+00  -4.5625529300664132e-13 9.2052536467072253e-13 0.0000000000000000e+00  1.7916689236379916e-13 6.3905171192097874e-14 0.0000000000000000e+00  -1.1094394939446625e-13 2.0357205150554046e-13 0.0000000000000000e+00  -1.2770825430207271e-12 -2.5217084291932742e-14 0.0000000000000000e+00  1.9173715706163657e-12 -5.2893488510610886e-13 0.0000000000000000e+00  -1.1680419615404645e-12 3.5810071663593009e-13 0.0000000000000000e+00  -1.5830324929536496e-12 1.2429674561414063e-12 0.0000000000000000e+00  -1.0836634863152191e-12 -1.6362375496988454e-12 0.0000000000000000e+00  -1.8928253068368168e-12 -2.6091912793463720e-13 0.0000000000000000e+00  4.9556999655849446e-12 -2.7963208328551402e-12 0.0000000000000000e+00  -3.4911331088967949e-12 -2.2492615410824184e-12 0.0000000000000000e+00  -7.3136446520665914e-13 3.6655012196445164e-12 0.0000000000000000e+00  5.2016042130292296e-12 1.8853990756110691e-12 0.0000000000000000e+00  1.9570177180646063e-12 1.2066049040088476e-12 0.0000000000000000e+00  -3.1564094203910405e-12 -1.6754475109760779e-13 0.0000000000000000e+00  -2.8451826447729816e-12 -6.5111565781992276e-12 0.0000000000000000e+00  5.2134573632176729e-12 -4.3318633755436365e-13 0.0000000000000000e+00  3.2361626523955378e-13 6.0256485030523799e-12 0.0000000000000000e+00  -3.2962465111774039e-12 6.1916601473965617e-12 0.0000000000000000e+00  -6.7125324472598003e-12 5.2828480490782013e-12 0.0000000000000000e+00  -1.0028263864428684e-12 2.7616474373942484e-13 0.0000000000000000e+00  -9.9427409966430013e-12 -2.9344231122840704e-12 0.0000000000000000e+00  1.1164669741134618e-11 -9.9392747491833965e-12 0.0000000000000000e+00  7.7119799287002680e-12 7.8282551582464986e-13 0.0000000000000000e+00  -7.5040597362320481e-12 1.9191367109705891e-13 0.0000000000000000e+00  -1.2238866272933029e-11 -7.0383020142482583e-12 0.0000000000000000e+00  7.6767959344081768e-12 3.7934382255059242e-12 0.0000000000000000e+00  -1.1959321418041503e-11 2.7368921269873439e-12 0.0000000000000000e+00  -4.0446043133505965e-12 -7.9789178318873183e-12 0.0000000000000000e+00  -1.8581519024760107e-11 1.0312484861032706e-11 0.0000000000000000e+00  1.2327250001352177e-11 1.5300789331925380e-11 0.0000000000000000e+00  5.8955147398811142e-12 6.9746057428943342e-12 0.0000000000000000e+00  4.5709439285578942e-13 -8.3300199100670163e-12 0.0000000000000000e+00  -6.5911980690098401e-12 -1.1315702722347719e-11 0.0000000000000000e+00  2.0581100050334286e-11 -1.6089637186996501e-11 0.0000000000000000e+00  -1.2605124461103619e-11 1.1611286775849130e-11 0.0000000000000000e+00  -1.9479392220769576e-12 1.4720760603885117e-11 0.0000000000000000e+00  7.2679120533471026e-12 1.8258941379549193e-11 0.0000000000000000e+00  -2.6038405501138519e-11 1.8647829050108061e-11 0.0000000000000000e+00  5.7203157192054596e-12 -3.0985372482881092e-11 0.0000000000000000e+00  1.8470861841072288e-11 -4.3748032158227624e-11 0.0000000000000000e+00  3.7674225705160732e-11 4.2405859842599149e-12 0.0000000000000000e+00  -5.4613892001018322e-13 1.1599151693008366e-11 0.0000000000000000e+00  -5.2340885271373231e-11 2.1687189776890556e-11 0.0000000000000000e+00  -2.9253248843039413e-11 3.3732327324853286e-11 0.0000000000000000e+00  1.4858862634764634e-11 1.0271137247167402e-11 0.0000000000000000e+00  -7.4235213254755737e-12 -3.8893655002635124e-11 0.0000000000000000e+00  2.7709001746214331e-11 -1.9879680957668961e-11 0.0000000000000000e+00  4.9137595258038377e-11 -1.9505