<?xml version="1.0"?>
<VTKFile type="UnstructuredGrid"  version="0.1"  >
<UnstructuredGrid>
<Piece  NumberOfPoints="1554" NumberOfCells="2944">
<Points>
<DataArray  type="Float64"  NumberOfComponents="3"  format="ascii">0 0 0  0.05 0 0  0.05 -0.1 0  0 -0.1 0  0.0006329113924050643 0 0  0.001265822784810129 0 0  0.001898734177215193 0 0  0.002531645569620257 0 0  0.003164556962025321 0 0  0.003797468354430385 0 0  0.00443037974683545 0 0  0.005063291139240515 0 0  0.005696202531645579 0 0  0.006329113924050643 0 0  0.006962025316455709 0 0  0.007594936708860772 0 0  0.008227848101265837 0 0  0.008860759493670902 0 0  0.009493670886075967 0 0  0.01012658227848103 0 0  0.0107594936708861 0 0  0.01139240506329116 0 0  0.01202531645569622 0 0  0.01265822784810129 0 0  0.01329113924050635 0 0  0.01392405063291142 0 0  0.01455696202531648 0 0  0.01518987341772155 0 0  0.01582278481012661 0 0  0.01645569620253167 0 0  0.01708860759493673 0 0  0.0177215189873418 0 0  0.01835443037974686 0 0  0.01898734177215192 0 0  0.01962025316455699 0 0  0.02025316455696205 0 0  0.02088607594936711 0 0  0.02151898734177217 0 0  0.02215189873417724 0 0  0.0227848101265823 0 0  0.02341772151898736 0 0  0.02405063291139242 0 0  0.02468354430379749 0 0  0.02531645569620255 0 0  0.02594936708860762 0 0  0.02658227848101268 0 0  0.02721518987341774 0 0  0.0278481012658228 0 0  0.02848101265822787 0 0  0.02911392405063293 0 0  0.02974683544303799 0 0  0.03037974683544306 0 0  0.03101265822784813 0 0  0.03164556962025319 0 0  0.03227848101265825 0 0  0.03291139240506331 0 0  0.03354430379746838 0 0  0.03417721518987343 0 0  0.0348101265822785 0 0  0.03544303797468357 0 0  0.03607594936708863 0 0  0.03670886075949369 0 0  0.03734177215189875 0 0  0.03797468354430381 0 0  0.03860759493670887 0 0  0.03924050632911394 0 0  0.039873417721519 0 0  0.04050632911392407 0 0  0.04113924050632913 0 0  0.04177215189873418 0 0  0.04240506329113925 0 0  0.04303797468354431 0 0  0.04367088607594938 0 0  0.04430379746835444 0 0  0.0449367088607595 0 0  0.04556962025316456 0 0  0.04620253164556962 0 0  0.04683544303797469 0 0  0.04746835443037975 0 0  0.04810126582278482 0 0  0.04873417721518987 0 0  0.04936708860759494 0 0  0.05 -0.0008764624534039011 0  0.05 -0.001796747998277331 0  0.05 -0.002763047819002842 0  0.05 -0.003777662642945664 0  0.05 -0.004843008198704184 0  0.05 -0.005961621020185714 0  0.05 -0.007136164486518962 0  0.05 -0.008369435152759713 0  0.05 -0.009664369334984248 0  0.05 -0.01102405022575231 0  0.05 -0.01245171516555089 0  0.05 -0.01395076334851523 0  0.05 -0.01552476394478985 0  0.05 -0.01717746455289665 0  0.05 -0.01891280017743463 0  0.05 -0.02073490259296818 0  0.05 -0.02264811013263011 0  0.05 -0.02465697805933633 0  0.05 -0.02676628939403253 0  0.05 -0.02898106627571796 0  0.05 -0.03130658199302094 0  0.05 -0.03374837352625826 0  0.05 -0.0363122546307483 0  0.05 -0.0390043297753143 0  0.05 -0.04183100868223239 0  0.05 -0.04479902152724673 0  0.05 -0.04791543499163506 0  0.05 -0.05118766912339436 0  0.05 -0.05462351497286431 0  0.05 -0.05823115311912687 0  0.05 -0.06201917318059941 0  0.05 -0.06599659425752613 0  0.05 -0.07017288639920882 0  0.05 -0.07455799313053731 0  0.05 -0.07916235517485178 0  0.05 -0.08399693531806585 0  0.05 -0.0890732444772248 0  0.05 -0.09440336911374125 0  0.03999999999999999 -0.1 0  0.02999999999999998 -0.1 0  0.02 -0.1 0  0.009999999999999995 -0.1 0  0 -0.09440336914151665 0  0 -0.08907324449716499 0  0 -0.08399693533085423 0  0 -0.07916235518112424 0  0 -0.07455799313088532 0  0 -0.07017288639418245 0  0 -0.06599659424763628 0  0 -0.06201917316632072 0  0 -0.05823115310089969 0  0 -0.05462351495109712 0  0 -0.0511876690984656 0  0 -0.04791543496389521 0  0 -0.04479902149702007 0  0 -0.04183100864981863 0  0 -0.03900432974099029 0  0 -0.03631225459476947 0  0 -0.03374837348792512 0  0 -0.03130658195442013 0  0 -0.02898106623611381 0  0 -0.02676628935360821 0  0 -0.02465697801825972 0  0 -0.02264811009105497 0  0 -0.02073490255103518 0  0 -0.01891280013527211 0  0 -0.01717746451062158 0  0 -0.01552476390250855 0  0 -0.01395076330632414 0  0 -0.01245171512353731 0  0 -0.01102405018399499 0  0 -0.009664369293554062 0  0 -0.008369435111720197 0  0 -0.007136164445926865 0  0 -0.005961620980091481 0  0 -0.004843008159152451 0  0 -0.003777662603975662 0  0 -0.002763047780535835 0  0 -0.00179674796056907 0  0 -0.0008764624163668244 0  0.02499785305334181 -0.0005883320458915306 0  0.02943037974683546 -0.000548117344167362 0  0.02057237329777709 -0.0005287446180530994 0  0.03322784810126585 -0.0005373393096861495 0  0.01677425794674972 -0.0005322724541947724 0  0.04830169150528274 -0.02365254409598323 0  0.00168300145754437 -0.02367379478516428 0  0.03642949305137719 -0.0005190543160617442 0  0.01362218740907669 -0.0005280322826475142 0  0.03960937791880317 -0.0005573779533750087 0  0.01045311747228144 -0.0004942949853096942 0  0.04858238385613768 -0.01638795865393368 0  0.001382472559220159 -0.01636698231302624 0  0.00204814751415424 -0.03255531706708671 0  0.0479686395717156 -0.03247795110264674 0  0.04208860759493672 -0.0005472567036111306 0  0.007911392405063302 -0.000548117344167369 0  0.04886753188284145 -0.01015727362788417 0  0.001068838780639621 -0.01031733386641841 0  0.002566588374160229 -0.04330174605790554 0  0.04732731321596549 -0.04341612281551373 0  0.04675236858254128 -0.0565077619174409 0  0.005363565051914133 -0.0005540993823790336 0  0.04471456828011758 -0.0006733054024164117 0  0.002970650524898356 -0.05656631819955903 0  0.04901586627550847 -0.006543805977373106 0  0.0009437608403435986 -0.00648244041968675 0  0.003395908129391275 -0.06806867338678066 0  0.0462028998095191 -0.06810369688955817 0  0.02691740653035796 -0.0005561576639814964 0  0.02308450412770484 -0.0005627261242821119 0  0.03140601818714063 -0.0005248932151129052 0  0.01867088607594939 -0.000548117344167362 0  0.04645872910779643 -0.0005726402925699189 0  0.003532278600933945 -0.000544980979404093 0  0.04915796303231687 -0.003147868123058582 0  0.0009651973678222008 -0.003133536081384621 0  0.02409629969136109 -0.09155849102570193 0  0.001463675694503737 -0.01304042126719156 0  0.04875098997048143 -0.01318126710414894 0  0.001597446142481276 -0.01982360883152949 0  0.04856417476854837 -0.01970030433800369 0  0.001842620603430285 -0.02793071033610579 0  0.04802770460796459 -0.02768756175901937 0  0.002224186013515837 -0.03765245636883344 0  0.04781700531398361 -0.03780414051243434 0  0.003892554168009436 -0.0768601741560048 0  0.04659344683675115 -0.07681307925697438 0  0.002735649184216971 -0.0495908829071507 0  0.04732429769976428 -0.04949194635957994 0  0.02816455696202533 -0.000548117344167369 0  0.02182463430401193 -0.0004286401269838133 0  0.03447920819777296 -0.0005271693874061914 0  0.01540248163054762 -0.0005096437804725934 0  0.0375760808398555 -0.000525574313076288 0  0.01234322280789459 -0.0005366390899669282 0  0.00920391131281691 -0.0005192598173814969 0  0.04076971547154577 -0.0005523250007232958 0  0.006628260244885435 -0.0005948819644851153 0  0.04335443037974685 -0.0005402762692139004 0  0.04778481012658228 -0.000548117344167362 0  0.002215189873417695 -0.0005339553128171429 0  0.04602702066114506 -0.08655148232833468 0  0.004291540960893531 -0.08653508991400961 0  0.0005639952342539646 -0.001196294505093572 0  0.04928204250931896 -0.001253551398748894 0  0.01500759671486957 -0.09193032701368048 0  0.01989523220542124 -0.08358631088189528 0  0.02745511195059643 -0.08392277558135516 0  0.02419243091066598 -0.07808067200071511 0  0.03016808485228364 -0.07795757857951965 0  0.02677363599421406 -0.0731858161756945 0  0.02196757203003456 -0.07326977264799825 0  0.02419238082906422 -0.06885601987530676 0  0.02889723833448046 -0.06845607220922992 0  0.02617067805316583 -0.06448258447505902 0  0.02185608437631156 -0.06490175850566648 0  0.02403692688470872 -0.06081352828384041 0  0.02845457792833278 -0.05986429477888826 0  0.02572048479186493 -0.05678433919805648 0  0.02208042022562453 -0.05706027503343655 0  0.02383587790280271 -0.05357461250510945 0  0.02713187728061182 -0.05352510881840344 0  0.02540055735626316 -0.05042338850510797 0  0.02201505041274248 -0.05036168685255393 0  0.02378488401090785 -0.0473124504031799 0  0.02722224241537905 -0.04717635269015489 0  0.02542945591489349 -0.04433041803765904 0  0.02172796942054589 -0.04406746570171968 0  0.0238337865061107 -0.04153208670245789 0  0.02684059553842916 -0.04151317813208484 0  0.02521137817246824 -0.03899295014561417 0  0.0225266518348188 -0.0389880136848607 0  0.02375128974598649 -0.03655429871707286 0  0.02652032652881334 -0.03649355033993049 0  0.02503026628131681 -0.03419291727889915 0  0.02214801693937738 -0.03410278424139676 0  0.02372393983283434 -0.03196929846404486 0  0.0262155187860458 -0.03192957970073196 0  0.02507869505894476 -0.02993285641347104 0  0.02738966614350206 -0.02981942944037919 0  0.02615462524413406 -0.02785635661837029 0  0.0236794749884742 -0.02802991066074463 0  0.02502109894891923 -0.02602836563538014 0  0.02730740170391735 -0.02592815918779382 0  0.02607992808057965 -0.02413500436965434 0  0.02378350924928129 -0.02429284861804635 0  0.02495369866992312 -0.02244020999667535 0  0.0268280547798818 -0.02230420925354785 0  0.02579896872069257 -0.02070341625952951 0  0.02402206565677668 -0.02077208115165185 0  0.02490198929565436 -0.01918637895043494 0  0.0266031269342557 -0.01908794287014531 0  0.02316925673538998 -0.01919960611031577 0  0.0239927487867216 -0.01771639003910357 0  0.02233291221197864 -0.01771305782865696 0  0.02312239918944797 -0.0163091792113279 0  0.02151794872739572 -0.01631169480165203 0  0.02071699190014966 -0.01769178237767185 0  0.01991864151581862 -0.01630076657528173 0  0.02230787916755419 -0.01496283314999557 0  0.01911396195607112 -0.01767359176965567 0  0.01833757300225202 -0.01628469459082531 0  0.02383691854445111 -0.01494090408055321 0  0.02308047071201105 -0.01367436950095414 0  0.024567293173
[...]
<PointData  Vectors="flow"> 
<DataArray  type="Float64"  Name="flow"  NumberOfComponents="3" format="ascii">-9.1999125987801404e-11 2.0497462372820879e-10 0.0000000000000000e+00  1.4370373085824249e-10 3.8747391009323529e-11 0.0000000000000000e+00  -1.1230779041400352e-13 3.6666843137883287e-13 0.0000000000000000e+00  5.5307938417476612e-14 -3.0790637900962309e-13 0.0000000000000000e+00  1.7511399811692673e-10 2.7134433315217156e-10 0.0000000000000000e+00  -2.1313946873903470e-10 7.3804063919453430e-11 0.0000000000000000e+00  1.2782942623469580e-10 -1.0630059983967285e-10 0.0000000000000000e+00  -1.4687154375238867e-10 5.5150113874553491e-11 0.0000000000000000e+00  8.5917472671582421e-11 -6.5683067873944654e-11 0.0000000000000000e+00  1.1081726236439992e-10 4.1923977198461403e-11 0.0000000000000000e+00  -4.2584578513213927e-12 7.0430049931438121e-10 0.0000000000000000e+00  -3.1051353487400444e-11 2.3841063197511557e-10 0.0000000000000000e+00  -2.2513966578152789e-10 2.0008775196459067e-10 0.0000000000000000e+00  1.4680074381226142e-10 -6.7515195508801873e-11 0.0000000000000000e+00  9.7631210921363032e-12 -1.3459652137217684e-10 0.0000000000000000e+00  2.5291125153460899e-10 2.4112514184978578e-10 0.0000000000000000e+00  -3.2081932381578184e-10 2.2670164008544514e-10 0.0000000000000000e+00  7.4850507580980909e-12 -2.7198537012343635e-10 0.0000000000000000e+00  2.6453370520402930e-10 4.3791008485093384e-10 0.0000000000000000e+00  -1.4771429496956570e-10 2.9582414308286193e-10 0.0000000000000000e+00  -9.6547726158951335e-11 5.1405539604471044e-11 0.0000000000000000e+00  5.7001832997056809e-11 2.6536979418134517e-11 0.0000000000000000e+00  -6.4100172322195340e-11 -1.1475623201970615e-10 0.0000000000000000e+00  2.1864358713735537e-10 -1.8842863970531939e-10 0.0000000000000000e+00  -7.3022144884597074e-11 -3.3141534847066609e-10 0.0000000000000000e+00  -2.1269329397369529e-10 -4.2464031031384559e-10 0.0000000000000000e+00  1.5260450151216242e-10 -8.7128049198017425e-10 0.0000000000000000e+00  -1.9188471686168914e-10 -2.7773042875538123e-10 0.0000000000000000e+00  2.8562104381966380e-11 -4.2161462042643948e-10 0.0000000000000000e+00  1.8649090658551870e-10 1.5191630668679925e-10 0.0000000000000000e+00  -1.2890900586437431e-10 3.7898887561267712e-10 0.0000000000000000e+00  4.6938346730682262e-11 -1.9044558762518667e-10 0.0000000000000000e+00  6.7610172585483551e-11 -2.6364788529103007e-11 0.0000000000000000e+00  6.0021631791922202e-12 1.0863699955856328e-10 0.0000000000000000e+00  5.3045091808353514e-11 7.0260416930471147e-10 0.0000000000000000e+00  -1.1269376211163681e-12 5.8509777487770072e-10 0.0000000000000000e+00  -3.3013019298009970e-11 2.2006687001205521e-10 0.0000000000000000e+00  8.7140843428928288e-11 5.0971565767097163e-10 0.0000000000000000e+00  -4.7433017336005697e-11 2.8375855992315896e-10 0.0000000000000000e+00  1.6242129464349962e-11 9.5383310908831865e-11 0.0000000000000000e+00  -1.0544596416521045e-10 1.4368189196983127e-10 0.0000000000000000e+00  3.7204478292732554e-11 -5.3068335840495189e-11 0.0000000000000000e+00  -1.8715674653030115e-11 2.3111541231720679e-10 0.0000000000000000e+00  9.7932194730698141e-11 1.6984433260771613e-10 0.0000000000000000e+00  -1.9177039354451737e-10 -2.3290958088691389e-11 0.0000000000000000e+00  -3.5266161618518996e-11 -2.4567622114288535e-10 0.0000000000000000e+00  -6.1466397269859251e-11 -2.2863829739190630e-10 0.0000000000000000e+00  1.0598935733583689e-10 -3.4497946693749763e-10 0.0000000000000000e+00  1.1566476784282094e-10 -1.1430123826780830e-10 0.0000000000000000e+00  -1.1443912011089968e-10 5.1412785241346505e-11 0.0000000000000000e+00  2.6077932256793297e-10 -2.3448186277234795e-10 0.0000000000000000e+00  -1.2305424820365882e-10 2.1465664546495639e-10 0.0000000000000000e+00  -4.9727282053962743e-11 1.7650694920559585e-10 0.0000000000000000e+00  -2.9519767958019434e-11 3.3373745138926716e-11 0.0000000000000000e+00  1.7639521135321848e-11 -6.9182531342310726e-11 0.0000000000000000e+00  7.4927681543197119e-11 1.1788159547795176e-10 0.0000000000000000e+00  2.5826253043138309e-12 -2.4418132057487178e-10 0.0000000000000000e+00  1.8511126587519573e-11 1.1751432218113404e-10 0.0000000000000000e+00  1.7909968157223780e-11 2.6583354724729155e-10 0.0000000000000000e+00  -1.0370533696121771e-10 -1.6659894447617432e-11 0.0000000000000000e+00  8.9123611713164824e-11 -1.0810796200598613e-10 0.0000000000000000e+00  -2.0043883894525191e-11 3.6115171618939435e-10 0.0000000000000000e+00  8.2625842897268382e-11 1.3221687846195352e-10 0.0000000000000000e+00  -8.7382701188178705e-11 1.6950204661453033e-10 0.0000000000000000e+00  2.4402158566492238e-11 1.9432255482877461e-10 0.0000000000000000e+00  9.0752871083675012e-11 2.0481664059130592e-10 0.0000000000000000e+00  -1.6384327936077274e-10 3.8133426869632134e-10 0.0000000000000000e+00  8.3830166897306841e-11 -5.2191238925513136e-11 0.0000000000000000e+00  9.4349945534369846e-11 2.2892364945210963e-10 0.0000000000000000e+00  -1.3293685406433475e-11 9.0384463835852942e-11 0.0000000000000000e+00  -5.2005224307630440e-11 2.5845738509212842e-10 0.0000000000000000e+00  1.8138351011574815e-10 1.4603068611536609e-10 0.0000000000000000e+00  -2.3210812681798609e-10 3.5618743649706651e-10 0.0000000000000000e+00  -9.1495025165016301e-11 7.6107691524159992e-11 0.0000000000000000e+00  1.3160490343491170e-10 -4.3566914327522745e-11 0.0000000000000000e+00  4.3893284710916990e-11 3.6832963807140525e-10 0.0000000000000000e+00  -2.7005879505911102e-11 1.8303490397286874e-10 0.0000000000000000e+00  9.4005160784881987e-11 3.9423212018384903e-10 0.0000000000000000e+00  -1.5509525030096418e-10 1.6521644287180003e-10 0.0000000000000000e+00  -5.7021837592325510e-11 -4.4285587242208010e-11 0.0000000000000000e+00  -2.7344716211707954e-11 -1.8407351540978903e-10 0.0000000000000000e+00  1.9480494403979687e-10 -2.6389401063537059e-10 0.0000000000000000e+00  9.9354136870332836e-11 5.2136156938322304e-11 0.0000000000000000e+00  2.7322017052324338e-10 -8.8486339123010464e-11 0.0000000000000000e+00  1.6122501864576233e-10 3.6097051805877229e-11 0.0000000000000000e+00  2.0483071160132146e-10 -6.9271359999181137e-11 0.0000000000000000e+00  1.0038278066613410e-10 4.2674950284722224e-11 0.0000000000000000e+00  -6.0042482100417402e-12 7.4263554857368744e-11 0.0000000000000000e+00  -2.1539684483358660e-11 -1.2454378659202695e-11 0.0000000000000000e+00  -7.3640113423219229e-11 7.9057237268006390e-12 0.0000000000000000e+00  -1.5958600694962903e-10 5.0909156813570531e-11 0.0000000000000000e+00  -8.0470483148976335e-11 -5.8154842817251141e-11 0.0000000000000000e+00  -5.2095296089353231e-11 -6.5499814180296383e-13 0.0000000000000000e+00  -3.0908074739374266e-11 -7.3060585403187246e-12 0.0000000000000000e+00  -3.8338957002345231e-12 -1.8104495087114139e-11 0.0000000000000000e+00  -4.7023032623037157e-11 4.5653551669177477e-11 0.0000000000000000e+00  -4.9458624313707062e-11 -2.8972194818721325e-11 0.0000000000000000e+00  -1.9691255556748412e-11 1.3591510666577893e-12 0.0000000000000000e+00  9.3622479334538069e-12 -3.4259099208021923e-12 0.0000000000000000e+00  -1.9022362625727465e-11 8.3373419097701396e-12 0.0000000000000000e+00  5.1430918118718495e-12 -1.4996952967964693e-12 0.0000000000000000e+00  7.6607807362615875e-12 -1.0464168013532251e-11 0.0000000000000000e+00  8.5240107167481926e-12 5.1619237507203136e-13 0.0000000000000000e+00  3.9355843228087624e-12 4.0439324281210574e-12 0.0000000000000000e+00  -3.2091089593348774e-12 1.9407174702087538e-12 0.0000000000000000e+00  -8.5594365509945992e-12 -3.8359837707332646e-13 0.0000000000000000e+00  -8.9572515317671352e-12 2.2433197913400564e-12 0.0000000000000000e+00  1.0647370840611892e-12 -1.8823571565343169e-12 0.0000000000000000e+00  2.6678913510273840e-12 -9.2286909643642632e-13 0.0000000000000000e+00  4.0222223519393164e-12 -1.1599820224096898e-13 0.0000000000000000e+00  8.5018849603859214e-13 -4.2203426166677882e-13 0.0000000000000000e+00  5.2665335808436706e-12 2.8075737919979966e-12 0.0000000000000000e+00  1.6108081856281608e-12 -2.8812618521706932e-12 0.0000000000000000e+00  2.3651274495851037e-12 5.1727515399384632e-13 0.0000000000000000e+00  -1.4208884268121079e-12 2.0005462415855778e-12 0.0000000000000000e+00  2.5768327895169103e-14 -1.7672828772976165e-12 0.0000000000000000e+00  8.8361767626019986e-13 8.3960751212190573e-13 0.0000000000000000e+00  4.3695502500556443e-13 8.7610190538834264e-14 0.0000000000000000e+00  7.1117139114602219e-13 -8.0477617264593510e-13 0.0000000000000000e+00  -2.3557136885199727e-13 5.2857606650742067e-13 0.0000000000000000e+00  -4.9403764167663481e-14 2.3696502164270831e-13 0.0000000000000000e+00  -2.3337571552066764e-15 1.8334964366001323e-13 0.0000000000000000e+00  -3.5317570687338082e-14 -7.2334645283702335e-14 0.0000000000000000e+00  1.1769663944351901e-13 -1.0106154409504566e-13 0.0000000000000000e+00  3.8561519686962891e-13 -1.8263579690725084e-13 0.0000000000000000e+00  -2.5215293856030647e-13 -8.2512947810953668e-14 0.0000000000000000e+00  -7.4575593260195362e-13 3.8098157573548333e-13 0.0000000000000000e+00  1.6653036730785316e-12 -5.1529607057763061e-13 0.0000000000000000e+00  1.2855467479888091e-12 -2.5154216841445048e-13 0.0000000000000000e+00  3.0959112488214960e-12 -5.0767432559732222e-13 0.0000000000000000e+00  1.9388121709798101e-12 9.4111644503387408e-13 0.0000000000000000e+00  -5.7032258036118203e-13 1.0352088690452507e-12 0.0000000000000000e+00  -2.3663307766442700e-12 1.5087459854898402e-12 0.0000000000000000e+00  -5.9872158861464208e-12 -3.2883644696650176e-12 0.0000000000000000e+00  1.0796605121837888e-12 4.8379705603441570e-12 0.0000000000000000e+00  -2.2168607059214135e-12 -7.0410189675617125e-12 0.0000000000000000e+00  -7.2743367523529402e-14 1.9689632828981907e-12 0.0000000000000000e+00  -1.3673208863130687e-12 -1.2980559187987630e-12 0.0000000000000000e+00  1.1775514328965638e-11 -2.7237732391914225e-12 0.0000000000000000e+00  1.4866582228590500e-11 4.2795959122825397e-12 0.0000000000000000e+00  2.7280001209807734e-11 -6.5976743835979352e-12 0.0000000000000000e+00  1.8671357214036027e-11 9.6691505789604056e-12 0.0000000000000000e+00  5.1765201171598249e-12 1.1372306991536432e-12 0.0000000000000000e+00  3.4968186165822971e-12 -5.9693666062455691e-12 0.0000000000000000e+00  -7.1320646085596901e-12 5.4029848430783655e-12 0.0000000000000000e+00  2.2393276219034305e-11 -6.9269668916847406e-13 0.0000000000000000e+00  1.4986760062044661e-11 1.9582931964096175e-11 0.0000000000000000e+00  -1.2406213729082047e-11 -1.7700220905545395e-11 0.0000000000000000e+00  1.8736443254889718e-11 -1.1445468981023514e-11 0.0000000000000000e+00  6.2345073136657271e-11 -1.4205596889246768e-11 0.0000000000000000e+00  5.6468399333349862e-12 1.9044612433329766e-11 0.0000000000000000e+00  -3.3679005076223751e-11 2.6849882981780116e-11 0.0000000000000000e+00  -5.7949031077577070e-11 1.2984879017743855e-11 0.0000000000000000e+00  -5.3307981322616846e-11 -4.1068250346810372e-11 0.0000000000000000e+00  -4.8964076725061423e-11 -8.0715403049656817e-13 0.0000000000000000e+00  -3.8533500189193880e-11 -2.5663124043335158e-11 0.0000000000000000e+00  6.5806082119990229e-11 7.6477235321124235e-11 0.0000000000000000e+00  2.0280210030116359e-11 -5.2850697043012053e-11 0.0000000000000000e+00  -4.3312118449061897e-11 3.6109226879667579e-11 0.0000000000000000e+00  -1.4152823397274257e-10 2.3399165175448540e-11 0.0000000000000000e+00  -4.4601592941956331e-11 -3.6611485113128821e-11 0.0000000000000000e+00  -1.6128882514108427e-10 -9.3483163783072777e-11 0.0000000000000000e+00  3.6809969653111208e-11 -5.1044518860428293e-11 0.0000000000000000e+00  2.2749537535222265e-11 3.7459668993493554e-11 0.0000000000000000e+00  -1.6772798804923855e-11 -6.5615246142752863e-11 0.0000000000000000e+00  1.2912493983295765e-10 1.0386786233945602e-10 0.0000000000000000e+00  -1.3826489195018953e-11 -9.6534637747182512e-11 0.0000000000000000e+00  -3.3950792684909825e-12 -4.7935729639324590e-12 0.0000000000000000e+00  -1.0553246099536199e-13 6.8506937746728443e-12 0.0000000000000000e+00  1.6125098917236962e-11 4.2027753364603841e-11 0.0000000000000000e+00  -3.7149965970209112e-11 2.6758699453857142e-10 0.0000000000000000e+00  3.4339398703237817e-11 5.3331047865599044e-11 0.0000000000000000e+00  -6.6488976874627432e-11 -2.3531964315482528e-11 0.0000000000000000e+00  2.1785729941858338e-11 2.5337024805320177e-12 0.0000000000000000e+00  8.2259999927775273e-12 3.5687604017911353e-12 0.0000000000000000e+00  3.8836880942978176e-12 -2.5299925523475899e-12 0.0000000000000000e+00  6.0138617228027742e-12 -1.3297995103535517e-12 0.0000000000000000e+00  1.6962592836990932e-11 4.6850133613212451e-11 0.0000000000000000e+00  -4.9107237643700883e-11 3.0016174121772161e-10 0.0000000000000000e+00  -1.8394176437443262e-11 -8.6613183545045727e-12 0.0000000000000000e+00  -2.8062564657501385e-11 -3.4153487424028307e-11 0.0000000000000000e+00  2.7468211659860288e-12 4.7512798355946159e-12 0.0000000000000000e+00  -7.7569527445019653e-13 4.7224685122175650e-13 0.0000000000000000e+00  -9.1704940397881354e-13 -1.7504687731000841e-12 0.0000000000000000e+00  3.7775793486972793e-11 -4.9983306032282546e-11 0.0000000000000000e+00  -2.1879314377012933e-11 -1.5625681538371235e-10 0.0000000000000000e+00  -5.7298267190489278e-13 -1.5702863815848049e-12 0.0000000000000000e+00  2.8358106818833457e-12 3.9274149404936292e-11 0.0000000000000000e+00  6.6473598694990595e-12 6.9990476295168104e-11 0.0000000000000000e+00  -1.3127322216573126e-13 2.6981730724534002e-13 0.0000000000000000e+00  7.4405252983829369e-13 -2.7604963597034475e-13 0.0000000000000000e+00  3.5720075053620011e-11 -1.1461252076725621e-10 0.0000000000000000e+00  1.4308069885818144e-11 6.7506792110854847e-11 0.0000000000000000e+00  2.4679070520708443e-10 -4.4885927646468681e-11 0.0000000000000000e+00  -9.6443853158944797e-11 7.7484602882938261e-12 0.0000000000000000e+00  -6.7066754608245881e-11 -9.0742355740247094e-11 0.0000000000000000e+00  7.7737691538691421e-11 -6.2701755141649199e-11 0.0000000000000000e+00  -1.4690505924732194e-11 2.5712784004065530e-11 0.0000000000000000e+00  3.9696948894486843e-11 1.5395574997166562e-11 0.0000000000000000e+00  1.1364382007246297e-13 -1.2732694861099945e-13 0.0000000000000000e+00  1.7137103091024588e-12 -3.2485877327781888e-12 0.0000000000000000e+00  -6.4884866253852323e-12 2.1414563056510499e-11 0.0000000000000000e+00  -1.4101841926457842e-11 -1.1613192437472280e-11 0.0000000000000000e+00  1.3813735837346184e-11 -7.0759298150851151e-12 0.0000000000000000e+00  3.0944376436577013e-13 -8.4224247360177290e-12 0.0000000000000000e+00  -7.4217839904207875e-12 2.8382703938629403e-12 0.0000000000000000e+00  2.4095914723746503e-13 4.3818794393509184e-12 0.0000000000000000e+00  9.8880742751077026e-13 -1.4082920357184105e-12 0.0000000000000000e+00  7.4436584147876026e-13 7.9701266361502530e-13 0.0000000000000000e+00  6.1514559872741741e-13 7.0496067447482671e-14 0.0000000000000000e+00  -1.2056124122410738e-12 1.4404101922155178e-12 0.0000000000000000e+00  -5.0823689112270204e-12 -2.9217167284484828e-12 0.0000000000000000e+00  2.4345084896544548e-11 -4.2451756127479814e-11 0.0000000000000000e+00  -9.6623439136331349e-12 5.0197103155385910e-12 0.0000000000000000e+00  -8.4463880577776009e-12 1.9242777741476785e-10 0.0000000000000000e+00  -1.8827513251834668e-10 -6.6340222442110924e-11 0.0000000000000000e+00  2.2231856033542250e-11 -3.7004692592343238e-11 0.0000000000000000e+00  8.8254692892260844e-11 1.5858796776667216e-10 0.0000000000000000e+00  -5.8857570306714471e-11 -1.2029011348921275e-10 0.0000000000000000e+00  1.3358548457481761e-10 -3.2263567669729682e-11 0.0000000000000000e+00  1.1633547498067317e-10 -7.0370582443415051e-11 0.0000000000000000e+00  3.5349257991244039e-11 3.3857430352381198e-10 0.0000000000000000e+00  2.6442639478048407e-11 -2.5180360198423942e-11 0.0000000000000000e+00  3.6150815286998402e-11 5.8723855410676176e-11 0.0000000000000000e+00  -5.0405365952601615e-13 -5.2106089753268938e-13 0.0000000000000000e+00  -3.0669700897020317e-13 -2.6802244116113335e-13 0.0000000000000000e+00  2.1898169781243408e-11 5.9875111646098042e-12 0.0000000000000000e+00  -2.2243845339293114e-11 3.7306853467023341e-11 0.0000000000000000e+00  -2.3923025023030298e-13 2.1428524010607439e-13 0.0000000000000000e+00  -5.1092787011950242e-13 3.0714692385352579e-14 0.0000000000000000e+00  -2.1062981937494697e-13 -1.2254478718566449e-13 0.0000000000000000e+00  3.5097606871217319e-13 5.7515149129887601e-14 0.0000000000000000e+00  -2.1854943952054542e-13 4.6964529206464185e-13 0.0000000000000000e+00  1.0994378401943480e-13 5.5896823528249659e-14 0.0000000000000000e+00  -9.3107096911052998e-14 1.5864238693350852e-13 0.0000000000000000e+00  -7.4310721019419704e-13 -2.7315386428596247e-14 0.0000000000000000e+00  9.6435539426306373e-13 -2.6118178776789921e-13 0.0000000000000000e+00  -5.8242225040370982e-13 2.8663561110806538e-13 0.0000000000000000e+00  -7.7408801148406393e-13 6.6265054963032188e-13 0.0000000000000000e+00  -5.4310088531076249e-13 -9.2328042008816853e-13 0.0000000000000000e+00  -1.0537176373603136e-12 -2.5820038738113532e-13 0.0000000000000000e+00  2.6839640541386456e-12 -1.3976657943335451e-12 0.0000000000000000e+00  -1.8259449318915299e-12 -1.1747223089254129e-12 0.0000000000000000e+00  -4.2644145812268822e-13 2.0500509004414437e-12 0.0000000000000000e+00  2.7298790273195178e-12 9.7885028665012299e-13 0.0000000000000000e+00  9.4571473975366158e-13 3.5260403277927105e-13 0.0000000000000000e+00  -1.6396539390720780e-12 -3.5202365281758576e-13 0.0000000000000000e+00  -1.5133265648491760e-12 -3.2442351994918554e-12 0.0000000000000000e+00  2.8969839071998070e-12 -9.8468233434826374e-15 0.0000000000000000e+00  1.5758295154452491e-13 3.0127323930035674e-12 0.0000000000000000e+00  -1.6782743703448749e-12 3.0026714312709752e-12 0.0000000000000000e+00  -3.2216212700119713e-12 2.8010205985215920e-12 0.0000000000000000e+00  -4.5688132690553709e-13 8.2836484112452569e-14 0.0000000000000000e+00  -5.2672479967497314e-12 -1.5461846851428114e-12 0.0000000000000000e+00  5.2759577594297269e-12 -4.6949171981784776e-12 0.0000000000000000e+00  3.6165777134430895e-12 2.3469797991955283e-13 0.0000000000000000e+00  -3.5322393114084394e-12 1.5956826966975596e-13 0.0000000000000000e+00  -5.9403368704774707e-12 -3.3009772387728980e-12 0.0000000000000000e+00  3.7057461415418531e-12 1.7131113282035466e-12 0.0000000000000000e+00  -5.8075777204662090e-12 1.1874587703056514e-12 0.0000000000000000e+00  -1.7686066192795722e-12 -4.1006880066843880e-12 0.0000000000000000e+00  -9.4655156925446746e-12 5.1489628174117693e-12 0.0000000000000000e+00  6.1040636938866904e-12 7.8042471214896506e-12 0.0000000000000000e+00  3.3934488925262253e-12 3.9193523026893245e-12 0.0000000000000000e+00  -7.4418255132582254e-14 -4.2070209624944728e-12 0.0000000000000000e+00  -2.5789717367997020e-12 -5.4256313613638664e-12 0.0000000000000000e+00  9.7011214187085254e-12 -8.0545463001890105e-12 0.0000000000000000e+00  -6.3235835160603049e-12 5.1324823046675072e-12 0.0000000000000000e+00  -6.2302665134586961e-13 7.5122182710318049e-12 0.0000000000000000e+00  3.8183412992490695e-12 9.2273416508618288e-12 0.0000000000000000e+00  -1.3601836082203998e-11 8.7833725519645695e-12 0.0000000000000000e+00  2.1231390912924814e-12 -1.4963068062845577e-11 0.0000000000000000e+00  9.6431531000707267e-12 -2.2351469339061004e-11 0.0000000000000000e+00  2.0149037676061280e-11 1.7398807138341927e-12 0.0000000000000000e+00  -1.3569608885382367e-12 6.3202991782254038e-12 0.0000000000000000e+00  -2.6255612167550527e-11 1.0044316503764616e-11 0.0000000000000000e+00  -1.3268410598979993e-11 1.7908437649150987e-11 0.0000000000000000e+00  6.2623036492886026e-12 5.4226942969648880e-12 0.0000000000000000e+00  -2.9487371801132244e-12 -1.9364919851161733e-11 0.0000000000000000e+00  1.3993430602059212e-11 -1.0800129818137571e-11 0.0000000000000000e+00  2.4271781763705055e-11 -1