<?xml version="1.0"?>
<VTKFile type="UnstructuredGrid"  version="0.1"  >
<UnstructuredGrid>
<Piece  NumberOfPoints="1554" NumberOfCells="2944">
<Points>
<DataArray  type="Float64"  NumberOfComponents="3"  format="ascii">0 0 0  0.05 0 0  0.05 -0.1 0  0 -0.1 0  0.0006329113924050643 0 0  0.001265822784810129 0 0  0.001898734177215193 0 0  0.002531645569620257 0 0  0.003164556962025321 0 0  0.003797468354430385 0 0  0.00443037974683545 0 0  0.005063291139240515 0 0  0.005696202531645579 0 0  0.006329113924050643 0 0  0.006962025316455709 0 0  0.007594936708860772 0 0  0.008227848101265837 0 0  0.008860759493670902 0 0  0.009493670886075967 0 0  0.01012658227848103 0 0  0.0107594936708861 0 0  0.01139240506329116 0 0  0.01202531645569622 0 0  0.01265822784810129 0 0  0.01329113924050635 0 0  0.01392405063291142 0 0  0.01455696202531648 0 0  0.01518987341772155 0 0  0.01582278481012661 0 0  0.01645569620253167 0 0  0.01708860759493673 0 0  0.0177215189873418 0 0  0.01835443037974686 0 0  0.01898734177215192 0 0  0.01962025316455699 0 0  0.02025316455696205 0 0  0.02088607594936711 0 0  0.02151898734177217 0 0  0.02215189873417724 0 0  0.0227848101265823 0 0  0.02341772151898736 0 0  0.02405063291139242 0 0  0.02468354430379749 0 0  0.02531645569620255 0 0  0.02594936708860762 0 0  0.02658227848101268 0 0  0.02721518987341774 0 0  0.0278481012658228 0 0  0.02848101265822787 0 0  0.02911392405063293 0 0  0.02974683544303799 0 0  0.03037974683544306 0 0  0.03101265822784813 0 0  0.03164556962025319 0 0  0.03227848101265825 0 0  0.03291139240506331 0 0  0.03354430379746838 0 0  0.03417721518987343 0 0  0.0348101265822785 0 0  0.03544303797468357 0 0  0.03607594936708863 0 0  0.03670886075949369 0 0  0.03734177215189875 0 0  0.03797468354430381 0 0  0.03860759493670887 0 0  0.03924050632911394 0 0  0.039873417721519 0 0  0.04050632911392407 0 0  0.04113924050632913 0 0  0.04177215189873418 0 0  0.04240506329113925 0 0  0.04303797468354431 0 0  0.04367088607594938 0 0  0.04430379746835444 0 0  0.0449367088607595 0 0  0.04556962025316456 0 0  0.04620253164556962 0 0  0.04683544303797469 0 0  0.04746835443037975 0 0  0.04810126582278482 0 0  0.04873417721518987 0 0  0.04936708860759494 0 0  0.05 -0.0008764624534039011 0  0.05 -0.001796747998277331 0  0.05 -0.002763047819002842 0  0.05 -0.003777662642945664 0  0.05 -0.004843008198704184 0  0.05 -0.005961621020185714 0  0.05 -0.007136164486518962 0  0.05 -0.008369435152759713 0  0.05 -0.009664369334984248 0  0.05 -0.01102405022575231 0  0.05 -0.01245171516555089 0  0.05 -0.01395076334851523 0  0.05 -0.01552476394478985 0  0.05 -0.01717746455289665 0  0.05 -0.01891280017743463 0  0.05 -0.02073490259296818 0  0.05 -0.02264811013263011 0  0.05 -0.02465697805933633 0  0.05 -0.02676628939403253 0  0.05 -0.02898106627571796 0  0.05 -0.03130658199302094 0  0.05 -0.03374837352625826 0  0.05 -0.0363122546307483 0  0.05 -0.0390043297753143 0  0.05 -0.04183100868223239 0  0.05 -0.04479902152724673 0  0.05 -0.04791543499163506 0  0.05 -0.05118766912339436 0  0.05 -0.05462351497286431 0  0.05 -0.05823115311912687 0  0.05 -0.06201917318059941 0  0.05 -0.06599659425752613 0  0.05 -0.07017288639920882 0  0.05 -0.07455799313053731 0  0.05 -0.07916235517485178 0  0.05 -0.08399693531806585 0  0.05 -0.0890732444772248 0  0.05 -0.09440336911374125 0  0.03999999999999999 -0.1 0  0.02999999999999998 -0.1 0  0.02 -0.1 0  0.009999999999999995 -0.1 0  0 -0.09440336914151665 0  0 -0.08907324449716499 0  0 -0.08399693533085423 0  0 -0.07916235518112424 0  0 -0.07455799313088532 0  0 -0.07017288639418245 0  0 -0.06599659424763628 0  0 -0.06201917316632072 0  0 -0.05823115310089969 0  0 -0.05462351495109712 0  0 -0.0511876690984656 0  0 -0.04791543496389521 0  0 -0.04479902149702007 0  0 -0.04183100864981863 0  0 -0.03900432974099029 0  0 -0.03631225459476947 0  0 -0.03374837348792512 0  0 -0.03130658195442013 0  0 -0.02898106623611381 0  0 -0.02676628935360821 0  0 -0.02465697801825972 0  0 -0.02264811009105497 0  0 -0.02073490255103518 0  0 -0.01891280013527211 0  0 -0.01717746451062158 0  0 -0.01552476390250855 0  0 -0.01395076330632414 0  0 -0.01245171512353731 0  0 -0.01102405018399499 0  0 -0.009664369293554062 0  0 -0.008369435111720197 0  0 -0.007136164445926865 0  0 -0.005961620980091481 0  0 -0.004843008159152451 0  0 -0.003777662603975662 0  0 -0.002763047780535835 0  0 -0.00179674796056907 0  0 -0.0008764624163668244 0  0.02499785305334181 -0.0005883320458915306 0  0.02943037974683546 -0.000548117344167362 0  0.02057237329777709 -0.0005287446180530994 0  0.03322784810126585 -0.0005373393096861495 0  0.01677425794674972 -0.0005322724541947724 0  0.04830169150528274 -0.02365254409598323 0  0.00168300145754437 -0.02367379478516428 0  0.03642949305137719 -0.0005190543160617442 0  0.01362218740907669 -0.0005280322826475142 0  0.03960937791880317 -0.0005573779533750087 0  0.01045311747228144 -0.0004942949853096942 0  0.04858238385613768 -0.01638795865393368 0  0.001382472559220159 -0.01636698231302624 0  0.00204814751415424 -0.03255531706708671 0  0.0479686395717156 -0.03247795110264674 0  0.04208860759493672 -0.0005472567036111306 0  0.007911392405063302 -0.000548117344167369 0  0.04886753188284145 -0.01015727362788417 0  0.001068838780639621 -0.01031733386641841 0  0.002566588374160229 -0.04330174605790554 0  0.04732731321596549 -0.04341612281551373 0  0.04675236858254128 -0.0565077619174409 0  0.005363565051914133 -0.0005540993823790336 0  0.04471456828011758 -0.0006733054024164117 0  0.002970650524898356 -0.05656631819955903 0  0.04901586627550847 -0.006543805977373106 0  0.0009437608403435986 -0.00648244041968675 0  0.003395908129391275 -0.06806867338678066 0  0.0462028998095191 -0.06810369688955817 0  0.02691740653035796 -0.0005561576639814964 0  0.02308450412770484 -0.0005627261242821119 0  0.03140601818714063 -0.0005248932151129052 0  0.01867088607594939 -0.000548117344167362 0  0.04645872910779643 -0.0005726402925699189 0  0.003532278600933945 -0.000544980979404093 0  0.04915796303231687 -0.003147868123058582 0  0.0009651973678222008 -0.003133536081384621 0  0.02409629969136109 -0.09155849102570193 0  0.001463675694503737 -0.01304042126719156 0  0.04875098997048143 -0.01318126710414894 0  0.001597446142481276 -0.01982360883152949 0  0.04856417476854837 -0.01970030433800369 0  0.001842620603430285 -0.02793071033610579 0  0.04802770460796459 -0.02768756175901937 0  0.002224186013515837 -0.03765245636883344 0  0.04781700531398361 -0.03780414051243434 0  0.003892554168009436 -0.0768601741560048 0  0.04659344683675115 -0.07681307925697438 0  0.002735649184216971 -0.0495908829071507 0  0.04732429769976428 -0.04949194635957994 0  0.02816455696202533 -0.000548117344167369 0  0.02182463430401193 -0.0004286401269838133 0  0.03447920819777296 -0.0005271693874061914 0  0.01540248163054762 -0.0005096437804725934 0  0.0375760808398555 -0.000525574313076288 0  0.01234322280789459 -0.0005366390899669282 0  0.00920391131281691 -0.0005192598173814969 0  0.04076971547154577 -0.0005523250007232958 0  0.006628260244885435 -0.0005948819644851153 0  0.04335443037974685 -0.0005402762692139004 0  0.04778481012658228 -0.000548117344167362 0  0.002215189873417695 -0.0005339553128171429 0  0.04602702066114506 -0.08655148232833468 0  0.004291540960893531 -0.08653508991400961 0  0.0005639952342539646 -0.001196294505093572 0  0.04928204250931896 -0.001253551398748894 0  0.01500759671486957 -0.09193032701368048 0  0.01989523220542124 -0.08358631088189528 0  0.02745511195059643 -0.08392277558135516 0  0.02419243091066598 -0.07808067200071511 0  0.03016808485228364 -0.07795757857951965 0  0.02677363599421406 -0.0731858161756945 0  0.02196757203003456 -0.07326977264799825 0  0.02419238082906422 -0.06885601987530676 0  0.02889723833448046 -0.06845607220922992 0  0.02617067805316583 -0.06448258447505902 0  0.02185608437631156 -0.06490175850566648 0  0.02403692688470872 -0.06081352828384041 0  0.02845457792833278 -0.05986429477888826 0  0.02572048479186493 -0.05678433919805648 0  0.02208042022562453 -0.05706027503343655 0  0.02383587790280271 -0.05357461250510945 0  0.02713187728061182 -0.05352510881840344 0  0.02540055735626316 -0.05042338850510797 0  0.02201505041274248 -0.05036168685255393 0  0.02378488401090785 -0.0473124504031799 0  0.02722224241537905 -0.04717635269015489 0  0.02542945591489349 -0.04433041803765904 0  0.02172796942054589 -0.04406746570171968 0  0.0238337865061107 -0.04153208670245789 0  0.02684059553842916 -0.04151317813208484 0  0.02521137817246824 -0.03899295014561417 0  0.0225266518348188 -0.0389880136848607 0  0.02375128974598649 -0.03655429871707286 0  0.02652032652881334 -0.03649355033993049 0  0.02503026628131681 -0.03419291727889915 0  0.02214801693937738 -0.03410278424139676 0  0.02372393983283434 -0.03196929846404486 0  0.0262155187860458 -0.03192957970073196 0  0.02507869505894476 -0.02993285641347104 0  0.02738966614350206 -0.02981942944037919 0  0.02615462524413406 -0.02785635661837029 0  0.0236794749884742 -0.02802991066074463 0  0.02502109894891923 -0.02602836563538014 0  0.02730740170391735 -0.02592815918779382 0  0.02607992808057965 -0.02413500436965434 0  0.02378350924928129 -0.02429284861804635 0  0.02495369866992312 -0.02244020999667535 0  0.0268280547798818 -0.02230420925354785 0  0.02579896872069257 -0.02070341625952951 0  0.02402206565677668 -0.02077208115165185 0  0.02490198929565436 -0.01918637895043494 0  0.0266031269342557 -0.01908794287014531 0  0.02316925673538998 -0.01919960611031577 0  0.0239927487867216 -0.01771639003910357 0  0.02233291221197864 -0.01771305782865696 0  0.02312239918944797 -0.0163091792113279 0  0.02151794872739572 -0.01631169480165203 0  0.02071699190014966 -0.01769178237767185 0  0.01991864151581862 -0.01630076657528173 0  0.02230787916755419 -0.01496283314999557 0  0.01911396195607112 -0.01767359176965567 0  0.01833757300225202 -0.01628469459082531 0  0.02383691854445111 -0.01494090408055321 0  0.02308047071201105 -0.01367436950095414 0  0.024567293173
[...]
<PointData  Vectors="flow"> 
<DataArray  type="Float64"  Name="flow"  NumberOfComponents="3" format="ascii">-4.0482256839054167e-12 8.9927940950239448e-12 0.0000000000000000e+00  9.6906041707385156e-12 5.3519668588490224e-12 0.0000000000000000e+00  4.1274221096789903e-15 3.3603798894412527e-14 0.0000000000000000e+00  -8.8968923479888950e-15 2.2767573621149401e-14 0.0000000000000000e+00  6.7151633728875012e-12 1.1379007306250026e-11 0.0000000000000000e+00  -8.0328070678789018e-12 4.8620338702474296e-13 0.0000000000000000e+00  4.4014530098810514e-12 -4.8542235755231077e-12 0.0000000000000000e+00  -5.7603728366629389e-12 9.9014930242073031e-13 0.0000000000000000e+00  2.7109761537132021e-12 -2.5847761508056501e-12 0.0000000000000000e+00  5.7104084939662413e-12 3.5844641271842122e-12 0.0000000000000000e+00  -7.8436963443927079e-13 2.8034980297679896e-11 0.0000000000000000e+00  -9.1149728799071960e-13 8.1791570761028256e-12 0.0000000000000000e+00  -9.0516204308816205e-12 9.3391920423735683e-12 0.0000000000000000e+00  6.4018083926289076e-12 -2.5092786192231398e-12 0.0000000000000000e+00  -4.3717515474670419e-13 -3.1563051529701608e-12 0.0000000000000000e+00  1.0324792505632979e-11 9.5232504208200282e-12 0.0000000000000000e+00  -1.2918486039990786e-11 1.0005911343021673e-11 0.0000000000000000e+00  -6.6572705455787256e-13 -1.0480688620553652e-11 0.0000000000000000e+00  1.1120609306485410e-11 1.8654448726856345e-11 0.0000000000000000e+00  -8.4037087367722851e-12 7.6738307035696129e-12 0.0000000000000000e+00  -2.7342500023805781e-12 -1.7148499996681048e-12 0.0000000000000000e+00  4.6985805184275705e-12 -1.1517890668854995e-12 0.0000000000000000e+00  -3.8105897406279504e-12 -5.9483663006390713e-12 0.0000000000000000e+00  1.0037746678559759e-11 -7.4273426072989525e-12 0.0000000000000000e+00  -3.1764922343306462e-12 -1.3086376397319935e-11 0.0000000000000000e+00  -1.0335064385770872e-11 -1.9146918619708636e-11 0.0000000000000000e+00  4.3329483147843391e-12 -4.2983856960134903e-11 0.0000000000000000e+00  -5.0285310718658753e-12 -1.4256639129839474e-11 0.0000000000000000e+00  1.8431720267190001e-12 -1.9207150321174092e-11 0.0000000000000000e+00  7.9946839078630487e-12 5.2322636225359096e-12 0.0000000000000000e+00  -6.0734014116524759e-12 1.4860927833694650e-11 0.0000000000000000e+00  3.4522163559645610e-12 -7.3315746561037204e-12 0.0000000000000000e+00  1.2410844047154997e-12 -2.2192739952713667e-12 0.0000000000000000e+00  2.8192224062849126e-12 1.2067129212178452e-12 0.0000000000000000e+00  5.9606973485776829e-13 3.2741755263134586e-11 0.0000000000000000e+00  -2.8959688794709298e-12 2.3621679157308774e-11 0.0000000000000000e+00  8.8360326194926498e-13 1.1819361755903287e-11 0.0000000000000000e+00  3.7352194807096881e-12 1.9345816917242139e-11 0.0000000000000000e+00  -3.6813546641794215e-12 9.5348746910401796e-12 0.0000000000000000e+00  4.0193446687390741e-13 3.2871997268226240e-12 0.0000000000000000e+00  -3.1789920075548533e-12 5.3726608453731244e-12 0.0000000000000000e+00  1.7336146689163711e-12 -9.7601105906052728e-13 0.0000000000000000e+00  -1.7787849316577399e-13 1.2340275657158163e-11 0.0000000000000000e+00  2.4886691209267894e-12 8.8107022482167599e-12 0.0000000000000000e+00  -7.4515792626546917e-12 2.2085346884481706e-13 0.0000000000000000e+00  -8.6891954918411339e-13 -9.2726180845403722e-12 0.0000000000000000e+00  -2.0764019373231266e-12 -8.3687862602388527e-12 0.0000000000000000e+00  4.6143353158091082e-12 -8.2704454931644973e-12 0.0000000000000000e+00  2.8579223051579684e-12 -4.4213781209638643e-12 0.0000000000000000e+00  -2.3815350479749737e-12 3.0614150584483168e-12 0.0000000000000000e+00  9.4004902456252047e-12 -5.6932847495844254e-12 0.0000000000000000e+00  -4.7051423607656002e-12 1.0470966310244176e-11 0.0000000000000000e+00  -1.5292939521730106e-12 8.6245442155322090e-12 0.0000000000000000e+00  -2.1127275696132688e-12 5.5439741841924293e-12 0.0000000000000000e+00  9.0476312159180127e-13 -8.3360679623971367e-13 0.0000000000000000e+00  2.4905214092171037e-12 5.5996318160852196e-12 0.0000000000000000e+00  1.0535444523354684e-12 -7.9172362873682551e-12 0.0000000000000000e+00  1.4183747096415044e-12 9.3719524322016647e-12 0.0000000000000000e+00  -6.2131317337621732e-13 1.3570337076943204e-11 0.0000000000000000e+00  -3.8136223128989985e-12 9.4403877633486883e-14 0.0000000000000000e+00  2.3908488903730122e-12 -2.5502820356298200e-12 0.0000000000000000e+00  1.5256165418271968e-12 1.5926046533190405e-11 0.0000000000000000e+00  2.7200386383627932e-12 8.9498758835666111e-12 0.0000000000000000e+00  -5.8021974188646832e-12 5.2373973970287894e-12 0.0000000000000000e+00  5.5300843364466029e-13 7.3169395156813502e-12 0.0000000000000000e+00  4.2281205129471637e-12 7.1111565718763429e-12 0.0000000000000000e+00  -8.1375484788543140e-12 1.5466576539981546e-11 0.0000000000000000e+00  6.3385015827382183e-12 -1.3676131748695523e-12 0.0000000000000000e+00  1.9727623393094001e-12 9.5745200490608276e-12 0.0000000000000000e+00  -9.5299926978364746e-13 8.5772193114233021e-13 0.0000000000000000e+00  -1.5479978632139240e-12 9.7780510092073653e-12 0.0000000000000000e+00  7.7461731528595441e-12 1.5414114760453059e-12 0.0000000000000000e+00  -9.5643083570455282e-12 1.1979876237595212e-11 0.0000000000000000e+00  -4.7614846869668913e-12 1.8587996878923275e-12 0.0000000000000000e+00  5.5683595299670714e-12 -2.0827219253424121e-12 0.0000000000000000e+00  1.9194882630260050e-12 1.6160590860073136e-11 0.0000000000000000e+00  9.7770515832712616e-13 9.4503339910706896e-12 0.0000000000000000e+00  2.7601822123545355e-12 1.4947791896606979e-11 0.0000000000000000e+00  -5.9908172273892750e-12 7.6810447666175222e-12 0.0000000000000000e+00  -4.5994470463935738e-12 -2.5840381565922083e-13 0.0000000000000000e+00  9.4341095717520905e-13 -8.1366931180944042e-12 0.0000000000000000e+00  7.3615824698799661e-12 -9.6441522767368761e-12 0.0000000000000000e+00  5.6923277994913112e-12 1.0854364256292090e-12 0.0000000000000000e+00  1.2363815657420596e-11 -3.9539227707185020e-12 0.0000000000000000e+00  7.0159256865414660e-12 1.3264808996435063e-12 0.0000000000000000e+00  8.1770813081101308e-12 -2.3666824438141479e-12 0.0000000000000000e+00  3.8413004225669816e-12 1.6886990054427247e-12 0.0000000000000000e+00  -9.1448291558161676e-13 3.3749704329496782e-12 0.0000000000000000e+00  -1.9757172329532620e-12 -5.1085313173691078e-13 0.0000000000000000e+00  -3.4687186195084576e-12 -1.9181283256905834e-14 0.0000000000000000e+00  -6.1987547332817989e-12 2.2865533864760616e-12 0.0000000000000000e+00  -3.7845150347994149e-12 -2.3269350562096684e-12 0.0000000000000000e+00  -2.1792325262933115e-12 -2.9628408969840071e-13 0.0000000000000000e+00  -1.3175820197495960e-12 -1.4544516210791711e-13 0.0000000000000000e+00  -1.0938703798246874e-13 -7.3677207075787217e-13 0.0000000000000000e+00  -1.9800559182880820e-12 1.6921036924740397e-12 0.0000000000000000e+00  -1.9211866913610019e-12 -1.0956116956054283e-12 0.0000000000000000e+00  -9.9031352214293398e-13 1.1155874465348224e-13 0.0000000000000000e+00  3.4180847474594717e-13 -2.4668532936243535e-13 0.0000000000000000e+00  -7.7886204376647358e-13 3.2999983520096777e-13 0.0000000000000000e+00  3.0199152533560115e-13 -4.1471413750004381e-15 0.0000000000000000e+00  2.7348688231507501e-13 -3.2544592787397786e-13 0.0000000000000000e+00  4.1566257366986761e-13 -4.8190295622635579e-14 0.0000000000000000e+00  2.9072070723753051e-13 1.4969585608500621e-13 0.0000000000000000e+00  -2.0681538947286962e-13 1.1923783895518679e-13 0.0000000000000000e+00  -3.8752285725977526e-13 -4.2077819970251238e-14 0.0000000000000000e+00  -4.4358054654176504e-13 1.3419894285217890e-13 0.0000000000000000e+00  -3.9682174738548128e-14 -8.5424992362099501e-14 0.0000000000000000e+00  9.0222505729319883e-14 -1.8069301108769737e-14 0.0000000000000000e+00  7.9812829249011106e-14 -3.7505550844983419e-14 0.0000000000000000e+00  -6.4274276390643592e-14 -1.2540950676883616e-14 0.0000000000000000e+00  2.6722398454754524e-13 1.1784628212127980e-13 0.0000000000000000e+00  1.1769179992662483e-13 -1.1287339269193370e-13 0.0000000000000000e+00  9.3314167665633056e-15 7.3127416017407931e-15 0.0000000000000000e+00  -8.7120509649826381e-14 5.0783545699078101e-14 0.0000000000000000e+00  -1.1024838915952271e-14 -3.6022244794140657e-14 0.0000000000000000e+00  7.0778317756536815e-14 7.0598937883898707e-15 0.0000000000000000e+00  1.0829946140918572e-14 2.8720713223392440e-14 0.0000000000000000e+00  4.8930878311579098e-14 -6.3012404757678645e-14 0.0000000000000000e+00  4.5748342283502330e-14 3.5720842356585644e-14 0.0000000000000000e+00  -8.7529956348796672e-15 1.4892716446098678e-14 0.0000000000000000e+00  5.1004775116642717e-15 2.2970188054498989e-14 0.0000000000000000e+00  -3.9130116616452291e-15 9.2365586754444559e-15 0.0000000000000000e+00  2.8526972429798662e-15 1.2314307223274323e-14 0.0000000000000000e+00  -1.1718824496370047e-14 -2.2643878651961385e-14 0.0000000000000000e+00  -6.5059478370641243e-15 -1.0252885729789371e-14 0.0000000000000000e+00  -3.9314279107838464e-14 2.5594991742910709e-14 0.0000000000000000e+00  5.7825324882078832e-14 -1.6839719318527352e-14 0.0000000000000000e+00  1.0046095501782287e-13 -5.6804244562450840e-14 0.0000000000000000e+00  1.4088251502965320e-13 -7.1335076199657777e-16 0.0000000000000000e+00  6.5832196891321584e-14 7.1738796465433672e-14 0.0000000000000000e+00  -3.1188287366554516e-14 2.1142889096837319e-15 0.0000000000000000e+00  -1.0264489274605594e-13 7.4686459251979044e-14 0.0000000000000000e+00  -2.5758941657600071e-13 -9.8853335273885793e-14 0.0000000000000000e+00  8.0393891358622048e-14 1.0787610358785184e-13 0.0000000000000000e+00  -1.0089731561107583e-13 -2.1121240890915857e-13 0.0000000000000000e+00  -1.0200950452543540e-13 1.2700163860128736e-13 0.0000000000000000e+00  -1.7381961811777417e-13 -1.0053621237840448e-13 0.0000000000000000e+00  3.7289876765437757e-13 -4.6048928766682088e-14 0.0000000000000000e+00  6.0757185146856786e-13 6.7719168402505977e-14 0.0000000000000000e+00  1.0999921176447163e-12 -2.6420084474952499e-13 0.0000000000000000e+00  8.2310905831403865e-13 3.6425002505545362e-13 0.0000000000000000e+00  2.9763407287969708e-13 1.1547999892533376e-13 0.0000000000000000e+00  2.6753197013840180e-13 -2.5418454993531127e-13 0.0000000000000000e+00  -1.2544442235351858e-13 2.7355897257239743e-13 0.0000000000000000e+00  8.3626391239905978e-13 -8.8523937670069348e-14 0.0000000000000000e+00  4.8773972014375979e-13 8.5564387887313225e-13 0.0000000000000000e+00  -7.0929579166336038e-13 -9.5117940848113578e-13 0.0000000000000000e+00  9.5418857637861461e-13 -2.0618544518550248e-13 0.0000000000000000e+00  2.2922659245791577e-12 -7.1148650317647799e-13 0.0000000000000000e+00  5.1877134735081413e-13 5.5000420654614225e-13 0.0000000000000000e+00  -1.1272953555071752e-12 1.5260188476970096e-12 0.0000000000000000e+00  -2.5234830994978745e-12 4.7024896749890674e-13 0.0000000000000000e+00  -1.1532397315505375e-12 -2.0911286867007031e-12 0.0000000000000000e+00  -1.9996380051249625e-12 2.0144280027493426e-13 0.0000000000000000e+00  -8.7457521840807357e-13 -1.1006814102164768e-12 0.0000000000000000e+00  3.2504139487340800e-12 2.3182718933687259e-12 0.0000000000000000e+00  2.0655460355916753e-12 -1.2939891633818147e-12 0.0000000000000000e+00  -1.7135453527256656e-12 1.8159313954311821e-12 0.0000000000000000e+00  -6.4567508632022521e-12 7.3136074484121930e-13 0.0000000000000000e+00  -4.4860814969206791e-12 -1.6297278709632748e-12 0.0000000000000000e+00  -8.0618309113402418e-12 -4.6234785209208258e-12 0.0000000000000000e+00  4.7822882707272751e-13 -1.8903127497223111e-12 0.0000000000000000e+00  5.4385912885374164e-13 2.0503896947908821e-12 0.0000000000000000e+00  9.6583403107869510e-13 -3.7780674415439180e-12 0.0000000000000000e+00  4.8570110070391284e-12 4.2466508446545290e-12 0.0000000000000000e+00  -1.0975310357727114e-12 -3.3240945690804246e-12 0.0000000000000000e+00  -7.1766385898109325e-14 -9.7348421013029985e-14 0.0000000000000000e+00  2.8913505540001922e-14 2.1506091876388268e-13 0.0000000000000000e+00  -1.6733938651800479e-13 2.3438469621461087e-12 0.0000000000000000e+00  -1.2933228657390036e-12 1.2614562377756537e-11 0.0000000000000000e+00  7.9730702516174376e-13 1.8880361202943475e-12 0.0000000000000000e+00  -3.0008612797814946e-12 -4.2908188235499239e-12 0.0000000000000000e+00  7.8224828502510887e-13 8.4627107749581676e-14 0.0000000000000000e+00  3.4172051787797556e-13 3.1505351689284005e-13 0.0000000000000000e+00  2.0528043525405907e-13 -7.4799773475477306e-14 0.0000000000000000e+00  2.3426818653778123e-13 -8.9174898264688029e-14 0.0000000000000000e+00  1.4705148829960126e-12 1.5499654078650498e-12 0.0000000000000000e+00  -1.0417129031599142e-12 1.1803102390396709e-11 0.0000000000000000e+00  -8.1474031689138757e-13 -1.8361647236383245e-13 0.0000000000000000e+00  -1.4398333290874904e-12 -1.6826546617424651e-12 0.0000000000000000e+00  8.9653500079319020e-14 1.6056312804140489e-13 0.0000000000000000e+00  -2.3196034992715878e-14 2.5625628816954194e-14 0.0000000000000000e+00  -6.3111422109923935e-14 -2.5741881483381586e-14 0.0000000000000000e+00  8.9516336226216630e-13 -1.3598315635913937e-12 0.0000000000000000e+00  6.1759699948551577e-13 -6.2336055375351148e-12 0.0000000000000000e+00  -1.3028870375479556e-14 -1.3981583803651249e-14 0.0000000000000000e+00  1.6833718968318014e-13 1.2888582740891072e-12 0.0000000000000000e+00  2.5658494992901230e-13 2.5385526802522050e-12 0.0000000000000000e+00  5.4806230831845350e-15 1.4499955902702505e-14 0.0000000000000000e+00  4.5992695670095715e-14 -4.0965183298655851e-14 0.0000000000000000e+00  -3.3621960984872345e-13 -5.0603666811541437e-12 0.0000000000000000e+00  1.5088804281177519e-12 1.4299487725963505e-12 0.0000000000000000e+00  9.4002345419837014e-12 -1.0652725178140496e-12 0.0000000000000000e+00  -3.0608129332177569e-12 1.2456188744464597e-12 0.0000000000000000e+00  -2.0292190079606052e-12 -3.0198620338671629e-12 0.0000000000000000e+00  2.7460793805721115e-12 -4.7217817722725443e-12 0.0000000000000000e+00  -4.0399240663677000e-13 1.1239359928638536e-12 0.0000000000000000e+00  1.3970847437231032e-12 3.0517019961575539e-13 0.0000000000000000e+00  3.8222983837464717e-15 7.4328794854522140e-15 0.0000000000000000e+00  1.5299615523748356e-13 9.2523210768782006e-14 0.0000000000000000e+00  -7.3972876078774223e-14 9.3809520507134404e-13 0.0000000000000000e+00  -5.8082111688038671e-13 -4.0547735988105121e-13 0.0000000000000000e+00  6.0849017825167210e-13 -2.8903867701338396e-13 0.0000000000000000e+00  -1.0357037799531294e-13 -3.4193121075659799e-13 0.0000000000000000e+00  -3.1521133611485586e-13 9.9474826435343903e-14 0.0000000000000000e+00  -4.7628689237997553e-14 2.0968233892319947e-13 0.0000000000000000e+00  2.3670348204882237e-14 -9.7586112353908735e-14 0.0000000000000000e+00  2.6887788199742891e-14 2.0510940955082033e-14 0.0000000000000000e+00  1.7416868831967085e-14 1.1668947224251049e-14 0.0000000000000000e+00  2.4584578204339193e-14 3.5711226245534333e-14 0.0000000000000000e+00  -2.1203792110634588e-13 -1.3388993643546390e-13 0.0000000000000000e+00  1.4051411085771358e-12 -1.9733933910474407e-12 0.0000000000000000e+00  1.0995174621913941e-13 1.7487518566490864e-12 0.0000000000000000e+00  -4.7792389892497477e-13 8.5001771528661746e-12 0.0000000000000000e+00  -8.2819440757397205e-12 -3.5428181782858750e-12 0.0000000000000000e+00  -1.3670424012842217e-13 1.4167349238833966e-12 0.0000000000000000e+00  2.5816904364456039e-12 3.6512215359148783e-12 0.0000000000000000e+00  -1.8209138523197278e-12 -6.0650669258873883e-12 0.0000000000000000e+00  7.2138564901780511e-12 -1.4059639472946923e-12 0.0000000000000000e+00  4.0971510779700558e-12 -2.6584270159041991e-12 0.0000000000000000e+00  2.3515219715939303e-12 1.5224122069235264e-11 0.0000000000000000e+00  -4.8753960808988206e-13 -2.3748680943464915e-13 0.0000000000000000e+00  1.3273871644674394e-12 3.8092690098118579e-12 0.0000000000000000e+00  -2.5899189893897094e-14 -1.0401491533683239e-14 0.0000000000000000e+00  -1.9898260985176031e-15 2.2071525134697010e-14 0.0000000000000000e+00  5.3752105190404529e-13 2.6575124392191686e-13 0.0000000000000000e+00  -1.3874716487008285e-12 1.5134440113046054e-12 0.0000000000000000e+00  2.8184846258587832e-16 2.3442698166019025e-15 0.0000000000000000e+00  -7.5020234700843053e-15 -1.3570039462650046e-14 0.0000000000000000e+00  -8.2357358432048349e-15 -1.3315233085644226e-14 0.0000000000000000e+00  3.8276935664466545e-14 -2.7432466780398640e-16 0.0000000000000000e+00  -2.6419878854381659e-14 1.0947906487734177e-14 0.0000000000000000e+00  -4.9402642380778847e-15 8.5290147884260190e-15 0.0000000000000000e+00  4.5749298301776771e-15 8.9211131053909600e-15 0.0000000000000000e+00  -1.7088063305974644e-14 -3.0836557982530018e-14 0.0000000000000000e+00  4.8088960986176132e-14 -2.6073317265934360e-14 0.0000000000000000e+00  -2.0750654345011093e-14 2.9327596962193693e-14 0.0000000000000000e+00  -5.3486950961384281e-14 5.8796703029737702e-14 0.0000000000000000e+00  -1.1657802818181899e-14 -2.0889570659471512e-14 0.0000000000000000e+00  -5.8448584915478605e-14 1.1318931882884392e-14 0.0000000000000000e+00  1.4212764750380570e-13 -6.8792717633196762e-14 0.0000000000000000e+00  -4.8899628313642333e-14 -7.3881107549525561e-14 0.0000000000000000e+00  3.9214234094992048e-14 9.2688006343784383e-14 0.0000000000000000e+00  8.9394008119452066e-14 4.3927955275051890e-14 0.0000000000000000e+00  6.2511957359806247e-14 -5.8804640500233055e-15 0.0000000000000000e+00  -8.5051228585928969e-14 -2.7664135033888372e-14 0.0000000000000000e+00  -5.8418762587653046e-14 -1.1719619698905540e-13 0.0000000000000000e+00  1.2491560581645765e-13 -1.7874231595296129e-14 0.0000000000000000e+00  -4.0932992084666301e-14 1.3445674605400373e-13 0.0000000000000000e+00  -6.9517489945775835e-14 1.2653762041715993e-13 0.0000000000000000e+00  -1.7699924152058974e-13 1.0697929682580521e-13 0.0000000000000000e+00  2.3195076861137965e-14 3.8509642530927358e-14 0.0000000000000000e+00  -2.1512791325293077e-13 -5.1973531709202596e-14 0.0000000000000000e+00  2.8368035865418446e-13 -2.0691076633929834e-13 0.0000000000000000e+00  1.4215393279880848e-13 -2.2726534911944778e-14 0.0000000000000000e+00  -1.1279054449281156e-13 -3.0060572429966956e-14 0.0000000000000000e+00  -2.1556513789234297e-13 -3.8695927324547818e-14 0.0000000000000000e+00  1.3949437812589147e-13 1.0101727066395207e-13 0.0000000000000000e+00  -1.6842847250214424e-13 3.6352933848655647e-14 0.0000000000000000e+00  -1.5499844640709475e-13 -1.6506402638437474e-13 0.0000000000000000e+00  -4.2446671249624369e-13 1.2580688635576752e-13 0.0000000000000000e+00  2.0158504748301745e-13 3.0792617543800521e-13 0.0000000000000000e+00  1.1305935685865693e-13 1.4308967903807430e-13 0.0000000000000000e+00  -1.9658309652330757e-14 -1.8350333568500934e-13 0.0000000000000000e+00  -1.6999480183770321e-13 -1.2120864161751310e-13 0.0000000000000000e+00  3.7269043309994208e-13 -2.8971080195325236e-13 0.0000000000000000e+00  -3.1139619651776894e-13 1.1274175271438261e-13 0.0000000000000000e+00  -1.0712046185070173e-14 2.9956948135454803e-13 0.0000000000000000e+00  1.8919874093186298e-13 3.6504954164936512e-13 0.0000000000000000e+00  -4.8806166954530295e-13 3.4002079093788970e-13 0.0000000000000000e+00  -3.3546204412136027e-14 -5.4626757101267579e-13 0.0000000000000000e+00  5.2976958240893440e-13 -9.7254259462274956e-13 0.0000000000000000e+00  1.0583234315787155e-12 4.8988522621771806e-14 0.0000000000000000e+00  -3.3093332031937294e-13 2.9991147035200850e-13 0.0000000000000000e+00  -1.1712230503924514e-12 3.4958485259424129e-13 0.0000000000000000e+00  -3.0317755471964118e-13 8.6613394944377630e-13 0.0000000000000000e+00  8.9220455983216250e-16 3.4192427891728253e-13 0.0000000000000000e+00  -1.8110348286588399e-13 -8.6852511257655817e-13 0.0000000000000000e+00  4.6086421507933396e-13 -6.5409835426340496e-13 0.0000000000000000e+00  1.0228129402432159e-12 -1.9