<?xml version="1.0"?>
<VTKFile type="UnstructuredGrid"  version="0.1"  >
<UnstructuredGrid>
<Piece  NumberOfPoints="1554" NumberOfCells="2944">
<Points>
<DataArray  type="Float64"  NumberOfComponents="3"  format="ascii">0 0 0  0.05 0 0  0.05 -0.1 0  0 -0.1 0  0.0006329113924050643 0 0  0.001265822784810129 0 0  0.001898734177215193 0 0  0.002531645569620257 0 0  0.003164556962025321 0 0  0.003797468354430385 0 0  0.00443037974683545 0 0  0.005063291139240515 0 0  0.005696202531645579 0 0  0.006329113924050643 0 0  0.006962025316455709 0 0  0.007594936708860772 0 0  0.008227848101265837 0 0  0.008860759493670902 0 0  0.009493670886075967 0 0  0.01012658227848103 0 0  0.0107594936708861 0 0  0.01139240506329116 0 0  0.01202531645569622 0 0  0.01265822784810129 0 0  0.01329113924050635 0 0  0.01392405063291142 0 0  0.01455696202531648 0 0  0.01518987341772155 0 0  0.01582278481012661 0 0  0.01645569620253167 0 0  0.01708860759493673 0 0  0.0177215189873418 0 0  0.01835443037974686 0 0  0.01898734177215192 0 0  0.01962025316455699 0 0  0.02025316455696205 0 0  0.02088607594936711 0 0  0.02151898734177217 0 0  0.02215189873417724 0 0  0.0227848101265823 0 0  0.02341772151898736 0 0  0.02405063291139242 0 0  0.02468354430379749 0 0  0.02531645569620255 0 0  0.02594936708860762 0 0  0.02658227848101268 0 0  0.02721518987341774 0 0  0.0278481012658228 0 0  0.02848101265822787 0 0  0.02911392405063293 0 0  0.02974683544303799 0 0  0.03037974683544306 0 0  0.03101265822784813 0 0  0.03164556962025319 0 0  0.03227848101265825 0 0  0.03291139240506331 0 0  0.03354430379746838 0 0  0.03417721518987343 0 0  0.0348101265822785 0 0  0.03544303797468357 0 0  0.03607594936708863 0 0  0.03670886075949369 0 0  0.03734177215189875 0 0  0.03797468354430381 0 0  0.03860759493670887 0 0  0.03924050632911394 0 0  0.039873417721519 0 0  0.04050632911392407 0 0  0.04113924050632913 0 0  0.04177215189873418 0 0  0.04240506329113925 0 0  0.04303797468354431 0 0  0.04367088607594938 0 0  0.04430379746835444 0 0  0.0449367088607595 0 0  0.04556962025316456 0 0  0.04620253164556962 0 0  0.04683544303797469 0 0  0.04746835443037975 0 0  0.04810126582278482 0 0  0.04873417721518987 0 0  0.04936708860759494 0 0  0.05 -0.0008764624534039011 0  0.05 -0.001796747998277331 0  0.05 -0.002763047819002842 0  0.05 -0.003777662642945664 0  0.05 -0.004843008198704184 0  0.05 -0.005961621020185714 0  0.05 -0.007136164486518962 0  0.05 -0.008369435152759713 0  0.05 -0.009664369334984248 0  0.05 -0.01102405022575231 0  0.05 -0.01245171516555089 0  0.05 -0.01395076334851523 0  0.05 -0.01552476394478985 0  0.05 -0.01717746455289665 0  0.05 -0.01891280017743463 0  0.05 -0.02073490259296818 0  0.05 -0.02264811013263011 0  0.05 -0.02465697805933633 0  0.05 -0.02676628939403253 0  0.05 -0.02898106627571796 0  0.05 -0.03130658199302094 0  0.05 -0.03374837352625826 0  0.05 -0.0363122546307483 0  0.05 -0.0390043297753143 0  0.05 -0.04183100868223239 0  0.05 -0.04479902152724673 0  0.05 -0.04791543499163506 0  0.05 -0.05118766912339436 0  0.05 -0.05462351497286431 0  0.05 -0.05823115311912687 0  0.05 -0.06201917318059941 0  0.05 -0.06599659425752613 0  0.05 -0.07017288639920882 0  0.05 -0.07455799313053731 0  0.05 -0.07916235517485178 0  0.05 -0.08399693531806585 0  0.05 -0.0890732444772248 0  0.05 -0.09440336911374125 0  0.03999999999999999 -0.1 0  0.02999999999999998 -0.1 0  0.02 -0.1 0  0.009999999999999995 -0.1 0  0 -0.09440336914151665 0  0 -0.08907324449716499 0  0 -0.08399693533085423 0  0 -0.07916235518112424 0  0 -0.07455799313088532 0  0 -0.07017288639418245 0  0 -0.06599659424763628 0  0 -0.06201917316632072 0  0 -0.05823115310089969 0  0 -0.05462351495109712 0  0 -0.0511876690984656 0  0 -0.04791543496389521 0  0 -0.04479902149702007 0  0 -0.04183100864981863 0  0 -0.03900432974099029 0  0 -0.03631225459476947 0  0 -0.03374837348792512 0  0 -0.03130658195442013 0  0 -0.02898106623611381 0  0 -0.02676628935360821 0  0 -0.02465697801825972 0  0 -0.02264811009105497 0  0 -0.02073490255103518 0  0 -0.01891280013527211 0  0 -0.01717746451062158 0  0 -0.01552476390250855 0  0 -0.01395076330632414 0  0 -0.01245171512353731 0  0 -0.01102405018399499 0  0 -0.009664369293554062 0  0 -0.008369435111720197 0  0 -0.007136164445926865 0  0 -0.005961620980091481 0  0 -0.004843008159152451 0  0 -0.003777662603975662 0  0 -0.002763047780535835 0  0 -0.00179674796056907 0  0 -0.0008764624163668244 0  0.02499785305334181 -0.0005883320458915306 0  0.02943037974683546 -0.000548117344167362 0  0.02057237329777709 -0.0005287446180530994 0  0.03322784810126585 -0.0005373393096861495 0  0.01677425794674972 -0.0005322724541947724 0  0.04830169150528274 -0.02365254409598323 0  0.00168300145754437 -0.02367379478516428 0  0.03642949305137719 -0.0005190543160617442 0  0.01362218740907669 -0.0005280322826475142 0  0.03960937791880317 -0.0005573779533750087 0  0.01045311747228144 -0.0004942949853096942 0  0.04858238385613768 -0.01638795865393368 0  0.001382472559220159 -0.01636698231302624 0  0.00204814751415424 -0.03255531706708671 0  0.0479686395717156 -0.03247795110264674 0  0.04208860759493672 -0.0005472567036111306 0  0.007911392405063302 -0.000548117344167369 0  0.04886753188284145 -0.01015727362788417 0  0.001068838780639621 -0.01031733386641841 0  0.002566588374160229 -0.04330174605790554 0  0.04732731321596549 -0.04341612281551373 0  0.04675236858254128 -0.0565077619174409 0  0.005363565051914133 -0.0005540993823790336 0  0.04471456828011758 -0.0006733054024164117 0  0.002970650524898356 -0.05656631819955903 0  0.04901586627550847 -0.006543805977373106 0  0.0009437608403435986 -0.00648244041968675 0  0.003395908129391275 -0.06806867338678066 0  0.0462028998095191 -0.06810369688955817 0  0.02691740653035796 -0.0005561576639814964 0  0.02308450412770484 -0.0005627261242821119 0  0.03140601818714063 -0.0005248932151129052 0  0.01867088607594939 -0.000548117344167362 0  0.04645872910779643 -0.0005726402925699189 0  0.003532278600933945 -0.000544980979404093 0  0.04915796303231687 -0.003147868123058582 0  0.0009651973678222008 -0.003133536081384621 0  0.02409629969136109 -0.09155849102570193 0  0.001463675694503737 -0.01304042126719156 0  0.04875098997048143 -0.01318126710414894 0  0.001597446142481276 -0.01982360883152949 0  0.04856417476854837 -0.01970030433800369 0  0.001842620603430285 -0.02793071033610579 0  0.04802770460796459 -0.02768756175901937 0  0.002224186013515837 -0.03765245636883344 0  0.04781700531398361 -0.03780414051243434 0  0.003892554168009436 -0.0768601741560048 0  0.04659344683675115 -0.07681307925697438 0  0.002735649184216971 -0.0495908829071507 0  0.04732429769976428 -0.04949194635957994 0  0.02816455696202533 -0.000548117344167369 0  0.02182463430401193 -0.0004286401269838133 0  0.03447920819777296 -0.0005271693874061914 0  0.01540248163054762 -0.0005096437804725934 0  0.0375760808398555 -0.000525574313076288 0  0.01234322280789459 -0.0005366390899669282 0  0.00920391131281691 -0.0005192598173814969 0  0.04076971547154577 -0.0005523250007232958 0  0.006628260244885435 -0.0005948819644851153 0  0.04335443037974685 -0.0005402762692139004 0  0.04778481012658228 -0.000548117344167362 0  0.002215189873417695 -0.0005339553128171429 0  0.04602702066114506 -0.08655148232833468 0  0.004291540960893531 -0.08653508991400961 0  0.0005639952342539646 -0.001196294505093572 0  0.04928204250931896 -0.001253551398748894 0  0.01500759671486957 -0.09193032701368048 0  0.01989523220542124 -0.08358631088189528 0  0.02745511195059643 -0.08392277558135516 0  0.02419243091066598 -0.07808067200071511 0  0.03016808485228364 -0.07795757857951965 0  0.02677363599421406 -0.0731858161756945 0  0.02196757203003456 -0.07326977264799825 0  0.02419238082906422 -0.06885601987530676 0  0.02889723833448046 -0.06845607220922992 0  0.02617067805316583 -0.06448258447505902 0  0.02185608437631156 -0.06490175850566648 0  0.02403692688470872 -0.06081352828384041 0  0.02845457792833278 -0.05986429477888826 0  0.02572048479186493 -0.05678433919805648 0  0.02208042022562453 -0.05706027503343655 0  0.02383587790280271 -0.05357461250510945 0  0.02713187728061182 -0.05352510881840344 0  0.02540055735626316 -0.05042338850510797 0  0.02201505041274248 -0.05036168685255393 0  0.02378488401090785 -0.0473124504031799 0  0.02722224241537905 -0.04717635269015489 0  0.02542945591489349 -0.04433041803765904 0  0.02172796942054589 -0.04406746570171968 0  0.0238337865061107 -0.04153208670245789 0  0.02684059553842916 -0.04151317813208484 0  0.02521137817246824 -0.03899295014561417 0  0.0225266518348188 -0.0389880136848607 0  0.02375128974598649 -0.03655429871707286 0  0.02652032652881334 -0.03649355033993049 0  0.02503026628131681 -0.03419291727889915 0  0.02214801693937738 -0.03410278424139676 0  0.02372393983283434 -0.03196929846404486 0  0.0262155187860458 -0.03192957970073196 0  0.02507869505894476 -0.02993285641347104 0  0.02738966614350206 -0.02981942944037919 0  0.02615462524413406 -0.02785635661837029 0  0.0236794749884742 -0.02802991066074463 0  0.02502109894891923 -0.02602836563538014 0  0.02730740170391735 -0.02592815918779382 0  0.02607992808057965 -0.02413500436965434 0  0.02378350924928129 -0.02429284861804635 0  0.02495369866992312 -0.02244020999667535 0  0.0268280547798818 -0.02230420925354785 0  0.02579896872069257 -0.02070341625952951 0  0.02402206565677668 -0.02077208115165185 0  0.02490198929565436 -0.01918637895043494 0  0.0266031269342557 -0.01908794287014531 0  0.02316925673538998 -0.01919960611031577 0  0.0239927487867216 -0.01771639003910357 0  0.02233291221197864 -0.01771305782865696 0  0.02312239918944797 -0.0163091792113279 0  0.02151794872739572 -0.01631169480165203 0  0.02071699190014966 -0.01769178237767185 0  0.01991864151581862 -0.01630076657528173 0  0.02230787916755419 -0.01496283314999557 0  0.01911396195607112 -0.01767359176965567 0  0.01833757300225202 -0.01628469459082531 0  0.02383691854445111 -0.01494090408055321 0  0.02308047071201105 -0.01367436950095414 0  0.024567293173
[...]
<PointData  Vectors="flow"> 
<DataArray  type="Float64"  Name="flow"  NumberOfComponents="3" format="ascii">-5.4265785030212490e-06 3.7033340117269270e-01 0.0000000000000000e+00  6.4465677280207922e-06 3.7033468867872432e-01 0.0000000000000000e+00  -2.2151406766754375e-03 1.2424125223504678e-02 0.0000000000000000e+00  -5.2350295093216517e-04 1.2820190842686482e-02 0.0000000000000000e+00  -5.6977173902739369e-07 3.7033082366074799e-01 0.0000000000000000e+00  -4.3441528182102848e-07 3.7033378859052091e-01 0.0000000000000000e+00  1.1114924613325239e-06 3.7033281811474206e-01 0.0000000000000000e+00  -4.0995417984983970e-07 3.7033131540173181e-01 0.0000000000000000e+00  -3.1641522435652978e-07 3.7033187864528921e-01 0.0000000000000000e+00  -3.8058883797888714e-07 3.7033151318847102e-01 0.0000000000000000e+00  3.4652353521097989e-07 3.7033130176793633e-01 0.0000000000000000e+00  2.9629672932385915e-07 3.7033169165137825e-01 0.0000000000000000e+00  -4.0925288759998693e-07 3.7033249399386453e-01 0.0000000000000000e+00  8.7190268902043931e-07 3.7033233235208879e-01 0.0000000000000000e+00  -4.2180979173574661e-07 3.7033197650615735e-01 0.0000000000000000e+00  -3.0992750126393917e-08 3.7033193212529225e-01 0.0000000000000000e+00  7.0347163450327281e-07 3.7033087181611424e-01 0.0000000000000000e+00  -7.7839018848039708e-07 3.7033059443116079e-01 0.0000000000000000e+00  -4.6700165601392296e-07 3.7033254507469121e-01 0.0000000000000000e+00  5.6168391326643267e-07 3.7032982600856978e-01 0.0000000000000000e+00  2.5746621488673215e-06 3.7033174071392394e-01 0.0000000000000000e+00  -2.5842184288159757e-06 3.7033150180922331e-01 0.0000000000000000e+00  1.0774016100312417e-06 3.7032973021401261e-01 0.0000000000000000e+00  -3.6776756749858512e-07 3.7033104854463816e-01 0.0000000000000000e+00  1.5325839636549407e-07 3.7033134737465445e-01 0.0000000000000000e+00  -4.8176135358580235e-07 3.7033149725247699e-01 0.0000000000000000e+00  4.4265028645783710e-09 3.7033098564946532e-01 0.0000000000000000e+00  5.1938813071125022e-08 3.7033100313832329e-01 0.0000000000000000e+00  1.3744101475152932e-08 3.7033243012001965e-01 0.0000000000000000e+00  3.9917952156664372e-07 3.7033245394400938e-01 0.0000000000000000e+00  -5.8993961921549142e-07 3.7033220257471544e-01 0.0000000000000000e+00  9.8582168746417043e-08 3.7033140747799925e-01 0.0000000000000000e+00  7.4943924326916772e-07 3.7033133982440647e-01 0.0000000000000000e+00  -9.5655644686883903e-07 3.7033136223848906e-01 0.0000000000000000e+00  -1.4872558853011898e-07 3.7033129323524749e-01 0.0000000000000000e+00  1.2753184173703881e-06 3.7033086785165809e-01 0.0000000000000000e+00  -3.9422534829022640e-09 3.7033252386046833e-01 0.0000000000000000e+00  -8.3448180106819204e-07 3.7033171637372508e-01 0.0000000000000000e+00  1.0666990056802826e-06 3.7033114619172647e-01 0.0000000000000000e+00  -1.1819319841889291e-06 3.7033445332231307e-01 0.0000000000000000e+00  -5.2329085471758439e-07 3.7033463127746158e-01 0.0000000000000000e+00  2.3668117705123936e-07 3.7033207938638418e-01 0.0000000000000000e+00  7.2854084242777114e-07 3.7033194858165341e-01 0.0000000000000000e+00  1.3826062334776630e-07 3.7033241760481639e-01 0.0000000000000000e+00  8.2883755192108542e-08 3.7033311152938136e-01 0.0000000000000000e+00  -1.1045643946912621e-06 3.7033337561364038e-01 0.0000000000000000e+00  1.0608243731650140e-06 3.7033217017683989e-01 0.0000000000000000e+00  -9.7689418761478149e-07 3.7033183207541598e-01 0.0000000000000000e+00  3.2884765713506429e-08 3.7033436924084651e-01 0.0000000000000000e+00  5.4698661569490494e-07 3.7033430018823466e-01 0.0000000000000000e+00  -3.2736664516706185e-07 3.7033348586551951e-01 0.0000000000000000e+00  1.9836974922888705e-07 3.7033374947486214e-01 0.0000000000000000e+00  -1.2711343658382027e-07 3.7033297939856563e-01 0.0000000000000000e+00  -8.3780783261647268e-08 3.7033197036642457e-01 0.0000000000000000e+00  1.4948777664713511e-07 3.7033212322927483e-01 0.0000000000000000e+00  -2.6540127237760394e-07 3.7033364577150885e-01 0.0000000000000000e+00  5.0903149246040329e-07 3.7033330036479406e-01 0.0000000000000000e+00  3.2730139101232183e-07 3.7033220622703306e-01 0.0000000000000000e+00  -5.6778885297884990e-07 3.7033258331751312e-01 0.0000000000000000e+00  -3.7890774922825673e-08 3.7033352945514708e-01 0.0000000000000000e+00  -3.0864290121013286e-07 3.7033390322908161e-01 0.0000000000000000e+00  8.1047168421079968e-08 3.7033244558500678e-01 0.0000000000000000e+00  4.4007872029601649e-07 3.7033120389815055e-01 0.0000000000000000e+00  -8.0239035509233664e-07 3.7033341884588622e-01 0.0000000000000000e+00  -2.7827752972384186e-07 3.7033550919341268e-01 0.0000000000000000e+00  1.1542262844085227e-06 3.7033443651028713e-01 0.0000000000000000e+00  -7.4456494345201006e-07 3.7033271032631432e-01 0.0000000000000000e+00  3.5219596309262523e-07 3.7033302927185485e-01 0.0000000000000000e+00  2.6167190015746987e-08 3.7033397169158233e-01 0.0000000000000000e+00  -8.2270343250261004e-09 3.7033422428492474e-01 0.0000000000000000e+00  1.1807605159006344e-07 3.7033324069352985e-01 0.0000000000000000e+00  4.8928867143616713e-07 3.7033228027001019e-01 0.0000000000000000e+00  -1.2701477114698899e-06 3.7033479527998719e-01 0.0000000000000000e+00  1.8293136049678679e-06 3.7033757513444276e-01 0.0000000000000000e+00  -1.2902036141880760e-06 3.7033399337765061e-01 0.0000000000000000e+00  -6.0996767665725851e-08 3.7033248194683849e-01 0.0000000000000000e+00  2.9523284290933345e-07 3.7033436721144447e-01 0.0000000000000000e+00  -9.2094474871358138e-07 3.7033569508214209e-01 0.0000000000000000e+00  1.0654780993958239e-06 3.7033562323895447e-01 0.0000000000000000e+00  5.0980621574193497e-07 3.7033395149503412e-01 0.0000000000000000e+00  -1.4346955784726902e-06 3.7033448605864783e-01 0.0000000000000000e+00  -2.2399500457184534e-07 3.7033312782530442e-01 0.0000000000000000e+00  1.2452704945828371e-05 3.7029839278124060e-01 0.0000000000000000e+00  1.1258588471991893e-05 3.7018775413138999e-01 0.0000000000000000e+00  2.7092158508036443e-05 3.6998020581307550e-01 0.0000000000000000e+00  4.3769984340171480e-05 3.6969668288399987e-01 0.0000000000000000e+00  1.2457429061971944e-05 3.6924442037351235e-01 0.0000000000000000e+00  9.1476144569128251e-05 3.6870365023070850e-01 0.0000000000000000e+00  5.1699427313793502e-05 3.6803082264823622e-01 0.0000000000000000e+00  1.2747593968187782e-04 3.6710084810643889e-01 0.0000000000000000e+00  2.0485061300179892e-04 3.6606926384825550e-01 0.0000000000000000e+00  7.7722378486173838e-05 3.6478040425933439e-01 0.0000000000000000e+00  1.6653074196547958e-04 3.6325502251449410e-01 0.0000000000000000e+00  1.8533711117046402e-04 3.6148199500989181e-01 0.0000000000000000e+00  1.4807272721861791e-04 3.5933138186004843e-01 0.0000000000000000e+00  2.3284107647186090e-04 3.5688336371149998e-01 0.0000000000000000e+00  3.0219951349410060e-04 3.5410693887757638e-01 0.0000000000000000e+00  3.0168042102560910e-04 3.5084222611526028e-01 0.0000000000000000e+00  3.7072935019745782e-04 3.4720566822142768e-01 0.0000000000000000e+00  6.1731389359230354e-04 3.4269637382612850e-01 0.0000000000000000e+00  7.9763716304581038e-04 3.3809469593978697e-01 0.0000000000000000e+00  3.5569850097433281e-04 3.3249951136952954e-01 0.0000000000000000e+00  6.8193030163882316e-04 3.2645256382674176e-01 0.0000000000000000e+00  5.4831075809742402e-04 3.1955450455899670e-01 0.0000000000000000e+00  7.3217634500713155e-04 3.1153173761141351e-01 0.0000000000000000e+00  9.2794174803080304e-04 3.0283094064274074e-01 0.0000000000000000e+00  7.5946818555543095e-04 2.9304378150645183e-01 0.0000000000000000e+00  8.6591759404574858e-04 2.8222999800014353e-01 0.0000000000000000e+00  1.1423921902513237e-03 2.7023562032064563e-01 0.0000000000000000e+00  1.3453683271575289e-03 2.5680573664636447e-01 0.0000000000000000e+00  1.2717205686923496e-03 2.4221575330518150e-01 0.0000000000000000e+00  2.3042419298382314e-03 2.2533139438848052e-01 0.0000000000000000e+00  2.5124134990490723e-03 2.0819996079894346e-01 0.0000000000000000e+00  2.2510872443575257e-03 1.8821661895578970e-01 0.0000000000000000e+00  1.5504037296350545e-03 1.6666926904762838e-01 0.0000000000000000e+00  2.5493736665728249e-03 1.4315762122715150e-01 0.0000000000000000e+00  2.3501352061524759e-03 1.1857385337088788e-01 0.0000000000000000e+00  3.8589906588124851e-03 9.0989271301623514e-02 0.0000000000000000e+00  2.3211413953475170e-03 6.4821007322353186e-02 0.0000000000000000e+00  6.6736450472304398e-03 2.8353933067222430e-02 0.0000000000000000e+00  3.4891855970461201e-03 1.0732766955824691e-02 0.0000000000000000e+00  4.3284509873485197e-05 1.8221115227696191e-02 0.0000000000000000e+00  -1.6061280640507600e-03 1.3321727836391824e-02 0.0000000000000000e+00  1.1932173757125482e-03 1.2695518010479433e-02 0.0000000000000000e+00  -2.9339622255244243e-03 3.1652389931229839e-02 0.0000000000000000e+00  -2.9576639855393408e-03 6.1093590329250311e-02 0.0000000000000000e+00  -1.9870303998398798e-03 9.1376672680853810e-02 0.0000000000000000e+00  -2.3268823069384948e-03 1.1846965663769171e-01 0.0000000000000000e+00  -1.8533683468319030e-03 1.4329099438069690e-01 0.0000000000000000e+00  -2.0815215469136782e-03 1.6689440884253087e-01 0.0000000000000000e+00  -1.9738848533180017e-03 1.8802719980566357e-01 0.0000000000000000e+00  -1.7903795948859404e-03 2.0778195722703091e-01 0.0000000000000000e+00  -1.6616195968988852e-03 2.2569148460951752e-01 0.0000000000000000e+00  -1.1630190558917458e-03 2.4179759644125187e-01 0.0000000000000000e+00  -1.2697160684251218e-03 2.5677120765858802e-01 0.0000000000000000e+00  -9.9812882271488150e-04 2.7014013276764798e-01 0.0000000000000000e+00  -9.4801913399592593e-04 2.8228028786578202e-01 0.0000000000000000e+00  -8.2112716785518966e-04 2.9301036054410384e-01 0.0000000000000000e+00  -8.2494014361603435e-04 3.0286817198215849e-01 0.0000000000000000e+00  -7.3660324903203128e-04 3.1161038537211527e-01 0.0000000000000000e+00  -6.4189950971640800e-04 3.1944781546603562e-01 0.0000000000000000e+00  -5.9276712366347281e-04 3.2637888347491478e-01 0.0000000000000000e+00  -4.6834732142138325e-04 3.3254986213873822e-01 0.0000000000000000e+00  -4.4063500187077815e-04 3.3804070898289390e-01 0.0000000000000000e+00  -4.1811817842360763e-04 3.4284243757696869e-01 0.0000000000000000e+00  -3.4123024216697483e-04 3.4709179547289243e-01 0.0000000000000000e+00  -2.6600764101279554e-04 3.5084013396709374e-01 0.0000000000000000e+00  -2.6283974088763283e-04 3.5409468268837879e-01 0.0000000000000000e+00  -2.2535856290102139e-04 3.5689594095892113e-01 0.0000000000000000e+00  -1.9962320400360479e-04 3.5933862507768866e-01 0.0000000000000000e+00  -1.2980559254378591e-04 3.6144561526629726e-01 0.0000000000000000e+00  -1.9781334195685443e-04 3.6327160976553180e-01 0.0000000000000000e+00  -1.3051907147457900e-04 3.6478935031784560e-01 0.0000000000000000e+00  -1.3244269090883468e-04 3.6606599993524191e-01 0.0000000000000000e+00  -4.8709143532958235e-05 3.6710532717794842e-01 0.0000000000000000e+00  -8.6138484886851382e-05 3.6801882350841880e-01 0.0000000000000000e+00  -6.4647640855183895e-05 3.6870779797783398e-01 0.0000000000000000e+00  -4.2919053335174615e-05 3.6925342509642411e-01 0.0000000000000000e+00  -1.9978777796837629e-05 3.6967628015988896e-01 0.0000000000000000e+00  -3.3213393780804319e-05 3.6998806353193608e-01 0.0000000000000000e+00  -1.6953900287771150e-05 3.7018320368620722e-01 0.0000000000000000e+00  -9.1326926752416192e-06 3.7029525295814453e-01 0.0000000000000000e+00  2.8773185039737316e-07 3.7031834435959105e-01 0.0000000000000000e+00  4.8915194582408997e-07 3.7031764731916511e-01 0.0000000000000000e+00  -1.2530799460390362e-06 3.7031873582146280e-01 0.0000000000000000e+00  8.0443503879096669e-07 3.7031870773230857e-01 0.0000000000000000e+00  6.4849003317591137e-08 3.7031787314423792e-01 0.0000000000000000e+00  -1.9412143439548354e-04 3.4509078590136616e-01 0.0000000000000000e+00  8.9965923408047546e-05 3.4499284829929333e-01 0.0000000000000000e+00  -8.0240993751067583e-07 3.7032024986496820e-01 0.0000000000000000e+00  -1.5702271224800934e-08 3.7031846440070992e-01 0.0000000000000000e+00  -1.8059539157556434e-07 3.7032069722721461e-01 0.0000000000000000e+00  -2.2766310614774969e-06 3.7032033102810086e-01 0.0000000000000000e+00  -6.7488033627931577e-05 3.5817123745657836e-01 0.0000000000000000e+00  4.5665662673019903e-05 3.5815523621112144e-01 0.0000000000000000e+00  1.6898489757509387e-04 3.2284381020543768e-01 0.0000000000000000e+00  -1.9274273402695571e-04 3.2286259850258420e-01 0.0000000000000000e+00  2.1860416207142711e-07 3.7031980119292823e-01 0.0000000000000000e+00  -1.0678643166504738e-06 3.7031718102345579e-01 0.0000000000000000e+00  -3.4578566934529419e-05 3.6556682682489033e-01 0.0000000000000000e+00  4.3904110020952721e-05 3.6541303643744266e-01 0.0000000000000000e+00  2.4089803102579811e-04 2.8789801287457911e-01 0.0000000000000000e+00  -2.3716007800839484e-04 2.8757727317774212e-01 0.0000000000000000e+00  -5.4602724813876879e-04 2.3362698366855664e-01 0.0000000000000000e+00  2.2696767528488473e-08 3.7031639876934369e-01 0.0000000000000000e+00  -1.2711551968676011e-06 3.7031315197609799e-01 0.0000000000000000e+00  5.4566757037818078e-04 2.3381662348398549e-01 0.0000000000000000e+00  -3.0268093885413836e-05 3.6831626144657020e-01 0.0000000000000000e+00  3.3425256796787156e-05 3.6839684936249745e-01 0.0000000000000000e+00  6.8919980408609690e-04 1.7792824002128876e-01 0.0000000000000000e+00  -6.5371560773592042e-04 1.7656271384436903e-01 0.0000000000000000e+00  1.6202782768056840e-07 3.7031842056693665e-01 0.0000000000000000e+00  -5.3408402468844240e-07 3.7031355520645143e-01 0.0000000000000000e+00  -1.1771303044725416e-06 3.7031979171466201e-01 0.0000000000000000e+00  6.3884596364989445e-08 3.7031881216694046e-01 0.0000000000000000e+00  1.8377858506788786e-06 3.7031641534492860e-01 0.0000000000000000e+00  6.4381346993436303e-07 3.7031904306173130e-01 0.0000000000000000e+00  -1.6428631168223910e-05 3.6987636563417281e-01 0.0000000000000000e+00  5.6442354845511199e-06 3.6987149882542686e-01 0.0000000000000000e+00  1.1902147652023015e-03 4.3744157060032561e-02 0.0000000000000000e+00  4.2191183129048841e-05 3.6253631836747474e-01 0.0000000000000000e+00  -7.5154777889796325e-05 3.6239527074733074e-01 0.0000000000000000e+00  7.1329108383942860e-05 3.5244061737507115e-01 0.0000000000000000e+00  -7.0883327150690915e-05 3.5260657809071877e-01 0.0000000000000000e+00  1.3277266280982517e-04 3.3517330711760346e-01 0.0000000000000000e+00  -1.5390098117312815e-04 3.3575945812693397e-01 0.0000000000000000e+00  2.2318917533013734e-04 3.0736178863533015e-01 0.0000000000000000e+00  -3.0073951343294818e-04 3.0697349484681874e-01 0.0000000000000000e+00  1.4257079118986169e-04 1.3176509307090678e-01 0.0000000000000000e+00  -1.0514640482905831e-03 1.3086042957276262e-01 0.0000000000000000e+00  6.8492198198147491e-05 2.6354465366910229e-01 0.0000000000000000e+00  -3.6913606655670085e-04 2.6358240983907899e-01 0.0000000000000000e+00  4.9465471208717535e-08 3.7031784228192494e-01 0.0000000000000000e+00  -4.9524957241509535e-07 3.7032359230501444e-01 0.0000000000000000e+00  1.0504854248180356e-06 3.7032084551915895e-01 0.0000000000000000e+00  1.1584179681198174e-06 3.7031919642438149e-01 0.0000000000000000e+00  3.6834326543322947e-07 3.7031933519541910e-01 0.0000000000000000e+00  -9.6017785113068675e-07 3.7031938475820980e-01 0.0000000000000000e+00  4.2107020260693393e-07 3.7031796407948997e-01 0.0000000000000000e+00  3.2397327415695796e-08 3.7032144958474122e-01 0.0000000000000000e+00  -2.2018993934628883e-07 3.7031453036555267e-01 0.0000000000000000e+00  3.4070428229676556e-07 3.7031978834876639e-01 0.0000000000000000e+00  1.9633473846279524e-07 3.7032012732097169e-01 0.0000000000000000e+00  3.8038497888499567e-07 3.7031707301820244e-01 0.0000000000000000e+00  -5.1833399785556321e-04 7.5163861344504188e-02 0.0000000000000000e+00  1.0616697221992830e-04 7.7872846798416967e-02 0.0000000000000000e+00  1.9532211894422176e-06 3.7026174671690321e-01 0.0000000000000000e+00  -3.9198280911141077e-06 3.7025723360014995e-01 0.0000000000000000e+00  8.5053119519310871e-04 4.2575721237889164e-02 0.0000000000000000e+00  -8.0135395610133123e-04 9.3586720635583570e-02 0.0000000000000000e+00  -8.2363867347950504e-04 9.2809575599229088e-02 0.0000000000000000e+00  5.0914688671555963e-04 1.2480518486926358e-01 0.0000000000000000e+00  2.3166453472962529e-04 1.2452529395363238e-01 0.0000000000000000e+00  2.0584049023032855e-04 1.5154690812247254e-01 0.0000000000000000e+00  1.2013957626054985e-04 1.5098093995690429e-01 0.0000000000000000e+00  -1.0518930476323247e-04 1.7383134117470569e-01 0.0000000000000000e+00  1.1065164558025300e-04 1.7549262878834440e-01 0.0000000000000000e+00  3.4780048785566184e-04 1.9644325946447835e-01 0.0000000000000000e+00  -6.0631519140534357e-04 1.9366713927625823e-01 0.0000000000000000e+00  4.0879005127184443e-04 2.1382300232634538e-01 0.0000000000000000e+00  -2.0091163622006655e-04 2.1735331922930740e-01 0.0000000000000000e+00  -3.0525255430033111e-04 2.3229044971402185e-01 0.0000000000000000e+00  -3.4373063887913654e-04 2.3110996152542002e-01 0.0000000000000000e+00  -1.0642565824788621e-04 2.4663568053911067e-01 0.0000000000000000e+00  -1.8653982408048999e-04 2.4710409784773987e-01 0.0000000000000000e+00  3.9785753553306028e-04 2.6012652439898465e-01 0.0000000000000000e+00  -1.7081688733955981e-04 2.6018237738966665e-01 0.0000000000000000e+00  -3.3656894614085737e-04 2.7286766519800904e-01 0.0000000000000000e+00  -3.9914698183407862e-05 2.7275200329394172e-01 0.0000000000000000e+00  1.1455505275359642e-04 2.8416424612485619e-01 0.0000000000000000e+00  1.0967057953427811e-04 2.8443901685561623e-01 0.0000000000000000e+00  -6.7153992605780230e-05 2.9437215746557954e-01 0.0000000000000000e+00  3.6389689767463429e-05 2.9419261263319035e-01 0.0000000000000000e+00  7.5774443266706838e-05 3.0296905476217773e-01 0.0000000000000000e+00  1.2232457217631226e-04 3.0297036276067557e-01 0.0000000000000000e+00  -1.0009404988503915e-04 3.1086107516135503e-01 0.0000000000000000e+00  7.8452206645206128e-05 3.1106376081980336e-01 0.0000000000000000e+00  1.3809344883303226e-04 3.1819008370962210e-01 0.0000000000000000e+00  -4.4922826814022285e-05 3.1843055609706988e-01 0.0000000000000000e+00  -5.7420457459362013e-05 3.2434345502452694e-01 0.0000000000000000e+00  -7.5716895084139741e-06 3.2459639512259292e-01 0.0000000000000000e+00  -1.2671302631516465e-04 3.3012845891655695e-01 0.0000000000000000e+00  2.5845604064382225e-05 3.3042213228227635e-01 0.0000000000000000e+00  3.1127944242965544e-05 3.3537614495833207e-01 0.0000000000000000e+00  3.0599523388634715e-05 3.3475200790253146e-01 0.0000000000000000e+00  -1.5061729940271621e-04 3.3976787782985834e-01 0.0000000000000000e+00  1.1719233341640561e-04 3.4013649596687379e-01 0.0000000000000000e+00  5.4318891880100031e-05 3.4397520299557988e-01 0.0000000000000000e+00  2.2302815653932702e-06 3.4372991154381372e-01 0.0000000000000000e+00  -1.0001923007676883e-04 3.4750155052057347e-01 0.0000000000000000e+00  1.4585806344028704e-07 3.4790306936548482e-01 0.0000000000000000e+00  1.3329722693414536e-05 3.5089000048636471e-01 0.0000000000000000e+00  -1.0412810305328380e-05 3.5080212607332639e-01 0.0000000000000000e+00  -2.6953401876138501e-05 3.5362264609530120e-01 0.0000000000000000e+00  -2.4380101180594997e-06 3.5379273533758332e-01 0.0000000000000000e+00  3.9269532667290899e-06 3.5358902080414917e-01 0.0000000000000000e+00  -8.2093683197295424e-06 3.5606169986738651e-01 0.0000000000000000e+00  2.4706119631479671e-07 3.5607286424855611e-01 0.0000000000000000e+00  -1.0300078470588193e-06 3.5822938001123633e-01 0.0000000000000000e+00  -2.8016029783549517e-06 3.5822444788495539e-01 0.0000000000000000e+00  1.2731315099353450e-05 3.5611495429316148e-01 0.0000000000000000e+00  -1.4052597996399537e-05 3.5825772679413409e-01 0.0000000000000000e+00  -1.161226350106