<?xml version="1.0"?>
<VTKFile type="UnstructuredGrid"  version="0.1"  >
<UnstructuredGrid>
<Piece  NumberOfPoints="1554" NumberOfCells="2944">
<Points>
<DataArray  type="Float64"  NumberOfComponents="3"  format="ascii">0 0 0  0.05 0 0  0.05 -0.1 0  0 -0.1 0  0.0006329113924050643 0 0  0.001265822784810129 0 0  0.001898734177215193 0 0  0.002531645569620257 0 0  0.003164556962025321 0 0  0.003797468354430385 0 0  0.00443037974683545 0 0  0.005063291139240515 0 0  0.005696202531645579 0 0  0.006329113924050643 0 0  0.006962025316455709 0 0  0.007594936708860772 0 0  0.008227848101265837 0 0  0.008860759493670902 0 0  0.009493670886075967 0 0  0.01012658227848103 0 0  0.0107594936708861 0 0  0.01139240506329116 0 0  0.01202531645569622 0 0  0.01265822784810129 0 0  0.01329113924050635 0 0  0.01392405063291142 0 0  0.01455696202531648 0 0  0.01518987341772155 0 0  0.01582278481012661 0 0  0.01645569620253167 0 0  0.01708860759493673 0 0  0.0177215189873418 0 0  0.01835443037974686 0 0  0.01898734177215192 0 0  0.01962025316455699 0 0  0.02025316455696205 0 0  0.02088607594936711 0 0  0.02151898734177217 0 0  0.02215189873417724 0 0  0.0227848101265823 0 0  0.02341772151898736 0 0  0.02405063291139242 0 0  0.02468354430379749 0 0  0.02531645569620255 0 0  0.02594936708860762 0 0  0.02658227848101268 0 0  0.02721518987341774 0 0  0.0278481012658228 0 0  0.02848101265822787 0 0  0.02911392405063293 0 0  0.02974683544303799 0 0  0.03037974683544306 0 0  0.03101265822784813 0 0  0.03164556962025319 0 0  0.03227848101265825 0 0  0.03291139240506331 0 0  0.03354430379746838 0 0  0.03417721518987343 0 0  0.0348101265822785 0 0  0.03544303797468357 0 0  0.03607594936708863 0 0  0.03670886075949369 0 0  0.03734177215189875 0 0  0.03797468354430381 0 0  0.03860759493670887 0 0  0.03924050632911394 0 0  0.039873417721519 0 0  0.04050632911392407 0 0  0.04113924050632913 0 0  0.04177215189873418 0 0  0.04240506329113925 0 0  0.04303797468354431 0 0  0.04367088607594938 0 0  0.04430379746835444 0 0  0.0449367088607595 0 0  0.04556962025316456 0 0  0.04620253164556962 0 0  0.04683544303797469 0 0  0.04746835443037975 0 0  0.04810126582278482 0 0  0.04873417721518987 0 0  0.04936708860759494 0 0  0.05 -0.0008764624534039011 0  0.05 -0.001796747998277331 0  0.05 -0.002763047819002842 0  0.05 -0.003777662642945664 0  0.05 -0.004843008198704184 0  0.05 -0.005961621020185714 0  0.05 -0.007136164486518962 0  0.05 -0.008369435152759713 0  0.05 -0.009664369334984248 0  0.05 -0.01102405022575231 0  0.05 -0.01245171516555089 0  0.05 -0.01395076334851523 0  0.05 -0.01552476394478985 0  0.05 -0.01717746455289665 0  0.05 -0.01891280017743463 0  0.05 -0.02073490259296818 0  0.05 -0.02264811013263011 0  0.05 -0.02465697805933633 0  0.05 -0.02676628939403253 0  0.05 -0.02898106627571796 0  0.05 -0.03130658199302094 0  0.05 -0.03374837352625826 0  0.05 -0.0363122546307483 0  0.05 -0.0390043297753143 0  0.05 -0.04183100868223239 0  0.05 -0.04479902152724673 0  0.05 -0.04791543499163506 0  0.05 -0.05118766912339436 0  0.05 -0.05462351497286431 0  0.05 -0.05823115311912687 0  0.05 -0.06201917318059941 0  0.05 -0.06599659425752613 0  0.05 -0.07017288639920882 0  0.05 -0.07455799313053731 0  0.05 -0.07916235517485178 0  0.05 -0.08399693531806585 0  0.05 -0.0890732444772248 0  0.05 -0.09440336911374125 0  0.03999999999999999 -0.1 0  0.02999999999999998 -0.1 0  0.02 -0.1 0  0.009999999999999995 -0.1 0  0 -0.09440336914151665 0  0 -0.08907324449716499 0  0 -0.08399693533085423 0  0 -0.07916235518112424 0  0 -0.07455799313088532 0  0 -0.07017288639418245 0  0 -0.06599659424763628 0  0 -0.06201917316632072 0  0 -0.05823115310089969 0  0 -0.05462351495109712 0  0 -0.0511876690984656 0  0 -0.04791543496389521 0  0 -0.04479902149702007 0  0 -0.04183100864981863 0  0 -0.03900432974099029 0  0 -0.03631225459476947 0  0 -0.03374837348792512 0  0 -0.03130658195442013 0  0 -0.02898106623611381 0  0 -0.02676628935360821 0  0 -0.02465697801825972 0  0 -0.02264811009105497 0  0 -0.02073490255103518 0  0 -0.01891280013527211 0  0 -0.01717746451062158 0  0 -0.01552476390250855 0  0 -0.01395076330632414 0  0 -0.01245171512353731 0  0 -0.01102405018399499 0  0 -0.009664369293554062 0  0 -0.008369435111720197 0  0 -0.007136164445926865 0  0 -0.005961620980091481 0  0 -0.004843008159152451 0  0 -0.003777662603975662 0  0 -0.002763047780535835 0  0 -0.00179674796056907 0  0 -0.0008764624163668244 0  0.02499785305334181 -0.0005883320458915306 0  0.02943037974683546 -0.000548117344167362 0  0.02057237329777709 -0.0005287446180530994 0  0.03322784810126585 -0.0005373393096861495 0  0.01677425794674972 -0.0005322724541947724 0  0.04830169150528274 -0.02365254409598323 0  0.00168300145754437 -0.02367379478516428 0  0.03642949305137719 -0.0005190543160617442 0  0.01362218740907669 -0.0005280322826475142 0  0.03960937791880317 -0.0005573779533750087 0  0.01045311747228144 -0.0004942949853096942 0  0.04858238385613768 -0.01638795865393368 0  0.001382472559220159 -0.01636698231302624 0  0.00204814751415424 -0.03255531706708671 0  0.0479686395717156 -0.03247795110264674 0  0.04208860759493672 -0.0005472567036111306 0  0.007911392405063302 -0.000548117344167369 0  0.04886753188284145 -0.01015727362788417 0  0.001068838780639621 -0.01031733386641841 0  0.002566588374160229 -0.04330174605790554 0  0.04732731321596549 -0.04341612281551373 0  0.04675236858254128 -0.0565077619174409 0  0.005363565051914133 -0.0005540993823790336 0  0.04471456828011758 -0.0006733054024164117 0  0.002970650524898356 -0.05656631819955903 0  0.04901586627550847 -0.006543805977373106 0  0.0009437608403435986 -0.00648244041968675 0  0.003395908129391275 -0.06806867338678066 0  0.0462028998095191 -0.06810369688955817 0  0.02691740653035796 -0.0005561576639814964 0  0.02308450412770484 -0.0005627261242821119 0  0.03140601818714063 -0.0005248932151129052 0  0.01867088607594939 -0.000548117344167362 0  0.04645872910779643 -0.0005726402925699189 0  0.003532278600933945 -0.000544980979404093 0  0.04915796303231687 -0.003147868123058582 0  0.0009651973678222008 -0.003133536081384621 0  0.02409629969136109 -0.09155849102570193 0  0.001463675694503737 -0.01304042126719156 0  0.04875098997048143 -0.01318126710414894 0  0.001597446142481276 -0.01982360883152949 0  0.04856417476854837 -0.01970030433800369 0  0.001842620603430285 -0.02793071033610579 0  0.04802770460796459 -0.02768756175901937 0  0.002224186013515837 -0.03765245636883344 0  0.04781700531398361 -0.03780414051243434 0  0.003892554168009436 -0.0768601741560048 0  0.04659344683675115 -0.07681307925697438 0  0.002735649184216971 -0.0495908829071507 0  0.04732429769976428 -0.04949194635957994 0  0.02816455696202533 -0.000548117344167369 0  0.02182463430401193 -0.0004286401269838133 0  0.03447920819777296 -0.0005271693874061914 0  0.01540248163054762 -0.0005096437804725934 0  0.0375760808398555 -0.000525574313076288 0  0.01234322280789459 -0.0005366390899669282 0  0.00920391131281691 -0.0005192598173814969 0  0.04076971547154577 -0.0005523250007232958 0  0.006628260244885435 -0.0005948819644851153 0  0.04335443037974685 -0.0005402762692139004 0  0.04778481012658228 -0.000548117344167362 0  0.002215189873417695 -0.0005339553128171429 0  0.04602702066114506 -0.08655148232833468 0  0.004291540960893531 -0.08653508991400961 0  0.0005639952342539646 -0.001196294505093572 0  0.04928204250931896 -0.001253551398748894 0  0.01500759671486957 -0.09193032701368048 0  0.01989523220542124 -0.08358631088189528 0  0.02745511195059643 -0.08392277558135516 0  0.02419243091066598 -0.07808067200071511 0  0.03016808485228364 -0.07795757857951965 0  0.02677363599421406 -0.0731858161756945 0  0.02196757203003456 -0.07326977264799825 0  0.02419238082906422 -0.06885601987530676 0  0.02889723833448046 -0.06845607220922992 0  0.02617067805316583 -0.06448258447505902 0  0.02185608437631156 -0.06490175850566648 0  0.02403692688470872 -0.06081352828384041 0  0.02845457792833278 -0.05986429477888826 0  0.02572048479186493 -0.05678433919805648 0  0.02208042022562453 -0.05706027503343655 0  0.02383587790280271 -0.05357461250510945 0  0.02713187728061182 -0.05352510881840344 0  0.02540055735626316 -0.05042338850510797 0  0.02201505041274248 -0.05036168685255393 0  0.02378488401090785 -0.0473124504031799 0  0.02722224241537905 -0.04717635269015489 0  0.02542945591489349 -0.04433041803765904 0  0.02172796942054589 -0.04406746570171968 0  0.0238337865061107 -0.04153208670245789 0  0.02684059553842916 -0.04151317813208484 0  0.02521137817246824 -0.03899295014561417 0  0.0225266518348188 -0.0389880136848607 0  0.02375128974598649 -0.03655429871707286 0  0.02652032652881334 -0.03649355033993049 0  0.02503026628131681 -0.03419291727889915 0  0.02214801693937738 -0.03410278424139676 0  0.02372393983283434 -0.03196929846404486 0  0.0262155187860458 -0.03192957970073196 0  0.02507869505894476 -0.02993285641347104 0  0.02738966614350206 -0.02981942944037919 0  0.02615462524413406 -0.02785635661837029 0  0.0236794749884742 -0.02802991066074463 0  0.02502109894891923 -0.02602836563538014 0  0.02730740170391735 -0.02592815918779382 0  0.02607992808057965 -0.02413500436965434 0  0.02378350924928129 -0.02429284861804635 0  0.02495369866992312 -0.02244020999667535 0  0.0268280547798818 -0.02230420925354785 0  0.02579896872069257 -0.02070341625952951 0  0.02402206565677668 -0.02077208115165185 0  0.02490198929565436 -0.01918637895043494 0  0.0266031269342557 -0.01908794287014531 0  0.02316925673538998 -0.01919960611031577 0  0.0239927487867216 -0.01771639003910357 0  0.02233291221197864 -0.01771305782865696 0  0.02312239918944797 -0.0163091792113279 0  0.02151794872739572 -0.01631169480165203 0  0.02071699190014966 -0.01769178237767185 0  0.01991864151581862 -0.01630076657528173 0  0.02230787916755419 -0.01496283314999557 0  0.01911396195607112 -0.01767359176965567 0  0.01833757300225202 -0.01628469459082531 0  0.02383691854445111 -0.01494090408055321 0  0.02308047071201105 -0.01367436950095414 0  0.024567293173
[...]
<PointData  Vectors="displacement"> 
<DataArray  type="Float64"  Name="displacement"  NumberOfComponents="3" format="ascii">9.6202521835979118e-35 -1.1221486387048797e-03 0.0000000000000000e+00  -7.3555328621688564e-34 -1.1221486387049150e-03 0.0000000000000000e+00  -3.9581064659982503e-35 -3.6514063711800940e-21 0.0000000000000000e+00  1.6121136597158869e-34 -6.6621039639919364e-21 0.0000000000000000e+00  1.5627874998955776e-18 -1.1221486387048866e-03 0.0000000000000000e+00  -1.3418444766522202e-17 -1.1221486387048840e-03 0.0000000000000000e+00  4.8629626674801561e-19 -1.1221486387048736e-03 0.0000000000000000e+00  -4.6678764858321309e-18 -1.1221486387048821e-03 0.0000000000000000e+00  1.1957224212106280e-17 -1.1221486387048881e-03 0.0000000000000000e+00  6.5585210775396266e-18 -1.1221486387048944e-03 0.0000000000000000e+00  1.3050977975371734e-17 -1.1221486387048942e-03 0.0000000000000000e+00  -4.4289511134796066e-18 -1.1221486387048792e-03 0.0000000000000000e+00  -8.1995960879990605e-18 -1.1221486387048847e-03 0.0000000000000000e+00  2.0670433786221776e-17 -1.1221486387048764e-03 0.0000000000000000e+00  -9.7908209599320040e-19 -1.1221486387048827e-03 0.0000000000000000e+00  -2.2181695112786888e-18 -1.1221486387048979e-03 0.0000000000000000e+00  -5.9911453700764298e-18 -1.1221486387048953e-03 0.0000000000000000e+00  -8.3063241082045722e-18 -1.1221486387048528e-03 0.0000000000000000e+00  6.3808683099264790e-18 -1.1221486387048764e-03 0.0000000000000000e+00  1.1366100154734042e-17 -1.1221486387048667e-03 0.0000000000000000e+00  -1.6722098496176262e-18 -1.1221486387048636e-03 0.0000000000000000e+00  -2.7419080248312875e-18 -1.1221486387048753e-03 0.0000000000000000e+00  1.1850862481931611e-17 -1.1221486387048675e-03 0.0000000000000000e+00  3.1911523557334184e-17 -1.1221486387048756e-03 0.0000000000000000e+00  1.2075011629059447e-17 -1.1221486387048834e-03 0.0000000000000000e+00  1.6487894767772268e-17 -1.1221486387048901e-03 0.0000000000000000e+00  2.4772276174023897e-17 -1.1221486387048834e-03 0.0000000000000000e+00  1.0775367044308668e-17 -1.1221486387049092e-03 0.0000000000000000e+00  2.5361783143445796e-17 -1.1221486387048751e-03 0.0000000000000000e+00  7.8874803640338034e-18 -1.1221486387048792e-03 0.0000000000000000e+00  5.3980506353538920e-18 -1.1221486387048905e-03 0.0000000000000000e+00  1.5136045971271663e-17 -1.1221486387048953e-03 0.0000000000000000e+00  9.4266846600335925e-18 -1.1221486387049087e-03 0.0000000000000000e+00  1.4881216511363960e-17 -1.1221486387049007e-03 0.0000000000000000e+00  9.6693956664054534e-18 -1.1221486387049033e-03 0.0000000000000000e+00  1.2228163765938329e-17 -1.1221486387048962e-03 0.0000000000000000e+00  3.9312637484901145e-18 -1.1221486387048946e-03 0.0000000000000000e+00  2.0645109063394019e-17 -1.1221486387049053e-03 0.0000000000000000e+00  3.0014820021434176e-18 -1.1221486387049053e-03 0.0000000000000000e+00  -3.3192137532598505e-18 -1.1221486387049024e-03 0.0000000000000000e+00  1.2441874724861371e-18 -1.1221486387049064e-03 0.0000000000000000e+00  5.9692030391008937e-18 -1.1221486387049027e-03 0.0000000000000000e+00  -3.7740943254650099e-19 -1.1221486387048946e-03 0.0000000000000000e+00  1.2142759211163566e-17 -1.1221486387048962e-03 0.0000000000000000e+00  5.9536142344650939e-18 -1.1221486387048949e-03 0.0000000000000000e+00  -5.2581481269619005e-18 -1.1221486387048825e-03 0.0000000000000000e+00  7.2987572840004378e-18 -1.1221486387048873e-03 0.0000000000000000e+00  2.4692355806181655e-17 -1.1221486387048853e-03 0.0000000000000000e+00  2.1557902203045849e-17 -1.1221486387048975e-03 0.0000000000000000e+00  2.1216849453349261e-17 -1.1221486387048925e-03 0.0000000000000000e+00  2.0987523443947741e-17 -1.1221486387048920e-03 0.0000000000000000e+00  -1.1897453752172367e-18 -1.1221486387049124e-03 0.0000000000000000e+00  1.1652781484947279e-17 -1.1221486387048918e-03 0.0000000000000000e+00  1.1302209491436209e-18 -1.1221486387048946e-03 0.0000000000000000e+00  -1.4011322214825289e-17 -1.1221486387048923e-03 0.0000000000000000e+00  1.7357763774285597e-17 -1.1221486387049001e-03 0.0000000000000000e+00  9.4481927917929236e-18 -1.1221486387048875e-03 0.0000000000000000e+00  7.5556714137559833e-18 -1.1221486387049037e-03 0.0000000000000000e+00  1.8442927355364147e-17 -1.1221486387048923e-03 0.0000000000000000e+00  -5.7106627514222539e-18 -1.1221486387048998e-03 0.0000000000000000e+00  2.4452872999282771e-18 -1.1221486387049077e-03 0.0000000000000000e+00  7.3034789269840507e-18 -1.1221486387049057e-03 0.0000000000000000e+00  1.0314072531264060e-17 -1.1221486387049103e-03 0.0000000000000000e+00  7.1921705694261922e-19 -1.1221486387049098e-03 0.0000000000000000e+00  -8.0989940527810866e-18 -1.1221486387048936e-03 0.0000000000000000e+00  -6.2418168301744214e-18 -1.1221486387048914e-03 0.0000000000000000e+00  -8.6104784559582033e-18 -1.1221486387048905e-03 0.0000000000000000e+00  1.0326180856247529e-17 -1.1221486387048753e-03 0.0000000000000000e+00  1.6780598393008906e-17 -1.1221486387049090e-03 0.0000000000000000e+00  6.5909438913294293e-18 -1.1221486387049050e-03 0.0000000000000000e+00  -1.1997905142160288e-17 -1.1221486387048975e-03 0.0000000000000000e+00  -1.2570072554445202e-17 -1.1221486387049016e-03 0.0000000000000000e+00  1.0630750686009939e-18 -1.1221486387049027e-03 0.0000000000000000e+00  -1.6352855325482448e-17 -1.1221486387048762e-03 0.0000000000000000e+00  -8.7833390790174785e-18 -1.1221486387048840e-03 0.0000000000000000e+00  6.8925315069017604e-18 -1.1221486387049059e-03 0.0000000000000000e+00  8.8070354785940573e-18 -1.1221486387048968e-03 0.0000000000000000e+00  6.1572663268008703e-18 -1.1221486387049007e-03 0.0000000000000000e+00  -1.0807302829470003e-17 -1.1221486387048923e-03 0.0000000000000000e+00  2.7157052325774224e-18 -1.1221486387048938e-03 0.0000000000000000e+00  3.6332709121831960e-18 -1.1221486387048849e-03 0.0000000000000000e+00  -2.5731232558694244e-19 -1.1221486387048910e-03 0.0000000000000000e+00  6.6914874073879585e-34 -1.1123134272152631e-03 0.0000000000000000e+00  -3.8367122467055211e-34 -1.1019864555012913e-03 0.0000000000000000e+00  7.0147763725465212e-34 -1.0911431352172035e-03 0.0000000000000000e+00  -3.1278840226163473e-34 -1.0797576487822241e-03 0.0000000000000000e+00  -8.5555090845106779e-34 -1.0678028881307730e-03 0.0000000000000000e+00  1.4893908019781124e-34 -1.0552503895821133e-03 0.0000000000000000e+00  1.4456871433639872e-34 -1.0420702660636691e-03 0.0000000000000000e+00  -5.0003636479070850e-34 -1.0282311360709125e-03 0.0000000000000000e+00  0.0000000000000000e+00 -1.0137000497729440e-03 0.0000000000000000e+00  5.3763824993478544e-34 -9.9844240916648172e-04 0.0000000000000000e+00  -1.0249520593269220e-34 -9.8242188647926850e-04 0.0000000000000000e+00  -4.5028658126581026e-34 -9.6560033770059313e-04 0.0000000000000000e+00  -2.6441906795342531e-34 -9.4793771143628655e-04 0.0000000000000000e+00  5.7683109806257227e-34 -9.2939195406053924e-04 0.0000000000000000e+00  -1.5009848825793951e-33 -9.0991890897284622e-04 0.0000000000000000e+00  -5.2073693503978556e-34 -8.8947221152112504e-04 0.0000000000000000e+00  -8.9636622263168464e-34 -8.6800317915920223e-04 0.0000000000000000e+00  -1.6805985980239969e-35 -8.4546069506627876e-04 0.0000000000000000e+00  7.5574296007003417e-34 -8.2179108663793868e-04 0.0000000000000000e+00  7.2234212818461241e-35 -7.9693799800976690e-04 0.0000000000000000e+00  -7.7693089985650399e-35 -7.7084225504517410e-04 0.0000000000000000e+00  -1.5763111402477506e-34 -7.4344172459494238e-04 0.0000000000000000e+00  -2.6418485574854369e-34 -7.1467116768288771e-04 0.0000000000000000e+00  6.1259839808118822e-35 -6.8446208309523593e-04 0.0000000000000000e+00  -1.5133101607295482e-34 -6.5274254422069303e-04 0.0000000000000000e+00  -1.1179136376120561e-35 -6.1943702848377754e-04 0.0000000000000000e+00  8.6024480576467038e-35 -5.8446623721672983e-04 0.0000000000000000e+00  1.7074242046484797e-34 -5.4774690645195082e-04 0.0000000000000000e+00  -1.6878293953283570e-34 -5.0919160902412669e-04 0.0000000000000000e+00  -2.5556146224123172e-34 -4.6870854667644378e-04 0.0000000000000000e+00  2.2062139805419299e-34 -4.2620133112276806e-04 0.0000000000000000e+00  -5.7756907646577374e-35 -3.8156875465246941e-04 0.0000000000000000e+00  -1.8666766381148308e-34 -3.3470454923623826e-04 0.0000000000000000e+00  2.3055800116093686e-34 -2.8549713374488258e-04 0.0000000000000000e+00  -1.7757951663223551e-34 -2.3382934774356269e-04 0.0000000000000000e+00  -3.3571226308670334e-35 -1.7957817247938847e-04 0.0000000000000000e+00  2.3426540776057331e-34 -1.2261443835343672e-04 0.0000000000000000e+00  -5.1184648079216558e-36 -6.2802517303489757e-05 0.0000000000000000e+00  1.4674976130038502e-34 1.0326596411080050e-20 0.0000000000000000e+00  6.8883053842140475e-35 -1.4865073293257661e-20 0.0000000000000000e+00  1.7270751404532850e-36 1.3683091265436853e-20 0.0000000000000000e+00  2.6907757371468808e-35 2.6309199212896361e-20 0.0000000000000000e+00  -6.2766238384780009e-34 -6.2802516991809388e-05 0.0000000000000000e+00  -7.9838023412534631e-34 -1.2261443812967658e-04 0.0000000000000000e+00  4.4389919484581141e-34 -1.7957817233588136e-04 0.0000000000000000e+00  -4.3703540444390439e-34 -2.3382934767317360e-04 0.0000000000000000e+00  2.7509982965426147e-34 -2.8549713374097821e-04 0.0000000000000000e+00  -1.5919213627382687e-34 -3.3470454929264518e-04 0.0000000000000000e+00  -4.5983262163786618e-34 -3.8156875476344536e-04 0.0000000000000000e+00  2.1709487904284904e-34 -4.2620133128299379e-04 0.0000000000000000e+00  -1.0627618489781503e-34 -4.6870854688097727e-04 0.0000000000000000e+00  -2.1747550971279508e-34 -5.0919160926838724e-04 0.0000000000000000e+00  5.0578845069155326e-34 -5.4774690673168745e-04 0.0000000000000000e+00  -1.7308400387717103e-34 -5.8446623752800764e-04 0.0000000000000000e+00  -7.8160347853416799e-34 -6.1943702882296433e-04 0.0000000000000000e+00  -2.0050193635520211e-34 -6.5274254458442822e-04 0.0000000000000000e+00  -3.8599574958231274e-34 -6.8446208348039192e-04 0.0000000000000000e+00  -2.5977203351494043e-34 -7.1467116808661933e-04 0.0000000000000000e+00  8.1052472924005678e-34 -7.4344172502508257e-04 0.0000000000000000e+00  5.5502789996181793e-34 -7.7084225547832154e-04 0.0000000000000000e+00  -1.1835876468818503e-33 -7.9693799845417747e-04 0.0000000000000000e+00  4.7538934262580535e-34 -8.2179108709156811e-04 0.0000000000000000e+00  -1.3345186271198220e-33 -8.4546069552722590e-04 0.0000000000000000e+00  -1.8170691350937526e-33 -8.6800317962573400e-04 0.0000000000000000e+00  -1.0885401894330967e-33 -8.8947221199166054e-04 0.0000000000000000e+00  -1.6531554112333157e-33 -9.0991890944596592e-04 0.0000000000000000e+00  1.3879657494890887e-33 -9.2939195453494762e-04 0.0000000000000000e+00  3.0347084665749951e-33 -9.4793771191075868e-04 0.0000000000000000e+00  1.2307336490532394e-34 -9.6560033817403288e-04 0.0000000000000000e+00  2.7168104739592143e-34 -9.8242188695070801e-04 0.0000000000000000e+00  -6.0707477991024844e-34 -9.9844240963505265e-04 0.0000000000000000e+00  -8.2467556570440003e-34 -1.0137000502378707e-03 0.0000000000000000e+00  -3.0063446368301382e-34 -1.0282311365314395e-03 0.0000000000000000e+00  2.4168185140501819e-34 -1.0420702665191808e-03 0.0000000000000000e+00  -2.1734278237132361e-34 -1.0552503900320438e-03 0.0000000000000000e+00  5.3459727655990522e-34 -1.0678028885745905e-03 0.0000000000000000e+00  -3.2162443129169938e-34 -1.0797576492195041e-03 0.0000000000000000e+00  -5.1124584729301355e-36 -1.0911431356488423e-03 0.0000000000000000e+00  3.7648127097062845e-35 -1.1019864559244073e-03 0.0000000000000000e+00  -1.4017472600535554e-34 -1.1123134276308725e-03 0.0000000000000000e+00  8.1542667918592479e-18 -1.1155466786608532e-03 0.0000000000000000e+00  1.0414416751510899e-17 -1.1159979473888179e-03 0.0000000000000000e+00  1.0940554317177535e-17 -1.1162153381711938e-03 0.0000000000000000e+00  4.8388137730032994e-18 -1.1161188929560163e-03 0.0000000000000000e+00  4.1100844469270492e-18 -1.1161757506059379e-03 0.0000000000000000e+00  -4.5099625280231440e-18 -8.5673193711274277e-04 0.0000000000000000e+00  -4.0311420740356733e-18 -8.5649347279337048e-04 0.0000000000000000e+00  1.0776605601961638e-17 -1.1163240777630728e-03 0.0000000000000000e+00  1.5570137198355607e-17 -1.1162233316332154e-03 0.0000000000000000e+00  -2.6228227703898820e-18 -1.1158940295886459e-03 0.0000000000000000e+00  -3.0399604409066804e-21 -1.1166019142560368e-03 0.0000000000000000e+00  8.3656882535918286e-19 -9.3825138375825702e-04 0.0000000000000000e+00  9.0101759458920838e-18 -9.3848676948220244e-04 0.0000000000000000e+00  8.3938745927278513e-18 -7.5682959141050909e-04 0.0000000000000000e+00  1.4118824802198954e-18 -7.5769775252730034e-04 0.0000000000000000e+00  2.3306851014256179e-18 -1.1160076050551126e-03 0.0000000000000000e+00  -4.5267557033173433e-18 -1.1159979473887951e-03 0.0000000000000000e+00  -1.6217027239411637e-18 -1.0081689309600678e-03 0.0000000000000000e+00  -6.5932679093603831e-18 -1.0063728171722513e-03 0.0000000000000000e+00  4.3372017221190662e-18 -6.3623868478064930e-04 0.0000000000000000e+00  -7.0945444939372131e-19 -6.3495520755215849e-04 0.0000000000000000e+00  -5.9696577250678369e-19 -4.8804755758572382e-04 0.0000000000000000e+00  3.5221249184170337e-18 -1.1159308200284505e-03 0.0000000000000000e+00  3.2415582796666059e-18 -1.1145931512973565e-03 0.0000000000000000e+00  -1.3976438255835134e-18 -4.8739046906306143e-04 0.0000000000000000e+00  1.4345311786795489e-18 -1.0487174090103087e-03 0.0000000000000000e+00  1.7231867339695286e-18 -1.0494060217805087e-03 0.0000000000000000e+00  4.1137345201549671e-18 -3.5831694691065364e-04 0.0000000000000000e+00  -9.5298701781806390e-19 -3.5792393115101259e-04 0.0000000000000000e+00  1.2781994691463600e-17 -1.1159077230494775e-03 0.0000000000000000e+00  9.7405742528204145e-18 -1.1158340151616287e-03 0.0000000000000000e+00  1.1497601955003616e-17 -1.1162585566368538e-03 0.0000000000000000e+00  -2.8932672272255923e-18 -1.1159979473888157e-03 0.0000000000000000e+00  1.2926790221233116e-18 -1.1157227634571540e-03 0.0000000000000000e+00  7.5186712114497162e-18 -1.1160331420633106e-03 0.0000000000000000e+00  1.4803286236622730e-18 -1.0868248794137774e-03 0.0000000000000000e+00  -1.4026228365231471e-18 -1.0869857062243016e-03 0.0000000000000000e+00  -3.7077734138350303e-20 -9.4726278041237021e-05 0.0000000000000000e+00  6.7190637742108618e-19 -9.7581572897372621e-04 0.0000000000000000e+00  -2.6483871378687954e-18 -9.7423522933162698e-04 0.0000000000000000e+00  -6.1686613303303548e-18 -8.9969828205970772e-04 0.0000000000000000e+00  -5.9975711911387231e-18 -9.0108194175526804e-04 0.0000000000000000e+00  4.0184650920964731e-18 -8.0872455288767903e-04 0.0000000000000000e+00  3.8690535086850349e-20 -8.1145304133548035e-04 0.0000000000000000e+00  -4.8258860401494646e-18 -6.9963211212306382e-04 0.0000000000000000e+00  6.0734826973512141e-19 -6.9792999057052699e-04 0.0000000000000000e+00  4.1360718770171053e-18 -2.5966324070707085e-04 0.0000000000000000e+00  -9.1288537451215346e-19 -2.6019171547544506e-04 0.0000000000000000e+00  5.1181714479010330e-18 -5.6566522124055390e-04 0.0000000000000000e+00  1.2873765959609214e-18 -5.6677543636230506e-04 0.0000000000000000e+00  9.2511730812336156e-18 -1.1159979473888166e-03 0.0000000000000000e+00  7.7074187354115606e-18 -1.1173386593550064e-03 0.0000000000000000e+00  -4.2255040626638024e-20 -1.1162330146004423e-03 0.0000000000000000e+00  1.1447163071066650e-17 -1.1164296779600856e-03 0.0000000000000000e+00  -2.7005555428242164e-19 -1.1162509137053408e-03 0.0000000000000000e+00  1.6453183502209870e-17 -1.1161267504620402e-03 0.0000000000000000e+00  -6.6634526585020818e-19 -1.1163217717327855e-03 0.0000000000000000e+00  -2.8231159050380554e-18 -1.1159507312280452e-03 0.0000000000000000e+00  6.8884588837676434e-18 -1.1154731788385194e-03 0.0000000000000000e+00  -7.9991080581428451e-18 -1.1160859359046673e-03 0.0000000000000000e+00  5.9652838690242386e-18 -1.1159979473888194e-03 0.0000000000000000e+00  -6.7986885047175501e-18 -1.1161568664308009e-03 0.0000000000000000e+00  -2.3668114246426166e-18 -1.5091235797858193e-04 0.0000000000000000e+00  -1.5709531873382936e-19 -1.5109630523277745e-04 0.0000000000000000e+00  6.2800586134183482e-19 -1.1087244362010759e-03 0.0000000000000000e+00  5.7645862763893628e-18 -1.1080819287483713e-03 0.0000000000000000e+00  -1.8057532642578117e-19 -9.0553725563920887e-05 0.0000000000000000e+00  -3.5914273467897974e-18 -1.8418598900006507e-04 0.0000000000000000e+00  -1.1662638807118008e-18 -1.8041035495535682e-04 0.0000000000000000e+00  1.3086461238282199e-18 -2.4596744075723451e-04 0.0000000000000000e+00  -6.2616149893365506e-19 -2.4734873190751289e-04 0.0000000000000000e+00  -5.6665298770214851e-19 -3.0089499876426829e-04 0.0000000000000000e+00  -9.1798527477111277e-20 -2.9995288235320925e-04 0.0000000000000000e+00  1.6155067705517908e-18 -3.4948174900776310e-04 0.0000000000000000e+00  1.3627989181019691e-18 -3.5396975629817788e-04 0.0000000000000000e+00  -4.4507589264187322e-19 -3.9855819481628515e-04 0.0000000000000000e+00  -2.7977764852037341e-18 -3.9385443913801026e-04 0.0000000000000000e+00  -2.5491906474284580e-18 -4.3973045891936013e-04 0.0000000000000000e+00  -2.3134734393969746e-18 -4.5038226977331110e-04 0.0000000000000000e+00  -2.0070237214519695e-18 -4.8494394939633276e-04 0.0000000000000000e+00  -4.0855273532809674e-18 -4.8184753917590887e-04 0.0000000000000000e+00  -1.3101327035414855e-18 -5.2096185378737979e-04 0.0000000000000000e+00  2.5477319313996054e-18 -5.2151735873386020e-04 0.0000000000000000e+00  5.0403802638173217e-19 -5.5632327100593607e-04 0.0000000000000000e+00  -3.2295287986063228e-18 -5.5701565526013338e-04 0.0000000000000000e+00  -3.7102973435893096e-18 -5.9123262056768070e-04 0.0000000000000000e+00  1.6543298308814208e-18 -5.9275983920169045e-04 0.0000000000000000e+00  3.7992029429205205e-20 -6.2469545616310304e-04 0.0000000000000000e+00  -5.1114962933227618e-18 -6.2764617222128838e-04 0.0000000000000000e+00  -4.6820546988233660e-18 -6.5609689314751808e-04 0.0000000000000000e+00  -1.0235548839254923e-18 -6.5630907541255586e-04 0.0000000000000000e+00  -2.5255833265544595e-18 -6.8458977945500021e-04 0.0000000000000000e+00  3.3496744421094842e-18 -6.8464517388214458e-04 0.0000000000000000e+00  -5.0469039406286420e-19 -7.1195507326313418e-04 0.0000000000000000e+00  -9.0053553644037406e-19 -7.1263676035027113e-04 0.0000000000000000e+00  -5.3591298335820470e-18 -7.3845328292623238e-04 0.0000000000000000e+00  8.1135374357516906e-18 -7.3946470957958238e-04 0.0000000000000000e+00  -3.9069855099763605e-18 -7.6340559118710045e-04 0.0000000000000000e+00  -1.9899110165537759e-18 -7.6385129474892727e-04 0.0000000000000000e+00  -1.4851464825785614e-17 -7.8625749793562465e-04 0.0000000000000000e+00  1.7822663757076215e-18 -7.8753031717010208e-04 0.0000000000000000e+00  6.7280776516268936e-20 -8.0955891211905958e-04 0.0000000000000000e+00  -1.5310773093526338e-18 -8.0761137779514138e-04 0.0000000000000000e+00  1.1944335133024297e-18 -8.3007168805033420e-04 0.0000000000000000e+00  1.4186102789083846e-18 -8.3119615333781724e-04 0.0000000000000000e+00  3.2733519615068413e-18 -8.5131801571943909e-04 0.0000000000000000e+00  -3.4423154513801704e-18 -8.4954676863483098e-04 0.0000000000000000e+00  6.4441474379674984e-18 -8.7033612770466486e-04 0.0000000000000000e+00  1.5636828574685965e-18 -8.7186225819230895e-04 0.0000000000000000e+00  2.8748455579974324e-18 -8.8982553498316455e-04 0.0000000000000000e+00  8.1727024873682176e-18 -8.8905501283095812e-04 0.0000000000000000e+00  1.0851470730595037e-17 -9.0684894849581230e-04 0.0000000000000000e+00  1.0457505838163387e-17 -9.0795354763078184e-04 0.0000000000000000e+00  3.1916660170386970e-18 -9.0670052010127745e-04 0.0000000000000000e+00  1.5292351538884663e-17 -9.2334440905343965e-04 0.0000000000000000e+00  1.1281234958980314e-17 -9.2338180140760198e-04 0.0000000000000000e+00  2.44524628555