<?xml version="1.0"?>
<VTKFile type="UnstructuredGrid"  version="0.1"  >
<UnstructuredGrid>
<Piece  NumberOfPoints="431" NumberOfCells="800">
<Points>
<DataArray  type="Float64"  NumberOfComponents="3"  format="ascii">-0.75 -3 0  -0.6 -3 0  -0.45 -3 0  -0.3 -3 0  -0.15 -3 0  0 -3 0  0.15 -3 0  0.3 -3 0  0.45 -3 0  0.6000000000000001 -3 0  0.75 -3 0  -0.75 -2.85 0  -0.6 -2.85 0  -0.45 -2.85 0  -0.3 -2.85 0  -0.15 -2.85 0  0 -2.85 0  0.15 -2.85 0  0.3 -2.85 0  0.45 -2.85 0  0.6000000000000001 -2.85 0  0.75 -2.85 0  -0.75 -2.7 0  -0.6 -2.7 0  -0.45 -2.7 0  -0.3 -2.7 0  -0.15 -2.7 0  0 -2.7 0  0.15 -2.7 0  0.3 -2.7 0  0.45 -2.7 0  0.6000000000000001 -2.7 0  0.75 -2.7 0  -0.75 -2.55 0  -0.6 -2.55 0  -0.45 -2.55 0  -0.3 -2.55 0  -0.15 -2.55 0  0 -2.55 0  0.15 -2.55 0  0.3 -2.55 0  0.45 -2.55 0  0.6000000000000001 -2.55 0  0.75 -2.55 0  -0.75 -2.4 0  -0.6 -2.4 0  -0.45 -2.4 0  -0.3 -2.4 0  -0.15 -2.4 0  0 -2.4 0  0.15 -2.4 0  0.3 -2.4 0  0.45 -2.4 0  0.6000000000000001 -2.4 0  0.75 -2.4 0  -0.75 -2.25 0  -0.6 -2.25 0  -0.45 -2.25 0  -0.3 -2.25 0  -0.15 -2.25 0  0 -2.25 0  0.15 -2.25 0  0.3 -2.25 0  0.45 -2.25 0  0.6000000000000001 -2.25 0  0.75 -2.25 0  -0.75 -2.1 0  -0.6 -2.1 0  -0.45 -2.1 0  -0.3 -2.1 0  -0.15 -2.1 0  0 -2.1 0  0.15 -2.1 0  0.3 -2.1 0  0.45 -2.1 0  0.6000000000000001 -2.1 0  0.75 -2.1 0  -0.75 -1.95 0  -0.6 -1.95 0  -0.45 -1.95 0  -0.3 -1.95 0  -0.15 -1.95 0  0 -1.95 0  0.15 -1.95 0  0.3 -1.95 0  0.45 -1.95 0  0.6000000000000001 -1.95 0  0.75 -1.95 0  -0.75 -1.8 0  -0.6 -1.8 0  -0.45 -1.8 0  -0.3 -1.8 0  -0.15 -1.8 0  0 -1.8 0  0.15 -1.8 0  0.3 -1.8 0  0.45 -1.8 0  0.6000000000000001 -1.8 0  0.75 -1.8 0  -0.75 -1.65 0  -0.6 -1.65 0  -0.45 -1.65 0  -0.3 -1.65 0  -0.15 -1.65 0  0 -1.65 0  0.15 -1.65 0  0.3 -1.65 0  0.45 -1.65 0  0.6000000000000001 -1.65 0  0.75 -1.65 0  -0.75 -1.5 0  -0.6 -1.5 0  -0.45 -1.5 0  -0.3 -1.5 0  -0.15 -1.5 0  0 -1.5 0  0.15 -1.5 0  0.3 -1.5 0  0.45 -1.5 0  0.6000000000000001 -1.5 0  0.75 -1.5 0  -0.75 -1.35 0  -0.6 -1.35 0  -0.45 -1.35 0  -0.3 -1.35 0  -0.15 -1.35 0  0 -1.35 0  0.15 -1.35 0  0.3 -1.35 0  0.45 -1.35 0  0.6000000000000001 -1.35 0  0.75 -1.35 0  -0.75 -1.2 0  -0.6 -1.2 0  -0.45 -1.2 0  -0.3 -1.2 0  -0.15 -1.2 0  0 -1.2 0  0.15 -1.2 0  0.3 -1.2 0  0.45 -1.2 0  0.6000000000000001 -1.2 0  0.75 -1.2 0  -0.75 -1.05 0  -0.6 -1.05 0  -0.45 -1.05 0  -0.3 -1.05 0  -0.15 -1.05 0  0 -1.05 0  0.15 -1.05 0  0.3 -1.05 0  0.45 -1.05 0  0.6000000000000001 -1.05 0  0.75 -1.05 0  -0.75 -0.8999999999999999 0  -0.6 -0.8999999999999999 0  -0.45 -0.8999999999999999 0  -0.3 -0.8999999999999999 0  -0.15 -0.8999999999999999 0  0 -0.8999999999999999 0  0.15 -0.8999999999999999 0  0.3 -0.8999999999999999 0  0.45 -0.8999999999999999 0  0.6000000000000001 -0.8999999999999999 0  0.75 -0.8999999999999999 0  -0.75 -0.75 0  -0.6 -0.75 0  -0.45 -0.75 0  -0.3 -0.75 0  -0.15 -0.75 0  0 -0.75 0  0.15 -0.75 0  0.3 -0.75 0  0.45 -0.75 0  0.6000000000000001 -0.75 0  0.75 -0.75 0  -0.75 -0.6000000000000001 0  -0.6 -0.6000000000000001 0  -0.45 -0.6000000000000001 0  -0.3 -0.6000000000000001 0  -0.15 -0.6000000000000001 0  0 -0.6000000000000001 0  0.15 -0.6000000000000001 0  0.3 -0.6000000000000001 0  0.45 -0.6000000000000001 0  0.6000000000000001 -0.6000000000000001 0  0.75 -0.6000000000000001 0  -0.75 -0.4500000000000002 0  -0.6 -0.4500000000000002 0  -0.45 -0.4500000000000002 0  -0.3 -0.4500000000000002 0  -0.15 -0.4500000000000002 0  0 -0.4500000000000002 0  0.15 -0.4500000000000002 0  0.3 -0.4500000000000002 0  0.45 -0.4500000000000002 0  0.6000000000000001 -0.4500000000000002 0  0.75 -0.4500000000000002 0  -0.75 -0.2999999999999998 0  -0.6 -0.2999999999999998 0  -0.45 -0.2999999999999998 0  -0.3 -0.2999999999999998 0  -0.15 -0.2999999999999998 0  0 -0.2999999999999998 0  0.15 -0.2999999999999998 0  0.3 -0.2999999999999998 0  0.45 -0.2999999999999998 0  0.6000000000000001 -0.2999999999999998 0  0.75 -0.2999999999999998 0  -0.75 -0.1499999999999999 0  -0.6 -0.1499999999999999 0  -0.45 -0.1499999999999999 0  -0.3 -0.1499999999999999 0  -0.15 -0.1499999999999999 0  0 -0.1499999999999999 0  0.15 -0.1499999999999999 0  0.3 -0.1499999999999999 0  0.45 -0.1499999999999999 0  0.6000000000000001 -0.1499999999999999 0  0.75 -0.1499999999999999 0  -0.75 0 0  -0.6 0 0  -0.45 0 0  -0.3 0 0  -0.15 0 0  0 0 0  0.15 0 0  0.3 0 0  0.45 0 0  0.6000000000000001 0 0  0.75 0 0  -0.675 -2.925 0  -0.525 -2.925 0  -0.375 -2.925 0  -0.225 -2.925 0  -0.07499999999999996 -2.925 0  0.07499999999999996 -2.925 0  0.225 -2.925 0  0.375 -2.925 0  0.5249999999999999 -2.925 0  0.675 -2.925 0  -0.675 -2.775 0  -0.525 -2.775 0  -0.375 -2.775 0  -0.225 -2.775 0  -0.07499999999999996 -2.775 0  0.07499999999999996 -2.775 0  0.225 -2.775 0  0.375 -2.775 0  0.5249999999999999 -2.775 0  0.675 -2.775 0  -0.675 -2.625 0  -0.525 -2.625 0  -0.375 -2.625 0  -0.225 -2.625 0  -0.07499999999999996 -2.625 0  0.07499999999999996 -2.625 0  0.225 -2.625 0  0.375 -2.625 0  0.5249999999999999 -2.625 0  0.675 -2.625 0  -0.675 -2.475 0  -0.525 -2.475 0  -0.375 -2.475 0  -0.225 -2.475 0  -0.07499999999999996 -2.475 0  0.07499999999999996 -2.475 0  0.225 -2.475 0  0.375 -2.475 0  0.5249999999999999 -2.475 0  0.675 -2.475 0  -0.675 -2.325 0  -0.525 -2.325 0  -0.375 -2.325 0  -0.225 -2.325 0  -0.07499999999999996 -2.325 0  0.07499999999999996 -2.325 0  0.225 -2.325 0  0.375 -2.325 0  0.5249999999999999 -2.325 0  0.675 -2.325 0  -0.675 -2.175 0  -0.525 -2.175 0  -0.375 -2.175 0  -0.225 -2.175 0  -0.07499999999999996 -2.175 0  0.07499999999999996 -2.175 0  0.225 -2.175 0  0.375 -2.175 0  0.5249999999999999 -2.175 0  0.675 -2.175 0  -0.675 -2.025 0  -0.525 -2.025 0  -0.375 -2.025 0  -0.225 -2.025 0  -0.07499999999999996 -2.025 0  0.07499999999999996 -2.025 0  0.225 -2.025 0  0.375 -2.025 0  0.5249999999999999 -2.025 0  0.675 -2.025 0  -0.675 -1.875 0  -0.525 -1.875 0  -0.375 -1.875 0  -0.225 -1.875 0  -0.07499999999999996 -1.875 0  0.07499999999999996 -1.875 0  0.225 -1.875 0  0.375 -1.875 0  0.5249999999999999 -1.875 0  0.675 -1.875 0  -0.675 -1.725 0  -0.525 -1.725 0  -0.375 -1.725 0  -0.225 -1.725 0  -0.07499999999999996 -1.725 0  0.07499999999999996 -1.725 0  0.225 -1.725 0  0.375 -1.725 0  0.5249999999999999 -1.725 0  0.675 -1.725 0  -0.675 -1.575 0  -0.525 -1.575 0  -0.375 -1.575 0  -0.225 -1.575 0  -0.07499999999999996 -1.575 0  0.07499999999999996 -1.575 0  0.225 -1.575 0  0.375 -1.575 0  0.5249999999999999 -1.575 0  0.675 -1.575 0  -0.675 -1.425 0  -0.525 -1.425 0  -0.375 -1.425 0  -0.225 -1.425 0  -0.07499999999999996 -1.425 0  0.07499999999999996 -1.425 0  0.225 -1.425 0  0.375 -1.425 0  0.5249999999999999 -1.425 0  0.675 -1.425 0  -0.675 -1.275 0  -0.525 -1.275 0  -0.375 -1.275 0  -0.225 -1.275 0  -0.07499999999999996 -1.275 0  0.07499999999999996 -1.275 0  0.225 -1.275 0  0.375 -1.275 0  0.5249999999999999 -1.275 0  0.675 -1.275 0  -0.675 -1.125 0  -0.525 -1.125 0  -0.375 -1.125 0  -0.225 -1.125 0  -0.07499999999999996 -1.125 0  0.07499999999999996 -1.125 0  0.225 -1.125 0  0.375 -1.125 0  0.5249999999999999 -1.125 0  0.675 -1.125 0  -0.675 -0.9750000000000001 0  -0.525 -0.9750000000000001 0  -0.375 -0.9750000000000001 0  -0.225 -0.9750000000000001 0  -0.07499999999999996 -0.9750000000000001 0  0.07499999999999996 -0.9750000000000001 0  0.225 -0.9750000000000001 0  0.375 -0.9750000000000001 0  0.5249999999999999 -0.9750000000000001 0  0.675 -0.9750000000000001 0  -0.675 -0.8250000000000002 0  -0.525 -0.8250000000000002 0  -0.375 -0.8250000000000002 0  -0.225 -0.8250000000000002 0  -0.07499999999999996 -0.8250000000000002 0  0.07499999999999996 -0.8250000000000002 0  0.225 -0.8250000000000002 0  0.375 -0.8250000000000002 0  0.5249999999999999 -0.8250000000000002 0  0.675 -0.8250000000000002 0  -0.675 -0.6749999999999998 0  -0.525 -0.6749999999999998 0  -0.375 -0.6749999999999998 0  -0.225 -0.6749999999999998 0  -0.07499999999999996 -0.6749999999999998 0  0.07499999999999996 -0.6749999999999998 0  0.225 -0.6749999999999998 0  0.375 -0.6749999999999998 0  0.5249999999999999 -0.6749999999999998 0  0.675 -0.6749999999999998 0  -0.675 -0.5249999999999999 0  -0.525 -0.5249999999999999 0  -0.375 -0.5249999999999999 0  -0.225 -0.5249999999999999 0  -0.07499999999999996 -0.5249999999999999 0  0.07499999999999996 -0.5249999999999999 0  0.225 -0.5249999999999999 0  0.375 -0.5249999999999999 0  0.5249999999999999 -0.5249999999999999 0  0.675 -0.5249999999999999 0  -0.675 -0.375 0  -0.525 -0.375 0  -0.375 -0.375 0  -0.225 -0.375 0  -0.07499999999999996 -0.375 0  0.07499999999999996 -0.375 0  0.225 -0.375 0  0.375 -0.375 0  0.5249999999999999 -0.375 0  0.675 -0.375 0  -0.675 -0.2250000000000001 0  -0.525 -0.2250000000000001 0  -0.375 -0.2250000000000001 0  -0.225 -0.2250000000000001 0  -0.07499999999999996 -0.2250000000000001 0  0.07499999999999996 -0.2250000000000001 0  0.225 -0.2250000000000001 0  0.375 -0.2250000000000001 0  0.5249999999999999 -0.2250000000000001 0  0.675 -0.2250000000000001 0  -0.675 -0.07500000000000018 0  -0.525 -0.07500000000000018 0  -0.375 -0.07500000000000018 0  -0.225 -0.07500000000000018 0  -0.07499999999999996 -0.07500000000000018 0  0.07499999999999996 -0.07500000000000018 0  0.225 -0.07500000000000018 0  0.375 -0.07500000000000018 0  0.5249999999999999 -0.07500000000000018 0  0.675 -0.07500000000000018 0  </DataArray>
</Points>
<Cells>
[...]
<PointData  Vectors="flow"> 
<DataArray  type="Float64"  Name="flow"  NumberOfComponents="3" format="ascii">-1.1489332070178123e-316 -1.1726615001643715e-316 0.0000000000000000e+00  -4.7957321825178526e-318 -1.1496182784423358e-316 0.0000000000000000e+00  -2.0289793877762472e-319 -1.1305802986914413e-316 0.0000000000000000e+00  -6.5858950590638164e-321 -1.1319307283212192e-316 0.0000000000000000e+00  6.5858950590638164e-321 -1.1319768740525407e-316 0.0000000000000000e+00  1.3191552743961283e-321 -1.1315947636820471e-316 0.0000000000000000e+00  7.9050503334599447e-321 -1.1322140255625445e-316 0.0000000000000000e+00  -1.5810100666919889e-320 -1.1311468437675274e-316 0.0000000000000000e+00  2.1606972889575235e-319 -1.1318253441189612e-316 0.0000000000000000e+00  4.7832125590522354e-318 -1.1317133394370490e-316 0.0000000000000000e+00  1.1490122575211469e-316 -1.1320295414503874e-316 0.0000000000000000e+00  -1.9853533912484651e-316 -5.8227943648956984e-317 0.0000000000000000e+00  -8.3121604256331319e-318 -5.8779320909715815e-317 0.0000000000000000e+00  -3.5440810973130138e-319 -5.9146905750221702e-317 0.0000000000000000e+00  -7.2479430244910868e-321 -5.9051383098254756e-317 0.0000000000000000e+00  -3.3102398271363518e-322 -5.9050068883636818e-317 0.0000000000000000e+00  4.2835491494436075e-321 -5.9063571697737659e-317 0.0000000000000000e+00  -2.9643938750474793e-321 -5.9047430573088026e-317 0.0000000000000000e+00  2.6022437566458455e-320 -5.9068512354196072e-317 0.0000000000000000e+00  3.3530753186307879e-319 -5.9067193198921676e-317 0.0000000000000000e+00  8.3019480887335933e-318 -5.9053033277511866e-317 0.0000000000000000e+00  1.9860055579009756e-316 -5.9056654778695882e-317 0.0000000000000000e+00  -5.7172815573501480e-316 -2.0420918900168739e-316 0.0000000000000000e+00  -2.3890050239007635e-317 -2.0413804354868625e-316 0.0000000000000000e+00  -1.0006459744916519e-318 -2.0414594859901971e-316 0.0000000000000000e+00  -4.7099278018046033e-320 -2.0415385364935317e-316 0.0000000000000000e+00  -6.5710730896885790e-322 -2.0416439206957896e-316 0.0000000000000000e+00  7.2479430244910868e-321 -2.0415813719850261e-316 0.0000000000000000e+00  9.5502889341112957e-321 -2.0416933272603737e-316 0.0000000000000000e+00  2.3058043691410976e-320 -2.0416505411754439e-316 0.0000000000000000e+00  1.0111893353739041e-318 -2.0415088925547812e-316 0.0000000000000000e+00  2.3895648002775017e-317 -2.0416472309356167e-316 0.0000000000000000e+00  5.7168796843538208e-316 -2.0415385364935317e-316 0.0000000000000000e+00  -1.7777041861964483e-315 -6.4668450010419097e-316 0.0000000000000000e+00  -7.4337448097256669e-317 -6.4671052254175743e-316 0.0000000000000000e+00  -3.1251282516090120e-318 -6.4670920338648303e-316 0.0000000000000000e+00  -1.3603109426947041e-319 -6.4673555190737574e-316 0.0000000000000000e+00  -7.5740263507463095e-321 -6.4672600161844163e-316 0.0000000000000000e+00  1.7455339267571240e-320 -6.4672665872575060e-316 0.0000000000000000e+00  -5.9287877500949585e-321 -6.4670986049379200e-316 0.0000000000000000e+00  1.3899548814451789e-319 -6.4671513217423312e-316 0.0000000000000000e+00  3.0997678620079808e-318 -6.4672501348714995e-316 0.0000000000000000e+00  7.4320975948624322e-317 -6.4670294357475022e-316 0.0000000000000000e+00  1.7778339624196414e-315 -6.4671743946079920e-316 0.0000000000000000e+00  -5.5741368910898860e-315 -2.0315043942504787e-315 0.0000000000000000e+00  -2.3304286009298253e-316 -2.0315001107013292e-315 0.0000000000000000e+00  -9.7357265929648908e-318 -2.0315264592222219e-315 0.0000000000000000e+00  -4.1732242907272572e-319 -2.0314997796773465e-315 0.0000000000000000e+00  -8.5621576424288026e-321 -2.0315119682768294e-315 0.0000000000000000e+00  -6.5858950590638164e-321 -2.0315099920142460e-315 0.0000000000000000e+00  3.2277308642808637e-320 -2.0315182280885622e-315 0.0000000000000000e+00  4.0546485357253580e-319 -2.0315076847276800e-315 0.0000000000000000e+00  9.7469270611561118e-318 -2.0314895722811034e-315 0.0000000000000000e+00  2.3304878888073263e-316 -2.0314852887319540e-315 0.0000000000000000e+00  5.5740459830110512e-315 -2.0314734311564538e-315 0.0000000000000000e+00  -1.7491781549608491e-314 -6.3760765797432302e-315 0.0000000000000000e+00  -7.3118026396326992e-316 -6.3760854729248554e-315 0.0000000000000000e+00  -3.0643596593674762e-317 -6.3760571432007229e-315 0.0000000000000000e+00  -1.2127681188771327e-318 -6.3760699889075147e-315 0.0000000000000000e+00  -8.2345921192360562e-320 -6.3760301375725212e-315 0.0000000000000000e+00  1.0212336899538566e-320 -6.3760357353362886e-315 0.0000000000000000e+00  7.7405264733948096e-320 -6.3760386997301636e-315 0.0000000000000000e+00  1.2611865521695748e-318 -6.3760459476731881e-315 0.0000000000000000e+00  3.0618567228056444e-317 -6.3760620838571813e-315 0.0000000000000000e+00  7.3116017525411001e-316 -6.3760584623559972e-315 0.0000000000000000e+00  1.7491847423381051e-314 -6.3760765797432302e-315 0.0000000000000000e+00  -5.4893989001844235e-314 -2.0010159970159351e-314 0.0000000000000000e+00  -2.2951104812785270e-315 -2.0010171827734851e-314 0.0000000000000000e+00  -9.5598407052423445e-317 -2.0010165567923118e-314 0.0000000000000000e+00  -4.2183324841925630e-318 -2.0010159308111385e-314 0.0000000000000000e+00  -4.2489645542347203e-320 -2.0010157005765476e-314 0.0000000000000000e+00  -1.0538420225793789e-320 -2.0010168201293010e-314 0.0000000000000000e+00  5.7968722226553457e-320 -2.0010142840903409e-314 0.0000000000000000e+00  4.2374380027172440e-318 -2.0010143829034701e-314 0.0000000000000000e+00  9.5625086597298872e-317 -2.0010138557354260e-314 0.0000000000000000e+00  2.2950844637816170e-315 -2.0010157005765476e-314 0.0000000000000000e+00  5.4893739992758731e-314 -2.0010151403061052e-314 0.0000000000000000e+00  -1.7227664792870441e-313 -6.2797767936415110e-314 0.0000000000000000e+00  -7.1991774260912814e-315 -6.2797750812099826e-314 0.0000000000000000e+00  -3.0297159245007817e-316 -6.2797761681544034e-314 0.0000000000000000e+00  -1.1248229517204532e-317 -6.2797771231832968e-314 0.0000000000000000e+00  -1.2038749372519902e-318 -6.2797818005027660e-314 0.0000000000000000e+00  2.2069912399728483e-320 -6.2797782758384486e-314 0.0000000000000000e+00  1.2193540139361965e-318 -6.2797784734647069e-314 0.0000000000000000e+00  1.1233076523846581e-317 -6.2797800544747736e-314 0.0000000000000000e+00  3.0294590103649443e-316 -6.2797806147452160e-314 0.0000000000000000e+00  7.1991678758023473e-315 -6.2797816028765077e-314 0.0000000000000000e+00  1.7227682381607433e-313 -6.2797801532879028e-314 0.0000000000000000e+00  -5.4063265508145230e-313 -1.9707790014785986e-313 0.0000000000000000e+00  -2.2614414242959787e-314 -1.9707790245020577e-313 0.0000000000000000e+00  -9.3327024236828107e-316 -1.9707792550824946e-313 0.0000000000000000e+00  -4.7432935370652002e-317 -1.9707792254385559e-313 0.0000000000000000e+00  2.3622908944301273e-318 -1.9707791463880525e-313 0.0000000000000000e+00  0.0000000000000000e+00 -1.9707791991048569e-313 0.0000000000000000e+00  -2.3543858440966674e-318 -1.9707795185677035e-313 0.0000000000000000e+00  4.7408894136325367e-317 -1.9707794527087529e-313 0.0000000000000000e+00  9.3323895319092995e-316 -1.9707797030518157e-313 0.0000000000000000e+00  2.2614458377843930e-314 -1.9707796470247714e-313 0.0000000000000000e+00  5.4063248117034497e-313 -1.9707793374432378e-313 0.0000000000000000e+00  -1.6968023724447109e-312 -6.1848841216669630e-313 0.0000000000000000e+00  -7.0841001188014484e-314 -6.1848838054649497e-313 0.0000000000000000e+00  -3.0339695184501180e-315 -6.1848836802687151e-313 0.0000000000000000e+00  -7.7165148830069250e-317 -6.1848836242910774e-313 0.0000000000000000e+00  -2.8327090762644743e-317 -6.1848832619927393e-313 0.0000000000000000e+00  1.0869444208507424e-320 -6.1848837066518205e-313 0.0000000000000000e+00  2.8303375611644363e-317 -6.1848836605060892e-313 0.0000000000000000e+00  7.7169432379218694e-317 -6.1848838219173357e-313 0.0000000000000000e+00  3.0339174735749851e-315 -6.1848837329855195e-313 0.0000000000000000e+00  7.0840985046889834e-314 -6.1848835122863955e-313 0.0000000000000000e+00  1.6968026906229869e-312 -6.1848842402427180e-313 0.0000000000000000e+00  -5.3242134847373100e-312 -1.9409981215501127e-312 0.0000000000000000e+00  -2.2311044794267083e-313 -1.9409981808379902e-312 0.0000000000000000e+00  -8.8910130079811774e-315 -1.9409981637087343e-312 0.0000000000000000e+00  -6.6255718406646957e-316 -1.9409981604133164e-312 0.0000000000000000e+00  1.1628394751250476e-316 -1.9409981301122704e-312 0.0000000000000000e+00  -1.4490945392523761e-320 -1.9409981311004017e-312 0.0000000000000000e+00  -1.1629382882542158e-316 -1.9409981146331937e-312 0.0000000000000000e+00  6.6256969874927873e-316 -1.9409981169355396e-312 0.0000000000000000e+00  8.8910370492155041e-315 -1.9409980823509444e-312 0.0000000000000000e+00  2.2311040709826389e-313 -1.9409981189118022e-312 0.0000000000000000e+00  5.3242135822312839e-312 -1.9409980504046597e-312 0.0000000000000000e+00  -1.6714183991141412e-311 -6.0914219539890268e-312 0.0000000000000000e+00  -6.9535620561155342e-313 -6.0914218960203045e-312 0.0000000000000000e+00  -3.1674238938764037e-314 -6.0914218525425277e-312 0.0000000000000000e+00  3.6280162794683519e-316 -6.0914218209223264e-312 0.0000000000000000e+00  -7.9413477060432698e-316 -6.0914218686836523e-312 0.0000000000000000e+00  -8.8931816251424378e-321 -6.0914218449685013e-312 0.0000000000000000e+00  7.9407877320402733e-316 -6.0914218627548646e-312 0.0000000000000000e+00  -3.6275551185945237e-316 -6.0914218690097357e-312 0.0000000000000000e+00  3.1674279783170978e-314 -6.0914219029372236e-312 0.0000000000000000e+00  6.9535620000884899e-313 -6.0914218476018712e-312 0.0000000000000000e+00  1.6714183888375757e-311 -6.0914218821864664e-312 0.0000000000000000e+00  -5.2421587397499422e-311 -1.9116670214102035e-311 0.0000000000000000e+00  -2.2118445489204939e-312 -1.9116670268775339e-311 0.0000000000000000e+00  -7.6907968886914339e-314 -1.9116670242095794e-311 0.0000000000000000e+00  -1.2846967647400597e-314 -1.9116670283597309e-311 0.0000000000000000e+00  3.8836560372008866e-315 -1.9116670274378044e-311 0.0000000000000000e+00  -3.0301046059443651e-320 -1.9116670287223751e-311 0.0000000000000000e+00  -3.8835934588461843e-315 -1.9116670263834683e-311 0.0000000000000000e+00  1.2846913631203537e-314 -1.9116670272070757e-311 0.0000000000000000e+00  7.6907985354122315e-314 -1.9116670241438687e-311 0.0000000000000000e+00  2.2118446286281045e-312 -1.9116670289857120e-311 0.0000000000000000e+00  5.2421587142561549e-311 -1.9116670262189444e-311 0.0000000000000000e+00  -1.6471663412584557e-310 -5.9993723684964572e-311 0.0000000000000000e+00  -6.7590068897251130e-312 -5.9993723605914069e-311 0.0000000000000000e+00  -3.7487253209971774e-313 -5.9993723717246822e-311 0.0000000000000000e+00  3.8099549817222656e-314 -5.9993723725151872e-311 0.0000000000000000e+00  -2.1498755383880061e-314 -5.9993723683976441e-311 0.0000000000000000e+00  2.1407864434301213e-320 -5.9993723675083259e-311 0.0000000000000000e+00  2.1498719485070234e-314 -5.9993723642805951e-311 0.0000000000000000e+00  -3.8099514906544121e-314 -5.9993723646427452e-311 0.0000000000000000e+00  3.7487254066187538e-313 -5.9993723657296896e-311 0.0000000000000000e+00  6.7590069015826885e-312 -5.9993723655651658e-311 0.0000000000000000e+00  1.6471663394863905e-310 -5.9993723645439321e-311 0.0000000000000000e+00  -5.1565401999519266e-310 -1.8827791802762293e-310 0.0000000000000000e+00  -2.2341993153935239e-311 -1.8827791811029493e-310 0.0000000000000000e+00  -3.9036654471942175e-313 -1.8827791806813631e-310 0.0000000000000000e+00  -3.0610978149007666e-313 -1.8827791804178779e-310 0.0000000000000000e+00  9.9520970433151004e-314 -1.8827791809283959e-310 0.0000000000000000e+00  5.2716804411261006e-321 -1.8827791808855604e-310 0.0000000000000000e+00  -9.9520928600612770e-314 -1.8827791809843736e-310 0.0000000000000000e+00  3.0610982727514006e-313 -1.8827791804903079e-310 0.0000000000000000e+00  3.9036649168641533e-313 -1.8827791803651611e-310 0.0000000000000000e+00  2.2341993108812224e-311 -1.8827791805858602e-310 0.0000000000000000e+00  5.1565402017964219e-310 -1.8827791806319565e-310 0.0000000000000000e+00  -1.6264259467206377e-309 -5.9087138240708689e-310 0.0000000000000000e+00  -6.3061279293603512e-311 -5.9087138231519068e-310 0.0000000000000000e+00  -5.7876987269572475e-312 -5.9087138234977528e-310 0.0000000000000000e+00  1.2305747734034922e-312 -5.9087138233923686e-310 0.0000000000000000e+00  -4.3134771166525635e-313 -5.9087138226907954e-310 0.0000000000000000e+00  2.4703282292062327e-320 -5.9087138226216262e-310 0.0000000000000000e+00  4.3134775448592588e-313 -5.9087138225524570e-310 0.0000000000000000e+00  -1.2305747905327482e-312 -5.9087138233001265e-310 0.0000000000000000e+00  5.7876987668135231e-312 -5.9087138234220125e-310 0.0000000000000000e+00  6.3061279201045254e-311 -5.9087138239061474e-310 0.0000000000000000e+00  1.6264259468332847e-309 -5.9087138241367279e-310 0.0000000000000000e+00  -5.0510031051938938e-309 -1.8543278685407981e-309 0.0000000000000000e+00  -2.4232291701613912e-310 -1.8543278686023933e-309 0.0000000000000000e+00  7.5745614607326374e-312 -1.8543278685773589e-309 0.0000000000000000e+00  -6.3775643813614404e-312 -1.8543278685747256e-309 0.0000000000000000e+00  1.3669355365966514e-312 -1.8543278685902047e-309 0.0000000000000000e+00  -2.1081781108045990e-320 -1.8543278685678087e-309 0.0000000000000000e+00  -1.3669355020120562e-312 -1.8543278686238011e-309 0.0000000000000000e+00  6.3775644890677512e-312 -1.8543278685470579e-309 0.0000000000000000e+00  -7.5745616066450446e-312 -1.8543278686959347e-309 0.0000000000000000e+00  2.4232291695618919e-310 -1.8543278685197163e-309 0.0000000000000000e+00  5.0510031054165593e-309 -1.8543278686732126e-309 0.0000000000000000e+00  -1.6209971047374837e-308 -5.8194252536021021e-309 0.0000000000000000e+00  -4.7817764914792688e-310 -5.8194252535928779e-309 0.0000000000000000e+00  -1.1219192713822820e-310 -5.8194252535556599e-309 0.0000000000000000e+00  1.8735860972729740e-311 -5.8194252535981496e-309 0.0000000000000000e+00  -2.3449668712253256e-312 -5.8194252535438023e-309 0.0000000000000000e+00  2.9974962733188428e-320 -5.8194252536172551e-309 0.0000000000000000e+00  2.3449668340024199e-312 -5.8194252536136286e-309 0.0000000000000000e+00  -1.8735860978332445e-311 -5.8194252536725904e-309 0.0000000000000000e+00  1.1219192715568354e-310 -5.8194252535849778e-309 0.0000000000000000e+00  4.7817764916703240e-310 -5.8194252536683069e-309 0.0000000000000000e+00  1.6209971047166682e-308 -5.8194252535889303e-309 0.0000000000000000e+00  -4.8316514689441831e-308 -1.8263064939287179e-308 0.0000000000000000e+00  -3.3014713531577576e-309 -1.8263064939300346e-308 0.0000000000000000e+00  2.3905456826742434e-310 -1.8263064939331309e-308 0.0000000000000000e+00  -1.6827443786550873e-311 -1.8263064939258849e-308 0.0000000000000000e+00  1.1242357342806378e-312 -1.8263064939375775e-308 0.0000000000000000e+00  -1.6452386006513510e-321 -1.8263064939335266e-308 0.0000000000000000e+00  -1.1242357500907384e-312 -1.8263064939306606e-308 0.0000000000000000e+00  1.6827443799065556e-311 -1.8263064939302984e-308 0.0000000000000000e+00  -2.3905456831189025e-310 -1.8263064939298705e-308 0.0000000000000000e+00  3.3014713530220575e-309 -1.8263064939386639e-308 0.0000000000000000e+00  4.8316514690097318e-308 -1.8263064939251616e-308 0.0000000000000000e+00  -1.7225115570523721e-307 -5.7314859533845254e-308 0.0000000000000000e+00  5.4877214536123021e-310 -5.7314859533815610e-308 0.0000000000000000e+00  1.1838954379401417e-310 -5.7314859533831420e-308 0.0000000000000000e+00  -2.0004808127567187e-311 -5.7314859533892032e-308 0.0000000000000000e+00  2.7986370695535149e-312 -5.7314859533883129e-308 0.0000000000000000e+00  -4.9406564584124654e-321 -5.7314859533865362e-308 0.0000000000000000e+00  -2.7986370534123902e-312 -5.7314859533902545e-308 0.0000000000000000e+00  2.0004808015577327e-311 -5.7314859533850194e-308 0.0000000000000000e+00  -1.1838954370014170e-310 -5.7314859533877210e-308 0.0000000000000000e+00  -5.4877214542776603e-310 -5.7314859533777369e-308 0.0000000000000000e+00  1.7225115570549687e-307 -5.7314859533949373e-308 0.0000000000000000e+00  -2.7265870543941281e-307 3.0632873246378478e-307 0.0000000000000000e+00  7.1371927740145456e-309 3.0632873246374790e-307 0.0000000000000000e+00  -4.9230384889791617e-310 3.0632873246377094e-307 0.0000000000000000e+00  4.7049359652835644e-311 3.0632873246378675e-307 0.0000000000000000e+00  -5.1893886925865680e-312 3.0632873246378608e-307 0.0000000000000000e+00  1.9762625833649862e-321 3.0632873246374138e-307 0.0000000000000000e+00  5.1893886787527299e-312 3.0632873246380652e-307 0.0000000000000000e+00  -4.7049359615286655e-311 3.0632873246377300e-307 0.0000000000000000e+00  4.9230384873520553e-310 3.0632873246392715e-307 0.0000000000000000e+00  -7.1371927740520896e-309 3.0632873246390059e-307 0.0000000000000000e+00  2.7265870543976475e-307 3.0632873246410118e-307 0.0000000000000000e+00  8.1630845161165150e-317 1.0826032142404291e-316 0.0000000000000000e+00  3.4314489520305849e-318 1.0991906777945156e-316 0.0000000000000000e+00  1.5546763677686505e-319 1.0953172031311202e-316 0.0000000000000000e+00  -1.0538420225793789e-320 1.0956136425186250e-316 0.0000000000000000e+00  9.8813129168249309e-321 1.0955345920152904e-316 0.0000000000000000e+00  -1.9105518524681004e-320 1.0953303452772996e-316 0.0000000000000000e+00  -3.9525251667299724e-321 1.0953896331548006e-316 0.0000000000000000e+00  -1.3768127352658017e-319 1.0956202135917147e-316 0.0000000000000000e+00  -3.4051004311378712e-318 1.0954160162602885e-316 0.0000000000000000e+00  -8.1631502268474119e-317 1.0955872594131371e-316 0.0000000000000000e+00  2.0061634362512984e-316 2.3575561151263369e-316 0.0000000000000000e+00  8.3951634541344613e-318 2.3597036208625505e-316 0.0000000000000000e+00  3.4518884477990372e-319 2.3603426453688816e-316 0.0000000000000000e+00  3.2277308642808637e-320 2.3601976865083917e-316 0.0000000000000000e+00  -2.1738888417014848e-320 2.3602174491342254e-316 0.0000000000000000e+00  -1.5810100666919889e-320 2.3602240696138797e-316 0.0000000000000000e+00  1.7129255941316018e-320 2.3604085043194722e-316 0.0000000000000000e+00  -3.6495147061355358e-319 2.3601713528094684e-316 0.0000000000000000e+00  -8.3780341981931453e-318 2.3603689790678049e-316 0.0000000000000000e+00  -2.0062424867546330e-316 2.3601120649319674e-316 0.0000000000000000e+00  6.1193257968302665e-316 7.6295988545905329e-316 0.0000000000000000e+00  2.5569542410885160e-317 7.6295263751602880e-316 0.0000000000000000e+00  1.0961686264585985e-318 7.6296054256636226e-316 0.0000000000000000e+00  4.8087409309728526e-320 7.6297437640444582e-316 0.0000000000000000e+00  -7.2479430244910868e-321 7.6297635266702918e-316 0.0000000000000000e+00  -1.8443470559253733e-320 7.6298689602791143e-316 0.0000000000000000e+00  -2.6348520892713678e-320 7.6295395667130320e-316 0.0000000000000000e+00  -1.0605958999580287e-318 7.6299545818555386e-316 0.0000000000000000e+00  -2.5603138874802365e-317 7.6296581424680339e-316 0.0000000000000000e+00  -6.1191676958235973e-316 7.6297503845241124e-316 0.0000000000000000e+00  1.9148027932849185e-315 2.4014831458521301e-315 0.0000000000000000e+00  8.0091993716032795e-317 2.4015239902590718e-315 0.0000000000000000e+00  3.3589892844115076e-318 2.4015621963554647e-315 0.0000000000000000e+00  1.5282932622807279e-319 2.4015701014057981e-315 0.0000000000000000e+00  -1.1857575500189917e-320 2.4015674680359058e-315 0.0000000000000000e+00  -1.7129255941316018e-320 2.4015470433621067e-315 0.0000000000000000e+00  -1.3768127352658017e-319 2.4015621963554647e-315 0.0000000000000000e+00  -3.3477888162202866e-318 2.4014930271650469e-315 0.0000000000000000e+00  -8.0056420989532225e-317 2.4015180614713217e-315 0.0000000000000000e+00  -1.9148278275911932e-315 2.4014910509024635e-315 0.0000000000000000e+00  6.0075642100377792e-315