<?xml version="1.0"?>
<VTKFile type="UnstructuredGrid"  version="0.1"  >
<UnstructuredGrid>
<Piece  NumberOfPoints="431" NumberOfCells="800">
<Points>
<DataArray  type="Float64"  NumberOfComponents="3"  format="ascii">-0.75 -3 0  -0.6 -3 0  -0.45 -3 0  -0.3 -3 0  -0.15 -3 0  0 -3 0  0.15 -3 0  0.3 -3 0  0.45 -3 0  0.6000000000000001 -3 0  0.75 -3 0  -0.75 -2.85 0  -0.6 -2.85 0  -0.45 -2.85 0  -0.3 -2.85 0  -0.15 -2.85 0  0 -2.85 0  0.15 -2.85 0  0.3 -2.85 0  0.45 -2.85 0  0.6000000000000001 -2.85 0  0.75 -2.85 0  -0.75 -2.7 0  -0.6 -2.7 0  -0.45 -2.7 0  -0.3 -2.7 0  -0.15 -2.7 0  0 -2.7 0  0.15 -2.7 0  0.3 -2.7 0  0.45 -2.7 0  0.6000000000000001 -2.7 0  0.75 -2.7 0  -0.75 -2.55 0  -0.6 -2.55 0  -0.45 -2.55 0  -0.3 -2.55 0  -0.15 -2.55 0  0 -2.55 0  0.15 -2.55 0  0.3 -2.55 0  0.45 -2.55 0  0.6000000000000001 -2.55 0  0.75 -2.55 0  -0.75 -2.4 0  -0.6 -2.4 0  -0.45 -2.4 0  -0.3 -2.4 0  -0.15 -2.4 0  0 -2.4 0  0.15 -2.4 0  0.3 -2.4 0  0.45 -2.4 0  0.6000000000000001 -2.4 0  0.75 -2.4 0  -0.75 -2.25 0  -0.6 -2.25 0  -0.45 -2.25 0  -0.3 -2.25 0  -0.15 -2.25 0  0 -2.25 0  0.15 -2.25 0  0.3 -2.25 0  0.45 -2.25 0  0.6000000000000001 -2.25 0  0.75 -2.25 0  -0.75 -2.1 0  -0.6 -2.1 0  -0.45 -2.1 0  -0.3 -2.1 0  -0.15 -2.1 0  0 -2.1 0  0.15 -2.1 0  0.3 -2.1 0  0.45 -2.1 0  0.6000000000000001 -2.1 0  0.75 -2.1 0  -0.75 -1.95 0  -0.6 -1.95 0  -0.45 -1.95 0  -0.3 -1.95 0  -0.15 -1.95 0  0 -1.95 0  0.15 -1.95 0  0.3 -1.95 0  0.45 -1.95 0  0.6000000000000001 -1.95 0  0.75 -1.95 0  -0.75 -1.8 0  -0.6 -1.8 0  -0.45 -1.8 0  -0.3 -1.8 0  -0.15 -1.8 0  0 -1.8 0  0.15 -1.8 0  0.3 -1.8 0  0.45 -1.8 0  0.6000000000000001 -1.8 0  0.75 -1.8 0  -0.75 -1.65 0  -0.6 -1.65 0  -0.45 -1.65 0  -0.3 -1.65 0  -0.15 -1.65 0  0 -1.65 0  0.15 -1.65 0  0.3 -1.65 0  0.45 -1.65 0  0.6000000000000001 -1.65 0  0.75 -1.65 0  -0.75 -1.5 0  -0.6 -1.5 0  -0.45 -1.5 0  -0.3 -1.5 0  -0.15 -1.5 0  0 -1.5 0  0.15 -1.5 0  0.3 -1.5 0  0.45 -1.5 0  0.6000000000000001 -1.5 0  0.75 -1.5 0  -0.75 -1.35 0  -0.6 -1.35 0  -0.45 -1.35 0  -0.3 -1.35 0  -0.15 -1.35 0  0 -1.35 0  0.15 -1.35 0  0.3 -1.35 0  0.45 -1.35 0  0.6000000000000001 -1.35 0  0.75 -1.35 0  -0.75 -1.2 0  -0.6 -1.2 0  -0.45 -1.2 0  -0.3 -1.2 0  -0.15 -1.2 0  0 -1.2 0  0.15 -1.2 0  0.3 -1.2 0  0.45 -1.2 0  0.6000000000000001 -1.2 0  0.75 -1.2 0  -0.75 -1.05 0  -0.6 -1.05 0  -0.45 -1.05 0  -0.3 -1.05 0  -0.15 -1.05 0  0 -1.05 0  0.15 -1.05 0  0.3 -1.05 0  0.45 -1.05 0  0.6000000000000001 -1.05 0  0.75 -1.05 0  -0.75 -0.8999999999999999 0  -0.6 -0.8999999999999999 0  -0.45 -0.8999999999999999 0  -0.3 -0.8999999999999999 0  -0.15 -0.8999999999999999 0  0 -0.8999999999999999 0  0.15 -0.8999999999999999 0  0.3 -0.8999999999999999 0  0.45 -0.8999999999999999 0  0.6000000000000001 -0.8999999999999999 0  0.75 -0.8999999999999999 0  -0.75 -0.75 0  -0.6 -0.75 0  -0.45 -0.75 0  -0.3 -0.75 0  -0.15 -0.75 0  0 -0.75 0  0.15 -0.75 0  0.3 -0.75 0  0.45 -0.75 0  0.6000000000000001 -0.75 0  0.75 -0.75 0  -0.75 -0.6000000000000001 0  -0.6 -0.6000000000000001 0  -0.45 -0.6000000000000001 0  -0.3 -0.6000000000000001 0  -0.15 -0.6000000000000001 0  0 -0.6000000000000001 0  0.15 -0.6000000000000001 0  0.3 -0.6000000000000001 0  0.45 -0.6000000000000001 0  0.6000000000000001 -0.6000000000000001 0  0.75 -0.6000000000000001 0  -0.75 -0.4500000000000002 0  -0.6 -0.4500000000000002 0  -0.45 -0.4500000000000002 0  -0.3 -0.4500000000000002 0  -0.15 -0.4500000000000002 0  0 -0.4500000000000002 0  0.15 -0.4500000000000002 0  0.3 -0.4500000000000002 0  0.45 -0.4500000000000002 0  0.6000000000000001 -0.4500000000000002 0  0.75 -0.4500000000000002 0  -0.75 -0.2999999999999998 0  -0.6 -0.2999999999999998 0  -0.45 -0.2999999999999998 0  -0.3 -0.2999999999999998 0  -0.15 -0.2999999999999998 0  0 -0.2999999999999998 0  0.15 -0.2999999999999998 0  0.3 -0.2999999999999998 0  0.45 -0.2999999999999998 0  0.6000000000000001 -0.2999999999999998 0  0.75 -0.2999999999999998 0  -0.75 -0.1499999999999999 0  -0.6 -0.1499999999999999 0  -0.45 -0.1499999999999999 0  -0.3 -0.1499999999999999 0  -0.15 -0.1499999999999999 0  0 -0.1499999999999999 0  0.15 -0.1499999999999999 0  0.3 -0.1499999999999999 0  0.45 -0.1499999999999999 0  0.6000000000000001 -0.1499999999999999 0  0.75 -0.1499999999999999 0  -0.75 0 0  -0.6 0 0  -0.45 0 0  -0.3 0 0  -0.15 0 0  0 0 0  0.15 0 0  0.3 0 0  0.45 0 0  0.6000000000000001 0 0  0.75 0 0  -0.675 -2.925 0  -0.525 -2.925 0  -0.375 -2.925 0  -0.225 -2.925 0  -0.07499999999999996 -2.925 0  0.07499999999999996 -2.925 0  0.225 -2.925 0  0.375 -2.925 0  0.5249999999999999 -2.925 0  0.675 -2.925 0  -0.675 -2.775 0  -0.525 -2.775 0  -0.375 -2.775 0  -0.225 -2.775 0  -0.07499999999999996 -2.775 0  0.07499999999999996 -2.775 0  0.225 -2.775 0  0.375 -2.775 0  0.5249999999999999 -2.775 0  0.675 -2.775 0  -0.675 -2.625 0  -0.525 -2.625 0  -0.375 -2.625 0  -0.225 -2.625 0  -0.07499999999999996 -2.625 0  0.07499999999999996 -2.625 0  0.225 -2.625 0  0.375 -2.625 0  0.5249999999999999 -2.625 0  0.675 -2.625 0  -0.675 -2.475 0  -0.525 -2.475 0  -0.375 -2.475 0  -0.225 -2.475 0  -0.07499999999999996 -2.475 0  0.07499999999999996 -2.475 0  0.225 -2.475 0  0.375 -2.475 0  0.5249999999999999 -2.475 0  0.675 -2.475 0  -0.675 -2.325 0  -0.525 -2.325 0  -0.375 -2.325 0  -0.225 -2.325 0  -0.07499999999999996 -2.325 0  0.07499999999999996 -2.325 0  0.225 -2.325 0  0.375 -2.325 0  0.5249999999999999 -2.325 0  0.675 -2.325 0  -0.675 -2.175 0  -0.525 -2.175 0  -0.375 -2.175 0  -0.225 -2.175 0  -0.07499999999999996 -2.175 0  0.07499999999999996 -2.175 0  0.225 -2.175 0  0.375 -2.175 0  0.5249999999999999 -2.175 0  0.675 -2.175 0  -0.675 -2.025 0  -0.525 -2.025 0  -0.375 -2.025 0  -0.225 -2.025 0  -0.07499999999999996 -2.025 0  0.07499999999999996 -2.025 0  0.225 -2.025 0  0.375 -2.025 0  0.5249999999999999 -2.025 0  0.675 -2.025 0  -0.675 -1.875 0  -0.525 -1.875 0  -0.375 -1.875 0  -0.225 -1.875 0  -0.07499999999999996 -1.875 0  0.07499999999999996 -1.875 0  0.225 -1.875 0  0.375 -1.875 0  0.5249999999999999 -1.875 0  0.675 -1.875 0  -0.675 -1.725 0  -0.525 -1.725 0  -0.375 -1.725 0  -0.225 -1.725 0  -0.07499999999999996 -1.725 0  0.07499999999999996 -1.725 0  0.225 -1.725 0  0.375 -1.725 0  0.5249999999999999 -1.725 0  0.675 -1.725 0  -0.675 -1.575 0  -0.525 -1.575 0  -0.375 -1.575 0  -0.225 -1.575 0  -0.07499999999999996 -1.575 0  0.07499999999999996 -1.575 0  0.225 -1.575 0  0.375 -1.575 0  0.5249999999999999 -1.575 0  0.675 -1.575 0  -0.675 -1.425 0  -0.525 -1.425 0  -0.375 -1.425 0  -0.225 -1.425 0  -0.07499999999999996 -1.425 0  0.07499999999999996 -1.425 0  0.225 -1.425 0  0.375 -1.425 0  0.5249999999999999 -1.425 0  0.675 -1.425 0  -0.675 -1.275 0  -0.525 -1.275 0  -0.375 -1.275 0  -0.225 -1.275 0  -0.07499999999999996 -1.275 0  0.07499999999999996 -1.275 0  0.225 -1.275 0  0.375 -1.275 0  0.5249999999999999 -1.275 0  0.675 -1.275 0  -0.675 -1.125 0  -0.525 -1.125 0  -0.375 -1.125 0  -0.225 -1.125 0  -0.07499999999999996 -1.125 0  0.07499999999999996 -1.125 0  0.225 -1.125 0  0.375 -1.125 0  0.5249999999999999 -1.125 0  0.675 -1.125 0  -0.675 -0.9750000000000001 0  -0.525 -0.9750000000000001 0  -0.375 -0.9750000000000001 0  -0.225 -0.9750000000000001 0  -0.07499999999999996 -0.9750000000000001 0  0.07499999999999996 -0.9750000000000001 0  0.225 -0.9750000000000001 0  0.375 -0.9750000000000001 0  0.5249999999999999 -0.9750000000000001 0  0.675 -0.9750000000000001 0  -0.675 -0.8250000000000002 0  -0.525 -0.8250000000000002 0  -0.375 -0.8250000000000002 0  -0.225 -0.8250000000000002 0  -0.07499999999999996 -0.8250000000000002 0  0.07499999999999996 -0.8250000000000002 0  0.225 -0.8250000000000002 0  0.375 -0.8250000000000002 0  0.5249999999999999 -0.8250000000000002 0  0.675 -0.8250000000000002 0  -0.675 -0.6749999999999998 0  -0.525 -0.6749999999999998 0  -0.375 -0.6749999999999998 0  -0.225 -0.6749999999999998 0  -0.07499999999999996 -0.6749999999999998 0  0.07499999999999996 -0.6749999999999998 0  0.225 -0.6749999999999998 0  0.375 -0.6749999999999998 0  0.5249999999999999 -0.6749999999999998 0  0.675 -0.6749999999999998 0  -0.675 -0.5249999999999999 0  -0.525 -0.5249999999999999 0  -0.375 -0.5249999999999999 0  -0.225 -0.5249999999999999 0  -0.07499999999999996 -0.5249999999999999 0  0.07499999999999996 -0.5249999999999999 0  0.225 -0.5249999999999999 0  0.375 -0.5249999999999999 0  0.5249999999999999 -0.5249999999999999 0  0.675 -0.5249999999999999 0  -0.675 -0.375 0  -0.525 -0.375 0  -0.375 -0.375 0  -0.225 -0.375 0  -0.07499999999999996 -0.375 0  0.07499999999999996 -0.375 0  0.225 -0.375 0  0.375 -0.375 0  0.5249999999999999 -0.375 0  0.675 -0.375 0  -0.675 -0.2250000000000001 0  -0.525 -0.2250000000000001 0  -0.375 -0.2250000000000001 0  -0.225 -0.2250000000000001 0  -0.07499999999999996 -0.2250000000000001 0  0.07499999999999996 -0.2250000000000001 0  0.225 -0.2250000000000001 0  0.375 -0.2250000000000001 0  0.5249999999999999 -0.2250000000000001 0  0.675 -0.2250000000000001 0  -0.675 -0.07500000000000018 0  -0.525 -0.07500000000000018 0  -0.375 -0.07500000000000018 0  -0.225 -0.07500000000000018 0  -0.07499999999999996 -0.07500000000000018 0  0.07499999999999996 -0.07500000000000018 0  0.225 -0.07500000000000018 0  0.375 -0.07500000000000018 0  0.5249999999999999 -0.07500000000000018 0  0.675 -0.07500000000000018 0  </DataArray>
</Points>
<Cells>
[...]
<PointData  Vectors="flow"> 
<DataArray  type="Float64"  Name="flow"  NumberOfComponents="3" format="ascii">-7.3361291536636741e-03 -2.3360754812079762e+01 0.0000000000000000e+00  -3.3154960886597447e-03 -1.0557678250376750e+01 0.0000000000000000e+00  3.0585490457086986e-04 9.7394706173948908e-01 0.0000000000000000e+00  -3.9949663354415939e-05 -1.2721344879561858e-01 0.0000000000000000e+00  5.7414700184578225e-06 1.8282812441370113e-02 0.0000000000000000e+00  -8.6389207722008156e-07 -2.7509290768085904e-03 0.0000000000000000e+00  1.3354876793798600e-07 4.2526514431614056e-04 0.0000000000000000e+00  -2.1017105097280704e-08 -6.6925680935168955e-05 0.0000000000000000e+00  3.3518350158822205e-09 1.0673393875224263e-05 0.0000000000000000e+00  -5.5311226076265949e-10 -1.7612994041658587e-06 0.0000000000000000e+00  1.7466163460313026e-10 5.5618263195422619e-07 0.0000000000000000e+00  1.4961784661570246e-03 4.7643460973629157e+00 0.0000000000000000e+00  5.2907773079137476e-04 1.6847652061000613e+00 0.0000000000000000e+00  -1.8394306596368674e-04 -5.8573789710530744e-01 0.0000000000000000e+00  2.9559049259268766e-05 9.4126164869809820e-02 0.0000000000000000e+00  -4.6377478902714228e-06 -1.4768182112874208e-02 0.0000000000000000e+00  7.3247978696196094e-07 2.3324672111964366e-03 0.0000000000000000e+00  -1.1676283048999538e-07 -3.7181295436695125e-04 0.0000000000000000e+00  1.8768120872491219e-08 5.9764142751874455e-05 0.0000000000000000e+00  -3.0397961730839199e-09 -9.6797550303007337e-06 0.0000000000000000e+00  5.0775964564871576e-10 1.6168811013290876e-06 0.0000000000000000e+00  -1.6175953581053700e-10 -5.1509791818463827e-07 0.0000000000000000e+00  -7.1453740770823732e-05 -2.2753325133589181e-01 0.0000000000000000e+00  1.2134039026398804e-05 3.8638947684604158e-02 0.0000000000000000e+00  3.3218010162152294e-05 1.0577755305134984e-01 0.0000000000000000e+00  -1.1674744428137676e-05 -3.7176395939433018e-02 0.0000000000000000e+00  2.4285512350220590e-06 7.7333412159996361e-03 0.0000000000000000e+00  -4.4554046840499531e-07 -1.4187538718658480e-03 0.0000000000000000e+00  7.7977480744053929e-08 2.4830707998315413e-04 0.0000000000000000e+00  -1.3361289964530166e-08 -4.2546936169820967e-05 0.0000000000000000e+00  2.2672572820518436e-09 7.2197258734825791e-06 0.0000000000000000e+00  -3.9283989162831634e-10 -1.2509371354442492e-06 0.0000000000000000e+00  1.2850042305598026e-10 4.0918948036242496e-07 0.0000000000000000e+00  6.4146506157731063e-06 2.0426450666479367e-02 0.0000000000000000e+00  -2.5689067573148705e-06 -8.1802814039550701e-03 0.0000000000000000e+00  -2.3507712191681054e-06 -7.4856629320456895e-03 0.0000000000000000e+00  2.3673260777489230e-06 7.5383792875179821e-03 0.0000000000000000e+00  -8.1538544634477756e-07 -2.5964673045438349e-03 0.0000000000000000e+00  1.9374299032037945e-07 6.1694422203202939e-04 0.0000000000000000e+00  -3.9733962136776324e-08 -1.2652658203626908e-04 0.0000000000000000e+00  7.5814606860857615e-09 2.4141974670200988e-05 0.0000000000000000e+00  -1.3908910376237122e-09 -4.4290747640422941e-06 0.0000000000000000e+00  2.5622855949377575e-10 8.1591973489142044e-07 0.0000000000000000e+00  -8.7578398574063037e-11 -2.7887969978030680e-07 0.0000000000000000e+00  -7.0509293376216186e-07 -2.2452580646187196e-03 0.0000000000000000e+00  3.7442237520904485e-07 1.1922894376862052e-03 0.0000000000000000e+00  1.5611593404306646e-07 4.9712675186717168e-04 0.0000000000000000e+00  -3.1022027691819084e-07 -9.8784790657647907e-04 0.0000000000000000e+00  1.8021010461483851e-07 5.7385086608843067e-04 0.0000000000000000e+00  -6.0626508780490363e-08 -1.9305562607579532e-04 0.0000000000000000e+00  1.5492137255589176e-08 4.9332285782096312e-05 0.0000000000000000e+00  -3.4345346675038196e-09 -1.0936737969106762e-05 0.0000000000000000e+00  7.0266831583820461e-10 2.2375372484160408e-06 0.0000000000000000e+00  -1.4105484286247337e-10 -4.4916706483024188e-07 0.0000000000000000e+00  5.1245303502560625e-11 1.6318264650453745e-07 0.0000000000000000e+00  8.6001976360584120e-08 2.7385983003183005e-04 0.0000000000000000e+00  -5.2896972803625743e-08 -1.6844212882343232e-04 0.0000000000000000e+00  -7.6163267875059250e-09 -2.4253000311853075e-05 0.0000000000000000e+00  3.7352910245922975e-08 1.1894449504570865e-04 0.0000000000000000e+00  -3.0384708103454973e-08 -9.6755346201469799e-05 0.0000000000000000e+00  1.4227070606425767e-08 4.5303879085182208e-05 0.0000000000000000e+00  -4.6935236742552526e-09 -1.4945791365220456e-05 0.0000000000000000e+00  1.2512630255545134e-09 3.9844512185015617e-06 0.0000000000000000e+00  -2.9353527531635553e-10 -9.3471713102777190e-07 0.0000000000000000e+00  6.5728925722978211e-11 2.0930347404108555e-07 0.0000000000000000e+00  -2.5788679520085011e-11 -8.2120012690227443e-08 0.0000000000000000e+00  -1.1184006777466751e-08 -3.5613718716301811e-05 0.0000000000000000e+00  7.5344076922551815e-09 2.3992141777536986e-05 0.0000000000000000e+00  -2.6936705620493377e-10 -8.5775722082439694e-07 0.0000000000000000e+00  -4.3886471749578767e-09 -1.3974959881904157e-05 0.0000000000000000e+00  4.6048973159257208e-09 1.4663574601657921e-05 0.0000000000000000e+00  -2.7464284568755793e-09 -8.7455714650208987e-06 0.0000000000000000e+00  1.1484997634160244e-09 3.6572176979046905e-06 0.0000000000000000e+00  -3.7324967230644472e-10 -1.1885551488805899e-06 0.0000000000000000e+00  1.0237280191923374e-10 3.2599016115556043e-07 0.0000000000000000e+00  -2.6082388115364373e-11 -8.3055281731543974e-08 0.0000000000000000e+00  1.1201127354835374e-11 3.5668236514690003e-08 0.0000000000000000e+00  1.5192405417999505e-09 4.8377836668586791e-06 0.0000000000000000e+00  -1.0890897940145260e-09 -3.4680359510309457e-06 0.0000000000000000e+00  1.7965240564318879e-10 5.7207496102150342e-07 0.0000000000000000e+00  5.0904704884829814e-10 1.6209806352740007e-06 0.0000000000000000e+00  -6.6576330451886060e-10 -2.1200190173830324e-06 0.0000000000000000e+00  4.7700286510861145e-10 1.5189409487013891e-06 0.0000000000000000e+00  -2.4106060853492734e-10 -7.6761976961963234e-07 0.0000000000000000e+00  9.4132054615415344e-11 2.9974879146311588e-07 0.0000000000000000e+00  -3.0335975463547846e-11 -9.6600164738825088e-08 0.0000000000000000e+00  8.9078254422162383e-12 2.8365575592476734e-08 0.0000000000000000e+00  -4.2255760516870793e-12 -1.3455685418782546e-08 0.0000000000000000e+00  -2.1301369598270434e-10 -6.7830876736701976e-07 0.0000000000000000e+00  1.5975983146561401e-10 5.0873017275378528e-07 0.0000000000000000e+00  -4.2005760424461819e-11 -1.3376076803129420e-07 0.0000000000000000e+00  -5.8084114344879655e-11 -1.8495976900977838e-07 0.0000000000000000e+00  9.4108492099159343e-11 2.9967376031883206e-07 0.0000000000000000e+00  -7.8101336386164334e-11 -2.4870147888573993e-07 0.0000000000000000e+00  4.5867238969143412e-11 1.4605704193881636e-07 0.0000000000000000e+00  -2.0913729191386264e-11 -6.6596496546441186e-08 0.0000000000000000e+00  7.8377539346136018e-12 2.4958100397194249e-08 0.0000000000000000e+00  -2.6606515431863562e-12 -8.4724283118322468e-09 0.0000000000000000e+00  1.3982468258004903e-12 4.4524981199358418e-09 0.0000000000000000e+00  3.0594129579330560e-11 9.7422216106271268e-08 0.0000000000000000e+00  -2.3747615432829253e-11 -7.5620563634820637e-08 0.0000000000000000e+00  8.0744723056835282e-12 2.5711892991387992e-08 0.0000000000000000e+00  6.4342588533388679e-12 2.0488890029319811e-08 0.0000000000000000e+00  -1.3150696333974986e-11 -4.1876333721944373e-08 0.0000000000000000e+00  1.2354702798456405e-11 3.9341616921605112e-08 0.0000000000000000e+00  -8.1962114740990593e-12 -2.6099552314828397e-08 0.0000000000000000e+00  4.2492974403799151e-12 1.3531222467469683e-08 0.0000000000000000e+00  -1.8189319671370496e-12 -5.7921040938765556e-09 0.0000000000000000e+00  7.0935634065451024e-13 2.2588342164271331e-09 0.0000000000000000e+00  -4.1139464027633199e-13 -1.3100218277508989e-09 0.0000000000000000e+00  -4.4779873753719745e-12 -1.4259449763832403e-08 0.0000000000000000e+00  3.5710684212791226e-12 1.1371508333519598e-08 0.0000000000000000e+00  -1.4367847928663312e-12 -4.5752162429028721e-09 0.0000000000000000e+00  -6.7336457651174606e-13 -2.1442240780582434e-09 0.0000000000000000e+00  1.8258951122914480e-12 5.8142771395339524e-09 0.0000000000000000e+00  -1.9139843172517454e-12 -6.0947834222840188e-09 0.0000000000000000e+00  1.4055951532047621e-12 4.4758977181673342e-09 0.0000000000000000e+00  -8.1120265760228453e-13 -2.5831478686127870e-09 0.0000000000000000e+00  3.8958969322650866e-13 1.2405873874552393e-09 0.0000000000000000e+00  -1.7251686991342420e-13 -5.4935296456474050e-10 0.0000000000000000e+00  1.0939704365935388e-13 3.4835775932547203e-10 0.0000000000000000e+00  6.6551341466760398e-13 2.1192232822721987e-09 0.0000000000000000e+00  -5.4242798582201727e-13 -1.7272770032504506e-09 0.0000000000000000e+00  2.4616932235464456e-13 7.8388766900468162e-10 0.0000000000000000e+00  6.2501310666209092e-14 1.9902563917890524e-10 0.0000000000000000e+00  -2.5241246953170188e-13 -8.0376799381958552e-10 0.0000000000000000e+00  2.9268478715872712e-13 9.3200888463450577e-10 0.0000000000000000e+00  -2.3448490322046098e-13 -7.4668046547842478e-10 0.0000000000000000e+00  1.4821255939121395e-13 4.7195969256891409e-10 0.0000000000000000e+00  -7.8656376002605739e-14 -2.5046891565233540e-10 0.0000000000000000e+00  3.9029328605880478e-14 1.2428278686815819e-10 0.0000000000000000e+00  -2.6744561867382792e-14 -8.5163870380937149e-11 0.0000000000000000e+00  -1.0016006497957946e-13 -3.1894404677723416e-10 0.0000000000000000e+00  8.3115972071757978e-14 2.6466980118068784e-10 0.0000000000000000e+00  -4.1317109052358854e-14 -1.3156786554583748e-10 0.0000000000000000e+00  -4.1359450580736654e-15 -1.3170269551434587e-11 0.0000000000000000e+00  3.4756150787346204e-14 1.1067552107495079e-10 0.0000000000000000e+00  -4.4389586258637255e-14 -1.4135168821009946e-10 0.0000000000000000e+00  3.8385071635718705e-14 1.2223125140569875e-10 0.0000000000000000e+00  -2.6245586279402537e-14 -8.3574960736100902e-11 0.0000000000000000e+00  1.5202698677499176e-14 4.8410613942044149e-11 0.0000000000000000e+00  -8.3448544756468011e-15 -2.6572882683058661e-11 0.0000000000000000e+00  6.1064408831736929e-15 1.9445005023533453e-11 0.0000000000000000e+00  1.5234001922676183e-14 4.8510294225758686e-11 0.0000000000000000e+00  -1.2833563158299413e-14 -4.0866472771495857e-11 0.0000000000000000e+00  6.8530330397870331e-15 2.1822410866580376e-11 0.0000000000000000e+00  -1.1405033570778724e-16 -3.6317543937664437e-13 0.0000000000000000e+00  -4.7637433578151193e-15 -1.5169394954560798e-11 0.0000000000000000e+00  6.6966861440088115e-15 2.1324548653224729e-11 0.0000000000000000e+00  -6.2019076802632045e-15 -1.9749004093450151e-11 0.0000000000000000e+00  4.5440062286451473e-15 1.4469676466768610e-11 0.0000000000000000e+00  -2.8445570537866431e-15 -9.0580466197621355e-12 0.0000000000000000e+00  1.7069211213536428e-15 5.4354230908801621e-12 0.0000000000000000e+00  -1.3196518185211147e-15 -4.2022246233753047e-12 0.0000000000000000e+00  -2.3379267061457048e-15 -7.4447615911462024e-12 0.0000000000000000e+00  1.9949368433848525e-15 6.3525640685625514e-12 0.0000000000000000e+00  -1.1287799390878433e-15 -3.5944230044882405e-12 0.0000000000000000e+00  1.2295628606013862e-16 3.9153504403892401e-13 0.0000000000000000e+00  6.4893062419924303e-16 2.0664179820767786e-12 0.0000000000000000e+00  -1.0068045484797196e-15 -3.2060114684561637e-12 0.0000000000000000e+00  9.9297529459211126e-16 3.1619743744334833e-12 0.0000000000000000e+00  -7.7395935492086500e-16 -2.4645524016970723e-12 0.0000000000000000e+00  5.1940805750773414e-16 1.6539736453245465e-12 0.0000000000000000e+00  -3.3712922604447561e-16 -1.0735352424484133e-12 0.0000000000000000e+00  2.7285863172335343e-16 8.6887559645341689e-13 0.0000000000000000e+00  3.6157953772867420e-16 1.1513934322879794e-12 0.0000000000000000e+00  -3.1195558056588257e-16 -9.9337370937917635e-13 0.0000000000000000e+00  1.8516634638626500e-16 5.8963324210533627e-13 0.0000000000000000e+00  -3.4084188649931892e-17 -1.0853576284464790e-13 0.0000000000000000e+00  -8.7647697166940152e-17 -2.7910037030056379e-13 0.0000000000000000e+00  1.5102722312442020e-16 4.8092254858911391e-13 0.0000000000000000e+00  -1.5799005033769651e-16 -5.0309458181279235e-13 0.0000000000000000e+00  1.3026538479774219e-16 4.1480972472268222e-13 0.0000000000000000e+00  -9.3097222311191153e-17 -2.9645352999426226e-13 0.0000000000000000e+00  6.4747161293664115e-17 2.0617719891205861e-13 0.0000000000000000e+00  -5.4442290869572707e-17 -1.7336295228347645e-13 0.0000000000000000e+00  -5.6298531033145012e-17 -1.7927385848826931e-13 0.0000000000000000e+00  4.9040286505980694e-17 1.5616111507636680e-13 0.0000000000000000e+00  -3.0305051566485871e-17 -9.6501692429796302e-14 0.0000000000000000e+00  7.4747631241676117e-18 2.3802212987874444e-14 0.0000000000000000e+00  1.1696481064254617e-17 3.7245612854256755e-14 0.0000000000000000e+00  -2.2621741902941079e-17 -7.2035395635427362e-14 0.0000000000000000e+00  2.5031771853566364e-17 7.9709758720789619e-14 0.0000000000000000e+00  -2.1736415416302072e-17 -6.9216212037400812e-14 0.0000000000000000e+00  1.6449564411262527e-17 5.2381062673236784e-14 0.0000000000000000e+00  -1.2156892310907195e-17 -3.8711720391418329e-14 0.0000000000000000e+00  1.0552999507953884e-17 3.3604374851306073e-14 0.0000000000000000e+00  8.8178079803547489e-18 2.8078929077495337e-14 0.0000000000000000e+00  -7.7459351771577625e-18 -2.4665717938387109e-14 0.0000000000000000e+00  4.9541333868230584e-18 1.5775662196202675e-14 0.0000000000000000e+00  -1.4846806621599819e-18 -4.7277331405261854e-15 0.0000000000000000e+00  -1.5342947581009331e-18 -4.8857214619176970e-15 0.0000000000000000e+00  3.3851745791719883e-18 1.0779558495181213e-14 0.0000000000000000e+00  -3.9554297767867322e-18 -1.2595446898010022e-14 0.0000000000000000e+00  3.6045545310714276e-18 1.1478139607871880e-14 0.0000000000000000e+00  -2.8743780434988868e-18 -9.1530068929974211e-15 0.0000000000000000e+00  2.2408867290746803e-18 7.1357529758611051e-15 0.0000000000000000e+00  -1.9978695972284684e-18 -6.3619029640522078e-15 0.0000000000000000e+00  -1.3891747222989183e-18 -4.4236094265812474e-15 0.0000000000000000e+00  1.2294491092265162e-18 3.9149882169437253e-15 0.0000000000000000e+00  -8.1007367371774060e-19 -2.5795527961759366e-15 0.0000000000000000e+00  2.7975393262822496e-19 8.9083260271929766e-16 0.0000000000000000e+00  1.9629700650539742e-19 6.2507708673962853e-16 0.0000000000000000e+00  -5.0648440513687693e-19 -1.6128202975592044e-15 0.0000000000000000e+00  6.2443660655817092e-19 1.9884206174597657e-15 0.0000000000000000e+00  -5.9551688491269775e-19 -1.8963302912887638e-15 0.0000000000000000e+00  4.9827375561223467e-19 1.5866747695327164e-15 0.0000000000000000e+00  -4.0720175180522710e-19 -1.2966702308152088e-15 0.0000000000000000e+00  3.7130733238291599e-19 1.1823700714692131e-15 0.0000000000000000e+00  2.2515708643620151e-19 7.1697749320724568e-16 0.0000000000000000e+00  -2.0064764978310478e-19 -6.3893102916029555e-16 0.0000000000000000e+00  1.3581415881334795e-19 4.3247892690970951e-16 0.0000000000000000e+00  -5.2498200013567467e-20 -1.6717229930174038e-16 0.0000000000000000e+00  -2.4453732716972538e-20 -7.7869083582863215e-17 0.0000000000000000e+00  7.7362538499565312e-20 2.4634889267535244e-16 0.0000000000000000e+00  -1.0084361475765454e-19 -3.2112070403516646e-16 0.0000000000000000e+00  1.0058397169785810e-19 3.2029391135860461e-16 0.0000000000000000e+00  -8.8123612632855228e-20 -2.8061584859676828e-16 0.0000000000000000e+00  7.5199339599259593e-20 2.3946052442810617e-16 0.0000000000000000e+00  -6.9943483847954467e-20 -2.2272407459712396e-16 0.0000000000000000e+00  -6.9760601904310657e-20 -2.2214171567792772e-16 0.0000000000000000e+00  6.2519477110868955e-20 1.9908348737795490e-16 0.0000000000000000e+00  -4.3245532832096609e-20 -1.3770862917589725e-16 0.0000000000000000e+00  1.8143815115115964e-20 5.7776138803153822e-17 0.0000000000000000e+00  5.5889473439832175e-21 1.7797127862070063e-17 0.0000000000000000e+00  -2.2617274010938160e-20 -7.2021168332796436e-17 0.0000000000000000e+00  3.1030464335393562e-20 9.8811655828346261e-17 0.0000000000000000e+00  -3.2175486971839522e-20 -1.0245780115976232e-16 0.0000000000000000e+00  2.9291182484134158e-20 9.3273185059183418e-17 0.0000000000000000e+00  -2.5870531243210857e-20 -8.2380656688559159e-17 0.0000000000000000e+00  2.4430479241489265e-20 7.7795036530541293e-17 0.0000000000000000e+00  -2.3185160244012363e-03 -7.3829513138909890e+00 0.0000000000000000e+00  6.6612662981529840e-04 2.1211759699106318e+00 0.0000000000000000e+00  -2.7880306128009180e-05 -8.8780470177093826e-02 0.0000000000000000e+00  2.3217229917402194e-06 7.3931633993282965e-03 0.0000000000000000e+00  -2.4307745948207342e-07 -7.7404211572094938e-04 0.0000000000000000e+00  2.8656588202533086e-08 9.1252418915742739e-05 0.0000000000000000e+00  -3.6342383058003674e-09 -1.1572662941473983e-05 0.0000000000000000e+00  4.8423634549781118e-10 1.5419748345927871e-06 0.0000000000000000e+00  -6.6671556921091495e-11 -2.1230513552169718e-07 0.0000000000000000e+00  8.1126290803379223e-12 2.5833397266796689e-08 0.0000000000000000e+00  -4.9148412380099456e-04 -1.5650542499529254e+00 0.0000000000000000e+00  -9.7621678504059936e-05 -3.1086095243267742e-01 0.0000000000000000e+00  3.3210187742600921e-05 1.0575264378089544e-01 0.0000000000000000e+00  -3.9187770439704477e-06 -1.2478732008375607e-02 0.0000000000000000e+00  4.8056433417310241e-07 1.5302818893860046e-03 0.0000000000000000e+00  -6.2038492202756448e-08 -1.9755186623669914e-04 0.0000000000000000e+00  8.3446297094951689e-09 2.6572166950436120e-05 0.0000000000000000e+00  -1.1585730042322559e-09 -3.6892943563088696e-06 0.0000000000000000e+00  1.6440478425292078e-10 5.2352129773333467e-07 0.0000000000000000e+00  -2.0415160316460907e-11 -6.5008882015657145e-08 0.0000000000000000e+00  1.3868489471491672e-05 4.4162033597190856e-02 0.0000000000000000e+00  -1.0108092803017038e-05 -3.2187639099988334e-02 0.0000000000000000e+00  -5.3899551481488648e-06 -1.7163468366847293e-02 0.0000000000000000e+00  1.9235631404278700e-06 6.1252856851148167e-03 0.0000000000000000e+00  -3.4034207764816682e-07 -1.0837660654054969e-03 0.0000000000000000e+00  5.3388489869334592e-08 1.7000728797173344e-04 0.0000000000000000e+00  -8.1159223322083035e-09 -2.5843884111816268e-05 0.0000000000000000e+00  1.2258657585040688e-09 3.9035775975449269e-06 0.0000000000000000e+00  -1.8493872807339780e-10 -5.8890842722186404e-07 0.0000000000000000e+00  2.3922326913155874e-11 7.6176904992677765e-08 0.0000000000000000e+00  -8.7876832497627835e-07 -2.7983001588979409e-03 0.0000000000000000e+00  1.0972849168077147e-06 3.4941320366118417e-03 0.0000000000000000e+00  3.4387371073576800e-08 1.0950119980925452e-04 0.0000000000000000e+00  -3.5548261477519805e-07 -1.1319787356215243e-03 0.0000000000000000e+00  1.2551471504751238e-07 3.9968196062479226e-04 0.0000000000000000e+00  -2.7218664164675417e-08 -8.6673574925515102e-05 0.0000000000000000e+00  5.0237247156512870e-09 1.5997264888269589e-05 0.0000000000000000e+00  -8.6467582419910591e-10 -2.7534247963669850e-06 0.0000000000000000e+00  1.4326225128855065e-10 4.5619621139126664e-07 0.0000000000000000e+00  -1.9710155389949922e-11 -6.2763904196352112e-08 0.0000000000000000e+00  7.4391388749039519e-08 2.3688773143102872e-04 0.0000000000000000e+00  -1.1750625241524477e-07 -3.7418026510452237e-04 0.0000000000000000e+00  3.1091939854176765e-08 9.9007414993862756e-05 0.0000000000000000e+00  3.0760492540221074e-08 9.7951972910952388e-05 0.0000000000000000e+00  -2.5856489584329722e-08 -8.2335943224086893e-05 0.0000000000000000e+00  8.9002061481826485e-09 2.8341313143434260e-05 0.0000000000000000e+00  -2.1538354848461487e-09 -6.8585519165676454e-06 0.0000000000000000e+00  4.4353465035686330e-10 1.4123666583042303e-06 0.0000000000000000e+00  -8.3451780845588160e-11 -2.6573913164977715e-07 0.0000000000000000e+00  1.24673232