<?xml version="1.0"?>
<VTKFile type="UnstructuredGrid"  version="0.1"  >
<UnstructuredGrid>
<Piece  NumberOfPoints="1411" NumberOfCells="2700">
<Points>
<DataArray  type="Float64"  NumberOfComponents="3"  format="ascii">-0.75 -4.5 0  -0.65 -4.5 0  -0.55 -4.5 0  -0.45 -4.5 0  -0.35 -4.5 0  -0.25 -4.5 0  -0.15 -4.5 0  -0.05000000000000004 -4.5 0  0.05000000000000004 -4.5 0  0.15 -4.5 0  0.25 -4.5 0  0.3500000000000001 -4.5 0  0.45 -4.5 0  0.55 -4.5 0  0.6499999999999999 -4.5 0  0.75 -4.5 0  -0.75 -4.4 0  -0.65 -4.4 0  -0.55 -4.4 0  -0.45 -4.4 0  -0.35 -4.4 0  -0.25 -4.4 0  -0.15 -4.4 0  -0.05000000000000004 -4.4 0  0.05000000000000004 -4.4 0  0.15 -4.4 0  0.25 -4.4 0  0.3500000000000001 -4.4 0  0.45 -4.4 0  0.55 -4.4 0  0.6499999999999999 -4.4 0  0.75 -4.4 0  -0.75 -4.3 0  -0.65 -4.3 0  -0.55 -4.3 0  -0.45 -4.3 0  -0.35 -4.3 0  -0.25 -4.3 0  -0.15 -4.3 0  -0.05000000000000004 -4.3 0  0.05000000000000004 -4.3 0  0.15 -4.3 0  0.25 -4.3 0  0.3500000000000001 -4.3 0  0.45 -4.3 0  0.55 -4.3 0  0.6499999999999999 -4.3 0  0.75 -4.3 0  -0.75 -4.2 0  -0.65 -4.2 0  -0.55 -4.2 0  -0.45 -4.2 0  -0.35 -4.2 0  -0.25 -4.2 0  -0.15 -4.2 0  -0.05000000000000004 -4.2 0  0.05000000000000004 -4.2 0  0.15 -4.2 0  0.25 -4.2 0  0.3500000000000001 -4.2 0  0.45 -4.2 0  0.55 -4.2 0  0.6499999999999999 -4.2 0  0.75 -4.2 0  -0.75 -4.1 0  -0.65 -4.1 0  -0.55 -4.1 0  -0.45 -4.1 0  -0.35 -4.1 0  -0.25 -4.1 0  -0.15 -4.1 0  -0.05000000000000004 -4.1 0  0.05000000000000004 -4.1 0  0.15 -4.1 0  0.25 -4.1 0  0.3500000000000001 -4.1 0  0.45 -4.1 0  0.55 -4.1 0  0.6499999999999999 -4.1 0  0.75 -4.1 0  -0.75 -4 0  -0.65 -4 0  -0.55 -4 0  -0.45 -4 0  -0.35 -4 0  -0.25 -4 0  -0.15 -4 0  -0.05000000000000004 -4 0  0.05000000000000004 -4 0  0.15 -4 0  0.25 -4 0  0.3500000000000001 -4 0  0.45 -4 0  0.55 -4 0  0.6499999999999999 -4 0  0.75 -4 0  -0.75 -3.9 0  -0.65 -3.9 0  -0.55 -3.9 0  -0.45 -3.9 0  -0.35 -3.9 0  -0.25 -3.9 0  -0.15 -3.9 0  -0.05000000000000004 -3.9 0  0.05000000000000004 -3.9 0  0.15 -3.9 0  0.25 -3.9 0  0.3500000000000001 -3.9 0  0.45 -3.9 0  0.55 -3.9 0  0.6499999999999999 -3.9 0  0.75 -3.9 0  -0.75 -3.8 0  -0.65 -3.8 0  -0.55 -3.8 0  -0.45 -3.8 0  -0.35 -3.8 0  -0.25 -3.8 0  -0.15 -3.8 0  -0.05000000000000004 -3.8 0  0.05000000000000004 -3.8 0  0.15 -3.8 0  0.25 -3.8 0  0.3500000000000001 -3.8 0  0.45 -3.8 0  0.55 -3.8 0  0.6499999999999999 -3.8 0  0.75 -3.8 0  -0.75 -3.7 0  -0.65 -3.7 0  -0.55 -3.7 0  -0.45 -3.7 0  -0.35 -3.7 0  -0.25 -3.7 0  -0.15 -3.7 0  -0.05000000000000004 -3.7 0  0.05000000000000004 -3.7 0  0.15 -3.7 0  0.25 -3.7 0  0.3500000000000001 -3.7 0  0.45 -3.7 0  0.55 -3.7 0  0.6499999999999999 -3.7 0  0.75 -3.7 0  -0.75 -3.6 0  -0.65 -3.6 0  -0.55 -3.6 0  -0.45 -3.6 0  -0.35 -3.6 0  -0.25 -3.6 0  -0.15 -3.6 0  -0.05000000000000004 -3.6 0  0.05000000000000004 -3.6 0  0.15 -3.6 0  0.25 -3.6 0  0.3500000000000001 -3.6 0  0.45 -3.6 0  0.55 -3.6 0  0.6499999999999999 -3.6 0  0.75 -3.6 0  -0.75 -3.5 0  -0.65 -3.5 0  -0.55 -3.5 0  -0.45 -3.5 0  -0.35 -3.5 0  -0.25 -3.5 0  -0.15 -3.5 0  -0.05000000000000004 -3.5 0  0.05000000000000004 -3.5 0  0.15 -3.5 0  0.25 -3.5 0  0.3500000000000001 -3.5 0  0.45 -3.5 0  0.55 -3.5 0  0.6499999999999999 -3.5 0  0.75 -3.5 0  -0.75 -3.4 0  -0.65 -3.4 0  -0.55 -3.4 0  -0.45 -3.4 0  -0.35 -3.4 0  -0.25 -3.4 0  -0.15 -3.4 0  -0.05000000000000004 -3.4 0  0.05000000000000004 -3.4 0  0.15 -3.4 0  0.25 -3.4 0  0.3500000000000001 -3.4 0  0.45 -3.4 0  0.55 -3.4 0  0.6499999999999999 -3.4 0  0.75 -3.4 0  -0.75 -3.3 0  -0.65 -3.3 0  -0.55 -3.3 0  -0.45 -3.3 0  -0.35 -3.3 0  -0.25 -3.3 0  -0.15 -3.3 0  -0.05000000000000004 -3.3 0  0.05000000000000004 -3.3 0  0.15 -3.3 0  0.25 -3.3 0  0.3500000000000001 -3.3 0  0.45 -3.3 0  0.55 -3.3 0  0.6499999999999999 -3.3 0  0.75 -3.3 0  -0.75 -3.2 0  -0.65 -3.2 0  -0.55 -3.2 0  -0.45 -3.2 0  -0.35 -3.2 0  -0.25 -3.2 0  -0.15 -3.2 0  -0.05000000000000004 -3.2 0  0.05000000000000004 -3.2 0  0.15 -3.2 0  0.25 -3.2 0  0.3500000000000001 -3.2 0  0.45 -3.2 0  0.55 -3.2 0  0.6499999999999999 -3.2 0  0.75 -3.2 0  -0.75 -3.1 0  -0.65 -3.1 0  -0.55 -3.1 0  -0.45 -3.1 0  -0.35 -3.1 0  -0.25 -3.1 0  -0.15 -3.1 0  -0.05000000000000004 -3.1 0  0.05000000000000004 -3.1 0  0.15 -3.1 0  0.25 -3.1 0  0.3500000000000001 -3.1 0  0.45 -3.1 0  0.55 -3.1 0  0.6499999999999999 -3.1 0  0.75 -3.1 0  -0.75 -3 0  -0.65 -3 0  -0.55 -3 0  -0.45 -3 0  -0.35 -3 0  -0.25 -3 0  -0.15 -3 0  -0.05000000000000004 -3 0  0.05000000000000004 -3 0  0.15 -3 0  0.25 -3 0  0.3500000000000001 -3 0  0.45 -3 0  0.55 -3 0  0.6499999999999999 -3 0  0.75 -3 0  -0.75 -2.9 0  -0.65 -2.9 0  -0.55 -2.9 0  -0.45 -2.9 0  -0.35 -2.9 0  -0.25 -2.9 0  -0.15 -2.9 0  -0.05000000000000004 -2.9 0  0.05000000000000004 -2.9 0  0.15 -2.9 0  0.25 -2.9 0  0.3500000000000001 -2.9 0  0.45 -2.9 0  0.55 -2.9 0  0.6499999999999999 -2.9 0  0.75 -2.9 0  -0.75 -2.8 0  -0.65 -2.8 0  -0.55 -2.8 0  -0.45 -2.8 0  -0.35 -2.8 0  -0.25 -2.8 0  -0.15 -2.8 0  -0.05000000000000004 -2.8 0  0.05000000000000004 -2.8 0  0.15 -2.8 0  0.25 -2.8 0  0.3500000000000001 -2.8 0  0.45 -2.8 0  0.55 -2.8 0  0.6499999999999999 -2.8 0  0.75 -2.8 0  -0.75 -2.7 0  -0.65 -2.7 0  -0.55 -2.7 0  -0.45 -2.7 0  -0.35 -2.7 0  -0.25 -2.7 0  -0.15 -2.7 0  -0.05000000000000004 -2.7 0  0.05000000000000004 -2.7 0  0.15 -2.7 0  0.25 -2.7 0  0.3500000000000001 -2.7 0  0.45 -2.7 0  0.55 -2.7 0  0.6499999999999999 -2.7 0  0.75 -2.7 0  -0.75 -2.6 0  -0.65 -2.6 0  -0.55 -2.6 0  -0.45 -2.6 0  -0.35 -2.6 0  -0.25 -2.6 0  -0.15 -2.6 0  -0.05000000000000004 -2.6 0  0.05000000000000004 -2.6 0  0.15 -2.6 0  0.25 -2.6 0  0.3500000000000001 -2.6 0  0.45 -2.6 0  0.55 -2.6 0  0.6499999999999999 -2.6 0  0.75 -2.6 0  -0.75 -2.5 0  -0.65 -2.5 0  -0.55 -2.5 0  -0.45 -2.5 0  -0.35 -2.5 0  -0.25 -2.5 0  -0.15 -2.5 0  -0.05000000000000004 -2.5 0  0.05000000000000004 -2.5 0  0.15 -2.5 0  0.25 -2.5 0  0.3500000000000001 -2.5 0  0.45 -2.5 0  0.55 -2.5 0  0.6499999999999999 -2.5 0  0.75 -2.5 0  -0.75 -2.4 0  -0.65 -2.4 0  -0.55 -2.4 0  -0.45 -2.4 0  -0.35 -2.4 0  -0.25 -2.4 0  -0.15 -2.4 0  -0.05000000000000004 -2.4 0  0.05000000000000004 -2.4 0  0.15 -2.4 0  0.25 -2.4 0  0.3500000000000001 -2.4 0  0.45 -2.4 0  0.55 -2.4 0  0.6499999999999999 -2.4 0  0.75 -2.4 0  -0.75 -2.3 0  -0.65 -2.3 0  -0.55 -2.3 0  -0.45 -2.3 0  -0.35 -2.3 0  -0.25 -2.3 0  -0.15 -2.3 0  -0.05000000000000004 -2.3 0  0.05000000000000004 -2.3 0  0.15 -2.3 0  0.25 -2.3 0  0.3500000000000001 -2.3 0  0.45 -2.3 0  0.55 -2.3 0  0.6499999999999999 -2.3 0  0.75 -2.3 0  -0.75 -2.2 0  -0.65 -2.2 0  -0.55 -2.2 0  -0.45 -2.2 0  -0.35 -2.2 0  -0.25 -2.2 0  -0.15 -2.2 0  -0.05000000000000004 -2.2 0  0.05000000000000004 -2.2 0  0.15 -2.2 0  0.25 -2.2 0  0.3500000000000001 -2.2 0  0.45 -2.2 0  0.55 -2.2 0  0.6499999999999999 -2.2 0  0.75 -2.2 0  -0.75 -2.1 0  -0.65 -2.1 0  -0.55 -2.1 0  -0.45 -2.1 0  -0.35 -2.1 0  -0.25 -2.1 0  -0.15 -2.1 0  -0.05000000000000004 -2.1 0  0.05000000000000004 -2.1 0  0.15 -2.1 0  0.25 -2.1 0  0.3500000000000001 -2.1 0  0.45 -2.1 0  0.55 -2.1 0  0.6499999999999999 -2.1 0  0.75 -2.1 0  -0.75 -2 0  -0.65 -2 0  -0.55 -2 0  -0.45 -2 0  -0.35 -2 0  -0.25 -2 0  -0.15 -2 0  -0.05000000000000004 -2 0  0.05000000000000004 -2 0  0.15 -2 0  0.25 -2 0  0.3500000000000001 -2 0  0.45 -2 0  0.55 -2 0  0.6499999999999999 -2 0  0.75 -2 0  -0.75 -1.9 0  -0.65 -1.9 0  -0.55 -1.9 0  -0.45 -1.9 0  -0.35 -1.9 0  -0.25 -1.9 0  -0.15 -1.9 0  -0.05000000000000004 -1.9 0  0.05000000000000004 -1.9 0  0.15 -1.9 0  0.25 -1.9 0  0.3500000000000001 -1.9 0  0.45 -1.9 0  0.55 -1.9 0  0.6499999999999999 -1.9 0  0.75 -1.9 0  -0.75 -1.8 0  -0.65 -1.8 0  -0.55 -1.8 0  -0.45 -1.8 0  -0.35 -1.8 0  -0.25 -1.8 0  -0.15 -1.8 0  -0.05000000000000004 -1.8 0  0.05000000000000004 -1.8 0  0.15 -1.8 0  0.25 -1.8 0  0.3500000000000001 -1.8 0  0.45 -1.8 0  0.55 -1.8 0  0.6499999999999999 -1.8 0  0.75 -1.8 0  -0.75 -1.7 0  -0.65 -1.7 0  -0.55 -1.7 0  -0.45 -1.7 0  -0.35 -1.7 0  -0.25 -1.7 0  -0.15 -1.7 0  -0.05000000000000004 -1.7 0  0.05000000000000004 -1.7 0  0.15 -1.7 0  0.25 -1.7 0  0.3500000000000001 -1.7 0  0.45 -1.7 0  0.55 -1.7 0  0.6499999999999999 -1.7 0  0.75 -1.7 0  -0.75 -1.6 0  -0.65 -1.6 0  -0.55 -1.6 0  -0.45 -1.6 0  -0.35 -1.6 0  -0.25 -1.6 0  -0.15 -1.6 0  -0.05000000000000004 -1.6 0  0.05000000000000004 -1.6 0  0.15 -1.6 0  0.25 -1.6 0  0.3500000000000001 -1.6 0  0.45 -1.6 0  0.55 -1.6 0  0.6499999999999999 -1.6 0  0.75 -1.6 0  -0.75 -1.5 0  -0.65 -1.5 0  -0.55 -1.5 0  -0.45 -1.5 0  -0.35 -1.5 0  -0.25 -1.5 0  -0.15 -1.5 0  -0.05000000000000004 -1.5 0  0.05000000000000004 -1.5 0  0.15 -1.5 0  0.25 -1.5 0  0.3500000000000001 -1.5 0  0.45 -1.5 0  0.55 -1.5 0  0.6499999999999999 -1.5 0  0.75 -1.5 0  -0.75 -1.4 0  -0.65 -1.4 0  -0.55 -1.4 0  -0.45 -1.4 0  -0.35 -1.4 0  -0.25 -1.4 0  -0.15 -1.4 0  -0.05000000000000004 -1.4 0  0.05000000000000004 -1.4 0  0.15 -1.4 0  0.25 -1.4 0  0.3500000000000001 -1.4 0  0.45 -1.4 0  0.55 -1.4 0  0.6499999999999999 -1.4 0  0.75 -1.4 0  -0.75 -1.3 0  -0.65 -1.3 0  -0.55 -1.3 0  -0.45 -1.3 0  -0.35 -1.3 0  -0.25 -1.3 0  -0.15 -1.3 0  -0.05000000000000004 -1.3 0  0.05000000000000004 -1.3 0  0.15 -1.3 0  0.25 -1.3 0  0.3500000000000001 -1.3 0  0.45 -1.3 0  0.55 -1.3 0  0.6499999999999999 -1.3 0  0.75 -1.3 0  -0.75 -1.2 0  -0.65 -1.2 0  -0.55 -1.2 0  -0.45 -1.2 0  -0.35 -1.2 0  -0.25 -1.2 0  -0.15 -1.2 0  -0.05000000000000004 -1.2 0  0.05000000000000004 -1.2 0  0.15 -1.2 0  0.25 -1.2 0  0.3500000000000001 -1.2 0  0.45 -1.2 0  0.55 -1.2 0  0.6499999999999999 -1.2 0  0.75 -1.2 0  -0.75 -1.1 0  -0.65 -1.1 0  -0.55 -1.1 0  -0.45 -1.1 0  -0.35 -1.1 0  -0.25 -1.1 0  -0.15 -1.1 0  -0.05000000000000004 -1.1 0  0.05000000000000004 -1.1 0  0.15 -1.1 0  0.25 -1.1 0  0.3500000000000001 -1.1 0  0.45 -1.1 0  0.55 -1.1 0  0.6499999999999999 -1.1 0  0.75 -1.1 0  -0.75 -1 0  -0.65 -1 0  -0.55 -1 0  -0.45 -1 0  -0.35 -1 0  -0.25 -1 0  -0.15 -1 0  -0.05000000000000004 -1 0  0.05000000000000004 -1 0  0.15 -1 0  0.25 -1 0  0.3500000000000001 -1 0  0.45 -1 0  0.55 -1 0  0.6499999999999999 -1 0  0.75 -1 0  -0.75 -0.8999999999999999 0  -0.65 -0.899999
[...]
<PointData  Vectors="flow"> 
<DataArray  type="Float64"  Name="flow"  NumberOfComponents="3" format="ascii">1.5752876647060928e-21 4.2052527189038863e-21 0.0000000000000000e+00  5.4731174193612507e-22 -1.0197130126102671e-20 0.0000000000000000e+00  -3.3988980159239341e-21 2.1663509133573490e-21 0.0000000000000000e+00  -1.0395563533168753e-21 -5.6777178635621672e-21 0.0000000000000000e+00  -3.6094616564227691e-22 -7.0106094797812285e-21 0.0000000000000000e+00  7.7625242512663221e-21 -9.4456626165095666e-23 0.0000000000000000e+00  -2.6965323491842022e-21 -3.9680251665464209e-21 0.0000000000000000e+00  -4.7555711505496758e-21 2.9235493490483517e-21 0.0000000000000000e+00  2.1711844724031180e-21 -2.4912571192298728e-21 0.0000000000000000e+00  1.7129403077516660e-21 3.0623843084730878e-21 0.0000000000000000e+00  -6.7709178407040518e-21 -1.8350067450870470e-21 0.0000000000000000e+00  8.1811214036545867e-23 -2.2505637353116771e-21 0.0000000000000000e+00  -5.0359749007649584e-22 -7.8640690092806520e-21 0.0000000000000000e+00  -2.4897823116900181e-21 -6.8098004418288448e-21 0.0000000000000000e+00  6.7814152532385172e-21 -3.0566041982657327e-21 0.0000000000000000e+00  -1.9086642309466198e-20 1.8408789613698051e-20 0.0000000000000000e+00  -1.9560232334835087e-20 -3.2486696392280604e-21 0.0000000000000000e+00  -1.2920259349075670e-21 -4.0906737481498208e-21 0.0000000000000000e+00  -6.1364901676278128e-22 -4.0963353867479855e-21 0.0000000000000000e+00  -1.1549218975925770e-21 -3.0356942381056452e-21 0.0000000000000000e+00  3.4187556112457987e-21 -2.6338491826478583e-21 0.0000000000000000e+00  -3.7866680853139135e-22 -2.3975557555985671e-21 0.0000000000000000e+00  1.0335566988622078e-21 -1.0745277310907185e-21 0.0000000000000000e+00  1.1706854436374007e-21 1.0762887250406302e-21 0.0000000000000000e+00  -5.5506007506252675e-21 -2.4657722482200051e-21 0.0000000000000000e+00  1.6943028158602109e-21 -1.4300942079335561e-21 0.0000000000000000e+00  1.5451133023730837e-21 -2.0105857436334279e-21 0.0000000000000000e+00  -1.2347808910245134e-21 2.6531133853289858e-21 0.0000000000000000e+00  -3.4499524136422470e-21 -4.2075050919588662e-22 0.0000000000000000e+00  -5.0826383874112954e-21 1.1848538826118497e-21 0.0000000000000000e+00  4.8688270686138237e-21 -3.0592060429991155e-21 0.0000000000000000e+00  1.1632283831881754e-21 -5.0273305472174286e-21 0.0000000000000000e+00  -6.4298325575174320e-21 6.2766738596841369e-22 0.0000000000000000e+00  -6.8615898020679001e-22 1.5306138157747044e-21 0.0000000000000000e+00  -1.6099303979258762e-21 3.9808447708850654e-22 0.0000000000000000e+00  -7.9285684775082553e-22 9.7201473663152269e-22 0.0000000000000000e+00  1.7528722539252427e-21 3.6770561105042610e-21 0.0000000000000000e+00  2.4912677633678648e-21 5.3922897862683039e-22 0.0000000000000000e+00  3.2501256360988688e-23 5.8161830699710488e-22 0.0000000000000000e+00  -3.7312417290479916e-21 -6.0541004244964661e-21 0.0000000000000000e+00  5.7044417449666569e-22 2.5904031552526841e-21 0.0000000000000000e+00  -2.0515402936676596e-22 8.0297547608629055e-22 0.0000000000000000e+00  -3.8280133718552110e-22 6.3451250262904188e-22 0.0000000000000000e+00  1.5096564477214082e-21 -4.3150989607189663e-21 0.0000000000000000e+00  -4.1147076620721035e-21 1.7658705952669878e-21 0.0000000000000000e+00  -4.2888420486639463e-22 4.2092709075343111e-22 0.0000000000000000e+00  -2.1118656070322320e-22 2.5114085037243596e-21 0.0000000000000000e+00  6.3279005051887893e-21 -2.6978746066358077e-21 0.0000000000000000e+00  -1.2055628690821849e-20 -4.7933995843264718e-21 0.0000000000000000e+00  -1.2239507655294302e-21 1.2032945546538015e-21 0.0000000000000000e+00  1.9464007924422335e-21 1.0682292532502001e-21 0.0000000000000000e+00  -1.5363946181586935e-21 2.6307216177989645e-21 0.0000000000000000e+00  4.7680970843159761e-21 -3.2915226564165650e-21 0.0000000000000000e+00  -5.0586979015138135e-21 -1.2943135079444366e-22 0.0000000000000000e+00  3.0269980424924309e-21 -4.5607789287964133e-21 0.0000000000000000e+00  -2.5698860142333390e-21 2.1295357708064556e-21 0.0000000000000000e+00  -8.2207710529423689e-22 -4.7395994530519109e-21 0.0000000000000000e+00  -1.5938720855011294e-21 -4.3615427780680724e-21 0.0000000000000000e+00  -3.4060113338274453e-22 -2.0969590111345172e-22 0.0000000000000000e+00  2.1278228992092643e-21 -3.9476985945708740e-21 0.0000000000000000e+00  4.9054127093786269e-22 1.1727746194733813e-21 0.0000000000000000e+00  -9.8351887266229310e-22 3.1065264444371788e-21 0.0000000000000000e+00  -4.5798121051468148e-21 1.1079948031788238e-21 0.0000000000000000e+00  8.0188272022494179e-21 -9.9279873491826153e-22 0.0000000000000000e+00  3.5909231430266682e-21 1.9933235829800385e-21 0.0000000000000000e+00  6.6145249441905887e-22 3.3281821323982076e-21 0.0000000000000000e+00  -3.2324833554011545e-21 -5.2898170678105996e-22 0.0000000000000000e+00  -5.2018782402133434e-23 -1.9835587335223204e-21 0.0000000000000000e+00  1.9322012068888694e-21 5.2502069481794060e-23 0.0000000000000000e+00  -1.1434509860104725e-21 1.0979495931663751e-21 0.0000000000000000e+00  1.0844694469588870e-22 -2.8385732092087718e-22 0.0000000000000000e+00  -1.4685923434388030e-21 -4.8931802555910231e-21 0.0000000000000000e+00  -1.6783954866028467e-21 -4.9118319524164298e-22 0.0000000000000000e+00  1.9658748526530940e-21 1.0067450174484919e-21 0.0000000000000000e+00  -1.7782945452288370e-21 -3.9523408738810928e-21 0.0000000000000000e+00  6.7320336948453188e-22 3.5022182709446240e-21 0.0000000000000000e+00  2.3469407885576198e-22 -4.9280512365724974e-21 0.0000000000000000e+00  -1.8412014446686234e-22 -1.5525866587980359e-21 0.0000000000000000e+00  -2.7294141349894880e-21 -4.3566127712077551e-22 0.0000000000000000e+00  8.1174002687979105e-21 3.0690525056399064e-21 0.0000000000000000e+00  -9.3815703077358678e-21 9.5994636593459000e-22 0.0000000000000000e+00  1.2601162354640547e-21 -7.2901988742967749e-21 0.0000000000000000e+00  -1.3626074653231294e-21 -3.1125428022974537e-22 0.0000000000000000e+00  3.9760234089712944e-22 -4.5822733918422877e-22 0.0000000000000000e+00  -1.6457436626689467e-21 5.9103996526757123e-22 0.0000000000000000e+00  5.6102173016930460e-22 -4.3982481428156930e-21 0.0000000000000000e+00  -2.9167490816597004e-21 1.7102567183107126e-21 0.0000000000000000e+00  -1.5933931052196092e-21 1.2402760063446261e-21 0.0000000000000000e+00  1.6758352458455173e-21 2.9543561248920589e-21 0.0000000000000000e+00  1.6274449098976009e-21 2.6707684217412375e-21 0.0000000000000000e+00  -2.5190030856178371e-21 1.1805003543102911e-21 0.0000000000000000e+00  1.1563530566510316e-21 -3.5320196391044406e-22 0.0000000000000000e+00  -2.0756157475909746e-21 -4.0767438796263579e-21 0.0000000000000000e+00  2.0787946214927392e-21 -4.8221157050238660e-21 0.0000000000000000e+00  -1.7893660778786973e-21 -2.2840074975409920e-21 0.0000000000000000e+00  7.9578987199836045e-21 1.2316000486557284e-21 0.0000000000000000e+00  -8.8174582192911315e-21 -3.0529612095901165e-21 0.0000000000000000e+00  -8.3211930708252309e-22 1.1649126205311647e-21 0.0000000000000000e+00  -1.5159996644562145e-21 -1.4777668257603043e-21 0.0000000000000000e+00  -6.0162578815772553e-22 -6.1254083516515763e-22 0.0000000000000000e+00  3.2782154584598567e-21 -5.4679252938249323e-21 0.0000000000000000e+00  -1.8231810026104376e-21 8.5041209285132367e-22 0.0000000000000000e+00  2.0253763738456565e-21 -1.8502546336031523e-21 0.0000000000000000e+00  -1.3981550118934526e-21 8.4552469990411816e-23 0.0000000000000000e+00  3.6122313825338152e-21 2.4864791485124453e-22 0.0000000000000000e+00  -1.7910132528184623e-21 1.4653848983805252e-22 0.0000000000000000e+00  -6.1278038913105148e-21 -8.1472163215438057e-22 0.0000000000000000e+00  2.0487602565095532e-21 7.0932528377069396e-23 0.0000000000000000e+00  -3.8593065008094575e-21 1.1592733011268364e-21 0.0000000000000000e+00  2.1578556462688260e-21 3.1669766246781229e-21 0.0000000000000000e+00  5.3285426596554753e-22 2.6397775534783932e-22 0.0000000000000000e+00  9.0379290340912704e-21 -2.5273597034135079e-21 0.0000000000000000e+00  -6.8110698501363998e-21 4.0682615240692451e-21 0.0000000000000000e+00  -1.9899089715534733e-21 -1.3177009087037003e-21 0.0000000000000000e+00  2.2518703079306430e-21 -1.7235963741275847e-21 0.0000000000000000e+00  3.0546181796962758e-22 1.5400437906815382e-21 0.0000000000000000e+00  -1.1176598350409585e-21 2.6873804910087347e-21 0.0000000000000000e+00  -1.7704568970115368e-22 -2.1813920018312105e-21 0.0000000000000000e+00  -5.2437472293157265e-22 -2.2788977138511091e-21 0.0000000000000000e+00  -2.2621311411018460e-21 1.1220485673580348e-21 0.0000000000000000e+00  2.9974607736132901e-21 -1.8437507622426969e-21 0.0000000000000000e+00  -4.1102230264397754e-21 -5.4283802422262203e-21 0.0000000000000000e+00  1.2925042845674813e-21 -1.4884585745459926e-21 0.0000000000000000e+00  -1.4956218627788017e-21 -3.1476638073465709e-21 0.0000000000000000e+00  -1.4864269587912890e-22 5.8184689850915311e-23 0.0000000000000000e+00  1.2667031613666231e-21 -9.4195219590063368e-22 0.0000000000000000e+00  -2.4671363375807177e-21 -7.2417457622949139e-22 0.0000000000000000e+00  7.4542659664206037e-21 -2.8541068105765616e-21 0.0000000000000000e+00  3.1951610462844750e-21 -4.3733449688289217e-21 0.0000000000000000e+00  -3.7167586352093458e-21 -1.1281263147294411e-21 0.0000000000000000e+00  3.4904412179819996e-21 6.8938149946818305e-21 0.0000000000000000e+00  -1.5028894006204222e-21 4.0818368335788857e-22 0.0000000000000000e+00  -1.9872760431370982e-21 1.1817306613173998e-21 0.0000000000000000e+00  -1.0994845849051961e-21 1.1536435719228392e-21 0.0000000000000000e+00  2.6786476233690229e-21 3.4335981390903886e-21 0.0000000000000000e+00  -2.4850368073272021e-21 -1.2578744326044838e-21 0.0000000000000000e+00  2.5034926903829248e-21 -4.4351559294000731e-21 0.0000000000000000e+00  -4.6244875267211456e-21 -6.4510719836629578e-22 0.0000000000000000e+00  -2.1823187762846270e-21 -4.0426506126680490e-21 0.0000000000000000e+00  2.6841038697191931e-21 -4.5241669479640568e-21 0.0000000000000000e+00  2.1271114555786007e-21 -2.4891701998901963e-21 0.0000000000000000e+00  -1.5871807403018554e-21 -1.2297156882379814e-21 0.0000000000000000e+00  -8.9258398269890536e-22 -2.6845572265328992e-21 0.0000000000000000e+00  -1.7210135247716718e-21 1.3493387024668011e-21 0.0000000000000000e+00  -4.0299463463567656e-21 2.8844327253892027e-23 0.0000000000000000e+00  1.6721061324293989e-21 2.1766536124017878e-21 0.0000000000000000e+00  4.2759560186192033e-21 -4.2667681032286252e-22 0.0000000000000000e+00  -3.3941038721652443e-21 8.0566408622692601e-22 0.0000000000000000e+00  -4.5791592971619930e-22 1.6120783705585136e-21 0.0000000000000000e+00  -3.8359524215931534e-21 1.1364883426890409e-21 0.0000000000000000e+00  1.4874745759863464e-21 -6.0879173841622520e-21 0.0000000000000000e+00  -4.2921524322115014e-21 -1.2050609916600991e-21 0.0000000000000000e+00  6.9375380710841305e-22 2.9434058408264118e-21 0.0000000000000000e+00  -3.0539491342389165e-21 -3.1367088730947330e-21 0.0000000000000000e+00  -4.2369244980940818e-21 -1.5558818352065863e-21 0.0000000000000000e+00  1.3771300943940159e-21 -7.6577575585067271e-22 0.0000000000000000e+00  9.2094152530066964e-22 -6.6259796605477421e-22 0.0000000000000000e+00  1.9044242354580060e-21 -3.9252746071033515e-21 0.0000000000000000e+00  -4.6550845564044058e-22 3.6568816330548319e-22 0.0000000000000000e+00  8.7985655475106182e-21 -4.3321259787680702e-21 0.0000000000000000e+00  3.3394779940712155e-21 2.4933380782813112e-21 0.0000000000000000e+00  6.8658762424592938e-22 6.5830672801549273e-22 0.0000000000000000e+00  -2.2438362529602157e-21 -6.0477401418887644e-21 0.0000000000000000e+00  2.8191852926157406e-21 -4.2285296828405912e-21 0.0000000000000000e+00  -3.5205281760553226e-22 -1.4738024908724987e-21 0.0000000000000000e+00  -5.4017036279506911e-21 -2.4459900384699907e-21 0.0000000000000000e+00  -1.5463281120530807e-21 4.0907381283419636e-22 0.0000000000000000e+00  3.1745374375795758e-21 2.8987686968564231e-22 0.0000000000000000e+00  -4.2786451910978669e-21 -1.2109559712241307e-21 0.0000000000000000e+00  -1.5762956438751397e-21 3.8077757282279872e-21 0.0000000000000000e+00  -3.9797376316471470e-21 1.2470496906146497e-21 0.0000000000000000e+00  6.4296030621888072e-21 1.2986244732348502e-21 0.0000000000000000e+00  -2.7079530292996441e-21 3.0774699288633832e-21 0.0000000000000000e+00  2.3267851140382942e-22 1.1255973631427997e-21 0.0000000000000000e+00  -5.5188220962148382e-22 5.1824893288059471e-21 0.0000000000000000e+00  -1.1523316838112390e-20 4.1689922330339520e-21 0.0000000000000000e+00  -3.2663194560992419e-22 -1.4327997016426795e-21 0.0000000000000000e+00  1.9338967108002038e-21 -8.2666746006495200e-22 0.0000000000000000e+00  -4.7610401043290568e-21 2.4666267365068301e-21 0.0000000000000000e+00  6.5939331563164100e-21 2.8349263650608023e-21 0.0000000000000000e+00  -2.5854439272719858e-21 7.1791581922475758e-22 0.0000000000000000e+00  -3.7384096275370306e-21 2.1653889414531390e-21 0.0000000000000000e+00  2.0566633695482886e-21 3.3363688773902412e-21 0.0000000000000000e+00  -2.0212051256225810e-21 -4.5807288423733926e-22 0.0000000000000000e+00  3.4745062347005789e-21 -3.5227755395559252e-22 0.0000000000000000e+00  -1.8404804144336248e-21 1.0053398369072052e-21 0.0000000000000000e+00  -6.7813687670909564e-21 4.3306487319182283e-21 0.0000000000000000e+00  3.5914726678177208e-21 3.3727627877314647e-21 0.0000000000000000e+00  -7.4060645766424470e-22 1.2551625872950437e-21 0.0000000000000000e+00  4.6222125199343052e-21 6.5005654329989394e-21 0.0000000000000000e+00  -5.3987269843968426e-23 -1.3220744898077598e-21 0.0000000000000000e+00  2.4998162662239799e-21 4.9306202851906568e-21 0.0000000000000000e+00  -2.6696993804556521e-21 5.4276317675331347e-21 0.0000000000000000e+00  -7.2186282756902685e-22 5.6317753898176506e-21 0.0000000000000000e+00  -1.3798960001149613e-21 3.0156617297475075e-21 0.0000000000000000e+00  8.9890131350296876e-22 4.7114281274689631e-21 0.0000000000000000e+00  3.9612719627836741e-21 7.5451885623267119e-21 0.0000000000000000e+00  -8.8133905095423132e-22 7.3917917603029474e-21 0.0000000000000000e+00  -6.5660299915904155e-21 1.1905674267856529e-20 0.0000000000000000e+00  2.8286693523518417e-21 5.7777416679168474e-21 0.0000000000000000e+00  -1.0523444191840883e-21 1.4255229869108503e-20 0.0000000000000000e+00  -2.5057184331769967e-21 4.0969754219971856e-21 0.0000000000000000e+00  -1.0248903818306437e-22 7.5019719785591629e-21 0.0000000000000000e+00  3.9280468548866913e-21 1.1125298361949258e-20 0.0000000000000000e+00  -7.7321330316222104e-22 4.8343576814097968e-21 0.0000000000000000e+00  1.5663119851726882e-21 6.9612363700758748e-21 0.0000000000000000e+00  -1.7607679651188330e-21 7.5735122125112856e-21 0.0000000000000000e+00  4.4436779986432279e-21 5.7943438431925875e-21 0.0000000000000000e+00  -6.5262995610403352e-21 3.9846389104421058e-20 0.0000000000000000e+00  -4.0961186661510078e-21 3.6123258819784482e-20 0.0000000000000000e+00  2.4067612848742535e-21 4.0289179865915165e-20 0.0000000000000000e+00  -5.6611283588483285e-22 3.8709053861738391e-20 0.0000000000000000e+00  3.8171255581935946e-21 3.5349722566585427e-20 0.0000000000000000e+00  -2.6712850338393663e-21 3.6305672952402406e-20 0.0000000000000000e+00  -2.4845172747378470e-21 3.9083354789080606e-20 0.0000000000000000e+00  -1.6850215563736487e-21 3.5014008899540131e-20 0.0000000000000000e+00  3.3027798129338095e-21 3.0285749234656186e-20 0.0000000000000000e+00  -3.0245817020574987e-21 4.1568677721132093e-20 0.0000000000000000e+00  4.8246285084176507e-21 4.1766605088497421e-20 0.0000000000000000e+00  6.8201320814454992e-22 3.5726952573281820e-20 0.0000000000000000e+00  -7.7055133735274258e-21 3.9027858521444179e-20 0.0000000000000000e+00  7.0610336661134335e-21 3.5806880338248009e-20 0.0000000000000000e+00  3.6962196839236196e-22 4.1139289404396216e-20 0.0000000000000000e+00  6.0646724320442795e-21 3.9026971475410304e-20 0.0000000000000000e+00  -5.5328015605277084e-20 1.9344119163331602e-19 0.0000000000000000e+00  -6.2239607314307170e-21 1.9745513914043906e-19 0.0000000000000000e+00  6.2290772263973130e-21 1.9454173143345307e-19 0.0000000000000000e+00  -6.5164343901160096e-21 1.9324071431808523e-19 0.0000000000000000e+00  6.6735594617876305e-21 1.9760585173281392e-19 0.0000000000000000e+00  9.8951577075616239e-22 1.9343229900871436e-19 0.0000000000000000e+00  -2.3505213184314520e-21 1.9197505048020777e-19 0.0000000000000000e+00  -5.3347114946011924e-21 1.9976492892332042e-19 0.0000000000000000e+00  2.9229594754541866e-21 1.9754865645928452e-19 0.0000000000000000e+00  1.4442253650927058e-21 1.9431762518533822e-19 0.0000000000000000e+00  -5.3857731186754174e-21 1.9363199377131720e-19 0.0000000000000000e+00  -5.8153444100448641e-22 1.9474273710009782e-19 0.0000000000000000e+00  2.8605168679424484e-21 1.9962911138357675e-19 0.0000000000000000e+00  3.1568726742405215e-21 1.9692432528985486e-19 0.0000000000000000e+00  1.3813849161817120e-21 1.9057885198398472e-19 0.0000000000000000e+00  5.3450722575565929e-20 1.8957971486082389e-19 0.0000000000000000e+00  -2.3641442803075230e-19 9.4472169626518487e-19 0.0000000000000000e+00  -1.8455657602528819e-20 9.4891794185703749e-19 0.0000000000000000e+00  -6.7526129152488019e-21 9.4764591193057278e-19 0.0000000000000000e+00  6.0533543212008570e-21 9.4532995990526057e-19 0.0000000000000000e+00  -1.2332388955172062e-21 9.5133539124229086e-19 0.0000000000000000e+00  -2.5771425711064669e-21 9.4700562830978514e-19 0.0000000000000000e+00  2.3277097523843614e-21 9.4762732142891332e-19 0.0000000000000000e+00  -9.4634419667088239e-22 9.5172750593426140e-19 0.0000000000000000e+00  -2.6764862153359657e-21 9.4968343013546685e-19 0.0000000000000000e+00  6.4385564341301893e-22 9.5221362951173657e-19 0.0000000000000000e+00  1.8717251951782291e-21 9.4703959844985293e-19 0.0000000000000000e+00  3.2397153864555429e-21 9.5273282726570314e-19 0.0000000000000000e+00  -5.7869789854111554e-21 9.4970725002528646e-19 0.0000000000000000e+00  4.2023475492877240e-22 9.4688420262484233e-19 0.0000000000000000e+00  1.4512609096309193e-20 9.4759747958788004e-19 0.0000000000000000e+00  2.4509212098707800e-19 9.5011112128696212e-19 0.0000000000000000e+00  -1.1220509997578787e-18 4.6145319892592591e-18 0.0000000000000000e+00  -9.3213017930139835e-20 4.6062866017685730e-18 0.0000000000000000e+00  -4.0409899289934274e-21 4.6093496809893862e-18 0.0000000000000000e+00  -3.1399654673962154e-21 4.6101007543282647e-18 0.0000000000000000e+00  1.5109723044744723e-21 4.5993103114969783e-18 0.0000000000000000e+00  8.0462254751337006e-22 4.6121662245846850e-18 0.0000000000000000e+00  1.4159069669971297e-21 4.6064140176171827e-18 0.0000000000000000e+00  -4.4468504077088673e-22 4.6058588803098183e-18 0.0000000000000000e+00  -3.9259830996830063e-21 4.6044899307282680e-18 0.0000000000000000e+00  3.7621643439589342e-21 4.6028934702126735e-18 0.0000000000000000e+00  -6.9432738940368752e-21 4.6037146013695217e-18 0.0000000000000000e+00  7.4639147135849624e-21 4.6031131345608445e-18 0.0000000000000000e+00  -9.8728215055872738e-22 4.6048964432104514e-18 0.0000000000000000e+00  2.9917898028964028e-21 4.6050473882973456e-18 0.0000000000000000e+00  9.1811586720901018e-20 4.6063129624574359e-18 0.0000000000000000e+00  1.1178786584728108e-18 4.6056713238480888e-18 0.0000000000000000e+00  -5.4387377872598094e-18 2.2396275018606052e-17 0.0000000000000000e+00  -4.2929507872767656e-19 2.2398020924010907e-17 0.0000000000000000e+00  -4.8969601852061214e-20 2.2396294158752653e-17 0.0000000000000000e+00  7.6645651548692376e-21 2.2393856089742831e-17 0.0000000000000000e+00  -8.5877757211663967e-21 2.2396957559295491e-17 0.0000000000000000e+00  6.8537325471870148e-21 2.2390316434801536e-17 0.0000000000000000e+00  -2.4274923455589022e-21 2.2390995568575791e-17 0.0000000000000000e+00  1.9113595877904794e-23 2.2394538361352811e-17 0.0000000000000000e+00  1.8517671258375930e-22 2.24008630501