<?xml version="1.0"?>
<VTKFile type="UnstructuredGrid"  version="0.1"  >
<UnstructuredGrid>
<Piece  NumberOfPoints="1411" NumberOfCells="2700">
<Points>
<DataArray  type="Float64"  NumberOfComponents="3"  format="ascii">-0.75 -4.5 0  -0.65 -4.5 0  -0.55 -4.5 0  -0.45 -4.5 0  -0.35 -4.5 0  -0.25 -4.5 0  -0.15 -4.5 0  -0.05000000000000004 -4.5 0  0.05000000000000004 -4.5 0  0.15 -4.5 0  0.25 -4.5 0  0.3500000000000001 -4.5 0  0.45 -4.5 0  0.55 -4.5 0  0.6499999999999999 -4.5 0  0.75 -4.5 0  -0.75 -4.4 0  -0.65 -4.4 0  -0.55 -4.4 0  -0.45 -4.4 0  -0.35 -4.4 0  -0.25 -4.4 0  -0.15 -4.4 0  -0.05000000000000004 -4.4 0  0.05000000000000004 -4.4 0  0.15 -4.4 0  0.25 -4.4 0  0.3500000000000001 -4.4 0  0.45 -4.4 0  0.55 -4.4 0  0.6499999999999999 -4.4 0  0.75 -4.4 0  -0.75 -4.3 0  -0.65 -4.3 0  -0.55 -4.3 0  -0.45 -4.3 0  -0.35 -4.3 0  -0.25 -4.3 0  -0.15 -4.3 0  -0.05000000000000004 -4.3 0  0.05000000000000004 -4.3 0  0.15 -4.3 0  0.25 -4.3 0  0.3500000000000001 -4.3 0  0.45 -4.3 0  0.55 -4.3 0  0.6499999999999999 -4.3 0  0.75 -4.3 0  -0.75 -4.2 0  -0.65 -4.2 0  -0.55 -4.2 0  -0.45 -4.2 0  -0.35 -4.2 0  -0.25 -4.2 0  -0.15 -4.2 0  -0.05000000000000004 -4.2 0  0.05000000000000004 -4.2 0  0.15 -4.2 0  0.25 -4.2 0  0.3500000000000001 -4.2 0  0.45 -4.2 0  0.55 -4.2 0  0.6499999999999999 -4.2 0  0.75 -4.2 0  -0.75 -4.1 0  -0.65 -4.1 0  -0.55 -4.1 0  -0.45 -4.1 0  -0.35 -4.1 0  -0.25 -4.1 0  -0.15 -4.1 0  -0.05000000000000004 -4.1 0  0.05000000000000004 -4.1 0  0.15 -4.1 0  0.25 -4.1 0  0.3500000000000001 -4.1 0  0.45 -4.1 0  0.55 -4.1 0  0.6499999999999999 -4.1 0  0.75 -4.1 0  -0.75 -4 0  -0.65 -4 0  -0.55 -4 0  -0.45 -4 0  -0.35 -4 0  -0.25 -4 0  -0.15 -4 0  -0.05000000000000004 -4 0  0.05000000000000004 -4 0  0.15 -4 0  0.25 -4 0  0.3500000000000001 -4 0  0.45 -4 0  0.55 -4 0  0.6499999999999999 -4 0  0.75 -4 0  -0.75 -3.9 0  -0.65 -3.9 0  -0.55 -3.9 0  -0.45 -3.9 0  -0.35 -3.9 0  -0.25 -3.9 0  -0.15 -3.9 0  -0.05000000000000004 -3.9 0  0.05000000000000004 -3.9 0  0.15 -3.9 0  0.25 -3.9 0  0.3500000000000001 -3.9 0  0.45 -3.9 0  0.55 -3.9 0  0.6499999999999999 -3.9 0  0.75 -3.9 0  -0.75 -3.8 0  -0.65 -3.8 0  -0.55 -3.8 0  -0.45 -3.8 0  -0.35 -3.8 0  -0.25 -3.8 0  -0.15 -3.8 0  -0.05000000000000004 -3.8 0  0.05000000000000004 -3.8 0  0.15 -3.8 0  0.25 -3.8 0  0.3500000000000001 -3.8 0  0.45 -3.8 0  0.55 -3.8 0  0.6499999999999999 -3.8 0  0.75 -3.8 0  -0.75 -3.7 0  -0.65 -3.7 0  -0.55 -3.7 0  -0.45 -3.7 0  -0.35 -3.7 0  -0.25 -3.7 0  -0.15 -3.7 0  -0.05000000000000004 -3.7 0  0.05000000000000004 -3.7 0  0.15 -3.7 0  0.25 -3.7 0  0.3500000000000001 -3.7 0  0.45 -3.7 0  0.55 -3.7 0  0.6499999999999999 -3.7 0  0.75 -3.7 0  -0.75 -3.6 0  -0.65 -3.6 0  -0.55 -3.6 0  -0.45 -3.6 0  -0.35 -3.6 0  -0.25 -3.6 0  -0.15 -3.6 0  -0.05000000000000004 -3.6 0  0.05000000000000004 -3.6 0  0.15 -3.6 0  0.25 -3.6 0  0.3500000000000001 -3.6 0  0.45 -3.6 0  0.55 -3.6 0  0.6499999999999999 -3.6 0  0.75 -3.6 0  -0.75 -3.5 0  -0.65 -3.5 0  -0.55 -3.5 0  -0.45 -3.5 0  -0.35 -3.5 0  -0.25 -3.5 0  -0.15 -3.5 0  -0.05000000000000004 -3.5 0  0.05000000000000004 -3.5 0  0.15 -3.5 0  0.25 -3.5 0  0.3500000000000001 -3.5 0  0.45 -3.5 0  0.55 -3.5 0  0.6499999999999999 -3.5 0  0.75 -3.5 0  -0.75 -3.4 0  -0.65 -3.4 0  -0.55 -3.4 0  -0.45 -3.4 0  -0.35 -3.4 0  -0.25 -3.4 0  -0.15 -3.4 0  -0.05000000000000004 -3.4 0  0.05000000000000004 -3.4 0  0.15 -3.4 0  0.25 -3.4 0  0.3500000000000001 -3.4 0  0.45 -3.4 0  0.55 -3.4 0  0.6499999999999999 -3.4 0  0.75 -3.4 0  -0.75 -3.3 0  -0.65 -3.3 0  -0.55 -3.3 0  -0.45 -3.3 0  -0.35 -3.3 0  -0.25 -3.3 0  -0.15 -3.3 0  -0.05000000000000004 -3.3 0  0.05000000000000004 -3.3 0  0.15 -3.3 0  0.25 -3.3 0  0.3500000000000001 -3.3 0  0.45 -3.3 0  0.55 -3.3 0  0.6499999999999999 -3.3 0  0.75 -3.3 0  -0.75 -3.2 0  -0.65 -3.2 0  -0.55 -3.2 0  -0.45 -3.2 0  -0.35 -3.2 0  -0.25 -3.2 0  -0.15 -3.2 0  -0.05000000000000004 -3.2 0  0.05000000000000004 -3.2 0  0.15 -3.2 0  0.25 -3.2 0  0.3500000000000001 -3.2 0  0.45 -3.2 0  0.55 -3.2 0  0.6499999999999999 -3.2 0  0.75 -3.2 0  -0.75 -3.1 0  -0.65 -3.1 0  -0.55 -3.1 0  -0.45 -3.1 0  -0.35 -3.1 0  -0.25 -3.1 0  -0.15 -3.1 0  -0.05000000000000004 -3.1 0  0.05000000000000004 -3.1 0  0.15 -3.1 0  0.25 -3.1 0  0.3500000000000001 -3.1 0  0.45 -3.1 0  0.55 -3.1 0  0.6499999999999999 -3.1 0  0.75 -3.1 0  -0.75 -3 0  -0.65 -3 0  -0.55 -3 0  -0.45 -3 0  -0.35 -3 0  -0.25 -3 0  -0.15 -3 0  -0.05000000000000004 -3 0  0.05000000000000004 -3 0  0.15 -3 0  0.25 -3 0  0.3500000000000001 -3 0  0.45 -3 0  0.55 -3 0  0.6499999999999999 -3 0  0.75 -3 0  -0.75 -2.9 0  -0.65 -2.9 0  -0.55 -2.9 0  -0.45 -2.9 0  -0.35 -2.9 0  -0.25 -2.9 0  -0.15 -2.9 0  -0.05000000000000004 -2.9 0  0.05000000000000004 -2.9 0  0.15 -2.9 0  0.25 -2.9 0  0.3500000000000001 -2.9 0  0.45 -2.9 0  0.55 -2.9 0  0.6499999999999999 -2.9 0  0.75 -2.9 0  -0.75 -2.8 0  -0.65 -2.8 0  -0.55 -2.8 0  -0.45 -2.8 0  -0.35 -2.8 0  -0.25 -2.8 0  -0.15 -2.8 0  -0.05000000000000004 -2.8 0  0.05000000000000004 -2.8 0  0.15 -2.8 0  0.25 -2.8 0  0.3500000000000001 -2.8 0  0.45 -2.8 0  0.55 -2.8 0  0.6499999999999999 -2.8 0  0.75 -2.8 0  -0.75 -2.7 0  -0.65 -2.7 0  -0.55 -2.7 0  -0.45 -2.7 0  -0.35 -2.7 0  -0.25 -2.7 0  -0.15 -2.7 0  -0.05000000000000004 -2.7 0  0.05000000000000004 -2.7 0  0.15 -2.7 0  0.25 -2.7 0  0.3500000000000001 -2.7 0  0.45 -2.7 0  0.55 -2.7 0  0.6499999999999999 -2.7 0  0.75 -2.7 0  -0.75 -2.6 0  -0.65 -2.6 0  -0.55 -2.6 0  -0.45 -2.6 0  -0.35 -2.6 0  -0.25 -2.6 0  -0.15 -2.6 0  -0.05000000000000004 -2.6 0  0.05000000000000004 -2.6 0  0.15 -2.6 0  0.25 -2.6 0  0.3500000000000001 -2.6 0  0.45 -2.6 0  0.55 -2.6 0  0.6499999999999999 -2.6 0  0.75 -2.6 0  -0.75 -2.5 0  -0.65 -2.5 0  -0.55 -2.5 0  -0.45 -2.5 0  -0.35 -2.5 0  -0.25 -2.5 0  -0.15 -2.5 0  -0.05000000000000004 -2.5 0  0.05000000000000004 -2.5 0  0.15 -2.5 0  0.25 -2.5 0  0.3500000000000001 -2.5 0  0.45 -2.5 0  0.55 -2.5 0  0.6499999999999999 -2.5 0  0.75 -2.5 0  -0.75 -2.4 0  -0.65 -2.4 0  -0.55 -2.4 0  -0.45 -2.4 0  -0.35 -2.4 0  -0.25 -2.4 0  -0.15 -2.4 0  -0.05000000000000004 -2.4 0  0.05000000000000004 -2.4 0  0.15 -2.4 0  0.25 -2.4 0  0.3500000000000001 -2.4 0  0.45 -2.4 0  0.55 -2.4 0  0.6499999999999999 -2.4 0  0.75 -2.4 0  -0.75 -2.3 0  -0.65 -2.3 0  -0.55 -2.3 0  -0.45 -2.3 0  -0.35 -2.3 0  -0.25 -2.3 0  -0.15 -2.3 0  -0.05000000000000004 -2.3 0  0.05000000000000004 -2.3 0  0.15 -2.3 0  0.25 -2.3 0  0.3500000000000001 -2.3 0  0.45 -2.3 0  0.55 -2.3 0  0.6499999999999999 -2.3 0  0.75 -2.3 0  -0.75 -2.2 0  -0.65 -2.2 0  -0.55 -2.2 0  -0.45 -2.2 0  -0.35 -2.2 0  -0.25 -2.2 0  -0.15 -2.2 0  -0.05000000000000004 -2.2 0  0.05000000000000004 -2.2 0  0.15 -2.2 0  0.25 -2.2 0  0.3500000000000001 -2.2 0  0.45 -2.2 0  0.55 -2.2 0  0.6499999999999999 -2.2 0  0.75 -2.2 0  -0.75 -2.1 0  -0.65 -2.1 0  -0.55 -2.1 0  -0.45 -2.1 0  -0.35 -2.1 0  -0.25 -2.1 0  -0.15 -2.1 0  -0.05000000000000004 -2.1 0  0.05000000000000004 -2.1 0  0.15 -2.1 0  0.25 -2.1 0  0.3500000000000001 -2.1 0  0.45 -2.1 0  0.55 -2.1 0  0.6499999999999999 -2.1 0  0.75 -2.1 0  -0.75 -2 0  -0.65 -2 0  -0.55 -2 0  -0.45 -2 0  -0.35 -2 0  -0.25 -2 0  -0.15 -2 0  -0.05000000000000004 -2 0  0.05000000000000004 -2 0  0.15 -2 0  0.25 -2 0  0.3500000000000001 -2 0  0.45 -2 0  0.55 -2 0  0.6499999999999999 -2 0  0.75 -2 0  -0.75 -1.9 0  -0.65 -1.9 0  -0.55 -1.9 0  -0.45 -1.9 0  -0.35 -1.9 0  -0.25 -1.9 0  -0.15 -1.9 0  -0.05000000000000004 -1.9 0  0.05000000000000004 -1.9 0  0.15 -1.9 0  0.25 -1.9 0  0.3500000000000001 -1.9 0  0.45 -1.9 0  0.55 -1.9 0  0.6499999999999999 -1.9 0  0.75 -1.9 0  -0.75 -1.8 0  -0.65 -1.8 0  -0.55 -1.8 0  -0.45 -1.8 0  -0.35 -1.8 0  -0.25 -1.8 0  -0.15 -1.8 0  -0.05000000000000004 -1.8 0  0.05000000000000004 -1.8 0  0.15 -1.8 0  0.25 -1.8 0  0.3500000000000001 -1.8 0  0.45 -1.8 0  0.55 -1.8 0  0.6499999999999999 -1.8 0  0.75 -1.8 0  -0.75 -1.7 0  -0.65 -1.7 0  -0.55 -1.7 0  -0.45 -1.7 0  -0.35 -1.7 0  -0.25 -1.7 0  -0.15 -1.7 0  -0.05000000000000004 -1.7 0  0.05000000000000004 -1.7 0  0.15 -1.7 0  0.25 -1.7 0  0.3500000000000001 -1.7 0  0.45 -1.7 0  0.55 -1.7 0  0.6499999999999999 -1.7 0  0.75 -1.7 0  -0.75 -1.6 0  -0.65 -1.6 0  -0.55 -1.6 0  -0.45 -1.6 0  -0.35 -1.6 0  -0.25 -1.6 0  -0.15 -1.6 0  -0.05000000000000004 -1.6 0  0.05000000000000004 -1.6 0  0.15 -1.6 0  0.25 -1.6 0  0.3500000000000001 -1.6 0  0.45 -1.6 0  0.55 -1.6 0  0.6499999999999999 -1.6 0  0.75 -1.6 0  -0.75 -1.5 0  -0.65 -1.5 0  -0.55 -1.5 0  -0.45 -1.5 0  -0.35 -1.5 0  -0.25 -1.5 0  -0.15 -1.5 0  -0.05000000000000004 -1.5 0  0.05000000000000004 -1.5 0  0.15 -1.5 0  0.25 -1.5 0  0.3500000000000001 -1.5 0  0.45 -1.5 0  0.55 -1.5 0  0.6499999999999999 -1.5 0  0.75 -1.5 0  -0.75 -1.4 0  -0.65 -1.4 0  -0.55 -1.4 0  -0.45 -1.4 0  -0.35 -1.4 0  -0.25 -1.4 0  -0.15 -1.4 0  -0.05000000000000004 -1.4 0  0.05000000000000004 -1.4 0  0.15 -1.4 0  0.25 -1.4 0  0.3500000000000001 -1.4 0  0.45 -1.4 0  0.55 -1.4 0  0.6499999999999999 -1.4 0  0.75 -1.4 0  -0.75 -1.3 0  -0.65 -1.3 0  -0.55 -1.3 0  -0.45 -1.3 0  -0.35 -1.3 0  -0.25 -1.3 0  -0.15 -1.3 0  -0.05000000000000004 -1.3 0  0.05000000000000004 -1.3 0  0.15 -1.3 0  0.25 -1.3 0  0.3500000000000001 -1.3 0  0.45 -1.3 0  0.55 -1.3 0  0.6499999999999999 -1.3 0  0.75 -1.3 0  -0.75 -1.2 0  -0.65 -1.2 0  -0.55 -1.2 0  -0.45 -1.2 0  -0.35 -1.2 0  -0.25 -1.2 0  -0.15 -1.2 0  -0.05000000000000004 -1.2 0  0.05000000000000004 -1.2 0  0.15 -1.2 0  0.25 -1.2 0  0.3500000000000001 -1.2 0  0.45 -1.2 0  0.55 -1.2 0  0.6499999999999999 -1.2 0  0.75 -1.2 0  -0.75 -1.1 0  -0.65 -1.1 0  -0.55 -1.1 0  -0.45 -1.1 0  -0.35 -1.1 0  -0.25 -1.1 0  -0.15 -1.1 0  -0.05000000000000004 -1.1 0  0.05000000000000004 -1.1 0  0.15 -1.1 0  0.25 -1.1 0  0.3500000000000001 -1.1 0  0.45 -1.1 0  0.55 -1.1 0  0.6499999999999999 -1.1 0  0.75 -1.1 0  -0.75 -1 0  -0.65 -1 0  -0.55 -1 0  -0.45 -1 0  -0.35 -1 0  -0.25 -1 0  -0.15 -1 0  -0.05000000000000004 -1 0  0.05000000000000004 -1 0  0.15 -1 0  0.25 -1 0  0.3500000000000001 -1 0  0.45 -1 0  0.55 -1 0  0.6499999999999999 -1 0  0.75 -1 0  -0.75 -0.8999999999999999 0  -0.65 -0.899999
[...]
<PointData  Vectors="flow"> 
<DataArray  type="Float64"  Name="flow"  NumberOfComponents="3" format="ascii">-1.5755142526544596e-09 3.1510716864153734e-09 0.0000000000000000e+00  9.8681662621880287e-14 3.1510716864016380e-09 0.0000000000000000e+00  8.5060873417036599e-18 3.1510716864045820e-09 0.0000000000000000e+00  -8.6306327400485011e-21 3.1510716864057135e-09 0.0000000000000000e+00  1.1505524850275258e-21 3.1510716864062855e-09 0.0000000000000000e+00  -1.0528018955033616e-21 3.1510716864123984e-09 0.0000000000000000e+00  -3.0821354071270434e-22 3.1510716864044943e-09 0.0000000000000000e+00  -1.3208638373187731e-21 3.1510716864095910e-09 0.0000000000000000e+00  -8.7358414718272743e-22 3.1510716864086198e-09 0.0000000000000000e+00  -2.3371682704640339e-21 3.1510716864136177e-09 0.0000000000000000e+00  -3.5492378945026747e-21 3.1510716864049492e-09 0.0000000000000000e+00  4.1869201662248115e-21 3.1510716864056383e-09 0.0000000000000000e+00  1.5187347351694339e-20 3.1510716864074552e-09 0.0000000000000000e+00  -8.5077445828142331e-18 3.1510716864080710e-09 0.0000000000000000e+00  -9.8681666436623586e-14 3.1510716864106071e-09 0.0000000000000000e+00  1.5755142526554764e-09 3.1510716864126292e-09 0.0000000000000000e+00  -1.5739350742569461e-09 9.4496188236219435e-09 0.0000000000000000e+00  9.8817440765862892e-14 9.4496188236262779e-09 0.0000000000000000e+00  8.3237112079383612e-18 9.4496188236276527e-09 0.0000000000000000e+00  -1.0617130567007581e-20 9.4496188236278926e-09 0.0000000000000000e+00  1.2989206145691685e-21 9.4496188236296297e-09 0.0000000000000000e+00  -4.4787892360889918e-22 9.4496188236280018e-09 0.0000000000000000e+00  6.4806201385876598e-22 9.4496188236309928e-09 0.0000000000000000e+00  -1.5973436335461872e-21 9.4496188236261687e-09 0.0000000000000000e+00  -3.4325143343650380e-21 9.4496188236258312e-09 0.0000000000000000e+00  -1.0739969721239786e-21 9.4496188236264831e-09 0.0000000000000000e+00  9.5767271810080067e-22 9.4496188236315289e-09 0.0000000000000000e+00  2.0103458441515984e-21 9.4496188236290688e-09 0.0000000000000000e+00  1.3073773859825007e-20 9.4496188236286056e-09 0.0000000000000000e+00  -8.3203488634390371e-18 9.4496188236300929e-09 0.0000000000000000e+00  -9.8817443565881206e-14 9.4496188236297637e-09 0.0000000000000000e+00  1.5739350742441419e-09 9.4496188236289911e-09 0.0000000000000000e+00  -1.5691932061080003e-09 1.8880278004979614e-08 0.0000000000000000e+00  9.9218781134786293e-14 1.8880278004981593e-08 0.0000000000000000e+00  7.7627598310626618e-18 1.8880278004981851e-08 0.0000000000000000e+00  -1.0042990584889671e-20 1.8880278004979416e-08 0.0000000000000000e+00  1.8878040801643808e-21 1.8880278004979187e-08 0.0000000000000000e+00  -1.2242924645848670e-22 1.8880278004977407e-08 0.0000000000000000e+00  -3.4035962723325708e-22 1.8880278004977900e-08 0.0000000000000000e+00  -4.8361872297081803e-21 1.8880278004977533e-08 0.0000000000000000e+00  -8.4779835410173603e-22 1.8880278004979320e-08 0.0000000000000000e+00  6.6960199680249005e-22 1.8880278004976759e-08 0.0000000000000000e+00  3.8616827375462144e-22 1.8880278004980289e-08 0.0000000000000000e+00  -2.4218326773733643e-22 1.8880278004977573e-08 0.0000000000000000e+00  1.6630878898254883e-20 1.8880278004980749e-08 0.0000000000000000e+00  -7.7600795131578093e-18 1.8880278004977242e-08 0.0000000000000000e+00  -9.9218785333876155e-14 1.8880278004980438e-08 0.0000000000000000e+00  1.5691932061097750e-09 1.8880278004978321e-08 0.0000000000000000e+00  -1.5612758411091591e-09 2.8272966327253244e-08 0.0000000000000000e+00  9.9867836779930009e-14 2.8272966327252744e-08 0.0000000000000000e+00  6.8490561438529198e-18 2.8272966327250488e-08 0.0000000000000000e+00  -1.1916059100806016e-20 2.8272966327251030e-08 0.0000000000000000e+00  -1.1632775915651114e-21 2.8272966327250514e-08 0.0000000000000000e+00  -1.0924513716374397e-21 2.8272966327252552e-08 0.0000000000000000e+00  2.4751572609912476e-21 2.8272966327250167e-08 0.0000000000000000e+00  -3.3970896982848795e-21 2.8272966327252007e-08 0.0000000000000000e+00  -6.9315047102372456e-21 2.8272966327246263e-08 0.0000000000000000e+00  1.6254663025005793e-22 2.8272966327247179e-08 0.0000000000000000e+00  5.3546755351321977e-21 2.8272966327243804e-08 0.0000000000000000e+00  -2.4593739327798358e-22 2.8272966327246322e-08 0.0000000000000000e+00  1.1405775832443732e-20 2.8272966327245823e-08 0.0000000000000000e+00  -6.8413994504783876e-18 2.8272966327245766e-08 0.0000000000000000e+00  -9.9867837834296213e-14 2.8272966327244906e-08 0.0000000000000000e+00  1.5612758411116775e-09 2.8272966327246028e-08 0.0000000000000000e+00  -1.5501622680947306e-09 3.7608571713510857e-08 0.0000000000000000e+00  1.0073532125090637e-13 3.7608571713510321e-08 0.0000000000000000e+00  5.5878138584362448e-18 3.7608571713510202e-08 0.0000000000000000e+00  -4.7644802109359274e-21 3.7608571713511625e-08 0.0000000000000000e+00  1.3760352960253389e-22 3.7608571713509137e-08 0.0000000000000000e+00  5.9501115767061827e-22 3.7608571713510474e-08 0.0000000000000000e+00  -1.9595185596997946e-21 3.7608571713509587e-08 0.0000000000000000e+00  -6.8968899066068027e-21 3.7608571713504769e-08 0.0000000000000000e+00  -3.9271068955489186e-21 3.7608571713507661e-08 0.0000000000000000e+00  -1.4993765408353475e-21 3.7608571713506940e-08 0.0000000000000000e+00  8.2227559440722956e-22 3.7608571713506199e-08 0.0000000000000000e+00  2.6229047836928979e-21 3.7608571713503949e-08 0.0000000000000000e+00  1.0232690421804123e-20 3.7608571713503439e-08 0.0000000000000000e+00  -5.5926738971003918e-18 3.7608571713504802e-08 0.0000000000000000e+00  -1.0073532307071821e-13 3.7608571713500832e-08 0.0000000000000000e+00  1.5501622681006305e-09 3.7608571713504604e-08 0.0000000000000000e+00  -1.5358248076784031e-09 4.6867836466158376e-08 0.0000000000000000e+00  1.0178119263664984e-13 4.6867836466157019e-08 0.0000000000000000e+00  4.0320623543901075e-18 4.6867836466159124e-08 0.0000000000000000e+00  -9.5572043201494132e-21 4.6867836466158521e-08 0.0000000000000000e+00  -8.9402148276679773e-22 4.6867836466160222e-08 0.0000000000000000e+00  5.8842177942463534e-22 4.6867836466156755e-08 0.0000000000000000e+00  -5.1538122747186866e-21 4.6867836466156298e-08 0.0000000000000000e+00  -5.3462801622220143e-21 4.6867836466151732e-08 0.0000000000000000e+00  -5.2727350979984894e-21 4.6867836466153631e-08 0.0000000000000000e+00  -1.9892308775728464e-21 4.6867836466151189e-08 0.0000000000000000e+00  -1.4683881310125044e-21 4.6867836466150197e-08 0.0000000000000000e+00  1.6425107216924895e-21 4.6867836466149952e-08 0.0000000000000000e+00  9.4242654592664462e-21 4.6867836466147927e-08 0.0000000000000000e+00  -4.0286604542290215e-18 4.6867836466147967e-08 0.0000000000000000e+00  -1.0178119051556820e-13 4.6867836466150236e-08 0.0000000000000000e+00  1.5358248076716112e-09 4.6867836466150852e-08 0.0000000000000000e+00  -1.5182300918515851e-09 5.6031319162962038e-08 0.0000000000000000e+00  1.0295555831115009e-13 5.6031319162964718e-08 0.0000000000000000e+00  2.1987257134890473e-18 5.6031319162960496e-08 0.0000000000000000e+00  -7.6554792077634378e-21 5.6031319162958445e-08 0.0000000000000000e+00  1.6229911186930272e-21 5.6031319162957810e-08 0.0000000000000000e+00  -5.8911209355947944e-21 5.6031319162956301e-08 0.0000000000000000e+00  -4.3268373142706310e-21 5.6031319162956883e-08 0.0000000000000000e+00  -1.0255527054099361e-20 5.6031319162956930e-08 0.0000000000000000e+00  -3.8184638329864969e-21 5.6031319162952569e-08 0.0000000000000000e+00  -3.5549260469128121e-21 5.6031319162953052e-08 0.0000000000000000e+00  -4.3293587513279006e-22 5.6031319162954898e-08 0.0000000000000000e+00  4.9248337580177446e-21 5.6031319162955030e-08 0.0000000000000000e+00  -5.5292283989888795e-22 5.6031319162954263e-08 0.0000000000000000e+00  -2.1957157333988265e-18 5.6031319162952000e-08 0.0000000000000000e+00  -1.0295555691587127e-13 5.6031319162953052e-08 0.0000000000000000e+00  1.5182300918507798e-09 5.6031319162951119e-08 0.0000000000000000e+00  -1.4973406579794587e-09 6.5079365187412059e-08 0.0000000000000000e+00  1.0419986694645431e-13 6.5079365187413832e-08 0.0000000000000000e+00  1.3219533676695234e-19 6.5079365187412787e-08 0.0000000000000000e+00  -1.2396318648191230e-20 6.5079365187408419e-08 0.0000000000000000e+00  8.2827605438830171e-22 6.5079365187403694e-08 0.0000000000000000e+00  -2.2659740511292809e-21 6.5079365187407744e-08 0.0000000000000000e+00  -7.8080135457578083e-21 6.5079365187402966e-08 0.0000000000000000e+00  -6.6853439795960063e-21 6.5079365187404250e-08 0.0000000000000000e+00  -6.3988079284185014e-21 6.5079365187408763e-08 0.0000000000000000e+00  -4.9412952835201044e-21 6.5079365187403085e-08 0.0000000000000000e+00  -1.6448049465347391e-21 6.5079365187400518e-08 0.0000000000000000e+00  1.3848189107903770e-21 6.5079365187396666e-08 0.0000000000000000e+00  6.8597701257095714e-21 6.5079365187403297e-08 0.0000000000000000e+00  -1.3471825025701347e-19 6.5079365187406566e-08 0.0000000000000000e+00  -1.0419986965621029e-13 6.5079365187401299e-08 0.0000000000000000e+00  1.4973406579824293e-09 6.5079365187398122e-08 0.0000000000000000e+00  -1.4731168200577441e-09 7.3992087670995760e-08 0.0000000000000000e+00  1.0544822810875802e-13 7.3992087670990797e-08 0.0000000000000000e+00  -2.1114970604261859e-18 7.3992087670990387e-08 0.0000000000000000e+00  -8.0110117587776924e-21 7.3992087670995310e-08 0.0000000000000000e+00  -2.0905203853514335e-21 7.3992087670995932e-08 0.0000000000000000e+00  -2.2679011794140018e-21 7.3992087670994728e-08 0.0000000000000000e+00  -1.0244047590954117e-20 7.3992087670995178e-08 0.0000000000000000e+00  -7.9599662651636224e-21 7.3992087670994225e-08 0.0000000000000000e+00  -4.3984636203271743e-21 7.3992087670990480e-08 0.0000000000000000e+00  -7.9606363946538548e-21 7.3992087670992425e-08 0.0000000000000000e+00  -3.1392990729521506e-21 7.3992087670992200e-08 0.0000000000000000e+00  1.4908453012521229e-21 7.3992087670989791e-08 0.0000000000000000e+00  7.6366339206580454e-21 7.3992087670989090e-08 0.0000000000000000e+00  2.1054327935145103e-18 7.3992087670988786e-08 0.0000000000000000e+00  -1.0544823552916753e-13 7.3992087670988071e-08 0.0000000000000000e+00  1.4731168200615369e-09 7.3992087670987356e-08 0.0000000000000000e+00  -1.4455187738038778e-09 8.2749360383454877e-08 0.0000000000000000e+00  1.0662898700245169e-13 8.2749360383457021e-08 0.0000000000000000e+00  -4.4785833076052066e-18 8.2749360383463757e-08 0.0000000000000000e+00  -5.1598841247158062e-21 8.2749360383460091e-08 0.0000000000000000e+00  -4.6731300000802617e-22 8.2749360383462672e-08 0.0000000000000000e+00  -3.3422161925049088e-21 8.2749360383461560e-08 0.0000000000000000e+00  -8.2523344854446823e-21 8.2749360383459165e-08 0.0000000000000000e+00  -9.1305425754331680e-21 8.2749360383461944e-08 0.0000000000000000e+00  -6.9299714736367717e-21 8.2749360383461891e-08 0.0000000000000000e+00  -5.3033248353257224e-21 8.2749360383464750e-08 0.0000000000000000e+00  -9.2316203584896515e-21 8.2749360383459866e-08 0.0000000000000000e+00  7.5177536996422032e-23 8.2749360383459165e-08 0.0000000000000000e+00  7.4565080077538169e-21 8.2749360383457947e-08 0.0000000000000000e+00  4.4757732567858124e-18 8.2749360383455221e-08 0.0000000000000000e+00  -1.0662899299499586e-13 8.2749360383456134e-08 0.0000000000000000e+00  1.4455187738075007e-09 8.2749360383458133e-08 0.0000000000000000e+00  -1.4145088865884761e-09 9.1330823828840326e-08 0.0000000000000000e+00  1.0766637012513639e-13 9.1330823828839135e-08 0.0000000000000000e+00  -6.9227632120599301e-18 9.1330823828837520e-08 0.0000000000000000e+00  -4.9912557391589869e-21 9.1330823828840353e-08 0.0000000000000000e+00  -1.9377267952626801e-22 9.1330823828841610e-08 0.0000000000000000e+00  -7.6941608621483788e-21 9.1330823828832451e-08 0.0000000000000000e+00  -6.2860332556073270e-21 9.1330823828839175e-08 0.0000000000000000e+00  -8.3917212967674404e-21 9.1330823828839413e-08 0.0000000000000000e+00  -3.2264250819682384e-21 9.1330823828836369e-08 0.0000000000000000e+00  -4.6992715035079480e-21 9.1330823828841875e-08 0.0000000000000000e+00  -9.6419592137670717e-21 9.1330823828839969e-08 0.0000000000000000e+00  -5.0348818118595806e-22 9.1330823828843053e-08 0.0000000000000000e+00  2.3151815922870355e-21 9.1330823828838553e-08 0.0000000000000000e+00  6.9166597861883942e-18 9.1330823828841028e-08 0.0000000000000000e+00  -1.0766637129974825e-13 9.1330823828841266e-08 0.0000000000000000e+00  1.4145088865858945e-09 9.1330823828840750e-08 0.0000000000000000e+00  -1.3800541184304680e-09 9.9715905496718176e-08 0.0000000000000000e+00  1.0848228277122530e-13 9.9715905496721432e-08 0.0000000000000000e+00  -9.3796384123332338e-18 9.9715905496722782e-08 0.0000000000000000e+00  6.3039353717132137e-22 9.9715905496723537e-08 0.0000000000000000e+00  -7.1812840620920628e-21 9.9715905496719937e-08 0.0000000000000000e+00  -8.1155760677752228e-21 9.9715905496723576e-08 0.0000000000000000e+00  -2.8076861893506170e-21 9.9715905496716853e-08 0.0000000000000000e+00  -1.2176017410289762e-20 9.9715905496713200e-08 0.0000000000000000e+00  -2.3921402356851156e-21 9.9715905496715371e-08 0.0000000000000000e+00  -3.2234173992077093e-21 9.9715905496712962e-08 0.0000000000000000e+00  -1.0288869940624846e-20 9.9715905496711466e-08 0.0000000000000000e+00  3.2613056222390638e-22 9.9715905496711241e-08 0.0000000000000000e+00  -8.3586759216092026e-22 9.9715905496711691e-08 0.0000000000000000e+00  9.3806528021672877e-18 9.9715905496713915e-08 0.0000000000000000e+00  -1.0848228190295379e-13 9.9715905496721194e-08 0.0000000000000000e+00  1.3800541184267820e-09 9.9715905496722703e-08 0.0000000000000000e+00  -1.3421285173477655e-09 1.0788385488597918e-07 0.0000000000000000e+00  1.0899815641276120e-13 1.0788385488597492e-07 0.0000000000000000e+00  -1.1797161158643642e-17 1.0788385488596871e-07 0.0000000000000000e+00  -9.4245559994216954e-22 1.0788385488596997e-07 0.0000000000000000e+00  -8.7820214627905252e-22 1.0788385488596745e-07 0.0000000000000000e+00  -8.7850178074516871e-21 1.0788385488597093e-07 0.0000000000000000e+00  -1.1763522659362737e-20 1.0788385488596506e-07 0.0000000000000000e+00  -8.1951035575733500e-21 1.0788385488596815e-07 0.0000000000000000e+00  -8.3541829376687264e-21 1.0788385488596830e-07 0.0000000000000000e+00  -7.7136290968991321e-21 1.0788385488595791e-07 0.0000000000000000e+00  -8.8403468565418842e-21 1.0788385488596878e-07 0.0000000000000000e+00  1.7364928294338205e-21 1.0788385488596486e-07 0.0000000000000000e+00  5.5254288116607129e-22 1.0788385488597067e-07 0.0000000000000000e+00  1.1801277431867422e-17 1.0788385488597444e-07 0.0000000000000000e+00  -1.0899815642528524e-13 1.0788385488596954e-07 0.0000000000000000e+00  1.3421285173455133e-09 1.0788385488596621e-07 0.0000000000000000e+00  -1.3007157297633542e-09 1.1581379356986665e-07 0.0000000000000000e+00  1.0913681004112516e-13 1.1581379356986283e-07 0.0000000000000000e+00  -1.4111032719778955e-17 1.1581379356986346e-07 0.0000000000000000e+00  2.6896802509741674e-21 1.1581379356986668e-07 0.0000000000000000e+00  -5.8504963701841470e-21 1.1581379356986382e-07 0.0000000000000000e+00  -1.3453866691948071e-20 1.1581379356985933e-07 0.0000000000000000e+00  -9.0378521988676054e-21 1.1581379356987032e-07 0.0000000000000000e+00  -8.5265147615070590e-21 1.1581379356986313e-07 0.0000000000000000e+00  -1.0667396851554071e-20 1.1581379356986580e-07 0.0000000000000000e+00  -3.5542138101355894e-21 1.1581379356986868e-07 0.0000000000000000e+00  -4.6401945830158999e-21 1.1581379356986845e-07 0.0000000000000000e+00  -6.0105967954417956e-23 1.1581379356986599e-07 0.0000000000000000e+00  1.5392790421336973e-21 1.1581379356986195e-07 0.0000000000000000e+00  1.4113110221877361e-17 1.1581379356985735e-07 0.0000000000000000e+00  -1.0913681976625704e-13 1.1581379356986501e-07 0.0000000000000000e+00  1.3007157297663120e-09 1.1581379356986612e-07 0.0000000000000000e+00  -1.2558114664239896e-09 1.2348478021427802e-07 0.0000000000000000e+00  1.0882434269373031e-13 1.2348478021427948e-07 0.0000000000000000e+00  -1.6259584085606814e-17 1.2348478021428660e-07 0.0000000000000000e+00  1.8154855444355088e-22 1.2348478021428427e-07 0.0000000000000000e+00  -8.6402614013921951e-21 1.2348478021428427e-07 0.0000000000000000e+00  -2.4024262436286090e-21 1.2348478021428795e-07 0.0000000000000000e+00  -4.2173117917436828e-21 1.2348478021429642e-07 0.0000000000000000e+00  -1.3457199285343301e-20 1.2348478021429658e-07 0.0000000000000000e+00  -6.0271676195087243e-21 1.2348478021429832e-07 0.0000000000000000e+00  -5.8669916686648126e-21 1.2348478021429692e-07 0.0000000000000000e+00  -6.8316224944648018e-21 1.2348478021429872e-07 0.0000000000000000e+00  -4.4007758633799751e-21 1.2348478021429390e-07 0.0000000000000000e+00  -1.1426870964989907e-20 1.2348478021428916e-07 0.0000000000000000e+00  1.6273103655183606e-17 1.2348478021428228e-07 0.0000000000000000e+00  -1.0882434573527178e-13 1.2348478021428366e-07 0.0000000000000000e+00  1.2558114664129122e-09 1.2348478021427866e-07 0.0000000000000000e+00  -1.2074258642248289e-09 1.3087589010287624e-07 0.0000000000000000e+00  1.0799186426465213e-13 1.3087589010288082e-07 0.0000000000000000e+00  -1.8210156177657973e-17 1.3087589010287293e-07 0.0000000000000000e+00  2.5429979636693245e-21 1.3087589010286700e-07 0.0000000000000000e+00  2.5864942697402903e-22 1.3087589010287767e-07 0.0000000000000000e+00  3.3476601063733024e-21 1.3087589010288569e-07 0.0000000000000000e+00  -4.7949012546842213e-21 1.3087589010288092e-07 0.0000000000000000e+00  -6.6114657987412502e-21 1.3087589010289059e-07 0.0000000000000000e+00  -6.5447781743519830e-21 1.3087589010288532e-07 0.0000000000000000e+00  -3.8211525701893833e-21 1.3087589010288857e-07 0.0000000000000000e+00  -1.0464562953867560e-20 1.3087589010288365e-07 0.0000000000000000e+00  -7.0293182041193908e-21 1.3087589010288153e-07 0.0000000000000000e+00  -1.1230439416589113e-20 1.3087589010288352e-07 0.0000000000000000e+00  1.8207454533484652e-17 1.3087589010288704e-07 0.0000000000000000e+00  -1.0799186620487177e-13 1.3087589010287971e-07 0.0000000000000000e+00  1.2074258642073357e-09 1.3087589010288873e-07 0.0000000000000000e+00  -1.1555856867457174e-09 1.3796630837200910e-07 0.0000000000000000e+00  1.0657726219323973e-13 1.3796630837200854e-07 0.0000000000000000e+00  -1.9900928839766319e-17 1.3796630837200886e-07 0.0000000000000000e+00  1.0195673203922021e-20 1.3796630837201228e-07 0.0000000000000000e+00  5.3142684269866174e-21 1.3796630837201577e-07 0.0000000000000000e+00  -6.3814634252215780e-22 1.3796630837200735e-07 0.0000000000000000e+00  2.4595954291933394e-21 1.3796630837201000e-07 0.0000000000000000e+00  -8.9579302820248714e-21 1.3796630837201577e-07 0.0000000000000000e+00  -8.8548862677292764e-21 1.3796630837201206e-07 0.0000000000000000e+00  -8.1640991876182392e-21 1.3796630837200799e-07 0.0000000000000000e+00  -1.1831026358662124e-20 1.3796630837200359e-07 0.0000000000000000e+00  -1.0612543297859427e-20 1.3796630837200884e-07 0.0000000000000000e+00  -9.2736993724419791e-21 1.3796630837199939e-07 0.0000000000000000e+00  1.9894031923491880e-17 1.3796630837200277e-07 0.0000000000000000e+00  -1.0657726219375045e-13 1.3796630837199899e-07 0.0000000000000000e+00  1.1555856867532151e-09 1.3796630837200161e-07 0.0000000000000000e+00  -1.1003363089995627e-09 1.4473543582249286e-07 0.0000000000000000e+00  1.0452672761764720e-13 1.4473543582249024e-07 0.0000000000000000e+00  -2.1271624336999586e-17 1.4473543582250319e-07 0.0000000000000000e+00  1.3504927633929872e-20 1.4473543582250411e-07 0.0000000000000000e+00  -5.5233254043259947e-21 1.4473543582249199e-07 0.0000000000000000e+00  7.4917203220470427e-22 1.4473543582249580e-07 0.0000000000000000e+00  8.8031475732962160e-22 1.4473543582249064e-07 0.0000000000000000e+00  -7.4909809613402809e-21 1.4473543582247862e-07 0.0000000000000000e+00  -1.1896319319041765e-20 1.4473543582248868e-07 0.0000000000000000e+00  -1.5008867488884757e-20 1.4473543582248032e