<?xml version="1.0"?>
<VTKFile type="UnstructuredGrid"  version="0.1"  >
<UnstructuredGrid>
<Piece  NumberOfPoints="431" NumberOfCells="800">
<Points>
<DataArray  type="Float64"  NumberOfComponents="3"  format="ascii">-0.25 -1 0  -0.2 -1 0  -0.15 -1 0  -0.1 -1 0  -0.04999999999999999 -1 0  0 -1 0  0.04999999999999999 -1 0  0.09999999999999998 -1 0  0.15 -1 0  0.2 -1 0  0.25 -1 0  -0.25 -0.95 0  -0.2 -0.95 0  -0.15 -0.95 0  -0.1 -0.95 0  -0.04999999999999999 -0.95 0  0 -0.95 0  0.04999999999999999 -0.95 0  0.09999999999999998 -0.95 0  0.15 -0.95 0  0.2 -0.95 0  0.25 -0.95 0  -0.25 -0.9 0  -0.2 -0.9 0  -0.15 -0.9 0  -0.1 -0.9 0  -0.04999999999999999 -0.9 0  0 -0.9 0  0.04999999999999999 -0.9 0  0.09999999999999998 -0.9 0  0.15 -0.9 0  0.2 -0.9 0  0.25 -0.9 0  -0.25 -0.85 0  -0.2 -0.85 0  -0.15 -0.85 0  -0.1 -0.85 0  -0.04999999999999999 -0.85 0  0 -0.85 0  0.04999999999999999 -0.85 0  0.09999999999999998 -0.85 0  0.15 -0.85 0  0.2 -0.85 0  0.25 -0.85 0  -0.25 -0.8 0  -0.2 -0.8 0  -0.15 -0.8 0  -0.1 -0.8 0  -0.04999999999999999 -0.8 0  0 -0.8 0  0.04999999999999999 -0.8 0  0.09999999999999998 -0.8 0  0.15 -0.8 0  0.2 -0.8 0  0.25 -0.8 0  -0.25 -0.75 0  -0.2 -0.75 0  -0.15 -0.75 0  -0.1 -0.75 0  -0.04999999999999999 -0.75 0  0 -0.75 0  0.04999999999999999 -0.75 0  0.09999999999999998 -0.75 0  0.15 -0.75 0  0.2 -0.75 0  0.25 -0.75 0  -0.25 -0.7 0  -0.2 -0.7 0  -0.15 -0.7 0  -0.1 -0.7 0  -0.04999999999999999 -0.7 0  0 -0.7 0  0.04999999999999999 -0.7 0  0.09999999999999998 -0.7 0  0.15 -0.7 0  0.2 -0.7 0  0.25 -0.7 0  -0.25 -0.65 0  -0.2 -0.65 0  -0.15 -0.65 0  -0.1 -0.65 0  -0.04999999999999999 -0.65 0  0 -0.65 0  0.04999999999999999 -0.65 0  0.09999999999999998 -0.65 0  0.15 -0.65 0  0.2 -0.65 0  0.25 -0.65 0  -0.25 -0.6 0  -0.2 -0.6 0  -0.15 -0.6 0  -0.1 -0.6 0  -0.04999999999999999 -0.6 0  0 -0.6 0  0.04999999999999999 -0.6 0  0.09999999999999998 -0.6 0  0.15 -0.6 0  0.2 -0.6 0  0.25 -0.6 0  -0.25 -0.55 0  -0.2 -0.55 0  -0.15 -0.55 0  -0.1 -0.55 0  -0.04999999999999999 -0.55 0  0 -0.55 0  0.04999999999999999 -0.55 0  0.09999999999999998 -0.55 0  0.15 -0.55 0  0.2 -0.55 0  0.25 -0.55 0  -0.25 -0.5 0  -0.2 -0.5 0  -0.15 -0.5 0  -0.1 -0.5 0  -0.04999999999999999 -0.5 0  0 -0.5 0  0.04999999999999999 -0.5 0  0.09999999999999998 -0.5 0  0.15 -0.5 0  0.2 -0.5 0  0.25 -0.5 0  -0.25 -0.45 0  -0.2 -0.45 0  -0.15 -0.45 0  -0.1 -0.45 0  -0.04999999999999999 -0.45 0  0 -0.45 0  0.04999999999999999 -0.45 0  0.09999999999999998 -0.45 0  0.15 -0.45 0  0.2 -0.45 0  0.25 -0.45 0  -0.25 -0.4 0  -0.2 -0.4 0  -0.15 -0.4 0  -0.1 -0.4 0  -0.04999999999999999 -0.4 0  0 -0.4 0  0.04999999999999999 -0.4 0  0.09999999999999998 -0.4 0  0.15 -0.4 0  0.2 -0.4 0  0.25 -0.4 0  -0.25 -0.35 0  -0.2 -0.35 0  -0.15 -0.35 0  -0.1 -0.35 0  -0.04999999999999999 -0.35 0  0 -0.35 0  0.04999999999999999 -0.35 0  0.09999999999999998 -0.35 0  0.15 -0.35 0  0.2 -0.35 0  0.25 -0.35 0  -0.25 -0.3 0  -0.2 -0.3 0  -0.15 -0.3 0  -0.1 -0.3 0  -0.04999999999999999 -0.3 0  0 -0.3 0  0.04999999999999999 -0.3 0  0.09999999999999998 -0.3 0  0.15 -0.3 0  0.2 -0.3 0  0.25 -0.3 0  -0.25 -0.25 0  -0.2 -0.25 0  -0.15 -0.25 0  -0.1 -0.25 0  -0.04999999999999999 -0.25 0  0 -0.25 0  0.04999999999999999 -0.25 0  0.09999999999999998 -0.25 0  0.15 -0.25 0  0.2 -0.25 0  0.25 -0.25 0  -0.25 -0.2 0  -0.2 -0.2 0  -0.15 -0.2 0  -0.1 -0.2 0  -0.04999999999999999 -0.2 0  0 -0.2 0  0.04999999999999999 -0.2 0  0.09999999999999998 -0.2 0  0.15 -0.2 0  0.2 -0.2 0  0.25 -0.2 0  -0.25 -0.15 0  -0.2 -0.15 0  -0.15 -0.15 0  -0.1 -0.15 0  -0.04999999999999999 -0.15 0  0 -0.15 0  0.04999999999999999 -0.15 0  0.09999999999999998 -0.15 0  0.15 -0.15 0  0.2 -0.15 0  0.25 -0.15 0  -0.25 -0.09999999999999998 0  -0.2 -0.09999999999999998 0  -0.15 -0.09999999999999998 0  -0.1 -0.09999999999999998 0  -0.04999999999999999 -0.09999999999999998 0  0 -0.09999999999999998 0  0.04999999999999999 -0.09999999999999998 0  0.09999999999999998 -0.09999999999999998 0  0.15 -0.09999999999999998 0  0.2 -0.09999999999999998 0  0.25 -0.09999999999999998 0  -0.25 -0.05000000000000004 0  -0.2 -0.05000000000000004 0  -0.15 -0.05000000000000004 0  -0.1 -0.05000000000000004 0  -0.04999999999999999 -0.05000000000000004 0  0 -0.05000000000000004 0  0.04999999999999999 -0.05000000000000004 0  0.09999999999999998 -0.05000000000000004 0  0.15 -0.05000000000000004 0  0.2 -0.05000000000000004 0  0.25 -0.05000000000000004 0  -0.25 0 0  -0.2 0 0  -0.15 0 0  -0.1 0 0  -0.04999999999999999 0 0  0 0 0  0.04999999999999999 0 0  0.09999999999999998 0 0  0.15 0 0  0.2 0 0  0.25 0 0  -0.225 -0.975 0  -0.175 -0.975 0  -0.125 -0.975 0  -0.07500000000000001 -0.975 0  -0.02499999999999999 -0.975 0  0.02500000000000002 -0.975 0  0.07500000000000001 -0.975 0  0.125 -0.975 0  0.175 -0.975 0  0.225 -0.975 0  -0.225 -0.925 0  -0.175 -0.925 0  -0.125 -0.925 0  -0.07500000000000001 -0.925 0  -0.02499999999999999 -0.925 0  0.02500000000000002 -0.925 0  0.07500000000000001 -0.925 0  0.125 -0.925 0  0.175 -0.925 0  0.225 -0.925 0  -0.225 -0.875 0  -0.175 -0.875 0  -0.125 -0.875 0  -0.07500000000000001 -0.875 0  -0.02499999999999999 -0.875 0  0.02500000000000002 -0.875 0  0.07500000000000001 -0.875 0  0.125 -0.875 0  0.175 -0.875 0  0.225 -0.875 0  -0.225 -0.825 0  -0.175 -0.825 0  -0.125 -0.825 0  -0.07500000000000001 -0.825 0  -0.02499999999999999 -0.825 0  0.02500000000000002 -0.825 0  0.07500000000000001 -0.825 0  0.125 -0.825 0  0.175 -0.825 0  0.225 -0.825 0  -0.225 -0.775 0  -0.175 -0.775 0  -0.125 -0.775 0  -0.07500000000000001 -0.775 0  -0.02499999999999999 -0.775 0  0.02500000000000002 -0.775 0  0.07500000000000001 -0.775 0  0.125 -0.775 0  0.175 -0.775 0  0.225 -0.775 0  -0.225 -0.725 0  -0.175 -0.725 0  -0.125 -0.725 0  -0.07500000000000001 -0.725 0  -0.02499999999999999 -0.725 0  0.02500000000000002 -0.725 0  0.07500000000000001 -0.725 0  0.125 -0.725 0  0.175 -0.725 0  0.225 -0.725 0  -0.225 -0.675 0  -0.175 -0.675 0  -0.125 -0.675 0  -0.07500000000000001 -0.675 0  -0.02499999999999999 -0.675 0  0.02500000000000002 -0.675 0  0.07500000000000001 -0.675 0  0.125 -0.675 0  0.175 -0.675 0  0.225 -0.675 0  -0.225 -0.625 0  -0.175 -0.625 0  -0.125 -0.625 0  -0.07500000000000001 -0.625 0  -0.02499999999999999 -0.625 0  0.02500000000000002 -0.625 0  0.07500000000000001 -0.625 0  0.125 -0.625 0  0.175 -0.625 0  0.225 -0.625 0  -0.225 -0.575 0  -0.175 -0.575 0  -0.125 -0.575 0  -0.07500000000000001 -0.575 0  -0.02499999999999999 -0.575 0  0.02500000000000002 -0.575 0  0.07500000000000001 -0.575 0  0.125 -0.575 0  0.175 -0.575 0  0.225 -0.575 0  -0.225 -0.525 0  -0.175 -0.525 0  -0.125 -0.525 0  -0.07500000000000001 -0.525 0  -0.02499999999999999 -0.525 0  0.02500000000000002 -0.525 0  0.07500000000000001 -0.525 0  0.125 -0.525 0  0.175 -0.525 0  0.225 -0.525 0  -0.225 -0.475 0  -0.175 -0.475 0  -0.125 -0.475 0  -0.07500000000000001 -0.475 0  -0.02499999999999999 -0.475 0  0.02500000000000002 -0.475 0  0.07500000000000001 -0.475 0  0.125 -0.475 0  0.175 -0.475 0  0.225 -0.475 0  -0.225 -0.425 0  -0.175 -0.425 0  -0.125 -0.425 0  -0.07500000000000001 -0.425 0  -0.02499999999999999 -0.425 0  0.02500000000000002 -0.425 0  0.07500000000000001 -0.425 0  0.125 -0.425 0  0.175 -0.425 0  0.225 -0.425 0  -0.225 -0.375 0  -0.175 -0.375 0  -0.125 -0.375 0  -0.07500000000000001 -0.375 0  -0.02499999999999999 -0.375 0  0.02500000000000002 -0.375 0  0.07500000000000001 -0.375 0  0.125 -0.375 0  0.175 -0.375 0  0.225 -0.375 0  -0.225 -0.325 0  -0.175 -0.325 0  -0.125 -0.325 0  -0.07500000000000001 -0.325 0  -0.02499999999999999 -0.325 0  0.02500000000000002 -0.325 0  0.07500000000000001 -0.325 0  0.125 -0.325 0  0.175 -0.325 0  0.225 -0.325 0  -0.225 -0.275 0  -0.175 -0.275 0  -0.125 -0.275 0  -0.07500000000000001 -0.275 0  -0.02499999999999999 -0.275 0  0.02500000000000002 -0.275 0  0.07500000000000001 -0.275 0  0.125 -0.275 0  0.175 -0.275 0  0.225 -0.275 0  -0.225 -0.225 0  -0.175 -0.225 0  -0.125 -0.225 0  -0.07500000000000001 -0.225 0  -0.02499999999999999 -0.225 0  0.02500000000000002 -0.225 0  0.07500000000000001 -0.225 0  0.125 -0.225 0  0.175 -0.225 0  0.225 -0.225 0  -0.225 -0.175 0  -0.175 -0.175 0  -0.125 -0.175 0  -0.07500000000000001 -0.175 0  -0.02499999999999999 -0.175 0  0.02500000000000002 -0.175 0  0.07500000000000001 -0.175 0  0.125 -0.175 0  0.175 -0.175 0  0.225 -0.175 0  -0.225 -0.125 0  -0.175 -0.125 0  -0.125 -0.125 0  -0.07500000000000001 -0.125 0  -0.02499999999999999 -0.125 0  0.02500000000000002 -0.125 0  0.07500000000000001 -0.125 0  0.125 -0.125 0  0.175 -0.125 0  0.225 -0.125 0  -0.225 -0.07499999999999996 0  -0.175 -0.07499999999999996 0  -0.125 -0.07499999999999996 0  -0.07500000000000001 -0.07499999999999996 0  -0.02499999999999999 -0.07499999999999996 0  0.02500000000000002 -0.07499999999999996 0  0.07500000000000001 -0.07499999999999996 0  0.125 -0.07499999999999996 0  0.175 -0.07499999999999996 0  0.225 -0.07499999999999996 0  -0.225 -0.02500000000000002 0  -0.175 -0.02500000000000002 0  -0.125 -0.02500000000000002 0  -0.07500000000000001 -0.02500000000000002 0  -0.02499999999999999 -0.02500000000000002 0  0.02500000000000002 -0.02500000000000002 0  0.07500000000000001 -0.02500000000000002 0  0.125 -0.02500000000000002 0  0.175 -0.02500000000000002 0  0.225 -0.02500000000000002 0  </DataArray>
</Points>
<Cells>
[...]
<PointData  Vectors="flow"> 
<DataArray  type="Float64"  Name="flow"  NumberOfComponents="3" format="ascii">-4.2488369050400498e+00 8.4976366660111360e+00 0.0000000000000000e+00  -2.5405914177399082e-05 8.4976366660150848e+00 0.0000000000000000e+00  1.4474439423118774e-06 8.4976366659979483e+00 0.0000000000000000e+00  -2.6858943750856784e-09 8.4976366660037037e+00 0.0000000000000000e+00  8.4130772965652173e-12 8.4976366659952429e+00 0.0000000000000000e+00  -1.1211721197553286e-13 8.4976366660031850e+00 0.0000000000000000e+00  -3.4439743760089778e-12 8.4976366660034177e+00 0.0000000000000000e+00  2.6770711325809098e-09 8.4976366660124860e+00 0.0000000000000000e+00  -1.4474400348706424e-06 8.4976366660134008e+00 0.0000000000000000e+00  2.5405912591049463e-05 8.4976366660023679e+00 0.0000000000000000e+00  4.2488369050433388e+00 8.4976366660066560e+00 0.0000000000000000e+00  -4.2491972097661490e+00 2.5493774494821285e+01 0.0000000000000000e+00  -2.3323531703430031e-06 2.5493774494824930e+01 0.0000000000000000e+00  1.4046987157436129e-06 2.5493774494823132e+01 0.0000000000000000e+00  -2.6108438182122188e-09 2.5493774494830031e+01 0.0000000000000000e+00  -2.3861747604203376e-13 2.5493774494826923e+01 0.0000000000000000e+00  -1.3949270082442013e-12 2.5493774494822986e+01 0.0000000000000000e+00  -2.5011889975428875e-12 2.5493774494820652e+01 0.0000000000000000e+00  2.6150900043906196e-09 2.5493774494820094e+01 0.0000000000000000e+00  -1.4047016596399326e-06 2.5493774494822166e+01 0.0000000000000000e+00  2.3323538342077322e-06 2.5493774494824319e+01 0.0000000000000000e+00  4.2491972097755077e+00 2.5493774494828028e+01 0.0000000000000000e+00  -4.2495424992146278e+00 5.0990260107467066e+01 0.0000000000000000e+00  6.5524770437147217e-05 5.0990260107465595e+01 0.0000000000000000e+00  1.2786034424392653e-06 5.0990260107470547e+01 0.0000000000000000e+00  -2.4127873460235839e-09 5.0990260107465318e+01 0.0000000000000000e+00  -1.3660808796453373e-14 5.0990260107469147e+01 0.0000000000000000e+00  -1.7228090167496542e-12 5.0990260107471315e+01 0.0000000000000000e+00  -2.9284720321897795e-12 5.0990260107471691e+01 0.0000000000000000e+00  2.4157880073228759e-09 5.0990260107470007e+01 0.0000000000000000e+00  -1.2786039113575231e-06 5.0990260107470149e+01 0.0000000000000000e+00  -6.5524765124111371e-05 5.0990260107470348e+01 0.0000000000000000e+00  4.2495424992032440e+00 5.0990260107464778e+01 0.0000000000000000e+00  -4.2477093965376511e+00 7.6483435827997440e+01 0.0000000000000000e+00  1.7414311408671203e-04 7.6483435827995748e+01 0.0000000000000000e+00  1.0755069489472430e-06 7.6483435827998122e+01 0.0000000000000000e+00  -2.0902180093634765e-09 7.6483435827994896e+01 0.0000000000000000e+00  4.4297150040778734e-12 7.6483435827997496e+01 0.0000000000000000e+00  -4.7415719984460991e-12 7.6483435827999074e+01 0.0000000000000000e+00  -1.0769262427966970e-12 7.6483435827999017e+01 0.0000000000000000e+00  2.0898305831619667e-09 7.6483435828000751e+01 0.0000000000000000e+00  -1.0755034279494726e-06 7.6483435828000310e+01 0.0000000000000000e+00  -1.7414311059484817e-04 7.6483435828000012e+01 0.0000000000000000e+00  4.2477093965338755e+00 7.6483435828004332e+01 0.0000000000000000e+00  -4.2402350820874171e+00 1.0195033357246672e+02 0.0000000000000000e+00  3.1704414463281012e-04 1.0195033357246679e+02 0.0000000000000000e+00  8.0570863601926667e-07 1.0195033357246561e+02 0.0000000000000000e+00  -1.6592546804708252e-09 1.0195033357246471e+02 0.0000000000000000e+00  3.6667879362631828e-12 1.0195033357246508e+02 0.0000000000000000e+00  -1.5507749223170905e-12 1.0195033357246187e+02 0.0000000000000000e+00  6.0843206222071824e-13 1.0195033357246633e+02 0.0000000000000000e+00  1.6592338183034438e-09 1.0195033357246687e+02 0.0000000000000000e+00  -8.0570735099574668e-07 1.0195033357246662e+02 0.0000000000000000e+00  -3.1704414359119557e-04 1.0195033357246666e+02 0.0000000000000000e+00  4.2402350820974481e+00 1.0195033357246368e+02 0.0000000000000000e+00  -4.2225639484469619e+00 1.2734383158541742e+02 0.0000000000000000e+00  4.8562201757570088e-04 1.2734383158542038e+02 0.0000000000000000e+00  4.8305993642351819e-07 1.2734383158541861e+02 0.0000000000000000e+00  -1.1285829712206854e-09 1.2734383158542272e+02 0.0000000000000000e+00  8.5779714782712564e-14 1.2734383158542056e+02 0.0000000000000000e+00  2.5049723058565508e-13 1.2734383158542168e+02 0.0000000000000000e+00  -3.9386144394962843e-13 1.2734383158541806e+02 0.0000000000000000e+00  1.1335616308142178e-09 1.2734383158542066e+02 0.0000000000000000e+00  -4.8305691397699179e-07 1.2734383158542148e+02 0.0000000000000000e+00  -4.8562201797933553e-04 1.2734383158542353e+02 0.0000000000000000e+00  4.2225639484519712e+00 1.2734383158542275e+02 0.0000000000000000e+00  -4.1893221024736835e+00 1.5258689632977871e+02 0.0000000000000000e+00  6.6958572585395864e-04 1.5258689632977550e+02 0.0000000000000000e+00  1.2439193619141110e-07 1.5258689632977189e+02 0.0000000000000000e+00  -5.3045819699403723e-10 1.5258689632977482e+02 0.0000000000000000e+00  -7.6095504511041927e-13 1.5258689632977615e+02 0.0000000000000000e+00  -3.1765011133074247e-13 1.5258689632977874e+02 0.0000000000000000e+00  -7.3595406678222268e-13 1.5258689632978067e+02 0.0000000000000000e+00  5.3860629083196438e-10 1.5258689632977951e+02 0.0000000000000000e+00  -1.2438906552730060e-07 1.5258689632977854e+02 0.0000000000000000e+00  -6.6958572656618601e-04 1.5258689632977689e+02 0.0000000000000000e+00  4.1893221024818104e+00 1.5258689632977712e+02 0.0000000000000000e+00  -4.1346456032042687e+00 1.7756863896898233e+02 0.0000000000000000e+00  8.5749595555719479e-04 1.7756863896898793e+02 0.0000000000000000e+00  -2.5124849244006576e-07 1.7756863896899026e+02 0.0000000000000000e+00  1.0653690711327642e-10 1.7756863896898608e+02 0.0000000000000000e+00  3.5584778227098600e-12 1.7756863896898795e+02 0.0000000000000000e+00  3.2194508394317128e-12 1.7756863896898531e+02 0.0000000000000000e+00  1.7566424649582288e-12 1.7756863896899171e+02 0.0000000000000000e+00  -1.0178771275762814e-10 1.7756863896899193e+02 0.0000000000000000e+00  2.5124968135391777e-07 1.7756863896899091e+02 0.0000000000000000e+00  -8.5749595827650849e-04 1.7756863896899020e+02 0.0000000000000000e+00  4.1346456032008536e+00 1.7756863896898724e+02 0.0000000000000000e+00  -4.0525453029767915e+00 2.0214245854268182e+02 0.0000000000000000e+00  1.0373730426914997e-03 2.0214245854267872e+02 0.0000000000000000e+00  -6.2348404827297976e-07 2.0214245854267998e+02 0.0000000000000000e+00  7.6085975513453042e-10 2.0214245854268091e+02 0.0000000000000000e+00  -3.4039906902739469e-12 2.0214245854267580e+02 0.0000000000000000e+00  3.7843197892974482e-12 2.0214245854268046e+02 0.0000000000000000e+00  8.6254231004417302e-12 2.0214245854267793e+02 0.0000000000000000e+00  -7.6115125089541080e-10 2.0214245854267659e+02 0.0000000000000000e+00  6.2348533445155601e-07 2.0214245854267838e+02 0.0000000000000000e+00  -1.0373730412196677e-03 2.0214245854267838e+02 0.0000000000000000e+00  4.0525453029689142e+00 2.0214245854267949e+02 0.0000000000000000e+00  -3.9372888955946093e+00 2.2612643401267545e+02 0.0000000000000000e+00  1.1973471341145663e-03 2.2612643401267547e+02 0.0000000000000000e+00  -9.7150315670972080e-07 2.2612643401267184e+02 0.0000000000000000e+00  1.3258542512206326e-09 2.2612643401267366e+02 0.0000000000000000e+00  2.4020531800573939e-11 2.2612643401267329e+02 0.0000000000000000e+00  5.1638614071345404e-12 2.2612643401267320e+02 0.0000000000000000e+00  -2.0321496353422786e-11 2.2612643401267241e+02 0.0000000000000000e+00  -1.3224415380689021e-09 2.2612643401267385e+02 0.0000000000000000e+00  9.7150400541576925e-07 2.2612643401267798e+02 0.0000000000000000e+00  -1.1973471338577431e-03 2.2612643401267766e+02 0.0000000000000000e+00  3.9372888955837535e+00 2.2612643401267761e+02 0.0000000000000000e+00  -3.7837794265179681e+00 2.4930600653124981e+02 0.0000000000000000e+00  1.3263196446841245e-03 2.4930600653124785e+02 0.0000000000000000e+00  -1.2761053720893598e-06 2.4930600653124668e+02 0.0000000000000000e+00  2.2464032444134941e-09 2.4930600653124614e+02 0.0000000000000000e+00  -1.4670230654626873e-10 2.4930600653125063e+02 0.0000000000000000e+00  1.1115513738881977e-13 2.4930600653125066e+02 0.0000000000000000e+00  1.5202606327972100e-10 2.4930600653124682e+02 0.0000000000000000e+00  -2.2372759517870591e-09 2.4930600653124733e+02 0.0000000000000000e+00  1.2761068211408320e-06 2.4930600653124750e+02 0.0000000000000000e+00  -1.3263196449920128e-03 2.4930600653125043e+02 0.0000000000000000e+00  3.7837794265108391e+00 2.4930600653125194e+02 0.0000000000000000e+00  -3.5879091972971757e+00 2.7143886742948422e+02 0.0000000000000000e+00  1.4145906874427701e-03 2.7143886742948592e+02 0.0000000000000000e+00  -1.5150555343610573e-06 2.7143886742949536e+02 0.0000000000000000e+00  6.9259988008355677e-10 2.7143886742949240e+02 0.0000000000000000e+00  8.1094421796126115e-10 2.7143886742949360e+02 0.0000000000000000e+00  7.0199998203646936e-14 2.7143886742949138e+02 0.0000000000000000e+00  -8.0402799803910347e-10 2.7143886742949616e+02 0.0000000000000000e+00  -6.8480411444626346e-10 2.7143886742949206e+02 0.0000000000000000e+00  1.5150574512760352e-06 2.7143886742949320e+02 0.0000000000000000e+00  -1.4145906851786795e-03 2.7143886742949030e+02 0.0000000000000000e+00  3.5879091972969199e+00 2.7143886742949417e+02 0.0000000000000000e+00  -3.3468688907306228e+00 2.9226184306500562e+02 0.0000000000000000e+00  1.4544769945792561e-03 2.9226184306500647e+02 0.0000000000000000e+00  -1.6988247165237410e-06 2.9226184306501119e+02 0.0000000000000000e+00  1.2579895980736018e-08 2.9226184306500994e+02 0.0000000000000000e+00  -4.4323604125374487e-09 2.9226184306501420e+02 0.0000000000000000e+00  1.9715858367246762e-12 2.9226184306501568e+02 0.0000000000000000e+00  4.4400798139881306e-09 2.9226184306501784e+02 0.0000000000000000e+00  -1.2573454244181383e-08 2.9226184306501494e+02 0.0000000000000000e+00  1.6988309692590726e-06 2.9226184306501500e+02 0.0000000000000000e+00  -1.4544769890643277e-03 2.9226184306501574e+02 0.0000000000000000e+00  3.3468688907267250e+00 2.9226184306500841e+02 0.0000000000000000e+00  -3.0593932417109522e+00 3.1149945169002484e+02 0.0000000000000000e+00  1.4405111781514014e-03 3.1149945169002643e+02 0.0000000000000000e+00  -1.6655613242378196e-06 3.1149945169002092e+02 0.0000000000000000e+00  -5.1808706847674207e-08 3.1149945169002331e+02 0.0000000000000000e+00  2.3144290720334786e-08 3.1149945169001677e+02 0.0000000000000000e+00  3.7469866024867356e-12 3.1149945169002240e+02 0.0000000000000000e+00  -2.3134848741445886e-08 3.1149945169002171e+02 0.0000000000000000e+00  5.1808429152223160e-08 3.1149945169002257e+02 0.0000000000000000e+00  1.6655722805680752e-06 3.1149945169002171e+02 0.0000000000000000e+00  -1.4405111759384166e-03 3.1149945169002240e+02 0.0000000000000000e+00  3.0593932416956249e+00 3.1149945169002171e+02 0.0000000000000000e+00  -2.7259306598996060e+00 3.2887370676736788e+02 0.0000000000000000e+00  1.3714994845537599e-03 3.2887370676736697e+02 0.0000000000000000e+00  -2.2993456461262383e-06 3.2887370676736896e+02 0.0000000000000000e+00  2.9757683477632052e-07 3.2887370676737578e+02 0.0000000000000000e+00  -1.1256500817644688e-07 3.2887370676737220e+02 0.0000000000000000e+00  7.1799594752390008e-12 3.2887370676737123e+02 0.0000000000000000e+00  1.1257384848742768e-07 3.2887370676736856e+02 0.0000000000000000e+00  -2.9757259696842884e-07 3.2887370676737748e+02 0.0000000000000000e+00  2.2993488486310136e-06 3.2887370676737555e+02 0.0000000000000000e+00  -1.3714994793532101e-03 3.2887370676737208e+02 0.0000000000000000e+00  2.7259306599000470e+00 3.2887370676738203e+02 0.0000000000000000e+00  -2.3487094327861540e+00 3.4411466207249993e+02 0.0000000000000000e+00  1.2400761939777337e-03 3.4411466207249691e+02 0.0000000000000000e+00  1.5818077384049469e-06 3.4411466207249651e+02 0.0000000000000000e+00  -1.4906635905820061e-06 3.4411466207249873e+02 0.0000000000000000e+00  4.8397468669572895e-07 3.4411466207250606e+02 0.0000000000000000e+00  4.0423038936794597e-12 3.4411466207250857e+02 0.0000000000000000e+00  -4.8396746304064103e-07 3.4411466207250106e+02 0.0000000000000000e+00  1.4906741915564846e-06 3.4411466207249680e+02 0.0000000000000000e+00  -1.5817966187603263e-06 3.4411466207249691e+02 0.0000000000000000e+00  -1.2400761895118443e-03 3.4411466207250379e+02 0.0000000000000000e+00  2.3487094327807307e+00 3.4411466207249487e+02 0.0000000000000000e+00  -1.9317992829306534e+00 3.5697114192999237e+02 0.0000000000000000e+00  1.0994531681826291e-03 3.5697114193000181e+02 0.0000000000000000e+00  -1.9421148684048959e-05 3.5697114193000027e+02 0.0000000000000000e+00  6.7702909415492105e-06 3.5697114192999754e+02 0.0000000000000000e+00  -1.6384049549029922e-06 3.5697114192999936e+02 0.0000000000000000e+00  2.3481322264286476e-12 3.5697114192999078e+02 0.0000000000000000e+00  1.6384105479913399e-06 3.5697114192999868e+02 0.0000000000000000e+00  -6.7702784466752963e-06 3.5697114192999697e+02 0.0000000000000000e+00  1.9421160732317077e-05 3.5697114193000033e+02 0.0000000000000000e+00  -1.0994531622711150e-03 3.5697114192999965e+02 0.0000000000000000e+00  1.9317992829296231e+00 3.5697114192999680e+02 0.0000000000000000e+00  -1.4804748346203287e+00 3.6722107909313246e+02 0.0000000000000000e+00  6.4098033102328277e-04 3.6722107909312240e+02 0.0000000000000000e+00  9.2078980971671375e-05 3.6722107909312098e+02 0.0000000000000000e+00  -2.3589616047778895e-05 3.6722107909312416e+02 0.0000000000000000e+00  3.1433649049951909e-06 3.6722107909311609e+02 0.0000000000000000e+00  4.7784012079967441e-12 3.6722107909311626e+02 0.0000000000000000e+00  -3.1433643484949096e-06 3.6722107909311694e+02 0.0000000000000000e+00  2.3589626013746809e-05 3.6722107909310824e+02 0.0000000000000000e+00  -9.2078970849647238e-05 3.6722107909310478e+02 0.0000000000000000e+00  -6.4098032739607442e-04 3.6722107909311177e+02 0.0000000000000000e+00  1.4804748346249923e+00 3.6722107909311558e+02 0.0000000000000000e+00  -1.0046570602886640e+00 3.7468089532638345e+02 0.0000000000000000e+00  1.8819851096138931e-03 3.7468089532637788e+02 0.0000000000000000e+00  -3.7942119942015824e-04 3.7468089532637811e+02 0.0000000000000000e+00  2.7099604413361109e-05 3.7468089532636952e+02 0.0000000000000000e+00  -1.8441765092779023e-06 3.7468089532638288e+02 0.0000000000000000e+00  1.7070499614755904e-12 3.7468089532638891e+02 0.0000000000000000e+00  1.8441729743859604e-06 3.7468089532637981e+02 0.0000000000000000e+00  -2.7099604108087894e-05 3.7468089532637401e+02 0.0000000000000000e+00  3.7942121605918618e-04 3.7468089532637379e+02 0.0000000000000000e+00  -1.8819851098980476e-03 3.7468089532636907e+02 0.0000000000000000e+00  1.0046570602824656e+00 3.7468089532636282e+02 0.0000000000000000e+00  -4.9051731134792531e-01 3.7921340584318312e+02 0.0000000000000000e+00  -7.4484342565325568e-03 3.7921340584318489e+02 0.0000000000000000e+00  -9.2220689621835068e-05 3.7921340584318557e+02 0.0000000000000000e+00  2.5135812560445709e-05 3.7921340584318062e+02 0.0000000000000000e+00  -3.6512989333201403e-06 3.7921340584317738e+02 0.0000000000000000e+00  -6.6999025889333703e-13 3.7921340584317443e+02 0.0000000000000000e+00  3.6513035668770417e-06 3.7921340584317778e+02 0.0000000000000000e+00  -2.5135813553403145e-05 3.7921340584318108e+02 0.0000000000000000e+00  9.2220690668803733e-05 3.7921340584317659e+02 0.0000000000000000e+00  7.4484342503748132e-03 3.7921340584316908e+02 0.0000000000000000e+00  4.9051731134788551e-01 3.7921340584317682e+02 0.0000000000000000e+00  -2.1862062335309682e-01 3.8073380630473054e+02 0.0000000000000000e+00  -1.8421118256169440e-02 3.8073380630473901e+02 0.0000000000000000e+00  8.0361538286441469e-04 3.8073380630473696e+02 0.0000000000000000e+00  -6.8354176705065432e-05 3.8073380630474588e+02 0.0000000000000000e+00  7.1994745627088337e-06 3.8073380630472604e+02 0.0000000000000000e+00  -2.7223002884900685e-13 3.8073380630472030e+02 0.0000000000000000e+00  -7.1994713673283670e-06 3.8073380630472218e+02 0.0000000000000000e+00  6.8354171216519522e-05 3.8073380630474315e+02 0.0000000000000000e+00  -8.0361538439256664e-04 3.8073380630474173e+02 0.0000000000000000e+00  1.8421118253904259e-02 3.8073380630474071e+02 0.0000000000000000e+00  2.1862062336602331e-01 3.8073380630474509e+02 0.0000000000000000e+00  2.1245154632692245e+00 8.4973374062569818e+00 0.0000000000000000e+00  6.2215286609369191e-06 8.4973374062547880e+00 0.0000000000000000e+00  -7.1170980572826727e-07 8.4973374062555216e+00 0.0000000000000000e+00  1.3229780746759939e-09 8.4973374062594385e+00 0.0000000000000000e+00  -6.6897120625551131e-12 8.4973374062571416e+00 0.0000000000000000e+00  -6.4817004823753376e-13 8.4973374062558289e+00 0.0000000000000000e+00  -1.3198795489836627e-09 8.4973374062584153e+00 0.0000000000000000e+00  7.1171322033064735e-07 8.4973374062630693e+00 0.0000000000000000e+00  -6.2215278337521662e-06 8.4973374062570084e+00 0.0000000000000000e+00  -2.1245154632679712e+00 8.4973374062538856e+00 0.0000000000000000e+00  2.1246691291459019e+00 3.8241294663326443e+01 0.0000000000000000e+00  -1.6468940739210583e-05 3.8241294663325945e+01 0.0000000000000000e+00  -6.6956460910621376e-07 3.8241294663320545e+01 0.0000000000000000e+00  1.2517853534895353e-09 3.8241294663314108e+01 0.0000000000000000e+00  8.4255665142029111e-13 3.8241294663318548e+01 0.0000000000000000e+00  -1.2111502138478168e-12 3.8241294663324489e+01 0.0000000000000000e+00  -1.2521755927701918e-09 3.8241294663323032e+01 0.0000000000000000e+00  6.6957620753626016e-07 3.8241294663324737e+01 0.0000000000000000e+00  1.6468926702912028e-05 3.8241294663331942e+01 0.0000000000000000e+00  -2.1246691291427049e+00 3.8241294663325121e+01 0.0000000000000000e+00  2.1242530569694518e+00 6.3740462833796158e+01 0.0000000000000000e+00  -6.0505504591102331e-05 6.3740462833796791e+01 0.0000000000000000e+00  -5.8740435835371176e-07 6.3740462833798745e+01 0.0000000000000000e+00  1.1238127330025467e-09 6.3740462833800940e+01 0.0000000000000000e+00  3.8607582407926179e-12 6.3740462833800905e+01 0.0000000000000000e+00  -7.3060772894608698e-13 6.3740462833798219e+01 0.0000000000000000e+00  -1.1262400250899952e-09 6.3740462833795611e+01 0.0000000000000000e+00  5.8741131314290752e-07 6.3740462833792300e+01 0.0000000000000000e+00  6.0505498275788622e-05 6.3740462833792428e+01 0.0000000000000000e+00  -2.1242530569703750e+00 6.3740462833800287e+01 0.0000000000000000e+00  2.1218633228449373e+00 8.9231765738840537e+01 0.0000000000000000e+00  -1.2326711689897218e-04 8.9231765738847386e+01 0.0000000000000000e+00  -4.6937573643705294e-07 8.9231765738847315e+01 0.0000000000000000e+00  9.3868949718976827e-10 8.9231765738843379e+01 0.0000000000000000e+00  2.8971171138767779e-12 8.9231765738844743e+01 0.0000000000000000e+00  -1.6575289936732539e-12 8.9231765738845709e+01 0.0000000000000000e+00  -9.3547406506229672e-10 8.9231765738849020e+01 0.0000000000000000e+00  4.6937128858491462e-07 8.9231765738849504e+01 0.0000000000000000e+00  1.2326711875199929e-04 8.9231765738844672e+01 0.0000000000000000e+00  -2.1218633228401007e+00 8.9231765738846107e+01 0.0000000000000000e+00  2.1154990910980662e+00 1.1468234503213493e+02 0.0000000000000000e+00  -2.0098873269794684e-04 1.1468234503212815e+02 0.0000000000000000e+00  -3.2150606650491184e-07 1.1468234503212565e+02 0.0000000000000000e+00  7.0355784963721030e-10 1.1468234503213191e+02 0.0000000000000000e+00  -1.4501128098438328e-12 1.1468234503213128e+02 0.0000000000000000e+00  2.7885299437580450e-12 1.1468234503213156e+02 0.0000000000000000e+00  -6.9657223494404602e-10 1.1468234503213142e+02 0.0000000000000000e+00  3.2149705252427021e-07 1.1468234503212797e+02 0.0000000000000000e+00  2.0098873982458523e-04 1.1468234503213652e+02 0.0000000000000000e+00  -2.1154990910944580e+00 1.1468234503213942e+02 0.0000000000000000e+00  2.1026827107984900e+00 1.4003176043211582e+02 0.0000000000000000e+00  -2.889538046