<?xml version="1.0"?>
<VTKFile type="UnstructuredGrid"  version="0.1"  >
<UnstructuredGrid>
<Piece  NumberOfPoints="1411" NumberOfCells="2700">
<Points>
<DataArray  type="Float64"  NumberOfComponents="3"  format="ascii">-0.75 -4.5 0  -0.65 -4.5 0  -0.55 -4.5 0  -0.45 -4.5 0  -0.35 -4.5 0  -0.25 -4.5 0  -0.15 -4.5 0  -0.05000000000000004 -4.5 0  0.05000000000000004 -4.5 0  0.15 -4.5 0  0.25 -4.5 0  0.3500000000000001 -4.5 0  0.45 -4.5 0  0.55 -4.5 0  0.6499999999999999 -4.5 0  0.75 -4.5 0  -0.75 -4.4 0  -0.65 -4.4 0  -0.55 -4.4 0  -0.45 -4.4 0  -0.35 -4.4 0  -0.25 -4.4 0  -0.15 -4.4 0  -0.05000000000000004 -4.4 0  0.05000000000000004 -4.4 0  0.15 -4.4 0  0.25 -4.4 0  0.3500000000000001 -4.4 0  0.45 -4.4 0  0.55 -4.4 0  0.6499999999999999 -4.4 0  0.75 -4.4 0  -0.75 -4.3 0  -0.65 -4.3 0  -0.55 -4.3 0  -0.45 -4.3 0  -0.35 -4.3 0  -0.25 -4.3 0  -0.15 -4.3 0  -0.05000000000000004 -4.3 0  0.05000000000000004 -4.3 0  0.15 -4.3 0  0.25 -4.3 0  0.3500000000000001 -4.3 0  0.45 -4.3 0  0.55 -4.3 0  0.6499999999999999 -4.3 0  0.75 -4.3 0  -0.75 -4.2 0  -0.65 -4.2 0  -0.55 -4.2 0  -0.45 -4.2 0  -0.35 -4.2 0  -0.25 -4.2 0  -0.15 -4.2 0  -0.05000000000000004 -4.2 0  0.05000000000000004 -4.2 0  0.15 -4.2 0  0.25 -4.2 0  0.3500000000000001 -4.2 0  0.45 -4.2 0  0.55 -4.2 0  0.6499999999999999 -4.2 0  0.75 -4.2 0  -0.75 -4.1 0  -0.65 -4.1 0  -0.55 -4.1 0  -0.45 -4.1 0  -0.35 -4.1 0  -0.25 -4.1 0  -0.15 -4.1 0  -0.05000000000000004 -4.1 0  0.05000000000000004 -4.1 0  0.15 -4.1 0  0.25 -4.1 0  0.3500000000000001 -4.1 0  0.45 -4.1 0  0.55 -4.1 0  0.6499999999999999 -4.1 0  0.75 -4.1 0  -0.75 -4 0  -0.65 -4 0  -0.55 -4 0  -0.45 -4 0  -0.35 -4 0  -0.25 -4 0  -0.15 -4 0  -0.05000000000000004 -4 0  0.05000000000000004 -4 0  0.15 -4 0  0.25 -4 0  0.3500000000000001 -4 0  0.45 -4 0  0.55 -4 0  0.6499999999999999 -4 0  0.75 -4 0  -0.75 -3.9 0  -0.65 -3.9 0  -0.55 -3.9 0  -0.45 -3.9 0  -0.35 -3.9 0  -0.25 -3.9 0  -0.15 -3.9 0  -0.05000000000000004 -3.9 0  0.05000000000000004 -3.9 0  0.15 -3.9 0  0.25 -3.9 0  0.3500000000000001 -3.9 0  0.45 -3.9 0  0.55 -3.9 0  0.6499999999999999 -3.9 0  0.75 -3.9 0  -0.75 -3.8 0  -0.65 -3.8 0  -0.55 -3.8 0  -0.45 -3.8 0  -0.35 -3.8 0  -0.25 -3.8 0  -0.15 -3.8 0  -0.05000000000000004 -3.8 0  0.05000000000000004 -3.8 0  0.15 -3.8 0  0.25 -3.8 0  0.3500000000000001 -3.8 0  0.45 -3.8 0  0.55 -3.8 0  0.6499999999999999 -3.8 0  0.75 -3.8 0  -0.75 -3.7 0  -0.65 -3.7 0  -0.55 -3.7 0  -0.45 -3.7 0  -0.35 -3.7 0  -0.25 -3.7 0  -0.15 -3.7 0  -0.05000000000000004 -3.7 0  0.05000000000000004 -3.7 0  0.15 -3.7 0  0.25 -3.7 0  0.3500000000000001 -3.7 0  0.45 -3.7 0  0.55 -3.7 0  0.6499999999999999 -3.7 0  0.75 -3.7 0  -0.75 -3.6 0  -0.65 -3.6 0  -0.55 -3.6 0  -0.45 -3.6 0  -0.35 -3.6 0  -0.25 -3.6 0  -0.15 -3.6 0  -0.05000000000000004 -3.6 0  0.05000000000000004 -3.6 0  0.15 -3.6 0  0.25 -3.6 0  0.3500000000000001 -3.6 0  0.45 -3.6 0  0.55 -3.6 0  0.6499999999999999 -3.6 0  0.75 -3.6 0  -0.75 -3.5 0  -0.65 -3.5 0  -0.55 -3.5 0  -0.45 -3.5 0  -0.35 -3.5 0  -0.25 -3.5 0  -0.15 -3.5 0  -0.05000000000000004 -3.5 0  0.05000000000000004 -3.5 0  0.15 -3.5 0  0.25 -3.5 0  0.3500000000000001 -3.5 0  0.45 -3.5 0  0.55 -3.5 0  0.6499999999999999 -3.5 0  0.75 -3.5 0  -0.75 -3.4 0  -0.65 -3.4 0  -0.55 -3.4 0  -0.45 -3.4 0  -0.35 -3.4 0  -0.25 -3.4 0  -0.15 -3.4 0  -0.05000000000000004 -3.4 0  0.05000000000000004 -3.4 0  0.15 -3.4 0  0.25 -3.4 0  0.3500000000000001 -3.4 0  0.45 -3.4 0  0.55 -3.4 0  0.6499999999999999 -3.4 0  0.75 -3.4 0  -0.75 -3.3 0  -0.65 -3.3 0  -0.55 -3.3 0  -0.45 -3.3 0  -0.35 -3.3 0  -0.25 -3.3 0  -0.15 -3.3 0  -0.05000000000000004 -3.3 0  0.05000000000000004 -3.3 0  0.15 -3.3 0  0.25 -3.3 0  0.3500000000000001 -3.3 0  0.45 -3.3 0  0.55 -3.3 0  0.6499999999999999 -3.3 0  0.75 -3.3 0  -0.75 -3.2 0  -0.65 -3.2 0  -0.55 -3.2 0  -0.45 -3.2 0  -0.35 -3.2 0  -0.25 -3.2 0  -0.15 -3.2 0  -0.05000000000000004 -3.2 0  0.05000000000000004 -3.2 0  0.15 -3.2 0  0.25 -3.2 0  0.3500000000000001 -3.2 0  0.45 -3.2 0  0.55 -3.2 0  0.6499999999999999 -3.2 0  0.75 -3.2 0  -0.75 -3.1 0  -0.65 -3.1 0  -0.55 -3.1 0  -0.45 -3.1 0  -0.35 -3.1 0  -0.25 -3.1 0  -0.15 -3.1 0  -0.05000000000000004 -3.1 0  0.05000000000000004 -3.1 0  0.15 -3.1 0  0.25 -3.1 0  0.3500000000000001 -3.1 0  0.45 -3.1 0  0.55 -3.1 0  0.6499999999999999 -3.1 0  0.75 -3.1 0  -0.75 -3 0  -0.65 -3 0  -0.55 -3 0  -0.45 -3 0  -0.35 -3 0  -0.25 -3 0  -0.15 -3 0  -0.05000000000000004 -3 0  0.05000000000000004 -3 0  0.15 -3 0  0.25 -3 0  0.3500000000000001 -3 0  0.45 -3 0  0.55 -3 0  0.6499999999999999 -3 0  0.75 -3 0  -0.75 -2.9 0  -0.65 -2.9 0  -0.55 -2.9 0  -0.45 -2.9 0  -0.35 -2.9 0  -0.25 -2.9 0  -0.15 -2.9 0  -0.05000000000000004 -2.9 0  0.05000000000000004 -2.9 0  0.15 -2.9 0  0.25 -2.9 0  0.3500000000000001 -2.9 0  0.45 -2.9 0  0.55 -2.9 0  0.6499999999999999 -2.9 0  0.75 -2.9 0  -0.75 -2.8 0  -0.65 -2.8 0  -0.55 -2.8 0  -0.45 -2.8 0  -0.35 -2.8 0  -0.25 -2.8 0  -0.15 -2.8 0  -0.05000000000000004 -2.8 0  0.05000000000000004 -2.8 0  0.15 -2.8 0  0.25 -2.8 0  0.3500000000000001 -2.8 0  0.45 -2.8 0  0.55 -2.8 0  0.6499999999999999 -2.8 0  0.75 -2.8 0  -0.75 -2.7 0  -0.65 -2.7 0  -0.55 -2.7 0  -0.45 -2.7 0  -0.35 -2.7 0  -0.25 -2.7 0  -0.15 -2.7 0  -0.05000000000000004 -2.7 0  0.05000000000000004 -2.7 0  0.15 -2.7 0  0.25 -2.7 0  0.3500000000000001 -2.7 0  0.45 -2.7 0  0.55 -2.7 0  0.6499999999999999 -2.7 0  0.75 -2.7 0  -0.75 -2.6 0  -0.65 -2.6 0  -0.55 -2.6 0  -0.45 -2.6 0  -0.35 -2.6 0  -0.25 -2.6 0  -0.15 -2.6 0  -0.05000000000000004 -2.6 0  0.05000000000000004 -2.6 0  0.15 -2.6 0  0.25 -2.6 0  0.3500000000000001 -2.6 0  0.45 -2.6 0  0.55 -2.6 0  0.6499999999999999 -2.6 0  0.75 -2.6 0  -0.75 -2.5 0  -0.65 -2.5 0  -0.55 -2.5 0  -0.45 -2.5 0  -0.35 -2.5 0  -0.25 -2.5 0  -0.15 -2.5 0  -0.05000000000000004 -2.5 0  0.05000000000000004 -2.5 0  0.15 -2.5 0  0.25 -2.5 0  0.3500000000000001 -2.5 0  0.45 -2.5 0  0.55 -2.5 0  0.6499999999999999 -2.5 0  0.75 -2.5 0  -0.75 -2.4 0  -0.65 -2.4 0  -0.55 -2.4 0  -0.45 -2.4 0  -0.35 -2.4 0  -0.25 -2.4 0  -0.15 -2.4 0  -0.05000000000000004 -2.4 0  0.05000000000000004 -2.4 0  0.15 -2.4 0  0.25 -2.4 0  0.3500000000000001 -2.4 0  0.45 -2.4 0  0.55 -2.4 0  0.6499999999999999 -2.4 0  0.75 -2.4 0  -0.75 -2.3 0  -0.65 -2.3 0  -0.55 -2.3 0  -0.45 -2.3 0  -0.35 -2.3 0  -0.25 -2.3 0  -0.15 -2.3 0  -0.05000000000000004 -2.3 0  0.05000000000000004 -2.3 0  0.15 -2.3 0  0.25 -2.3 0  0.3500000000000001 -2.3 0  0.45 -2.3 0  0.55 -2.3 0  0.6499999999999999 -2.3 0  0.75 -2.3 0  -0.75 -2.2 0  -0.65 -2.2 0  -0.55 -2.2 0  -0.45 -2.2 0  -0.35 -2.2 0  -0.25 -2.2 0  -0.15 -2.2 0  -0.05000000000000004 -2.2 0  0.05000000000000004 -2.2 0  0.15 -2.2 0  0.25 -2.2 0  0.3500000000000001 -2.2 0  0.45 -2.2 0  0.55 -2.2 0  0.6499999999999999 -2.2 0  0.75 -2.2 0  -0.75 -2.1 0  -0.65 -2.1 0  -0.55 -2.1 0  -0.45 -2.1 0  -0.35 -2.1 0  -0.25 -2.1 0  -0.15 -2.1 0  -0.05000000000000004 -2.1 0  0.05000000000000004 -2.1 0  0.15 -2.1 0  0.25 -2.1 0  0.3500000000000001 -2.1 0  0.45 -2.1 0  0.55 -2.1 0  0.6499999999999999 -2.1 0  0.75 -2.1 0  -0.75 -2 0  -0.65 -2 0  -0.55 -2 0  -0.45 -2 0  -0.35 -2 0  -0.25 -2 0  -0.15 -2 0  -0.05000000000000004 -2 0  0.05000000000000004 -2 0  0.15 -2 0  0.25 -2 0  0.3500000000000001 -2 0  0.45 -2 0  0.55 -2 0  0.6499999999999999 -2 0  0.75 -2 0  -0.75 -1.9 0  -0.65 -1.9 0  -0.55 -1.9 0  -0.45 -1.9 0  -0.35 -1.9 0  -0.25 -1.9 0  -0.15 -1.9 0  -0.05000000000000004 -1.9 0  0.05000000000000004 -1.9 0  0.15 -1.9 0  0.25 -1.9 0  0.3500000000000001 -1.9 0  0.45 -1.9 0  0.55 -1.9 0  0.6499999999999999 -1.9 0  0.75 -1.9 0  -0.75 -1.8 0  -0.65 -1.8 0  -0.55 -1.8 0  -0.45 -1.8 0  -0.35 -1.8 0  -0.25 -1.8 0  -0.15 -1.8 0  -0.05000000000000004 -1.8 0  0.05000000000000004 -1.8 0  0.15 -1.8 0  0.25 -1.8 0  0.3500000000000001 -1.8 0  0.45 -1.8 0  0.55 -1.8 0  0.6499999999999999 -1.8 0  0.75 -1.8 0  -0.75 -1.7 0  -0.65 -1.7 0  -0.55 -1.7 0  -0.45 -1.7 0  -0.35 -1.7 0  -0.25 -1.7 0  -0.15 -1.7 0  -0.05000000000000004 -1.7 0  0.05000000000000004 -1.7 0  0.15 -1.7 0  0.25 -1.7 0  0.3500000000000001 -1.7 0  0.45 -1.7 0  0.55 -1.7 0  0.6499999999999999 -1.7 0  0.75 -1.7 0  -0.75 -1.6 0  -0.65 -1.6 0  -0.55 -1.6 0  -0.45 -1.6 0  -0.35 -1.6 0  -0.25 -1.6 0  -0.15 -1.6 0  -0.05000000000000004 -1.6 0  0.05000000000000004 -1.6 0  0.15 -1.6 0  0.25 -1.6 0  0.3500000000000001 -1.6 0  0.45 -1.6 0  0.55 -1.6 0  0.6499999999999999 -1.6 0  0.75 -1.6 0  -0.75 -1.5 0  -0.65 -1.5 0  -0.55 -1.5 0  -0.45 -1.5 0  -0.35 -1.5 0  -0.25 -1.5 0  -0.15 -1.5 0  -0.05000000000000004 -1.5 0  0.05000000000000004 -1.5 0  0.15 -1.5 0  0.25 -1.5 0  0.3500000000000001 -1.5 0  0.45 -1.5 0  0.55 -1.5 0  0.6499999999999999 -1.5 0  0.75 -1.5 0  -0.75 -1.4 0  -0.65 -1.4 0  -0.55 -1.4 0  -0.45 -1.4 0  -0.35 -1.4 0  -0.25 -1.4 0  -0.15 -1.4 0  -0.05000000000000004 -1.4 0  0.05000000000000004 -1.4 0  0.15 -1.4 0  0.25 -1.4 0  0.3500000000000001 -1.4 0  0.45 -1.4 0  0.55 -1.4 0  0.6499999999999999 -1.4 0  0.75 -1.4 0  -0.75 -1.3 0  -0.65 -1.3 0  -0.55 -1.3 0  -0.45 -1.3 0  -0.35 -1.3 0  -0.25 -1.3 0  -0.15 -1.3 0  -0.05000000000000004 -1.3 0  0.05000000000000004 -1.3 0  0.15 -1.3 0  0.25 -1.3 0  0.3500000000000001 -1.3 0  0.45 -1.3 0  0.55 -1.3 0  0.6499999999999999 -1.3 0  0.75 -1.3 0  -0.75 -1.2 0  -0.65 -1.2 0  -0.55 -1.2 0  -0.45 -1.2 0  -0.35 -1.2 0  -0.25 -1.2 0  -0.15 -1.2 0  -0.05000000000000004 -1.2 0  0.05000000000000004 -1.2 0  0.15 -1.2 0  0.25 -1.2 0  0.3500000000000001 -1.2 0  0.45 -1.2 0  0.55 -1.2 0  0.6499999999999999 -1.2 0  0.75 -1.2 0  -0.75 -1.1 0  -0.65 -1.1 0  -0.55 -1.1 0  -0.45 -1.1 0  -0.35 -1.1 0  -0.25 -1.1 0  -0.15 -1.1 0  -0.05000000000000004 -1.1 0  0.05000000000000004 -1.1 0  0.15 -1.1 0  0.25 -1.1 0  0.3500000000000001 -1.1 0  0.45 -1.1 0  0.55 -1.1 0  0.6499999999999999 -1.1 0  0.75 -1.1 0  -0.75 -1 0  -0.65 -1 0  -0.55 -1 0  -0.45 -1 0  -0.35 -1 0  -0.25 -1 0  -0.15 -1 0  -0.05000000000000004 -1 0  0.05000000000000004 -1 0  0.15 -1 0  0.25 -1 0  0.3500000000000001 -1 0  0.45 -1 0  0.55 -1 0  0.6499999999999999 -1 0  0.75 -1 0  -0.75 -0.8999999999999999 0  -0.65 -0.899999
[...]
<PointData  Vectors="flow"> 
<DataArray  type="Float64"  Name="flow"  NumberOfComponents="3" format="ascii">-1.0251064558990808e-09 2.0502477527089228e-09 0.0000000000000000e+00  7.9104482680924311e-14 2.0502477527045697e-09 0.0000000000000000e+00  -5.8467954842496542e-18 2.0502477527062948e-09 0.0000000000000000e+00  1.5500892407592090e-22 2.0502477527067737e-09 0.0000000000000000e+00  -4.5169312592592063e-21 2.0502477527099679e-09 0.0000000000000000e+00  -2.8875446449630952e-21 2.0502477527072903e-09 0.0000000000000000e+00  -2.0729509521278544e-21 2.0502477527048539e-09 0.0000000000000000e+00  -4.5109170753269680e-21 2.0502477527018181e-09 0.0000000000000000e+00  -3.3686105721991050e-21 2.0502477527035014e-09 0.0000000000000000e+00  -9.3166761393684971e-22 2.0502477527050003e-09 0.0000000000000000e+00  -1.1180214244698484e-21 2.0502477527030597e-09 0.0000000000000000e+00  1.9556443195970934e-21 2.0502477527062816e-09 0.0000000000000000e+00  1.6990236025616447e-21 2.0502477527103712e-09 0.0000000000000000e+00  5.8468955243461326e-18 2.0502477527032781e-09 0.0000000000000000e+00  -7.9104482138220358e-14 2.0502477527084124e-09 0.0000000000000000e+00  1.0251064559005396e-09 2.0502477527087821e-09 0.0000000000000000e+00  -1.0238409712570817e-09 6.1478610122161087e-09 0.0000000000000000e+00  7.9010932244203434e-14 6.1478610122173396e-09 0.0000000000000000e+00  -5.8450149076975338e-18 6.1478610122180460e-09 0.0000000000000000e+00  2.0799489200980563e-21 6.1478610122167515e-09 0.0000000000000000e+00  -3.3160639770131419e-21 6.1478610122183818e-09 0.0000000000000000e+00  -2.7240418001191976e-21 6.1478610122169301e-09 0.0000000000000000e+00  -3.9618579332855044e-21 6.1478610122191561e-09 0.0000000000000000e+00  -4.8008796873668722e-21 6.1478610122170674e-09 0.0000000000000000e+00  -2.2721174223229104e-21 6.1478610122192926e-09 0.0000000000000000e+00  -2.1443814786062608e-21 6.1478610122160318e-09 0.0000000000000000e+00  5.3396478683021075e-22 6.1478610122179724e-09 0.0000000000000000e+00  1.9734761725186436e-21 6.1478610122194075e-09 0.0000000000000000e+00  1.2520547165483092e-21 6.1478610122173694e-09 0.0000000000000000e+00  5.8447178946889772e-18 6.1478610122200709e-09 0.0000000000000000e+00  -7.9010930698559952e-14 6.1478610122211107e-09 0.0000000000000000e+00  1.0238409712512207e-09 6.1478610122203786e-09 0.0000000000000000e+00  -1.0200475107175528e-09 1.2280542779300178e-08 0.0000000000000000e+00  7.8730407845646198e-14 1.2280542779298357e-08 0.0000000000000000e+00  -5.8334480412297349e-18 1.2280542779298054e-08 0.0000000000000000e+00  2.2532602289093936e-21 1.2280542779297839e-08 0.0000000000000000e+00  -4.0703480481036214e-21 1.2280542779298934e-08 0.0000000000000000e+00  -2.0570823854727348e-21 1.2280542779299970e-08 0.0000000000000000e+00  -3.0374410117819448e-21 1.2280542779296994e-08 0.0000000000000000e+00  -4.5792670921331811e-21 1.2280542779297609e-08 0.0000000000000000e+00  -4.3015191227440815e-21 1.2280542779297114e-08 0.0000000000000000e+00  -4.1814363417921831e-21 1.2280542779298449e-08 0.0000000000000000e+00  5.3234707855914578e-21 1.2280542779297257e-08 0.0000000000000000e+00  1.0799248625546170e-21 1.2280542779300408e-08 0.0000000000000000e+00  2.0986431141784500e-21 1.2280542779296994e-08 0.0000000000000000e+00  5.8342277089573768e-18 1.2280542779298772e-08 0.0000000000000000e+00  -7.8730406371163283e-14 1.2280542779297511e-08 0.0000000000000000e+00  1.0200475107184145e-09 1.2280542779297958e-08 0.0000000000000000e+00  -1.0137350503067197e-09 1.8382901967743637e-08 0.0000000000000000e+00  7.8263301075244448e-14 1.8382901967743230e-08 0.0000000000000000e+00  -5.8118602933977286e-18 1.8382901967741903e-08 0.0000000000000000e+00  -2.1489811683185627e-22 1.8382901967742039e-08 0.0000000000000000e+00  9.5496353690286939e-23 1.8382901967740980e-08 0.0000000000000000e+00  -5.3698754788348131e-21 1.8382901967741804e-08 0.0000000000000000e+00  -5.5067366902777179e-21 1.8382901967741212e-08 0.0000000000000000e+00  -2.2650131106370806e-21 1.8382901967744282e-08 0.0000000000000000e+00  -1.3509981144497010e-21 1.8382901967740537e-08 0.0000000000000000e+00  -2.1427868266777210e-21 1.8382901967743915e-08 0.0000000000000000e+00  1.6297328656855029e-21 1.8382901967742052e-08 0.0000000000000000e+00  5.6182816547162863e-22 1.8382901967739905e-08 0.0000000000000000e+00  -1.1577146605156271e-22 1.8382901967740603e-08 0.0000000000000000e+00  5.8141070962282948e-18 1.8382901967740606e-08 0.0000000000000000e+00  -7.8263303362467201e-14 1.8382901967739862e-08 0.0000000000000000e+00  1.0137350503051971e-09 1.8382901967737645e-08 0.0000000000000000e+00  -1.0049185360396389e-09 2.4439867016941598e-08 0.0000000000000000e+00  7.7610280202247638e-14 2.4439867016942167e-08 0.0000000000000000e+00  -5.7833900153754366e-18 2.4439867016942174e-08 0.0000000000000000e+00  9.0157246369498877e-22 2.4439867016936794e-08 0.0000000000000000e+00  -6.5600491045654330e-22 2.4439867016940437e-08 0.0000000000000000e+00  -2.3262892305699995e-21 2.4439867016938425e-08 0.0000000000000000e+00  -3.1933944426595717e-21 2.4439867016942528e-08 0.0000000000000000e+00  -7.2648380085212901e-21 2.4439867016933419e-08 0.0000000000000000e+00  -4.9156673776413584e-21 2.4439867016936036e-08 0.0000000000000000e+00  -5.5297720561391928e-22 2.4439867016932844e-08 0.0000000000000000e+00  2.3091603888046433e-22 2.4439867016937992e-08 0.0000000000000000e+00  3.4586560652171115e-22 2.4439867016932923e-08 0.0000000000000000e+00  2.2338986026128734e-21 2.4439867016938300e-08 0.0000000000000000e+00  5.7823785168770711e-18 2.4439867016935560e-08 0.0000000000000000e+00  -7.7610282137300366e-14 2.4439867016934756e-08 0.0000000000000000e+00  1.0049185360391126e-09 2.4439867016934375e-08 0.0000000000000000e+00  -9.9361886269450633e-10 3.0436473898958155e-08 0.0000000000000000e+00  7.6772286066980036e-14 3.0436473898958585e-08 0.0000000000000000e+00  -5.7494624621410128e-18 3.0436473898957699e-08 0.0000000000000000e+00  -1.9887941823437151e-21 3.0436473898957030e-08 0.0000000000000000e+00  -1.0899703998994034e-21 3.0436473898954734e-08 0.0000000000000000e+00  -3.9035446800165075e-21 3.0436473898954747e-08 0.0000000000000000e+00  -6.2375268061982762e-21 3.0436473898952802e-08 0.0000000000000000e+00  -8.4469846407338898e-21 3.0436473898952683e-08 0.0000000000000000e+00  -2.0765986367189447e-21 3.0436473898954516e-08 0.0000000000000000e+00  -1.6483676504150931e-21 3.0436473898952405e-08 0.0000000000000000e+00  1.1848500575904250e-21 3.0436473898949361e-08 0.0000000000000000e+00  3.1818112890172640e-21 3.0436473898954039e-08 0.0000000000000000e+00  1.0184894208675984e-21 3.0436473898949050e-08 0.0000000000000000e+00  5.7416568162694328e-18 3.0436473898947832e-08 0.0000000000000000e+00  -7.6772287747439065e-14 3.0436473898951247e-08 0.0000000000000000e+00  9.9361886268990162e-10 3.0436473898949328e-08 0.0000000000000000e+00  -9.7986284364748724e-10 3.6357901724288932e-08 0.0000000000000000e+00  7.5750547014430893e-14 3.6357901724293220e-08 0.0000000000000000e+00  -5.6979025924533493e-18 3.6357901724284796e-08 0.0000000000000000e+00  -3.3592123065998245e-21 3.6357901724291976e-08 0.0000000000000000e+00  -2.7744262039354587e-21 3.6357901724284624e-08 0.0000000000000000e+00  -2.5248082487739343e-21 3.6357901724287688e-08 0.0000000000000000e+00  -6.5521376837686834e-21 3.6357901724286106e-08 0.0000000000000000e+00  -9.2813025714164471e-21 3.6357901724288204e-08 0.0000000000000000e+00  -2.1796275541606109e-21 3.6357901724283783e-08 0.0000000000000000e+00  -5.1059143840163656e-21 3.6357901724285577e-08 0.0000000000000000e+00  -4.8924184314830358e-22 3.6357901724280435e-08 0.0000000000000000e+00  2.5367871545699325e-21 3.6357901724279720e-08 0.0000000000000000e+00  -3.1092424947583369e-21 3.6357901724282526e-08 0.0000000000000000e+00  5.6993874638115666e-18 3.6357901724283803e-08 0.0000000000000000e+00  -7.5750548804647358e-14 3.6357901724279131e-08 0.0000000000000000e+00  9.7986284365018240e-10 3.6357901724284286e-08 0.0000000000000000e+00  -9.6368317144376206e-10 4.2189508138961047e-08 0.0000000000000000e+00  7.4546601668045048e-14 4.2189508138961358e-08 0.0000000000000000e+00  -5.6458896651107528e-18 4.2189508138960663e-08 0.0000000000000000e+00  1.4188166279226980e-22 4.2189508138952451e-08 0.0000000000000000e+00  -5.6034724754566627e-21 4.2189508138957526e-08 0.0000000000000000e+00  -1.7138401956684490e-21 4.2189508138959273e-08 0.0000000000000000e+00  -3.9724149711163144e-21 4.2189508138961563e-08 0.0000000000000000e+00  -7.5729896564442357e-21 4.2189508138961609e-08 0.0000000000000000e+00  -9.2299384550783696e-21 4.2189508138960822e-08 0.0000000000000000e+00  -4.4074856580233104e-21 4.2189508138953417e-08 0.0000000000000000e+00  -1.3697416532708646e-21 4.2189508138962198e-08 0.0000000000000000e+00  3.7579116657298867e-21 4.2189508138959015e-08 0.0000000000000000e+00  1.5219376762845481e-21 4.2189508138961219e-08 0.0000000000000000e+00  5.6301879127537372e-18 4.2189508138954013e-08 0.0000000000000000e+00  -7.4546605896341759e-14 4.2189508138953311e-08 0.0000000000000000e+00  9.6368317145517405e-10 4.2189508138954244e-08 0.0000000000000000e+00  -9.4511836847747060e-10 4.7916864455649814e-08 0.0000000000000000e+00  7.3162323161146328e-14 4.7916864455643786e-08 0.0000000000000000e+00  -5.5769635479780124e-18 4.7916864455651939e-08 0.0000000000000000e+00  -8.3519074502054174e-21 4.7916864455652978e-08 0.0000000000000000e+00  2.0604714848739672e-21 4.7916864455649093e-08 0.0000000000000000e+00  3.4282386435216925e-21 4.7916864455657855e-08 0.0000000000000000e+00  -1.1261568781729384e-20 4.7916864455650794e-08 0.0000000000000000e+00  -9.8116415561355182e-21 4.7916864455643124e-08 0.0000000000000000e+00  -5.6553233323131055e-21 4.7916864455646446e-08 0.0000000000000000e+00  -4.4074604462505383e-21 4.7916864455656657e-08 0.0000000000000000e+00  2.0210020130888971e-21 4.7916864455648246e-08 0.0000000000000000e+00  2.1693193721207642e-21 4.7916864455651740e-08 0.0000000000000000e+00  -5.6352305256473643e-21 4.7916864455642853e-08 0.0000000000000000e+00  5.5654895871705798e-18 4.7916864455647929e-08 0.0000000000000000e+00  -7.3162325566725808e-14 4.7916864455649629e-08 0.0000000000000000e+00  9.4511836847654891e-10 4.7916864455644408e-08 0.0000000000000000e+00  -9.2421272736655990e-10 5.3525790458225844e-08 0.0000000000000000e+00  7.1599905043556220e-14 5.3525790458225632e-08 0.0000000000000000e+00  -5.4853197416590227e-18 5.3525790458227803e-08 0.0000000000000000e+00  -3.4704120756015047e-21 5.3525790458235413e-08 0.0000000000000000e+00  -8.0964335375400625e-22 5.3525790458238774e-08 0.0000000000000000e+00  -1.7255433685650024e-21 5.3525790458227002e-08 0.0000000000000000e+00  -1.2674953522208442e-20 5.3525790458226208e-08 0.0000000000000000e+00  -1.0682474865711810e-20 5.3525790458240415e-08 0.0000000000000000e+00  -1.2678977675000372e-21 5.3525790458235406e-08 0.0000000000000000e+00  -2.6735207772681635e-21 5.3525790458235208e-08 0.0000000000000000e+00  -2.4144165507302144e-21 5.3525790458241024e-08 0.0000000000000000e+00  -4.0248419409223349e-21 5.3525790458231647e-08 0.0000000000000000e+00  -3.2525069015423691e-21 5.3525790458232084e-08 0.0000000000000000e+00  5.4897141659910681e-18 5.3525790458236207e-08 0.0000000000000000e+00  -7.1599914300965867e-14 5.3525790458230198e-08 0.0000000000000000e+00  9.2421272737274587e-10 5.3525790458230436e-08 0.0000000000000000e+00  -9.0101624026345574e-10 5.9002388815566460e-08 0.0000000000000000e+00  6.9861933153886975e-14 5.9002388815564766e-08 0.0000000000000000e+00  -5.3931020910663463e-18 5.9002388815563535e-08 0.0000000000000000e+00  4.3653327744137687e-21 5.9002388815568611e-08 0.0000000000000000e+00  -7.3183599669731791e-21 5.9002388815571476e-08 0.0000000000000000e+00  -7.8884197830816888e-21 5.9002388815566771e-08 0.0000000000000000e+00  2.6074157261261948e-21 5.9002388815571370e-08 0.0000000000000000e+00  -2.8582654551296176e-21 5.9002388815572707e-08 0.0000000000000000e+00  -6.6519648077372973e-21 5.9002388815576849e-08 0.0000000000000000e+00  -1.1656263690257226e-21 5.9002388815573216e-08 0.0000000000000000e+00  -6.1200531382861178e-21 5.9002388815563932e-08 0.0000000000000000e+00  -3.7879060654760897e-21 5.9002388815561848e-08 0.0000000000000000e+00  -3.7494955176566339e-22 5.9002388815571198e-08 0.0000000000000000e+00  5.3897613223470719e-18 5.9002388815564925e-08 0.0000000000000000e+00  -6.9861942944943658e-14 5.9002388815567830e-08 0.0000000000000000e+00  9.0101624025606168e-10 5.9002388815566619e-08 0.0000000000000000e+00  -8.7558451638777192e-10 6.4333079036276588e-08 0.0000000000000000e+00  6.7951357051613634e-14 6.4333079036277011e-08 0.0000000000000000e+00  -5.2904065435044116e-18 6.4333079036268369e-08 0.0000000000000000e+00  7.9172378018121913e-21 6.4333079036259793e-08 0.0000000000000000e+00  1.3877212362076410e-21 6.4333079036267350e-08 0.0000000000000000e+00  -7.6992913913553754e-21 6.4333079036285323e-08 0.0000000000000000e+00  -7.7784367635316961e-21 6.4333079036267337e-08 0.0000000000000000e+00  -7.7580720380528429e-21 6.4333079036259277e-08 0.0000000000000000e+00  -1.1754141610353510e-21 6.4333079036259435e-08 0.0000000000000000e+00  -9.0801125618207594e-21 6.4333079036262030e-08 0.0000000000000000e+00  -8.2342654561811154e-21 6.4333079036265934e-08 0.0000000000000000e+00  -1.0229574820107998e-21 6.4333079036269057e-08 0.0000000000000000e+00  -1.4994561052300891e-21 6.4333079036259991e-08 0.0000000000000000e+00  5.2907234823164148e-18 6.4333079036266199e-08 0.0000000000000000e+00  -6.7951366226852665e-14 6.4333079036273372e-08 0.0000000000000000e+00  8.7558451638249513e-10 6.4333079036272604e-08 0.0000000000000000e+00  -8.4797868729733206e-10 6.9504630892022990e-08 0.0000000000000000e+00  6.5871564515679330e-14 6.9504630892023401e-08 0.0000000000000000e+00  -5.1820699229219166e-18 6.9504630892036993e-08 0.0000000000000000e+00  -2.5427826088296506e-22 6.9504630892027133e-08 0.0000000000000000e+00  1.0111737177252872e-20 6.9504630892018332e-08 0.0000000000000000e+00  -4.9070435438399164e-21 6.9504630892005904e-08 0.0000000000000000e+00  -1.6693024094629503e-20 6.9504630892025650e-08 0.0000000000000000e+00  -5.1735271787131435e-21 6.9504630892019470e-08 0.0000000000000000e+00  -4.5159332150981498e-21 6.9504630892016717e-08 0.0000000000000000e+00  -2.7698693666894904e-21 6.9504630892018451e-08 0.0000000000000000e+00  -4.2728565807566346e-21 6.9504630892021455e-08 0.0000000000000000e+00  -6.1064409737443798e-21 6.9504630892020926e-08 0.0000000000000000e+00  -2.8186932449497216e-22 6.9504630892025796e-08 0.0000000000000000e+00  5.1763312495552509e-18 6.9504630892019986e-08 0.0000000000000000e+00  -6.5871571296980246e-14 6.9504630892016307e-08 0.0000000000000000e+00  8.4797868728667291e-10 6.9504630892019060e-08 0.0000000000000000e+00  -8.1826529883442151e-10 7.4504197232771473e-08 0.0000000000000000e+00  6.3626358329888064e-14 7.4504197232769951e-08 0.0000000000000000e+00  -5.0366626467164643e-18 7.4504197232780248e-08 0.0000000000000000e+00  -5.5291463492221756e-21 7.4504197232791656e-08 0.0000000000000000e+00  -1.2210778554317728e-20 7.4504197232789539e-08 0.0000000000000000e+00  2.0925996872872417e-21 7.4504197232782127e-08 0.0000000000000000e+00  -9.2630103755294697e-21 7.4504197232784020e-08 0.0000000000000000e+00  -1.9659006001097079e-20 7.4504197232773458e-08 0.0000000000000000e+00  -3.0385510232240851e-21 7.4504197232774424e-08 0.0000000000000000e+00  1.2447359372732255e-21 7.4504197232775642e-08 0.0000000000000000e+00  -4.6158127732514235e-21 7.4504197232770110e-08 0.0000000000000000e+00  3.0609637518405411e-21 7.4504197232770560e-08 0.0000000000000000e+00  -6.0767244377056763e-21 7.4504197232772267e-08 0.0000000000000000e+00  5.0296775750960704e-18 7.4504197232764525e-08 0.0000000000000000e+00  -6.3626356965513635e-14 7.4504197232765081e-08 0.0000000000000000e+00  8.1826529883066115e-10 7.4504197232763942e-08 0.0000000000000000e+00  -7.8651618931593515e-10 7.9319346112876148e-08 0.0000000000000000e+00  6.1219982779407985e-14 7.9319346112874348e-08 0.0000000000000000e+00  -4.8776469803733397e-18 7.9319346112865057e-08 0.0000000000000000e+00  7.7326136001428907e-22 7.9319346112871344e-08 0.0000000000000000e+00  -2.7759276734796526e-21 7.9319346112879285e-08 0.0000000000000000e+00  -1.0031009140262639e-20 7.9319346112879642e-08 0.0000000000000000e+00  -1.8296924432048599e-20 7.9319346112866328e-08 0.0000000000000000e+00  -9.7398777412967091e-21 7.9319346112883771e-08 0.0000000000000000e+00  -3.1940827517876380e-21 7.9319346112882302e-08 0.0000000000000000e+00  -4.0733873560874217e-21 7.9319346112878980e-08 0.0000000000000000e+00  -1.2214411511592676e-20 7.9319346112884446e-08 0.0000000000000000e+00  -3.4677589333650424e-21 7.9319346112876095e-08 0.0000000000000000e+00  -4.9759253669657395e-21 7.9319346112866129e-08 0.0000000000000000e+00  4.8904170062386987e-18 7.9319346112871053e-08 0.0000000000000000e+00  -6.1219982567220557e-14 7.9319346112876307e-08 0.0000000000000000e+00  7.8651618930631297e-10 7.9319346112874930e-08 0.0000000000000000e+00  -7.5280835331203521e-10 8.3938092143131492e-08 0.0000000000000000e+00  5.8657165119035966e-14 8.3938092143130883e-08 0.0000000000000000e+00  -4.7205146640743164e-18 8.3938092143125973e-08 0.0000000000000000e+00  5.0785558471965194e-21 8.3938092143126145e-08 0.0000000000000000e+00  -1.6676623947503504e-21 8.3938092143121446e-08 0.0000000000000000e+00  -1.1789449768976346e-20 8.3938092143124464e-08 0.0000000000000000e+00  -5.5473913605791446e-21 8.3938092143131968e-08 0.0000000000000000e+00  -4.9239994236156031e-21 8.3938092143138083e-08 0.0000000000000000e+00  -9.8517673532893531e-21 8.3938092143140584e-08 0.0000000000000000e+00  -6.4417074070013674e-22 8.3938092143134165e-08 0.0000000000000000e+00  -7.3188201085530597e-21 8.3938092143131081e-08 0.0000000000000000e+00  -1.3118100867842503e-20 8.3938092143131505e-08 0.0000000000000000e+00  -9.7225357741305165e-21 8.3938092143127045e-08 0.0000000000000000e+00  4.7272651605427426e-18 8.3938092143130962e-08 0.0000000000000000e+00  -5.8657172650841780e-14 8.3938092143125470e-08 0.0000000000000000e+00  7.5280835330584117e-10 8.3938092143135502e-08 0.0000000000000000e+00  -7.1722379019185799e-10 8.8348926980156485e-08 0.0000000000000000e+00  5.5943143422271735e-14 8.8348926980157796e-08 0.0000000000000000e+00  -4.5495325863765342e-18 8.8348926980149312e-08 0.0000000000000000e+00  -1.9072535213059814e-21 8.8348926980136117e-08 0.0000000000000000e+00  8.5088917636431952e-22 8.8348926980137639e-08 0.0000000000000000e+00  -8.6990428059219334e-22 8.8348926980155506e-08 0.0000000000000000e+00  -5.6409629048210436e-21 8.8348926980147658e-08 0.0000000000000000e+00  -9.3492598411680139e-22 8.8348926980148518e-08 0.0000000000000000e+00  -3.8867920028905073e-21 8.8348926980156247e-08 0.0000000000000000e+00  -1.1133454982249954e-20 8.8348926980157809e-08 0.0000000000000000e+00  -1.1632096230554889e-20 8.8348926980149246e-08 0.0000000000000000e+00  -1.4623808609121029e-20 8.8348926980153005e-08 0.0000000000000000e+00  -7.9301134180136193e-21 8.8348926980150450e-08 0.0000000000000000e+00  4.5499368793595730e-18 8.8348926980147380e-08 0.0000000000000000e+00  -5.5943146053623547e-14 8.8348926980152661e-08 0.0000000000000000e+00  7.1722379019625755e-10 8.8348926980157690e-08 0.0000000000000000e+00  -6.7984933729799420e-10 9.2540848861052533e-08 0.0000000000000000e+00  5.3083611475538795e-14 9.2540848861047239e-08 0.0000000000000000e+00  -4.3614737745277035e-18 9.2540848861057350e-08 0.0000000000000000e+00  -9.8566953664970928e-22 9.2540848861057072e-08 0.0000000000000000e+00  1.0525919073211741e-20 9.2540848861059481e-08 0.0000000000000000e+00  -1.5087997086039434e-21 9.2540848861052096e-08 0.0000000000000000e+00  -1.3635706782124363e-20 9.2540848861048867e-08 0.0000000000000000e+00  7.1919085163693922e-22 9.2540848861034136e-08 0.0000000000000000e+00  -1.9951278755997108e-21 9.2540848861032019e-08 0.0000000000000000e+00  -1.3769670770974322e-20 9.254084886