<?xml version="1.0"?>
<VTKFile type="UnstructuredGrid"  version="0.1"  >
<UnstructuredGrid>
<Piece  NumberOfPoints="1876" NumberOfCells="3600">
<Points>
<DataArray  type="Float64"  NumberOfComponents="3"  format="ascii">-0.75 -3 0  -0.65 -3 0  -0.55 -3 0  -0.45 -3 0  -0.35 -3 0  -0.25 -3 0  -0.15 -3 0  -0.05000000000000004 -3 0  0.05000000000000004 -3 0  0.15 -3 0  0.25 -3 0  0.3500000000000001 -3 0  0.45 -3 0  0.55 -3 0  0.6499999999999999 -3 0  0.75 -3 0  -0.75 -2.95 0  -0.65 -2.95 0  -0.55 -2.95 0  -0.45 -2.95 0  -0.35 -2.95 0  -0.25 -2.95 0  -0.15 -2.95 0  -0.05000000000000004 -2.95 0  0.05000000000000004 -2.95 0  0.15 -2.95 0  0.25 -2.95 0  0.3500000000000001 -2.95 0  0.45 -2.95 0  0.55 -2.95 0  0.6499999999999999 -2.95 0  0.75 -2.95 0  -0.75 -2.9 0  -0.65 -2.9 0  -0.55 -2.9 0  -0.45 -2.9 0  -0.35 -2.9 0  -0.25 -2.9 0  -0.15 -2.9 0  -0.05000000000000004 -2.9 0  0.05000000000000004 -2.9 0  0.15 -2.9 0  0.25 -2.9 0  0.3500000000000001 -2.9 0  0.45 -2.9 0  0.55 -2.9 0  0.6499999999999999 -2.9 0  0.75 -2.9 0  -0.75 -2.85 0  -0.65 -2.85 0  -0.55 -2.85 0  -0.45 -2.85 0  -0.35 -2.85 0  -0.25 -2.85 0  -0.15 -2.85 0  -0.05000000000000004 -2.85 0  0.05000000000000004 -2.85 0  0.15 -2.85 0  0.25 -2.85 0  0.3500000000000001 -2.85 0  0.45 -2.85 0  0.55 -2.85 0  0.6499999999999999 -2.85 0  0.75 -2.85 0  -0.75 -2.8 0  -0.65 -2.8 0  -0.55 -2.8 0  -0.45 -2.8 0  -0.35 -2.8 0  -0.25 -2.8 0  -0.15 -2.8 0  -0.05000000000000004 -2.8 0  0.05000000000000004 -2.8 0  0.15 -2.8 0  0.25 -2.8 0  0.3500000000000001 -2.8 0  0.45 -2.8 0  0.55 -2.8 0  0.6499999999999999 -2.8 0  0.75 -2.8 0  -0.75 -2.75 0  -0.65 -2.75 0  -0.55 -2.75 0  -0.45 -2.75 0  -0.35 -2.75 0  -0.25 -2.75 0  -0.15 -2.75 0  -0.05000000000000004 -2.75 0  0.05000000000000004 -2.75 0  0.15 -2.75 0  0.25 -2.75 0  0.3500000000000001 -2.75 0  0.45 -2.75 0  0.55 -2.75 0  0.6499999999999999 -2.75 0  0.75 -2.75 0  -0.75 -2.7 0  -0.65 -2.7 0  -0.55 -2.7 0  -0.45 -2.7 0  -0.35 -2.7 0  -0.25 -2.7 0  -0.15 -2.7 0  -0.05000000000000004 -2.7 0  0.05000000000000004 -2.7 0  0.15 -2.7 0  0.25 -2.7 0  0.3500000000000001 -2.7 0  0.45 -2.7 0  0.55 -2.7 0  0.6499999999999999 -2.7 0  0.75 -2.7 0  -0.75 -2.65 0  -0.65 -2.65 0  -0.55 -2.65 0  -0.45 -2.65 0  -0.35 -2.65 0  -0.25 -2.65 0  -0.15 -2.65 0  -0.05000000000000004 -2.65 0  0.05000000000000004 -2.65 0  0.15 -2.65 0  0.25 -2.65 0  0.3500000000000001 -2.65 0  0.45 -2.65 0  0.55 -2.65 0  0.6499999999999999 -2.65 0  0.75 -2.65 0  -0.75 -2.6 0  -0.65 -2.6 0  -0.55 -2.6 0  -0.45 -2.6 0  -0.35 -2.6 0  -0.25 -2.6 0  -0.15 -2.6 0  -0.05000000000000004 -2.6 0  0.05000000000000004 -2.6 0  0.15 -2.6 0  0.25 -2.6 0  0.3500000000000001 -2.6 0  0.45 -2.6 0  0.55 -2.6 0  0.6499999999999999 -2.6 0  0.75 -2.6 0  -0.75 -2.55 0  -0.65 -2.55 0  -0.55 -2.55 0  -0.45 -2.55 0  -0.35 -2.55 0  -0.25 -2.55 0  -0.15 -2.55 0  -0.05000000000000004 -2.55 0  0.05000000000000004 -2.55 0  0.15 -2.55 0  0.25 -2.55 0  0.3500000000000001 -2.55 0  0.45 -2.55 0  0.55 -2.55 0  0.6499999999999999 -2.55 0  0.75 -2.55 0  -0.75 -2.5 0  -0.65 -2.5 0  -0.55 -2.5 0  -0.45 -2.5 0  -0.35 -2.5 0  -0.25 -2.5 0  -0.15 -2.5 0  -0.05000000000000004 -2.5 0  0.05000000000000004 -2.5 0  0.15 -2.5 0  0.25 -2.5 0  0.3500000000000001 -2.5 0  0.45 -2.5 0  0.55 -2.5 0  0.6499999999999999 -2.5 0  0.75 -2.5 0  -0.75 -2.45 0  -0.65 -2.45 0  -0.55 -2.45 0  -0.45 -2.45 0  -0.35 -2.45 0  -0.25 -2.45 0  -0.15 -2.45 0  -0.05000000000000004 -2.45 0  0.05000000000000004 -2.45 0  0.15 -2.45 0  0.25 -2.45 0  0.3500000000000001 -2.45 0  0.45 -2.45 0  0.55 -2.45 0  0.6499999999999999 -2.45 0  0.75 -2.45 0  -0.75 -2.4 0  -0.65 -2.4 0  -0.55 -2.4 0  -0.45 -2.4 0  -0.35 -2.4 0  -0.25 -2.4 0  -0.15 -2.4 0  -0.05000000000000004 -2.4 0  0.05000000000000004 -2.4 0  0.15 -2.4 0  0.25 -2.4 0  0.3500000000000001 -2.4 0  0.45 -2.4 0  0.55 -2.4 0  0.6499999999999999 -2.4 0  0.75 -2.4 0  -0.75 -2.35 0  -0.65 -2.35 0  -0.55 -2.35 0  -0.45 -2.35 0  -0.35 -2.35 0  -0.25 -2.35 0  -0.15 -2.35 0  -0.05000000000000004 -2.35 0  0.05000000000000004 -2.35 0  0.15 -2.35 0  0.25 -2.35 0  0.3500000000000001 -2.35 0  0.45 -2.35 0  0.55 -2.35 0  0.6499999999999999 -2.35 0  0.75 -2.35 0  -0.75 -2.3 0  -0.65 -2.3 0  -0.55 -2.3 0  -0.45 -2.3 0  -0.35 -2.3 0  -0.25 -2.3 0  -0.15 -2.3 0  -0.05000000000000004 -2.3 0  0.05000000000000004 -2.3 0  0.15 -2.3 0  0.25 -2.3 0  0.3500000000000001 -2.3 0  0.45 -2.3 0  0.55 -2.3 0  0.6499999999999999 -2.3 0  0.75 -2.3 0  -0.75 -2.25 0  -0.65 -2.25 0  -0.55 -2.25 0  -0.45 -2.25 0  -0.35 -2.25 0  -0.25 -2.25 0  -0.15 -2.25 0  -0.05000000000000004 -2.25 0  0.05000000000000004 -2.25 0  0.15 -2.25 0  0.25 -2.25 0  0.3500000000000001 -2.25 0  0.45 -2.25 0  0.55 -2.25 0  0.6499999999999999 -2.25 0  0.75 -2.25 0  -0.75 -2.2 0  -0.65 -2.2 0  -0.55 -2.2 0  -0.45 -2.2 0  -0.35 -2.2 0  -0.25 -2.2 0  -0.15 -2.2 0  -0.05000000000000004 -2.2 0  0.05000000000000004 -2.2 0  0.15 -2.2 0  0.25 -2.2 0  0.3500000000000001 -2.2 0  0.45 -2.2 0  0.55 -2.2 0  0.6499999999999999 -2.2 0  0.75 -2.2 0  -0.75 -2.15 0  -0.65 -2.15 0  -0.55 -2.15 0  -0.45 -2.15 0  -0.35 -2.15 0  -0.25 -2.15 0  -0.15 -2.15 0  -0.05000000000000004 -2.15 0  0.05000000000000004 -2.15 0  0.15 -2.15 0  0.25 -2.15 0  0.3500000000000001 -2.15 0  0.45 -2.15 0  0.55 -2.15 0  0.6499999999999999 -2.15 0  0.75 -2.15 0  -0.75 -2.1 0  -0.65 -2.1 0  -0.55 -2.1 0  -0.45 -2.1 0  -0.35 -2.1 0  -0.25 -2.1 0  -0.15 -2.1 0  -0.05000000000000004 -2.1 0  0.05000000000000004 -2.1 0  0.15 -2.1 0  0.25 -2.1 0  0.3500000000000001 -2.1 0  0.45 -2.1 0  0.55 -2.1 0  0.6499999999999999 -2.1 0  0.75 -2.1 0  -0.75 -2.05 0  -0.65 -2.05 0  -0.55 -2.05 0  -0.45 -2.05 0  -0.35 -2.05 0  -0.25 -2.05 0  -0.15 -2.05 0  -0.05000000000000004 -2.05 0  0.05000000000000004 -2.05 0  0.15 -2.05 0  0.25 -2.05 0  0.3500000000000001 -2.05 0  0.45 -2.05 0  0.55 -2.05 0  0.6499999999999999 -2.05 0  0.75 -2.05 0  -0.75 -2 0  -0.65 -2 0  -0.55 -2 0  -0.45 -2 0  -0.35 -2 0  -0.25 -2 0  -0.15 -2 0  -0.05000000000000004 -2 0  0.05000000000000004 -2 0  0.15 -2 0  0.25 -2 0  0.3500000000000001 -2 0  0.45 -2 0  0.55 -2 0  0.6499999999999999 -2 0  0.75 -2 0  -0.75 -1.95 0  -0.65 -1.95 0  -0.55 -1.95 0  -0.45 -1.95 0  -0.35 -1.95 0  -0.25 -1.95 0  -0.15 -1.95 0  -0.05000000000000004 -1.95 0  0.05000000000000004 -1.95 0  0.15 -1.95 0  0.25 -1.95 0  0.3500000000000001 -1.95 0  0.45 -1.95 0  0.55 -1.95 0  0.6499999999999999 -1.95 0  0.75 -1.95 0  -0.75 -1.9 0  -0.65 -1.9 0  -0.55 -1.9 0  -0.45 -1.9 0  -0.35 -1.9 0  -0.25 -1.9 0  -0.15 -1.9 0  -0.05000000000000004 -1.9 0  0.05000000000000004 -1.9 0  0.15 -1.9 0  0.25 -1.9 0  0.3500000000000001 -1.9 0  0.45 -1.9 0  0.55 -1.9 0  0.6499999999999999 -1.9 0  0.75 -1.9 0  -0.75 -1.85 0  -0.65 -1.85 0  -0.55 -1.85 0  -0.45 -1.85 0  -0.35 -1.85 0  -0.25 -1.85 0  -0.15 -1.85 0  -0.05000000000000004 -1.85 0  0.05000000000000004 -1.85 0  0.15 -1.85 0  0.25 -1.85 0  0.3500000000000001 -1.85 0  0.45 -1.85 0  0.55 -1.85 0  0.6499999999999999 -1.85 0  0.75 -1.85 0  -0.75 -1.8 0  -0.65 -1.8 0  -0.55 -1.8 0  -0.45 -1.8 0  -0.35 -1.8 0  -0.25 -1.8 0  -0.15 -1.8 0  -0.05000000000000004 -1.8 0  0.05000000000000004 -1.8 0  0.15 -1.8 0  0.25 -1.8 0  0.3500000000000001 -1.8 0  0.45 -1.8 0  0.55 -1.8 0  0.6499999999999999 -1.8 0  0.75 -1.8 0  -0.75 -1.75 0  -0.65 -1.75 0  -0.55 -1.75 0  -0.45 -1.75 0  -0.35 -1.75 0  -0.25 -1.75 0  -0.15 -1.75 0  -0.05000000000000004 -1.75 0  0.05000000000000004 -1.75 0  0.15 -1.75 0  0.25 -1.75 0  0.3500000000000001 -1.75 0  0.45 -1.75 0  0.55 -1.75 0  0.6499999999999999 -1.75 0  0.75 -1.75 0  -0.75 -1.7 0  -0.65 -1.7 0  -0.55 -1.7 0  -0.45 -1.7 0  -0.35 -1.7 0  -0.25 -1.7 0  -0.15 -1.7 0  -0.05000000000000004 -1.7 0  0.05000000000000004 -1.7 0  0.15 -1.7 0  0.25 -1.7 0  0.3500000000000001 -1.7 0  0.45 -1.7 0  0.55 -1.7 0  0.6499999999999999 -1.7 0  0.75 -1.7 0  -0.75 -1.65 0  -0.65 -1.65 0  -0.55 -1.65 0  -0.45 -1.65 0  -0.35 -1.65 0  -0.25 -1.65 0  -0.15 -1.65 0  -0.05000000000000004 -1.65 0  0.05000000000000004 -1.65 0  0.15 -1.65 0  0.25 -1.65 0  0.3500000000000001 -1.65 0  0.45 -1.65 0  0.55 -1.65 0  0.6499999999999999 -1.65 0  0.75 -1.65 0  -0.75 -1.6 0  -0.65 -1.6 0  -0.55 -1.6 0  -0.45 -1.6 0  -0.35 -1.6 0  -0.25 -1.6 0  -0.15 -1.6 0  -0.05000000000000004 -1.6 0  0.05000000000000004 -1.6 0  0.15 -1.6 0  0.25 -1.6 0  0.3500000000000001 -1.6 0  0.45 -1.6 0  0.55 -1.6 0  0.6499999999999999 -1.6 0  0.75 -1.6 0  -0.75 -1.55 0  -0.65 -1.55 0  -0.55 -1.55 0  -0.45 -1.55 0  -0.35 -1.55 0  -0.25 -1.55 0  -0.15 -1.55 0  -0.05000000000000004 -1.55 0  0.05000000000000004 -1.55 0  0.15 -1.55 0  0.25 -1.55 0  0.3500000000000001 -1.55 0  0.45 -1.55 0  0.55 -1.55 0  0.6499999999999999 -1.55 0  0.75 -1.55 0  -0.75 -1.5 0  -0.65 -1.5 0  -0.55 -1.5 0  -0.45 -1.5 0  -0.35 -1.5 0  -0.25 -1.5 0  -0.15 -1.5 0  -0.05000000000000004 -1.5 0  0.05000000000000004 -1.5 0  0.15 -1.5 0  0.25 -1.5 0  0.3500000000000001 -1.5 0  0.45 -1.5 0  0.55 -1.5 0  0.6499999999999999 -1.5 0  0.75 -1.5 0  -0.75 -1.45 0  -0.65 -1.45 0  -0.55 -1.45 0  -0.45 -1.45 0  -0.35 -1.45 0  -0.25 -1.45 0  -0.15 -1.45 0  -0.05000000000000004 -1.45 0  0.05000000000000004 -1.45 0  0.15 -1.45 0  0.25 -1.45 0  0.3500000000000001 -1.45 0  0.45 -1.45 0  0.55 -1.45 0  0.6499999999999999 -1.45 0  0.75 -1.45 0  -0.75 -1.4 0  -0.65 -1.4 0  -0.55 -1.4 0  -0.45 -1.4 0  -0.35 -1.4 0  -0.25 -1.4 0  -0.15 -1.4 0  -0.05000000000000004 -1.4 0  0.05000000000000004 -1.4 0  0.15 -1.4 0  0.25 -1.4 0  0.3500000000000001 -1.4 0  0.45 -1.4 0  0.55 -1.4 0  0.6499999999999999 -1.4 0  0.75 -1.4 0  -0.75 -1.35 0  -0.65 -1.35 0  -0.55 -1.35 0  -0.45 -1.35 0  -0.35 -1.35 0  -0.25 -1.35 0  -0.15 -1.35 0  -0.05000000000000004 -1.35 0  0.05000000000000004 -1.35 0  0.15 -1.35 0  0.25 -1.35 0  0.3500000000000001 -1.35 0  0.45 -1.35 0  0.55 -1.35 0  0.6499999999999999 -1.35 0  0.75 -1.35 0  -0.75 -1.3 0  -0.65 -1.3 0  -0.55 -1.3 0  -0.45 -1.3 0  -0.35 -1.3 0  -0.25 -1.3 0  -0.15 -1.3 0  -0.05000000000000004 -1.3 0  0.05000000000000004 -1.3 0  0.15 -1.3 0  0.25 -1.3 0  0.3500000000000001 -1.3 0  0.45 -1.3 0  0.55 -1.3 0  0.6499999999999999 -1.
[...]
<PointData  Vectors="flow"> 
<DataArray  type="Float64"  Name="flow"  NumberOfComponents="3" format="ascii">4.2333245752386340e-10 6.0644835775511801e-09 0.0000000000000000e+00  1.9132121009921781e-10 2.7407875679329899e-09 0.0000000000000000e+00  -1.7649404159280762e-11 -2.5283797586318567e-10 0.0000000000000000e+00  2.3053014485858506e-12 3.3024783542532300e-11 0.0000000000000000e+00  -3.3131240754735732e-13 -4.7462428616086679e-12 0.0000000000000000e+00  4.9851024156625299e-14 7.1414490419723926e-13 0.0000000000000000e+00  -7.7064484788441025e-15 -1.1039935495274380e-13 0.0000000000000000e+00  1.2127731499273994e-15 1.7373680473378623e-14 0.0000000000000000e+00  -1.9328361451633343e-16 -2.7689001521409721e-15 0.0000000000000000e+00  3.1095969703974597e-17 4.4546784506159121e-16 0.0000000000000000e+00  -5.0394382784257319e-18 -7.2192883244424698e-17 0.0000000000000000e+00  8.2145857696434096e-19 1.1767871707210129e-17 0.0000000000000000e+00  -1.3454172330684010e-19 -1.9273884083026463e-18 0.0000000000000000e+00  2.2138516342728159e-20 3.1714711784001391e-19 0.0000000000000000e+00  -3.7496982049837179e-21 -5.3716606843487884e-20 0.0000000000000000e+00  1.2076013779168424e-21 1.7299591832483203e-20 0.0000000000000000e+00  -8.6337207770697934e-11 -1.2368306973662819e-09 0.0000000000000000e+00  -3.0530511568925023e-11 -4.3736732852227607e-10 0.0000000000000000e+00  1.0614462821987503e-11 1.5205835112428658e-10 0.0000000000000000e+00  -1.7057094692272526e-12 -2.4435279838232350e-11 0.0000000000000000e+00  2.6762195293181374e-13 3.8338400699069260e-12 0.0000000000000000e+00  -4.2267857829648940e-14 -6.0551163774567057e-13 0.0000000000000000e+00  6.7378135754417833e-15 9.6523096801677976e-14 0.0000000000000000e+00  -1.0829964167323195e-15 -1.5514553318770029e-14 0.0000000000000000e+00  1.7528559671675343e-16 2.5110680831981513e-15 0.0000000000000000e+00  -2.8533873431467899e-17 -4.0876432636707654e-16 0.0000000000000000e+00  4.6671794811963233e-18 6.6860059544580127e-17 0.0000000000000000e+00  -7.6647522316084963e-19 -1.0980203196908957e-17 0.0000000000000000e+00  1.2631014825016864e-19 1.8094663098163760e-18 0.0000000000000000e+00  -2.0891513327508989e-20 -2.9928307464524617e-19 0.0000000000000000e+00  3.5546323811839493e-21 5.0922175507193515e-20 0.0000000000000000e+00  -1.1488790592502352e-21 -1.6458360476701103e-20 0.0000000000000000e+00  4.1232490658483977e-12 5.9067940106107507e-11 0.0000000000000000e+00  -7.0019658230438551e-13 -1.0030723132546603e-11 0.0000000000000000e+00  -1.9168503691018905e-12 -2.7459995985273680e-11 0.0000000000000000e+00  6.7369291708227969e-13 9.6510427191322202e-12 0.0000000000000000e+00  -1.4013992125824022e-13 -2.0075858487227038e-12 0.0000000000000000e+00  2.5709980541041510e-14 3.6831041891352631e-13 0.0000000000000000e+00  -4.4996995358856315e-15 -6.4460811955943232e-14 0.0000000000000000e+00  7.7099774255388632e-16 1.1044990916585943e-14 0.0000000000000000e+00  -1.3072790997928026e-16 -1.8727533150520219e-15 0.0000000000000000e+00  2.2046216565032052e-17 3.1582486986185550e-16 0.0000000000000000e+00  -3.7075683731495519e-18 -5.3113072508375154e-17 0.0000000000000000e+00  6.2267001511820973e-19 8.9201099840190375e-18 0.0000000000000000e+00  -1.0452143056357134e-19 -1.4973302610967484e-18 0.0000000000000000e+00  1.7557261861910008e-20 2.5151798388224666e-19 0.0000000000000000e+00  -3.0284034228749509e-21 -4.3383639732348283e-20 0.0000000000000000e+00  9.8933906135989019e-22 1.4172857251109171e-20 0.0000000000000000e+00  -3.7015839722190063e-13 -5.3027342485742254e-12 0.0000000000000000e+00  1.4823915827369545e-13 2.1236121278278329e-12 0.0000000000000000e+00  1.3565161360003637e-13 1.9432882320377359e-12 0.0000000000000000e+00  -1.3660691424317151e-13 -1.9569734691579976e-12 0.0000000000000000e+00  4.7051942123284586e-14 6.7404642669635801e-13 0.0000000000000000e+00  -1.1179968573805098e-14 -1.6015954980148752e-13 0.0000000000000000e+00  2.2928521234615814e-15 3.2846439722147422e-14 0.0000000000000000e+00  -4.3747621961368126e-16 -6.2671011926053159e-15 0.0000000000000000e+00  8.0185331466856808e-17 1.1487014926414878e-15 0.0000000000000000e+00  -1.4345195037316335e-17 -2.0550325913923015e-16 0.0000000000000000e+00  2.5268625136626008e-18 3.6198774614329478e-17 0.0000000000000000e+00  -4.4051360622398752e-19 -6.3106135217204050e-18 0.0000000000000000e+00  7.6251014004837785e-20 1.0923401076041924e-18 0.0000000000000000e+00  -1.3142834597401574e-20 -1.8827874679068375e-19 0.0000000000000000e+00  2.3191736745757794e-21 3.3223511245085712e-20 0.0000000000000000e+00  -7.7125489827859246e-22 -1.1048674821851500e-20 0.0000000000000000e+00  4.0687495841565155e-14 5.8287203345126148e-13 0.0000000000000000e+00  -2.1606100564885063e-14 -3.0951995227835490e-13 0.0000000000000000e+00  -9.0086939068596892e-15 -1.2905477782850174e-13 0.0000000000000000e+00  1.7901308631569522e-14 2.5644665388481060e-13 0.0000000000000000e+00  -1.0399051667480584e-14 -1.4897246109693159e-13 0.0000000000000000e+00  3.4984617116857438e-15 5.0117498009265715e-14 0.0000000000000000e+00  -8.9397460599025963e-16 -1.2806705983488418e-14 0.0000000000000000e+00  1.9818159105393568e-16 2.8390665137029021e-15 0.0000000000000000e+00  -4.0498520255406192e-17 -5.8016484831000697e-16 0.0000000000000000e+00  7.8680411277709042e-18 1.1271426359783470e-16 0.0000000000000000e+00  -1.4785590903773177e-18 -2.1181218597033281e-17 0.0000000000000000e+00  2.7155046049741361e-19 3.8901182248001740e-18 0.0000000000000000e+00  -4.9064073615086668e-20 -7.0287138016031411e-19 0.0000000000000000e+00  8.7667646578362934e-21 1.2558900067970183e-19 0.0000000000000000e+00  -1.5970327273915871e-21 -2.2878422327284215e-20 0.0000000000000000e+00  5.4444601512231536e-22 7.7995057050080804e-21 0.0000000000000000e+00  -4.9627572310262180e-15 -7.1094382658422410e-14 0.0000000000000000e+00  3.0524279255187918e-15 4.3727804700455477e-14 0.0000000000000000e+00  4.3950130394933170e-16 6.2961117030880640e-15 0.0000000000000000e+00  -2.1554554067731500e-15 -3.0878151873773573e-14 0.0000000000000000e+00  1.7533542081054553e-15 2.5117818423092176e-14 0.0000000000000000e+00  -8.2097511641537944e-16 -1.1760945853764547e-14 0.0000000000000000e+00  2.7083954496642609e-16 3.8799339464957923e-15 0.0000000000000000e+00  -7.2199115557704328e-17 -1.0342943065940933e-15 0.0000000000000000e+00  1.6910626781224673e-17 2.4225456040080071e-16 0.0000000000000000e+00  -3.6468560830931498e-18 -5.2243333655474147e-17 0.0000000000000000e+00  7.4406988345499426e-19 1.0659233679262281e-17 0.0000000000000000e+00  -1.4604183315959143e-19 -2.0921341680536881e-18 0.0000000000000000e+00  2.7872276053169368e-20 3.9928655927331149e-19 0.0000000000000000e+00  -5.2147568149326727e-21 -7.4704423209268373e-20 0.0000000000000000e+00  9.8955117720794699e-22 1.4175895933955765e-20 0.0000000000000000e+00  -3.4819900686691442e-22 -4.9881532146516312e-21 0.0000000000000000e+00  6.4537482576970420e-16 9.2453695970730190e-15 0.0000000000000000e+00  -4.3477415110959262e-16 -6.2283924903141952e-15 0.0000000000000000e+00  1.5543867907962165e-17 2.2267494491407162e-16 0.0000000000000000e+00  2.5324755459425429e-16 3.6279184565130442e-15 0.0000000000000000e+00  -2.6572628677879029e-16 -3.8066835501333774e-15 0.0000000000000000e+00  1.5848297420743554e-16 2.2703607467855961e-15 0.0000000000000000e+00  -6.6273821450893517e-17 -9.4941102357559448e-16 0.0000000000000000e+00  2.1535663284343764e-17 3.0851089728269312e-16 0.0000000000000000e+00  -5.8934357473021855e-18 -8.4426893496236318e-17 0.0000000000000000e+00  1.4363991212286680e-18 2.0577252527368914e-17 0.0000000000000000e+00  -3.2318140616410316e-19 -4.6297615394671704e-18 0.0000000000000000e+00  6.8689201654555730e-20 9.8401274928387170e-19 0.0000000000000000e+00  -1.4003114991781575e-20 -2.0060276360319723e-19 0.0000000000000000e+00  2.7697455161532479e-21 3.9678214836056001e-20 0.0000000000000000e+00  -5.5229467512133097e-22 -7.9119423226684034e-21 0.0000000000000000e+00  2.0191032408567607e-22 2.8924827822506273e-21 0.0000000000000000e+00  -8.7668008406840247e-17 -1.2558951902003226e-15 0.0000000000000000e+00  6.2846093604882579e-17 9.0030682931646229e-16 0.0000000000000000e+00  -1.0366869982258186e-17 -1.4851143974584017e-16 0.0000000000000000e+00  -2.9374636024113816e-17 -4.2080873932218893e-16 0.0000000000000000e+00  3.8417963230450859e-17 5.5035965930134366e-16 0.0000000000000000e+00  -2.7525470318332289e-17 -3.9431836549052901e-16 0.0000000000000000e+00  1.3910171579098531e-17 1.9927129517964475e-16 0.0000000000000000e+00  -5.4305902590026116e-18 -7.7796362780130723e-17 0.0000000000000000e+00  1.7443026050735358e-18 2.4988148947100050e-17 0.0000000000000000e+00  -4.8565544092027308e-19 -6.9572965489974282e-18 0.0000000000000000e+00  1.2191876969020732e-19 1.7465572588178607e-18 0.0000000000000000e+00  -2.8372063365056037e-20 -4.0644630309010672e-19 0.0000000000000000e+00  6.2398817681280883e-21 8.9389934166672454e-20 0.0000000000000000e+00  -1.3163564462925167e-21 -1.8857571416655657e-20 0.0000000000000000e+00  2.7811959752951417e-22 3.9842249320507304e-21 0.0000000000000000e+00  -1.0628540535243339e-22 -1.5226002255139358e-21 0.0000000000000000e+00  1.2291987998819912e-17 1.7608987458774663e-16 0.0000000000000000e+00  -9.2189656078760238e-18 -1.3206704219655029e-16 0.0000000000000000e+00  2.4239490470834014e-18 3.4724479372171885e-17 0.0000000000000000e+00  3.3517516916145341e-18 4.8015791675222160e-17 0.0000000000000000e+00  -5.4305397833148386e-18 -7.7795639686556915e-17 0.0000000000000000e+00  4.5068241502116022e-18 6.4562876198380340e-17 0.0000000000000000e+00  -2.6466545659092087e-18 -3.7914865409304137e-17 0.0000000000000000e+00  1.2062693844910739e-18 1.7280510252244278e-17 0.0000000000000000e+00  -4.4980178195383356e-19 -6.4436720391526170e-18 0.0000000000000000e+00  1.4317469363751476e-19 2.0510607274583587e-18 0.0000000000000000e+00  -4.0343031087632019e-20 -5.7793737558096310e-19 0.0000000000000000e+00  1.0358651730929379e-20 1.4839370851750057e-19 0.0000000000000000e+00  -2.4772122904087028e-21 -3.5487506299808539e-20 0.0000000000000000e+00  5.6159641887019206e-22 8.0451952098613877e-21 0.0000000000000000e+00  -1.2667193751667770e-22 -1.8146491514017150e-21 0.0000000000000000e+00  5.0879543151351950e-23 7.2887903677285863e-22 0.0000000000000000e+00  -1.7654389457246746e-18 -2.5290939315497803e-17 0.0000000000000000e+00  1.3703598102797359e-18 1.9631201003077262e-17 0.0000000000000000e+00  -4.6593876357495806e-19 -6.6748436828413259e-18 0.0000000000000000e+00  -3.7128939690232652e-19 -5.3189364765542482e-18 0.0000000000000000e+00  7.5886056609440009e-19 1.0871118807305846e-17 0.0000000000000000e+00  -7.1291891672467425e-19 -1.0212977969823269e-17 0.0000000000000000e+00  4.7291366171936749e-19 6.7747631539332849e-18 0.0000000000000000e+00  -2.4499080035731807e-19 -3.5096356516304288e-18 0.0000000000000000e+00  1.0408010541277207e-19 1.4910080217271587e-18 0.0000000000000000e+00  -3.7559817197371332e-20 -5.3806621845536818e-19 0.0000000000000000e+00  1.1869799355686569e-20 1.7004177681634769e-19 0.0000000000000000e+00  -3.3737201423231938e-21 -4.8330502503978928e-20 0.0000000000000000e+00  8.8174388116111449e-22 1.2631493739424378e-20 0.0000000000000000e+00  -2.1605657959459812e-22 -3.0951361169830899e-21 0.0000000000000000e+00  5.2359973921693168e-23 7.5008706827356027e-22 0.0000000000000000e+00  -2.2204752281932260e-23 -3.1809598617837936e-22 0.0000000000000000e+00  2.5840295199614586e-19 3.7017725216192278e-18 0.0000000000000000e+00  -2.0606906089385225e-19 -2.9520591048979941e-18 0.0000000000000000e+00  8.2909933794057250e-20 1.1877330050497611e-18 0.0000000000000000e+00  3.8856385566268648e-20 5.5664031415863663e-19 0.0000000000000000e+00  -1.0536255142725553e-19 -1.5093798064927791e-18 0.0000000000000000e+00  1.1044232651257483e-19 1.5821505379475877e-18 0.0000000000000000e+00  -8.1091358563657896e-20 -1.1616808575631022e-18 0.0000000000000000e+00  4.6735383817298774e-20 6.6951154491758428e-19 0.0000000000000000e+00  -2.2197632697171535e-20 -3.1799399398738866e-19 0.0000000000000000e+00  8.9634252003353054e-21 1.2840627728852481e-19 0.0000000000000000e+00  -3.1563885751418635e-21 -4.5217101448544074e-20 0.0000000000000000e+00  9.9169738550735702e-22 1.4206641615640325e-20 0.0000000000000000e+00  -2.8374732529772298e-22 -4.0648454042650684e-21 0.0000000000000000e+00  7.5410461955820188e-23 1.0802987108089626e-21 0.0000000000000000e+00  -1.9731203607990946e-23 -2.8266096331447581e-22 0.0000000000000000e+00  8.8638998276442944e-24 1.2698051846113729e-22 0.0000000000000000e+00  -3.8403555485073087e-20 -5.5015325997221321e-19 0.0000000000000000e+00  3.1300894668857599e-20 4.4840351432596295e-19 0.0000000000000000e+00  -1.4205258765566853e-20 -2.0349859068812234e-19 0.0000000000000000e+00  -3.6065571488795277e-21 -5.1666027993250289e-20 0.0000000000000000e+00  1.4565108732839196e-20 2.0865365068439434e-19 0.0000000000000000e+00  -1.6887795375110845e-20 -2.4192748723414670e-19 0.0000000000000000e+00  1.3524561624092692e-20 1.9374720838235163e-19 0.0000000000000000e+00  -8.5286599786516559e-21 -1.2217801271742870e-19 0.0000000000000000e+00  4.4555149345354968e-21 6.3827841852880820e-20 0.0000000000000000e+00  -1.9855792575786916e-21 -2.8444577271359964e-20 0.0000000000000000e+00  7.7165045186770230e-22 1.1054341356988517e-20 0.0000000000000000e+00  -2.6661871990519809e-22 -3.8194681735256417e-21 0.0000000000000000e+00  8.3383580154636158e-23 1.1945182645408385e-21 0.0000000000000000e+00  -2.4059048955408857e-23 -3.4465986410539309e-22 0.0000000000000000e+00  6.8171846140796743e-24 9.7660133076118435e-23 0.0000000000000000e+00  -3.2502795533331708e-24 -4.6562144298912558e-23 0.0000000000000000e+00  5.7797527201357758e-21 8.2798318037294421e-20 0.0000000000000000e+00  -4.7962218431773026e-21 -6.8708666404586922e-20 0.0000000000000000e+00  2.3842182423397272e-21 3.4155312494913592e-20 0.0000000000000000e+00  2.3863084763701410e-22 3.4185256312650058e-21 0.0000000000000000e+00  -2.0054680154129035e-21 -2.8729495290566253e-20 0.0000000000000000e+00  2.5609576597017648e-21 3.6687207404099770e-20 0.0000000000000000e+00  -2.2129834383630941e-21 -3.1702274372829517e-20 0.0000000000000000e+00  1.5074627734550078e-21 2.1595280661588068e-20 0.0000000000000000e+00  -8.5465840429118919e-22 -1.2243478535892420e-20 0.0000000000000000e+00  4.1508570051927328e-22 5.9463439888342656e-21 0.0000000000000000e+00  -1.7618696108348988e-22 -2.5239806518007011e-21 0.0000000000000000e+00  6.6457338515348882e-23 9.5204001221988496e-22 0.0000000000000000e+00  -2.2623783732405235e-23 -3.2409885532934117e-22 0.0000000000000000e+00  7.0773025698278480e-24 1.0138647402358068e-22 0.0000000000000000e+00  -2.1739995246033748e-24 -3.1143807143155429e-23 0.0000000000000000e+00  1.1004415582665849e-24 1.5764465113772521e-23 0.0000000000000000e+00  -8.7908075075094910e-22 -1.2593342847967163e-20 0.0000000000000000e+00  7.4056349086427651e-22 1.0609002566799940e-20 0.0000000000000000e+00  -3.9545836317819988e-22 -5.6651709701807735e-21 0.0000000000000000e+00  6.5935260990238213e-24 9.4456094813946572e-23 0.0000000000000000e+00  2.7484533803485428e-22 3.9373192611504677e-21 0.0000000000000000e+00  -3.8626027724400479e-22 -5.5334030414490037e-21 0.0000000000000000e+00  3.5728456442067012e-22 5.1183091089100767e-21 0.0000000000000000e+00  -2.6028739981957618e-22 -3.7287683322990549e-21 0.0000000000000000e+00  1.5841809144014401e-22 2.2694312634216046e-21 0.0000000000000000e+00  -8.2945684203422698e-23 -1.1882451504490364e-21 0.0000000000000000e+00  3.8075522382677029e-23 5.4545399506346831e-22 0.0000000000000000e+00  -1.5553222080382612e-23 -2.2280894887245879e-22 0.0000000000000000e+00  5.7305504217929514e-24 8.2093466507545822e-23 0.0000000000000000e+00  -1.9374102431436739e-24 -2.7754528134337374e-23 0.0000000000000000e+00  6.4467185354788398e-25 9.2352991112906474e-24 0.0000000000000000e+00  -3.4604674556465866e-25 -4.9573208201821060e-24 0.0000000000000000e+00  1.3491054774889231e-22 1.9326720328678656e-21 0.0000000000000000e+00  -1.1511841772279848e-22 -1.6491382631917293e-21 0.0000000000000000e+00  6.5137484316900551e-23 9.3313233347002511e-22 0.0000000000000000e+00  -7.0992684866842735e-24 -1.0170114855343495e-22 0.0000000000000000e+00  -3.7431872457089331e-23 -5.3623333566434850e-22 0.0000000000000000e+00  5.8046948093898350e-23 8.3155627967073081e-22 0.0000000000000000e+00  -5.7135416096694760e-23 -8.1849805385032677e-22 0.0000000000000000e+00  4.4167359481381935e-23 6.3272310326817040e-22 0.0000000000000000e+00  -2.8604358602766333e-23 -4.0977406742567719e-22 0.0000000000000000e+00  1.5999033034471963e-23 2.2919544998220375e-22 0.0000000000000000e+00  -7.8727389652638476e-24 -1.1278156285122205e-22 0.0000000000000000e+00  3.4553419807475703e-24 4.9499782793965392e-23 0.0000000000000000e+00  -1.3692278684222413e-24 -1.9614985277862881e-23 0.0000000000000000e+00  4.9814089557129725e-25 7.1361579458586113e-24 0.0000000000000000e+00  -1.7914420111214691e-25 -2.5663448345368111e-24 0.0000000000000000e+00  1.0172544682735672e-25 1.4572761685035339e-24 0.0000000000000000e+00  -2.0865049159160980e-23 -2.9890396004751750e-22 0.0000000000000000e+00  1.8001542264505720e-23 2.5788255895199083e-22 0.0000000000000000e+00  -1.0685402760891656e-23 -1.5307460699324002e-22 0.0000000000000000e+00  1.9680973482562452e-24 2.8194138756415827e-23 0.0000000000000000e+00  5.0533808912606690e-24 7.2392619279454911e-23 0.0000000000000000e+00  -8.7009779351175040e-24 -1.2464656762866013e-22 0.0000000000000000e+00  9.0741758165531827e-24 1.2999284425573885e-22 0.0000000000000000e+00  -7.3969000837452747e-24 -1.0596489422295581e-22 0.0000000000000000e+00  5.0610845957590792e-24 7.2502979325293047e-23 0.0000000000000000e+00  -3.0009196671977781e-24 -4.2989918953345064e-23 0.0000000000000000e+00  1.5708236693328356e-24 2.2502962332768150e-23 0.0000000000000000e+00  -7.3542294192550649e-25 -1.0535361214560788e-23 0.0000000000000000e+00  3.1145527514048872e-25 4.4617778950358571e-24 0.0000000000000000e+00  -1.2134790386630075e-25 -1.7383792739916643e-24 0.0000000000000000e+00  4.7007092426242016e-26 6.7340392871081838e-25 0.0000000000000000e+00  -2.8142161819912861e-26 -4.0315282979224140e-25 0.0000000000000000e+00  3.2487300432554803e-24 4.6539946666171873e-23 0.0000000000000000e+00  -2.8299081842962227e-24 -4.0540080035499686e-23 0.0000000000000000e+00  1.7488656428175839e-24 2.5053517115712600e-23 0.0000000000000000e+00  -4.3170376622740905e-25 -6.1844074417695312e-24 0.0000000000000000e+00  -6.7373999653925853e-25 -9.6517171597251382e-24 0.0000000000000000e+00  1.3017030333324619e-24 1.8647652756576667e-23 0.0000000000000000e+00  -1.4339379628774743e-24 -2.0541995003081987e-23 0.0000000000000000e+00  1.2264480980064111e-24 1.7569582055161651e-23 0.0000000000000000e+00  -8.8135369912798825e-25 -1.2625904154949820e-23 0.0000000000000000e+00  5.5046396171918001e-25 7.8857162888143227e-24 0.0000000000000000e+00  -3.0448889181352893e-25 -4.3619804036542911e-24 0.0000000000000000e+00  1.5108283197941415e-25 2.1643494069609183e-24 0.0000000000000000e+00  -6.7979134013946808e-26 -9.7384061750212570e-25 0.0000000000000000e+00  2.8226299179421904e-26 4.0435814638427833e-25 0.0000000000000000e+00  -1.1730980073188030e-26 -1.6805310988567104e-25 0.0000000000000000e+00  7.3754526136043019e-27 1.0565764674372714e-25 0.0000000000000000e+00  -5.0882991849692518e-25 -7.2892844138164703e-24 0.0000000000000000e+00  4.4698289482091914e-25 6.4032898420857749e-24 0.0000000000000000e+00  -2.8590563094567710e-25 -4.0957643875009036e-24 0.0000000000000000e+00  8.5774806587798151e-26 1.2287739734438310e-24 0.0000000000000000e+00  8.8217648453899885e-26 1.2637691034326017e-24 0.0000000000000000e+00  -1.9441850918665421e-25 -2.7851581781157904e-24 0.0000000000000000e+00  2.2576176959960554e-25 3.2341686063571437e-24 0.0000000000000000e+00  -2.0178899753673852e-25 -2.8907447088983999e-24 0.0000000000000000e+00  1.515630756928