<?xml version="1.0"?>
<VTKFile type="UnstructuredGrid"  version="0.1"  >
<UnstructuredGrid>
<Piece  NumberOfPoints="1411" NumberOfCells="2700">
<Points>
<DataArray  type="Float64"  NumberOfComponents="3"  format="ascii">-0.75 -4.5 0  -0.65 -4.5 0  -0.55 -4.5 0  -0.45 -4.5 0  -0.35 -4.5 0  -0.25 -4.5 0  -0.15 -4.5 0  -0.05000000000000004 -4.5 0  0.05000000000000004 -4.5 0  0.15 -4.5 0  0.25 -4.5 0  0.3500000000000001 -4.5 0  0.45 -4.5 0  0.55 -4.5 0  0.6499999999999999 -4.5 0  0.75 -4.5 0  -0.75 -4.4 0  -0.65 -4.4 0  -0.55 -4.4 0  -0.45 -4.4 0  -0.35 -4.4 0  -0.25 -4.4 0  -0.15 -4.4 0  -0.05000000000000004 -4.4 0  0.05000000000000004 -4.4 0  0.15 -4.4 0  0.25 -4.4 0  0.3500000000000001 -4.4 0  0.45 -4.4 0  0.55 -4.4 0  0.6499999999999999 -4.4 0  0.75 -4.4 0  -0.75 -4.3 0  -0.65 -4.3 0  -0.55 -4.3 0  -0.45 -4.3 0  -0.35 -4.3 0  -0.25 -4.3 0  -0.15 -4.3 0  -0.05000000000000004 -4.3 0  0.05000000000000004 -4.3 0  0.15 -4.3 0  0.25 -4.3 0  0.3500000000000001 -4.3 0  0.45 -4.3 0  0.55 -4.3 0  0.6499999999999999 -4.3 0  0.75 -4.3 0  -0.75 -4.2 0  -0.65 -4.2 0  -0.55 -4.2 0  -0.45 -4.2 0  -0.35 -4.2 0  -0.25 -4.2 0  -0.15 -4.2 0  -0.05000000000000004 -4.2 0  0.05000000000000004 -4.2 0  0.15 -4.2 0  0.25 -4.2 0  0.3500000000000001 -4.2 0  0.45 -4.2 0  0.55 -4.2 0  0.6499999999999999 -4.2 0  0.75 -4.2 0  -0.75 -4.1 0  -0.65 -4.1 0  -0.55 -4.1 0  -0.45 -4.1 0  -0.35 -4.1 0  -0.25 -4.1 0  -0.15 -4.1 0  -0.05000000000000004 -4.1 0  0.05000000000000004 -4.1 0  0.15 -4.1 0  0.25 -4.1 0  0.3500000000000001 -4.1 0  0.45 -4.1 0  0.55 -4.1 0  0.6499999999999999 -4.1 0  0.75 -4.1 0  -0.75 -4 0  -0.65 -4 0  -0.55 -4 0  -0.45 -4 0  -0.35 -4 0  -0.25 -4 0  -0.15 -4 0  -0.05000000000000004 -4 0  0.05000000000000004 -4 0  0.15 -4 0  0.25 -4 0  0.3500000000000001 -4 0  0.45 -4 0  0.55 -4 0  0.6499999999999999 -4 0  0.75 -4 0  -0.75 -3.9 0  -0.65 -3.9 0  -0.55 -3.9 0  -0.45 -3.9 0  -0.35 -3.9 0  -0.25 -3.9 0  -0.15 -3.9 0  -0.05000000000000004 -3.9 0  0.05000000000000004 -3.9 0  0.15 -3.9 0  0.25 -3.9 0  0.3500000000000001 -3.9 0  0.45 -3.9 0  0.55 -3.9 0  0.6499999999999999 -3.9 0  0.75 -3.9 0  -0.75 -3.8 0  -0.65 -3.8 0  -0.55 -3.8 0  -0.45 -3.8 0  -0.35 -3.8 0  -0.25 -3.8 0  -0.15 -3.8 0  -0.05000000000000004 -3.8 0  0.05000000000000004 -3.8 0  0.15 -3.8 0  0.25 -3.8 0  0.3500000000000001 -3.8 0  0.45 -3.8 0  0.55 -3.8 0  0.6499999999999999 -3.8 0  0.75 -3.8 0  -0.75 -3.7 0  -0.65 -3.7 0  -0.55 -3.7 0  -0.45 -3.7 0  -0.35 -3.7 0  -0.25 -3.7 0  -0.15 -3.7 0  -0.05000000000000004 -3.7 0  0.05000000000000004 -3.7 0  0.15 -3.7 0  0.25 -3.7 0  0.3500000000000001 -3.7 0  0.45 -3.7 0  0.55 -3.7 0  0.6499999999999999 -3.7 0  0.75 -3.7 0  -0.75 -3.6 0  -0.65 -3.6 0  -0.55 -3.6 0  -0.45 -3.6 0  -0.35 -3.6 0  -0.25 -3.6 0  -0.15 -3.6 0  -0.05000000000000004 -3.6 0  0.05000000000000004 -3.6 0  0.15 -3.6 0  0.25 -3.6 0  0.3500000000000001 -3.6 0  0.45 -3.6 0  0.55 -3.6 0  0.6499999999999999 -3.6 0  0.75 -3.6 0  -0.75 -3.5 0  -0.65 -3.5 0  -0.55 -3.5 0  -0.45 -3.5 0  -0.35 -3.5 0  -0.25 -3.5 0  -0.15 -3.5 0  -0.05000000000000004 -3.5 0  0.05000000000000004 -3.5 0  0.15 -3.5 0  0.25 -3.5 0  0.3500000000000001 -3.5 0  0.45 -3.5 0  0.55 -3.5 0  0.6499999999999999 -3.5 0  0.75 -3.5 0  -0.75 -3.4 0  -0.65 -3.4 0  -0.55 -3.4 0  -0.45 -3.4 0  -0.35 -3.4 0  -0.25 -3.4 0  -0.15 -3.4 0  -0.05000000000000004 -3.4 0  0.05000000000000004 -3.4 0  0.15 -3.4 0  0.25 -3.4 0  0.3500000000000001 -3.4 0  0.45 -3.4 0  0.55 -3.4 0  0.6499999999999999 -3.4 0  0.75 -3.4 0  -0.75 -3.3 0  -0.65 -3.3 0  -0.55 -3.3 0  -0.45 -3.3 0  -0.35 -3.3 0  -0.25 -3.3 0  -0.15 -3.3 0  -0.05000000000000004 -3.3 0  0.05000000000000004 -3.3 0  0.15 -3.3 0  0.25 -3.3 0  0.3500000000000001 -3.3 0  0.45 -3.3 0  0.55 -3.3 0  0.6499999999999999 -3.3 0  0.75 -3.3 0  -0.75 -3.2 0  -0.65 -3.2 0  -0.55 -3.2 0  -0.45 -3.2 0  -0.35 -3.2 0  -0.25 -3.2 0  -0.15 -3.2 0  -0.05000000000000004 -3.2 0  0.05000000000000004 -3.2 0  0.15 -3.2 0  0.25 -3.2 0  0.3500000000000001 -3.2 0  0.45 -3.2 0  0.55 -3.2 0  0.6499999999999999 -3.2 0  0.75 -3.2 0  -0.75 -3.1 0  -0.65 -3.1 0  -0.55 -3.1 0  -0.45 -3.1 0  -0.35 -3.1 0  -0.25 -3.1 0  -0.15 -3.1 0  -0.05000000000000004 -3.1 0  0.05000000000000004 -3.1 0  0.15 -3.1 0  0.25 -3.1 0  0.3500000000000001 -3.1 0  0.45 -3.1 0  0.55 -3.1 0  0.6499999999999999 -3.1 0  0.75 -3.1 0  -0.75 -3 0  -0.65 -3 0  -0.55 -3 0  -0.45 -3 0  -0.35 -3 0  -0.25 -3 0  -0.15 -3 0  -0.05000000000000004 -3 0  0.05000000000000004 -3 0  0.15 -3 0  0.25 -3 0  0.3500000000000001 -3 0  0.45 -3 0  0.55 -3 0  0.6499999999999999 -3 0  0.75 -3 0  -0.75 -2.9 0  -0.65 -2.9 0  -0.55 -2.9 0  -0.45 -2.9 0  -0.35 -2.9 0  -0.25 -2.9 0  -0.15 -2.9 0  -0.05000000000000004 -2.9 0  0.05000000000000004 -2.9 0  0.15 -2.9 0  0.25 -2.9 0  0.3500000000000001 -2.9 0  0.45 -2.9 0  0.55 -2.9 0  0.6499999999999999 -2.9 0  0.75 -2.9 0  -0.75 -2.8 0  -0.65 -2.8 0  -0.55 -2.8 0  -0.45 -2.8 0  -0.35 -2.8 0  -0.25 -2.8 0  -0.15 -2.8 0  -0.05000000000000004 -2.8 0  0.05000000000000004 -2.8 0  0.15 -2.8 0  0.25 -2.8 0  0.3500000000000001 -2.8 0  0.45 -2.8 0  0.55 -2.8 0  0.6499999999999999 -2.8 0  0.75 -2.8 0  -0.75 -2.7 0  -0.65 -2.7 0  -0.55 -2.7 0  -0.45 -2.7 0  -0.35 -2.7 0  -0.25 -2.7 0  -0.15 -2.7 0  -0.05000000000000004 -2.7 0  0.05000000000000004 -2.7 0  0.15 -2.7 0  0.25 -2.7 0  0.3500000000000001 -2.7 0  0.45 -2.7 0  0.55 -2.7 0  0.6499999999999999 -2.7 0  0.75 -2.7 0  -0.75 -2.6 0  -0.65 -2.6 0  -0.55 -2.6 0  -0.45 -2.6 0  -0.35 -2.6 0  -0.25 -2.6 0  -0.15 -2.6 0  -0.05000000000000004 -2.6 0  0.05000000000000004 -2.6 0  0.15 -2.6 0  0.25 -2.6 0  0.3500000000000001 -2.6 0  0.45 -2.6 0  0.55 -2.6 0  0.6499999999999999 -2.6 0  0.75 -2.6 0  -0.75 -2.5 0  -0.65 -2.5 0  -0.55 -2.5 0  -0.45 -2.5 0  -0.35 -2.5 0  -0.25 -2.5 0  -0.15 -2.5 0  -0.05000000000000004 -2.5 0  0.05000000000000004 -2.5 0  0.15 -2.5 0  0.25 -2.5 0  0.3500000000000001 -2.5 0  0.45 -2.5 0  0.55 -2.5 0  0.6499999999999999 -2.5 0  0.75 -2.5 0  -0.75 -2.4 0  -0.65 -2.4 0  -0.55 -2.4 0  -0.45 -2.4 0  -0.35 -2.4 0  -0.25 -2.4 0  -0.15 -2.4 0  -0.05000000000000004 -2.4 0  0.05000000000000004 -2.4 0  0.15 -2.4 0  0.25 -2.4 0  0.3500000000000001 -2.4 0  0.45 -2.4 0  0.55 -2.4 0  0.6499999999999999 -2.4 0  0.75 -2.4 0  -0.75 -2.3 0  -0.65 -2.3 0  -0.55 -2.3 0  -0.45 -2.3 0  -0.35 -2.3 0  -0.25 -2.3 0  -0.15 -2.3 0  -0.05000000000000004 -2.3 0  0.05000000000000004 -2.3 0  0.15 -2.3 0  0.25 -2.3 0  0.3500000000000001 -2.3 0  0.45 -2.3 0  0.55 -2.3 0  0.6499999999999999 -2.3 0  0.75 -2.3 0  -0.75 -2.2 0  -0.65 -2.2 0  -0.55 -2.2 0  -0.45 -2.2 0  -0.35 -2.2 0  -0.25 -2.2 0  -0.15 -2.2 0  -0.05000000000000004 -2.2 0  0.05000000000000004 -2.2 0  0.15 -2.2 0  0.25 -2.2 0  0.3500000000000001 -2.2 0  0.45 -2.2 0  0.55 -2.2 0  0.6499999999999999 -2.2 0  0.75 -2.2 0  -0.75 -2.1 0  -0.65 -2.1 0  -0.55 -2.1 0  -0.45 -2.1 0  -0.35 -2.1 0  -0.25 -2.1 0  -0.15 -2.1 0  -0.05000000000000004 -2.1 0  0.05000000000000004 -2.1 0  0.15 -2.1 0  0.25 -2.1 0  0.3500000000000001 -2.1 0  0.45 -2.1 0  0.55 -2.1 0  0.6499999999999999 -2.1 0  0.75 -2.1 0  -0.75 -2 0  -0.65 -2 0  -0.55 -2 0  -0.45 -2 0  -0.35 -2 0  -0.25 -2 0  -0.15 -2 0  -0.05000000000000004 -2 0  0.05000000000000004 -2 0  0.15 -2 0  0.25 -2 0  0.3500000000000001 -2 0  0.45 -2 0  0.55 -2 0  0.6499999999999999 -2 0  0.75 -2 0  -0.75 -1.9 0  -0.65 -1.9 0  -0.55 -1.9 0  -0.45 -1.9 0  -0.35 -1.9 0  -0.25 -1.9 0  -0.15 -1.9 0  -0.05000000000000004 -1.9 0  0.05000000000000004 -1.9 0  0.15 -1.9 0  0.25 -1.9 0  0.3500000000000001 -1.9 0  0.45 -1.9 0  0.55 -1.9 0  0.6499999999999999 -1.9 0  0.75 -1.9 0  -0.75 -1.8 0  -0.65 -1.8 0  -0.55 -1.8 0  -0.45 -1.8 0  -0.35 -1.8 0  -0.25 -1.8 0  -0.15 -1.8 0  -0.05000000000000004 -1.8 0  0.05000000000000004 -1.8 0  0.15 -1.8 0  0.25 -1.8 0  0.3500000000000001 -1.8 0  0.45 -1.8 0  0.55 -1.8 0  0.6499999999999999 -1.8 0  0.75 -1.8 0  -0.75 -1.7 0  -0.65 -1.7 0  -0.55 -1.7 0  -0.45 -1.7 0  -0.35 -1.7 0  -0.25 -1.7 0  -0.15 -1.7 0  -0.05000000000000004 -1.7 0  0.05000000000000004 -1.7 0  0.15 -1.7 0  0.25 -1.7 0  0.3500000000000001 -1.7 0  0.45 -1.7 0  0.55 -1.7 0  0.6499999999999999 -1.7 0  0.75 -1.7 0  -0.75 -1.6 0  -0.65 -1.6 0  -0.55 -1.6 0  -0.45 -1.6 0  -0.35 -1.6 0  -0.25 -1.6 0  -0.15 -1.6 0  -0.05000000000000004 -1.6 0  0.05000000000000004 -1.6 0  0.15 -1.6 0  0.25 -1.6 0  0.3500000000000001 -1.6 0  0.45 -1.6 0  0.55 -1.6 0  0.6499999999999999 -1.6 0  0.75 -1.6 0  -0.75 -1.5 0  -0.65 -1.5 0  -0.55 -1.5 0  -0.45 -1.5 0  -0.35 -1.5 0  -0.25 -1.5 0  -0.15 -1.5 0  -0.05000000000000004 -1.5 0  0.05000000000000004 -1.5 0  0.15 -1.5 0  0.25 -1.5 0  0.3500000000000001 -1.5 0  0.45 -1.5 0  0.55 -1.5 0  0.6499999999999999 -1.5 0  0.75 -1.5 0  -0.75 -1.4 0  -0.65 -1.4 0  -0.55 -1.4 0  -0.45 -1.4 0  -0.35 -1.4 0  -0.25 -1.4 0  -0.15 -1.4 0  -0.05000000000000004 -1.4 0  0.05000000000000004 -1.4 0  0.15 -1.4 0  0.25 -1.4 0  0.3500000000000001 -1.4 0  0.45 -1.4 0  0.55 -1.4 0  0.6499999999999999 -1.4 0  0.75 -1.4 0  -0.75 -1.3 0  -0.65 -1.3 0  -0.55 -1.3 0  -0.45 -1.3 0  -0.35 -1.3 0  -0.25 -1.3 0  -0.15 -1.3 0  -0.05000000000000004 -1.3 0  0.05000000000000004 -1.3 0  0.15 -1.3 0  0.25 -1.3 0  0.3500000000000001 -1.3 0  0.45 -1.3 0  0.55 -1.3 0  0.6499999999999999 -1.3 0  0.75 -1.3 0  -0.75 -1.2 0  -0.65 -1.2 0  -0.55 -1.2 0  -0.45 -1.2 0  -0.35 -1.2 0  -0.25 -1.2 0  -0.15 -1.2 0  -0.05000000000000004 -1.2 0  0.05000000000000004 -1.2 0  0.15 -1.2 0  0.25 -1.2 0  0.3500000000000001 -1.2 0  0.45 -1.2 0  0.55 -1.2 0  0.6499999999999999 -1.2 0  0.75 -1.2 0  -0.75 -1.1 0  -0.65 -1.1 0  -0.55 -1.1 0  -0.45 -1.1 0  -0.35 -1.1 0  -0.25 -1.1 0  -0.15 -1.1 0  -0.05000000000000004 -1.1 0  0.05000000000000004 -1.1 0  0.15 -1.1 0  0.25 -1.1 0  0.3500000000000001 -1.1 0  0.45 -1.1 0  0.55 -1.1 0  0.6499999999999999 -1.1 0  0.75 -1.1 0  -0.75 -1 0  -0.65 -1 0  -0.55 -1 0  -0.45 -1 0  -0.35 -1 0  -0.25 -1 0  -0.15 -1 0  -0.05000000000000004 -1 0  0.05000000000000004 -1 0  0.15 -1 0  0.25 -1 0  0.3500000000000001 -1 0  0.45 -1 0  0.55 -1 0  0.6499999999999999 -1 0  0.75 -1 0  -0.75 -0.8999999999999999 0  -0.65 -0.899999
[...]
<PointData  Vectors="flow"> 
<DataArray  type="Float64"  Name="flow"  NumberOfComponents="3" format="ascii">-1.5167705099771187e-09 3.0335857235462284e-09 0.0000000000000000e+00  1.0192099306132532e-13 3.0335857235454731e-09 0.0000000000000000e+00  2.9071981718192281e-18 3.0335857235518830e-09 0.0000000000000000e+00  -4.9664375518606876e-21 3.0335857235522300e-09 0.0000000000000000e+00  3.2601597556915316e-21 3.0335857235512485e-09 0.0000000000000000e+00  1.1343342731919982e-21 3.0335857235455323e-09 0.0000000000000000e+00  -1.3980315302204246e-21 3.0335857235465142e-09 0.0000000000000000e+00  1.0054931561175680e-21 3.0335857235406201e-09 0.0000000000000000e+00  -4.9460606816889216e-21 3.0335857235510248e-09 0.0000000000000000e+00  -1.2408700382232283e-21 3.0335857235500069e-09 0.0000000000000000e+00  2.6087702524462219e-22 3.0335857235500603e-09 0.0000000000000000e+00  6.1304091165222794e-22 3.0335857235523044e-09 0.0000000000000000e+00  1.1193777715256807e-20 3.0335857235534290e-09 0.0000000000000000e+00  -2.9084382599756708e-18 3.0335857235473475e-09 0.0000000000000000e+00  -1.0192099088920709e-13 3.0335857235531076e-09 0.0000000000000000e+00  1.5167705099687676e-09 3.0335857235574946e-09 0.0000000000000000e+00  -1.5151396813408732e-09 9.0970431367173687e-09 0.0000000000000000e+00  1.0196730846872663e-13 9.0970431367160336e-09 0.0000000000000000e+00  2.7890800679205763e-18 9.0970431367203085e-09 0.0000000000000000e+00  -4.6244327030000924e-21 9.0970431367174514e-09 0.0000000000000000e+00  -9.0989907901137609e-22 9.0970431367177723e-09 0.0000000000000000e+00  -5.7322683797504254e-22 9.0970431367171850e-09 0.0000000000000000e+00  -8.9872183277412613e-22 9.0970431367159856e-09 0.0000000000000000e+00  1.4268785064846717e-21 9.0970431367179907e-09 0.0000000000000000e+00  -1.8994090066251431e-21 9.0970431367156746e-09 0.0000000000000000e+00  -4.4217359584535769e-21 9.0970431367172479e-09 0.0000000000000000e+00  1.1206050200894820e-21 9.0970431367155853e-09 0.0000000000000000e+00  2.9939689159961537e-21 9.0970431367160137e-09 0.0000000000000000e+00  9.8464467951928605e-21 9.0970431367159674e-09 0.0000000000000000e+00  -2.7862909987741353e-18 9.0970431367173124e-09 0.0000000000000000e+00  -1.0196730703426429e-13 9.0970431367171222e-09 0.0000000000000000e+00  1.5151396813366705e-09 9.0970431367139938e-09 0.0000000000000000e+00  -1.5102457211507282e-09 1.8174513100007330e-08 0.0000000000000000e+00  1.0210235279154744e-13 1.8174513100009193e-08 0.0000000000000000e+00  2.4224556282447547e-18 1.8174513100006403e-08 0.0000000000000000e+00  -8.0970586763503323e-21 1.8174513100008031e-08 0.0000000000000000e+00  2.4647119266895947e-21 1.8174513100005583e-08 0.0000000000000000e+00  -7.9263422610254962e-22 1.8174513100007942e-08 0.0000000000000000e+00  1.3570842567576330e-22 1.8174513100007161e-08 0.0000000000000000e+00  -5.4833548338440147e-22 1.8174513100006188e-08 0.0000000000000000e+00  -5.3719693668810090e-21 1.8174513100004210e-08 0.0000000000000000e+00  -3.7871456421512308e-22 1.8174513100003025e-08 0.0000000000000000e+00  -1.4038866561662752e-21 1.8174513100007684e-08 0.0000000000000000e+00  2.1469408772216549e-21 1.8174513100006380e-08 0.0000000000000000e+00  1.2549317509241421e-20 1.8174513100007644e-08 0.0000000000000000e+00  -2.4214006648676223e-18 1.8174513100008283e-08 0.0000000000000000e+00  -1.0210234823464957e-13 1.8174513100007975e-08 0.0000000000000000e+00  1.5102457211498096e-09 1.8174513100009183e-08 0.0000000000000000e+00  -1.5020843313786403e-09 2.7212819298930724e-08 0.0000000000000000e+00  1.0231448966310485e-13 2.7212819298932441e-08 0.0000000000000000e+00  1.8261630795314649e-18 2.7212819298926572e-08 0.0000000000000000e+00  -1.3633723911554282e-21 2.7212819298930119e-08 0.0000000000000000e+00  1.6229803434641844e-22 2.7212819298933768e-08 0.0000000000000000e+00  -2.2654382272550151e-21 2.7212819298930410e-08 0.0000000000000000e+00  -2.6275761269487830e-21 2.7212819298929404e-08 0.0000000000000000e+00  -1.1777158079944452e-21 2.7212819298926009e-08 0.0000000000000000e+00  -4.8486838847373765e-21 2.7212819298926085e-08 0.0000000000000000e+00  -9.3268622148199416e-22 2.7212819298927455e-08 0.0000000000000000e+00  2.5665679073020901e-21 2.7212819298924123e-08 0.0000000000000000e+00  4.0859080608523927e-21 2.7212819298927703e-08 0.0000000000000000e+00  1.1085168667003803e-20 2.7212819298924676e-08 0.0000000000000000e+00  -1.8250353850528491e-18 2.7212819298926932e-08 0.0000000000000000e+00  -1.0231449080376046e-13 2.7212819298928997e-08 0.0000000000000000e+00  1.5020843313718101e-09 2.7212819298927028e-08 0.0000000000000000e+00  -1.4906487616092593e-09 3.6192337798424561e-08 0.0000000000000000e+00  1.0258466940830895e-13 3.6192337798421808e-08 0.0000000000000000e+00  1.0093018909671199e-18 3.6192337798423218e-08 0.0000000000000000e+00  -2.9488466626113577e-21 3.6192337798422563e-08 0.0000000000000000e+00  2.5327119514775644e-21 3.6192337798420233e-08 0.0000000000000000e+00  -5.9733762013752480e-21 3.6192337798422073e-08 0.0000000000000000e+00  -1.2152435833743771e-23 3.6192337798420068e-08 0.0000000000000000e+00  -2.6239611319019757e-21 3.6192337798419419e-08 0.0000000000000000e+00  -3.8608916820494123e-21 3.6192337798422165e-08 0.0000000000000000e+00  -2.5924218465030199e-21 3.6192337798421742e-08 0.0000000000000000e+00  -2.5441620766473146e-21 3.6192337798419949e-08 0.0000000000000000e+00  5.8268144720347888e-21 3.6192337798417209e-08 0.0000000000000000e+00  6.8068605636214178e-21 3.6192337798418599e-08 0.0000000000000000e+00  -1.0048867289621636e-18 3.6192337798417910e-08 0.0000000000000000e+00  -1.0258466779904811e-13 3.6192337798418063e-08 0.0000000000000000e+00  1.4906487616088289e-09 3.6192337798421391e-08 0.0000000000000000e+00  -1.4759304182779418e-09 4.5093398339182187e-08 0.0000000000000000e+00  1.0288682635756744e-13 4.5093398339177416e-08 0.0000000000000000e+00  -2.4106785525261343e-21 4.5093398339180335e-08 0.0000000000000000e+00  -3.5282140062963772e-21 4.5093398339177231e-08 0.0000000000000000e+00  3.6463875143753518e-21 4.5093398339178204e-08 0.0000000000000000e+00  -4.1378586341580498e-21 4.5093398339179468e-08 0.0000000000000000e+00  -7.1437243496256663e-21 4.5093398339177383e-08 0.0000000000000000e+00  -1.0570017077253164e-21 4.5093398339173141e-08 0.0000000000000000e+00  -8.0500226273474331e-22 4.5093398339176444e-08 0.0000000000000000e+00  -4.4963022597174791e-21 4.5093398339175074e-08 0.0000000000000000e+00  -4.4611979751639424e-21 4.5093398339172817e-08 0.0000000000000000e+00  3.0665499277839753e-21 4.5093398339169436e-08 0.0000000000000000e+00  9.4195772368384179e-21 4.5093398339170468e-08 0.0000000000000000e+00  7.8557820989284024e-21 4.5093398339169879e-08 0.0000000000000000e+00  -1.0288682871658685e-13 4.5093398339168231e-08 0.0000000000000000e+00  1.4759304182723542e-09 4.5093398339167186e-08 0.0000000000000000e+00  -1.4579196970826161e-09 5.3896275689457085e-08 0.0000000000000000e+00  1.0318854893978696e-13 5.3896275689468739e-08 0.0000000000000000e+00  -1.1929560222358419e-18 5.3896275689458488e-08 0.0000000000000000e+00  -4.5481360444151530e-21 5.3896275689461228e-08 0.0000000000000000e+00  4.5409254397908258e-21 5.3896275689459117e-08 0.0000000000000000e+00  -4.4529792802238046e-21 5.3896275689457132e-08 0.0000000000000000e+00  -6.8257673048018319e-21 5.3896275689461870e-08 0.0000000000000000e+00  -5.1919219954527778e-21 5.3896275689459375e-08 0.0000000000000000e+00  -3.5620306058496975e-21 5.3896275689452612e-08 0.0000000000000000e+00  -6.2986238170516234e-21 5.3896275689450832e-08 0.0000000000000000e+00  -2.0065726778966356e-21 5.3896275689452824e-08 0.0000000000000000e+00  3.4208184135370022e-21 5.3896275689456470e-08 0.0000000000000000e+00  6.6121702152413880e-21 5.3896275689452321e-08 0.0000000000000000e+00  1.1959436085239501e-18 5.3896275689454035e-08 0.0000000000000000e+00  -1.0318854948171890e-13 5.3896275689452698e-08 0.0000000000000000e+00  1.4579196970716714e-09 5.3896275689453624e-08 0.0000000000000000e+00  -1.4366070190109726e-09 6.2581186611392705e-08 0.0000000000000000e+00  1.0345181168876826e-13 6.2581186611393314e-08 0.0000000000000000e+00  -2.5330539855555494e-18 6.2581186611398939e-08 0.0000000000000000e+00  -6.0125390416158559e-21 6.2581186611399336e-08 0.0000000000000000e+00  -3.1546147055663644e-21 6.2581186611392983e-08 0.0000000000000000e+00  -1.7242820060419990e-21 6.2581186611393129e-08 0.0000000000000000e+00  -5.4522945531395737e-21 6.2581186611388033e-08 0.0000000000000000e+00  -6.0874040493279033e-21 6.2581186611392414e-08 0.0000000000000000e+00  -4.6689558611216260e-21 6.2581186611393076e-08 0.0000000000000000e+00  -4.9192748599702379e-21 6.2581186611389939e-08 0.0000000000000000e+00  -6.2606616293469841e-22 6.2581186611394717e-08 0.0000000000000000e+00  -2.1591394645199375e-21 6.2581186611389410e-08 0.0000000000000000e+00  7.1322705339792694e-21 6.2581186611392308e-08 0.0000000000000000e+00  2.5328918083752089e-18 6.2581186611389052e-08 0.0000000000000000e+00  -1.0345181441193248e-13 6.2581186611387292e-08 0.0000000000000000e+00  1.4366070190185329e-09 6.2581186611387239e-08 0.0000000000000000e+00  -1.4119840451353648e-09 7.1128293590253391e-08 0.0000000000000000e+00  1.0363392085339288e-13 7.1128293590243121e-08 0.0000000000000000e+00  -3.9767566076139926e-18 7.1128293590249884e-08 0.0000000000000000e+00  -1.0025725231657046e-20 7.1128293590245623e-08 0.0000000000000000e+00  2.3538394346234557e-21 7.1128293590247105e-08 0.0000000000000000e+00  -5.7396703665589361e-21 7.1128293590246350e-08 0.0000000000000000e+00  -7.2783149458888286e-21 7.1128293590248349e-08 0.0000000000000000e+00  -8.7158210140264852e-21 7.1128293590245398e-08 0.0000000000000000e+00  -1.0023126898173375e-20 7.1128293590235921e-08 0.0000000000000000e+00  -2.4421149709445596e-21 7.1128293590241864e-08 0.0000000000000000e+00  3.6723989415308297e-22 7.1128293590241811e-08 0.0000000000000000e+00  4.8993258082126001e-22 7.1128293590240249e-08 0.0000000000000000e+00  3.9877377524214989e-21 7.1128293590238410e-08 0.0000000000000000e+00  3.9804207894960379e-18 7.1128293590236517e-08 0.0000000000000000e+00  -1.0363391742648254e-13 7.1128293590238370e-08 0.0000000000000000e+00  1.4119840451224358e-09 7.1128293590238555e-08 0.0000000000000000e+00  -1.3840450407746875e-09 7.9517716313548687e-08 0.0000000000000000e+00  1.0368850461160230e-13 7.9517716313548886e-08 0.0000000000000000e+00  -5.5107664620012267e-18 7.9517716313545299e-08 0.0000000000000000e+00  9.4275099211241938e-22 7.9517716313547245e-08 0.0000000000000000e+00  -3.5848005624485671e-21 7.9517716313554471e-08 0.0000000000000000e+00  -4.1244662874555768e-21 7.9517716313553359e-08 0.0000000000000000e+00  -4.3841622644572908e-21 7.9517716313552102e-08 0.0000000000000000e+00  -1.6168480401868282e-20 7.9517716313549111e-08 0.0000000000000000e+00  -4.0454141699923565e-21 7.9517716313551665e-08 0.0000000000000000e+00  -2.0737096645928811e-21 7.9517716313551109e-08 0.0000000000000000e+00  -3.6645680447396501e-21 7.9517716313545829e-08 0.0000000000000000e+00  -4.7510959679606984e-21 7.9517716313545061e-08 0.0000000000000000e+00  -2.5506164662749987e-21 7.9517716313541223e-08 0.0000000000000000e+00  5.5131336309403648e-18 7.9517716313541276e-08 0.0000000000000000e+00  -1.0368850834297278e-13 7.9517716313540455e-08 0.0000000000000000e+00  1.3840450407775337e-09 7.9517716313533732e-08 0.0000000000000000e+00  -1.3527883569683787e-09 8.7729551700880090e-08 0.0000000000000000e+00  1.0356668853791279e-13 8.7729551700882049e-08 0.0000000000000000e+00  -7.0839407701190263e-18 8.7729551700889685e-08 0.0000000000000000e+00  -1.0841611422404451e-21 8.7729551700882036e-08 0.0000000000000000e+00  3.4708628552121952e-22 8.7729551700874624e-08 0.0000000000000000e+00  -4.1190975651909678e-21 8.7729551700877231e-08 0.0000000000000000e+00  -1.1060675695471233e-20 8.7729551700871818e-08 0.0000000000000000e+00  -9.0960837168022552e-21 8.7729551700877006e-08 0.0000000000000000e+00  -9.9654082261529610e-21 8.7729551700879693e-08 0.0000000000000000e+00  -8.8023086731232953e-21 8.7729551700877906e-08 0.0000000000000000e+00  -4.3756392520230785e-21 8.7729551700871871e-08 0.0000000000000000e+00  -1.4068428850727890e-21 8.7729551700865783e-08 0.0000000000000000e+00  4.3274528448864559e-23 8.7729551700879455e-08 0.0000000000000000e+00  7.0826634891837388e-18 8.7729551700872785e-08 0.0000000000000000e+00  -1.0356669144120149e-13 8.7729551700874796e-08 0.0000000000000000e+00  1.3527883569578073e-09 8.7729551700874214e-08 0.0000000000000000e+00  -1.3182179924658492e-09 9.5743903078799957e-08 0.0000000000000000e+00  1.0321822003348504e-13 9.5743903078798753e-08 0.0000000000000000e+00  -8.6618479321053266e-18 9.5743903078789978e-08 0.0000000000000000e+00  -4.4850027409626180e-21 9.5743903078792162e-08 0.0000000000000000e+00  -3.3312792448215195e-21 9.5743903078799746e-08 0.0000000000000000e+00  -8.4781585871540651e-21 9.5743903078797959e-08 0.0000000000000000e+00  -8.4552968636488530e-21 9.5743903078793141e-08 0.0000000000000000e+00  -6.7720129022474505e-21 9.5743903078792969e-08 0.0000000000000000e+00  -2.8487412691491814e-21 9.5743903078793565e-08 0.0000000000000000e+00  -8.9792662183204495e-21 9.5743903078793565e-08 0.0000000000000000e+00  -1.3857499974693019e-20 9.5743903078796079e-08 0.0000000000000000e+00  1.1992065115382038e-22 9.5743903078799547e-08 0.0000000000000000e+00  -4.3524929513438375e-22 9.5743903078796821e-08 0.0000000000000000e+00  8.6559487732853551e-18 9.5743903078800712e-08 0.0000000000000000e+00  -1.0321821705542914e-13 9.5743903078797297e-08 0.0000000000000000e+00  1.3182179924587178e-09 9.5743903078799468e-08 0.0000000000000000e+00  -1.2803451989978005e-09 1.0354091887363229e-07 0.0000000000000000e+00  1.0259274362122644e-13 1.0354091887362923e-07 0.0000000000000000e+00  -1.0203462446371224e-17 1.0354091887362434e-07 0.0000000000000000e+00  7.2384723520105083e-21 1.0354091887363346e-07 0.0000000000000000e+00  4.0760184099209831e-21 1.0354091887363122e-07 0.0000000000000000e+00  -8.6499225608651859e-21 1.0354091887363859e-07 0.0000000000000000e+00  -1.3749507911026046e-20 1.0354091887363997e-07 0.0000000000000000e+00  -1.0528988455773843e-20 1.0354091887363078e-07 0.0000000000000000e+00  -7.5438590887570038e-21 1.0354091887363371e-07 0.0000000000000000e+00  -7.3828952379938585e-21 1.0354091887363553e-07 0.0000000000000000e+00  -7.6470791086305880e-22 1.0354091887363761e-07 0.0000000000000000e+00  -1.4028835566896960e-22 1.0354091887363961e-07 0.0000000000000000e+00  1.8090493206696252e-21 1.0354091887363395e-07 0.0000000000000000e+00  1.0197461629204963e-17 1.0354091887363789e-07 0.0000000000000000e+00  -1.0259275835736932e-13 1.0354091887363744e-07 0.0000000000000000e+00  1.2803451989942383e-09 1.0354091887363653e-07 0.0000000000000000e+00  -1.2391900900339859e-09 1.1110084096212164e-07 0.0000000000000000e+00  1.0164106027337194e-13 1.1110084096212315e-07 0.0000000000000000e+00  -1.1664691122869043e-17 1.1110084096212801e-07 0.0000000000000000e+00  4.7600677227912901e-21 1.1110084096212966e-07 0.0000000000000000e+00  -2.9001462151377046e-21 1.1110084096211745e-07 0.0000000000000000e+00  -1.7457620977214835e-21 1.1110084096211178e-07 0.0000000000000000e+00  -1.4598345498830511e-20 1.1110084096211704e-07 0.0000000000000000e+00  -1.2308526270381833e-20 1.1110084096212024e-07 0.0000000000000000e+00  1.3278893528265782e-22 1.1110084096212511e-07 0.0000000000000000e+00  -5.2332513134407645e-21 1.1110084096212139e-07 0.0000000000000000e+00  -9.2965760546492552e-21 1.1110084096211918e-07 0.0000000000000000e+00  -3.4004470738317757e-21 1.1110084096212072e-07 0.0000000000000000e+00  -3.2816413595832268e-21 1.1110084096211607e-07 0.0000000000000000e+00  1.1668071248841756e-17 1.1110084096211352e-07 0.0000000000000000e+00  -1.0164106684997464e-13 1.1110084096212357e-07 0.0000000000000000e+00  1.2391900900281803e-09 1.1110084096212548e-07 0.0000000000000000e+00  -1.1947832131519435e-09 1.1840406258165040e-07 0.0000000000000000e+00  1.0031632316850206e-13 1.1840406258164780e-07 0.0000000000000000e+00  -1.3017058302802545e-17 1.1840406258165527e-07 0.0000000000000000e+00  3.2904887887162202e-22 1.1840406258164217e-07 0.0000000000000000e+00  -7.1356848712061167e-21 1.1840406258165097e-07 0.0000000000000000e+00  -6.5959136411080250e-21 1.1840406258165138e-07 0.0000000000000000e+00  -8.8560395820628138e-21 1.1840406258165173e-07 0.0000000000000000e+00  -6.1097941155637996e-21 1.1840406258165271e-07 0.0000000000000000e+00  -3.4822721128734400e-21 1.1840406258164841e-07 0.0000000000000000e+00  -9.3503932775874495e-21 1.1840406258164865e-07 0.0000000000000000e+00  -4.1513227497465654e-21 1.1840406258165357e-07 0.0000000000000000e+00  -2.7634035153068046e-21 1.1840406258165134e-07 0.0000000000000000e+00  -9.2102804869085613e-21 1.1840406258165045e-07 0.0000000000000000e+00  1.3026402185563311e-17 1.1840406258165373e-07 0.0000000000000000e+00  -1.0031632116694663e-13 1.1840406258165105e-07 0.0000000000000000e+00  1.1947832131501872e-09 1.1840406258165507e-07 0.0000000000000000e+00  -1.1471670467051843e-09 1.2543119546329918e-07 0.0000000000000000e+00  9.8575249996538028e-14 1.2543119546330550e-07 0.0000000000000000e+00  -1.4231394141589716e-17 1.2543119546330060e-07 0.0000000000000000e+00  2.7026152863915795e-22 1.2543119546330103e-07 0.0000000000000000e+00  2.0746079676981418e-21 1.2543119546330923e-07 0.0000000000000000e+00  -4.7518847898469639e-21 1.2543119546331291e-07 0.0000000000000000e+00  -5.0467910147752468e-21 1.2543119546331572e-07 0.0000000000000000e+00  -1.4376285803940217e-20 1.2543119546332178e-07 0.0000000000000000e+00  -7.0063146854042842e-21 1.2543119546331042e-07 0.0000000000000000e+00  -3.1812226212332741e-21 1.2543119546331524e-07 0.0000000000000000e+00  -8.3262047600939835e-21 1.2543119546331037e-07 0.0000000000000000e+00  -1.5595959471441131e-21 1.2543119546330974e-07 0.0000000000000000e+00  -6.0242804032864247e-21 1.2543119546331537e-07 0.0000000000000000e+00  1.4229809393339419e-17 1.2543119546330947e-07 0.0000000000000000e+00  -9.8575248697942999e-14 1.2543119546330325e-07 0.0000000000000000e+00  1.1471670466894867e-09 1.2543119546330386e-07 0.0000000000000000e+00  -1.0963973822508593e-09 1.3216314561740371e-07 0.0000000000000000e+00  9.6379263263066004e-14 1.3216314561740347e-07 0.0000000000000000e+00  -1.5260414885834185e-17 1.3216314561740288e-07 0.0000000000000000e+00  1.2063196568737814e-20 1.3216314561740672e-07 0.0000000000000000e+00  5.5882013858767111e-21 1.3216314561740225e-07 0.0000000000000000e+00  3.5273498846676052e-21 1.3216314561741863e-07 0.0000000000000000e+00  -6.0303947093146360e-21 1.3216314561741575e-07 0.0000000000000000e+00  -1.2714213109437385e-20 1.3216314561741035e-07 0.0000000000000000e+00  -4.0984328275796065e-21 1.3216314561741429e-07 0.0000000000000000e+00  -5.7794411005554257e-21 1.3216314561742197e-07 0.0000000000000000e+00  -9.4293777854295581e-21 1.3216314561742229e-07 0.0000000000000000e+00  -8.5289879024281455e-22 1.3216314561742300e-07 0.0000000000000000e+00  -1.3230651738388061e-20 1.3216314561741458e-07 0.0000000000000000e+00  1.5250251432235087e-17 1.3216314561740791e-07 0.0000000000000000e+00  -9.6379264867433466e-14 1.3216314561740768e-07 0.0000000000000000e+00  1.0963973822476116e-09 1.3216314561740243e-07 0.0000000000000000e+00  -1.0425445570347056e-09 1.3858119697761230e-07 0.0000000000000000e+00  9.3695536234486749e-14 1.3858119697760552e-07 0.0000000000000000e+00  -1.6072270157550776e-17 1.3858119697761730e-07 0.0000000000000000e+00  2.4955920496073736e-21 1.3858119697761293e-07 0.0000000000000000e+00  1.3075541614725239e-20 1.3858119697761405e-07 0.0000000000000000e+00  9.1943427270409276e-21 1.3858119697760838e-07 0.0000000000000000e+00  -1.3944444427286541e-20 1.3858119697760910e-07 0.0000000000000000e+00  -1.4440993196503836e-20 1.3858119697760671e-07 0.0000000000000000e+00  -2.8833971134994522e-21 1.3858119697760288e-07 0.0000000000000000e+00  -2.3303944646828398e-21 1.3858119697760105e