<?xml version="1.0"?>
<VTKFile type="UnstructuredGrid"  version="0.1"  >
<UnstructuredGrid>
<Piece  NumberOfPoints="1876" NumberOfCells="3600">
<Points>
<DataArray  type="Float64"  NumberOfComponents="3"  format="ascii">-0.75 -3 0  -0.65 -3 0  -0.55 -3 0  -0.45 -3 0  -0.35 -3 0  -0.25 -3 0  -0.15 -3 0  -0.05000000000000004 -3 0  0.05000000000000004 -3 0  0.15 -3 0  0.25 -3 0  0.3500000000000001 -3 0  0.45 -3 0  0.55 -3 0  0.6499999999999999 -3 0  0.75 -3 0  -0.75 -2.95 0  -0.65 -2.95 0  -0.55 -2.95 0  -0.45 -2.95 0  -0.35 -2.95 0  -0.25 -2.95 0  -0.15 -2.95 0  -0.05000000000000004 -2.95 0  0.05000000000000004 -2.95 0  0.15 -2.95 0  0.25 -2.95 0  0.3500000000000001 -2.95 0  0.45 -2.95 0  0.55 -2.95 0  0.6499999999999999 -2.95 0  0.75 -2.95 0  -0.75 -2.9 0  -0.65 -2.9 0  -0.55 -2.9 0  -0.45 -2.9 0  -0.35 -2.9 0  -0.25 -2.9 0  -0.15 -2.9 0  -0.05000000000000004 -2.9 0  0.05000000000000004 -2.9 0  0.15 -2.9 0  0.25 -2.9 0  0.3500000000000001 -2.9 0  0.45 -2.9 0  0.55 -2.9 0  0.6499999999999999 -2.9 0  0.75 -2.9 0  -0.75 -2.85 0  -0.65 -2.85 0  -0.55 -2.85 0  -0.45 -2.85 0  -0.35 -2.85 0  -0.25 -2.85 0  -0.15 -2.85 0  -0.05000000000000004 -2.85 0  0.05000000000000004 -2.85 0  0.15 -2.85 0  0.25 -2.85 0  0.3500000000000001 -2.85 0  0.45 -2.85 0  0.55 -2.85 0  0.6499999999999999 -2.85 0  0.75 -2.85 0  -0.75 -2.8 0  -0.65 -2.8 0  -0.55 -2.8 0  -0.45 -2.8 0  -0.35 -2.8 0  -0.25 -2.8 0  -0.15 -2.8 0  -0.05000000000000004 -2.8 0  0.05000000000000004 -2.8 0  0.15 -2.8 0  0.25 -2.8 0  0.3500000000000001 -2.8 0  0.45 -2.8 0  0.55 -2.8 0  0.6499999999999999 -2.8 0  0.75 -2.8 0  -0.75 -2.75 0  -0.65 -2.75 0  -0.55 -2.75 0  -0.45 -2.75 0  -0.35 -2.75 0  -0.25 -2.75 0  -0.15 -2.75 0  -0.05000000000000004 -2.75 0  0.05000000000000004 -2.75 0  0.15 -2.75 0  0.25 -2.75 0  0.3500000000000001 -2.75 0  0.45 -2.75 0  0.55 -2.75 0  0.6499999999999999 -2.75 0  0.75 -2.75 0  -0.75 -2.7 0  -0.65 -2.7 0  -0.55 -2.7 0  -0.45 -2.7 0  -0.35 -2.7 0  -0.25 -2.7 0  -0.15 -2.7 0  -0.05000000000000004 -2.7 0  0.05000000000000004 -2.7 0  0.15 -2.7 0  0.25 -2.7 0  0.3500000000000001 -2.7 0  0.45 -2.7 0  0.55 -2.7 0  0.6499999999999999 -2.7 0  0.75 -2.7 0  -0.75 -2.65 0  -0.65 -2.65 0  -0.55 -2.65 0  -0.45 -2.65 0  -0.35 -2.65 0  -0.25 -2.65 0  -0.15 -2.65 0  -0.05000000000000004 -2.65 0  0.05000000000000004 -2.65 0  0.15 -2.65 0  0.25 -2.65 0  0.3500000000000001 -2.65 0  0.45 -2.65 0  0.55 -2.65 0  0.6499999999999999 -2.65 0  0.75 -2.65 0  -0.75 -2.6 0  -0.65 -2.6 0  -0.55 -2.6 0  -0.45 -2.6 0  -0.35 -2.6 0  -0.25 -2.6 0  -0.15 -2.6 0  -0.05000000000000004 -2.6 0  0.05000000000000004 -2.6 0  0.15 -2.6 0  0.25 -2.6 0  0.3500000000000001 -2.6 0  0.45 -2.6 0  0.55 -2.6 0  0.6499999999999999 -2.6 0  0.75 -2.6 0  -0.75 -2.55 0  -0.65 -2.55 0  -0.55 -2.55 0  -0.45 -2.55 0  -0.35 -2.55 0  -0.25 -2.55 0  -0.15 -2.55 0  -0.05000000000000004 -2.55 0  0.05000000000000004 -2.55 0  0.15 -2.55 0  0.25 -2.55 0  0.3500000000000001 -2.55 0  0.45 -2.55 0  0.55 -2.55 0  0.6499999999999999 -2.55 0  0.75 -2.55 0  -0.75 -2.5 0  -0.65 -2.5 0  -0.55 -2.5 0  -0.45 -2.5 0  -0.35 -2.5 0  -0.25 -2.5 0  -0.15 -2.5 0  -0.05000000000000004 -2.5 0  0.05000000000000004 -2.5 0  0.15 -2.5 0  0.25 -2.5 0  0.3500000000000001 -2.5 0  0.45 -2.5 0  0.55 -2.5 0  0.6499999999999999 -2.5 0  0.75 -2.5 0  -0.75 -2.45 0  -0.65 -2.45 0  -0.55 -2.45 0  -0.45 -2.45 0  -0.35 -2.45 0  -0.25 -2.45 0  -0.15 -2.45 0  -0.05000000000000004 -2.45 0  0.05000000000000004 -2.45 0  0.15 -2.45 0  0.25 -2.45 0  0.3500000000000001 -2.45 0  0.45 -2.45 0  0.55 -2.45 0  0.6499999999999999 -2.45 0  0.75 -2.45 0  -0.75 -2.4 0  -0.65 -2.4 0  -0.55 -2.4 0  -0.45 -2.4 0  -0.35 -2.4 0  -0.25 -2.4 0  -0.15 -2.4 0  -0.05000000000000004 -2.4 0  0.05000000000000004 -2.4 0  0.15 -2.4 0  0.25 -2.4 0  0.3500000000000001 -2.4 0  0.45 -2.4 0  0.55 -2.4 0  0.6499999999999999 -2.4 0  0.75 -2.4 0  -0.75 -2.35 0  -0.65 -2.35 0  -0.55 -2.35 0  -0.45 -2.35 0  -0.35 -2.35 0  -0.25 -2.35 0  -0.15 -2.35 0  -0.05000000000000004 -2.35 0  0.05000000000000004 -2.35 0  0.15 -2.35 0  0.25 -2.35 0  0.3500000000000001 -2.35 0  0.45 -2.35 0  0.55 -2.35 0  0.6499999999999999 -2.35 0  0.75 -2.35 0  -0.75 -2.3 0  -0.65 -2.3 0  -0.55 -2.3 0  -0.45 -2.3 0  -0.35 -2.3 0  -0.25 -2.3 0  -0.15 -2.3 0  -0.05000000000000004 -2.3 0  0.05000000000000004 -2.3 0  0.15 -2.3 0  0.25 -2.3 0  0.3500000000000001 -2.3 0  0.45 -2.3 0  0.55 -2.3 0  0.6499999999999999 -2.3 0  0.75 -2.3 0  -0.75 -2.25 0  -0.65 -2.25 0  -0.55 -2.25 0  -0.45 -2.25 0  -0.35 -2.25 0  -0.25 -2.25 0  -0.15 -2.25 0  -0.05000000000000004 -2.25 0  0.05000000000000004 -2.25 0  0.15 -2.25 0  0.25 -2.25 0  0.3500000000000001 -2.25 0  0.45 -2.25 0  0.55 -2.25 0  0.6499999999999999 -2.25 0  0.75 -2.25 0  -0.75 -2.2 0  -0.65 -2.2 0  -0.55 -2.2 0  -0.45 -2.2 0  -0.35 -2.2 0  -0.25 -2.2 0  -0.15 -2.2 0  -0.05000000000000004 -2.2 0  0.05000000000000004 -2.2 0  0.15 -2.2 0  0.25 -2.2 0  0.3500000000000001 -2.2 0  0.45 -2.2 0  0.55 -2.2 0  0.6499999999999999 -2.2 0  0.75 -2.2 0  -0.75 -2.15 0  -0.65 -2.15 0  -0.55 -2.15 0  -0.45 -2.15 0  -0.35 -2.15 0  -0.25 -2.15 0  -0.15 -2.15 0  -0.05000000000000004 -2.15 0  0.05000000000000004 -2.15 0  0.15 -2.15 0  0.25 -2.15 0  0.3500000000000001 -2.15 0  0.45 -2.15 0  0.55 -2.15 0  0.6499999999999999 -2.15 0  0.75 -2.15 0  -0.75 -2.1 0  -0.65 -2.1 0  -0.55 -2.1 0  -0.45 -2.1 0  -0.35 -2.1 0  -0.25 -2.1 0  -0.15 -2.1 0  -0.05000000000000004 -2.1 0  0.05000000000000004 -2.1 0  0.15 -2.1 0  0.25 -2.1 0  0.3500000000000001 -2.1 0  0.45 -2.1 0  0.55 -2.1 0  0.6499999999999999 -2.1 0  0.75 -2.1 0  -0.75 -2.05 0  -0.65 -2.05 0  -0.55 -2.05 0  -0.45 -2.05 0  -0.35 -2.05 0  -0.25 -2.05 0  -0.15 -2.05 0  -0.05000000000000004 -2.05 0  0.05000000000000004 -2.05 0  0.15 -2.05 0  0.25 -2.05 0  0.3500000000000001 -2.05 0  0.45 -2.05 0  0.55 -2.05 0  0.6499999999999999 -2.05 0  0.75 -2.05 0  -0.75 -2 0  -0.65 -2 0  -0.55 -2 0  -0.45 -2 0  -0.35 -2 0  -0.25 -2 0  -0.15 -2 0  -0.05000000000000004 -2 0  0.05000000000000004 -2 0  0.15 -2 0  0.25 -2 0  0.3500000000000001 -2 0  0.45 -2 0  0.55 -2 0  0.6499999999999999 -2 0  0.75 -2 0  -0.75 -1.95 0  -0.65 -1.95 0  -0.55 -1.95 0  -0.45 -1.95 0  -0.35 -1.95 0  -0.25 -1.95 0  -0.15 -1.95 0  -0.05000000000000004 -1.95 0  0.05000000000000004 -1.95 0  0.15 -1.95 0  0.25 -1.95 0  0.3500000000000001 -1.95 0  0.45 -1.95 0  0.55 -1.95 0  0.6499999999999999 -1.95 0  0.75 -1.95 0  -0.75 -1.9 0  -0.65 -1.9 0  -0.55 -1.9 0  -0.45 -1.9 0  -0.35 -1.9 0  -0.25 -1.9 0  -0.15 -1.9 0  -0.05000000000000004 -1.9 0  0.05000000000000004 -1.9 0  0.15 -1.9 0  0.25 -1.9 0  0.3500000000000001 -1.9 0  0.45 -1.9 0  0.55 -1.9 0  0.6499999999999999 -1.9 0  0.75 -1.9 0  -0.75 -1.85 0  -0.65 -1.85 0  -0.55 -1.85 0  -0.45 -1.85 0  -0.35 -1.85 0  -0.25 -1.85 0  -0.15 -1.85 0  -0.05000000000000004 -1.85 0  0.05000000000000004 -1.85 0  0.15 -1.85 0  0.25 -1.85 0  0.3500000000000001 -1.85 0  0.45 -1.85 0  0.55 -1.85 0  0.6499999999999999 -1.85 0  0.75 -1.85 0  -0.75 -1.8 0  -0.65 -1.8 0  -0.55 -1.8 0  -0.45 -1.8 0  -0.35 -1.8 0  -0.25 -1.8 0  -0.15 -1.8 0  -0.05000000000000004 -1.8 0  0.05000000000000004 -1.8 0  0.15 -1.8 0  0.25 -1.8 0  0.3500000000000001 -1.8 0  0.45 -1.8 0  0.55 -1.8 0  0.6499999999999999 -1.8 0  0.75 -1.8 0  -0.75 -1.75 0  -0.65 -1.75 0  -0.55 -1.75 0  -0.45 -1.75 0  -0.35 -1.75 0  -0.25 -1.75 0  -0.15 -1.75 0  -0.05000000000000004 -1.75 0  0.05000000000000004 -1.75 0  0.15 -1.75 0  0.25 -1.75 0  0.3500000000000001 -1.75 0  0.45 -1.75 0  0.55 -1.75 0  0.6499999999999999 -1.75 0  0.75 -1.75 0  -0.75 -1.7 0  -0.65 -1.7 0  -0.55 -1.7 0  -0.45 -1.7 0  -0.35 -1.7 0  -0.25 -1.7 0  -0.15 -1.7 0  -0.05000000000000004 -1.7 0  0.05000000000000004 -1.7 0  0.15 -1.7 0  0.25 -1.7 0  0.3500000000000001 -1.7 0  0.45 -1.7 0  0.55 -1.7 0  0.6499999999999999 -1.7 0  0.75 -1.7 0  -0.75 -1.65 0  -0.65 -1.65 0  -0.55 -1.65 0  -0.45 -1.65 0  -0.35 -1.65 0  -0.25 -1.65 0  -0.15 -1.65 0  -0.05000000000000004 -1.65 0  0.05000000000000004 -1.65 0  0.15 -1.65 0  0.25 -1.65 0  0.3500000000000001 -1.65 0  0.45 -1.65 0  0.55 -1.65 0  0.6499999999999999 -1.65 0  0.75 -1.65 0  -0.75 -1.6 0  -0.65 -1.6 0  -0.55 -1.6 0  -0.45 -1.6 0  -0.35 -1.6 0  -0.25 -1.6 0  -0.15 -1.6 0  -0.05000000000000004 -1.6 0  0.05000000000000004 -1.6 0  0.15 -1.6 0  0.25 -1.6 0  0.3500000000000001 -1.6 0  0.45 -1.6 0  0.55 -1.6 0  0.6499999999999999 -1.6 0  0.75 -1.6 0  -0.75 -1.55 0  -0.65 -1.55 0  -0.55 -1.55 0  -0.45 -1.55 0  -0.35 -1.55 0  -0.25 -1.55 0  -0.15 -1.55 0  -0.05000000000000004 -1.55 0  0.05000000000000004 -1.55 0  0.15 -1.55 0  0.25 -1.55 0  0.3500000000000001 -1.55 0  0.45 -1.55 0  0.55 -1.55 0  0.6499999999999999 -1.55 0  0.75 -1.55 0  -0.75 -1.5 0  -0.65 -1.5 0  -0.55 -1.5 0  -0.45 -1.5 0  -0.35 -1.5 0  -0.25 -1.5 0  -0.15 -1.5 0  -0.05000000000000004 -1.5 0  0.05000000000000004 -1.5 0  0.15 -1.5 0  0.25 -1.5 0  0.3500000000000001 -1.5 0  0.45 -1.5 0  0.55 -1.5 0  0.6499999999999999 -1.5 0  0.75 -1.5 0  -0.75 -1.45 0  -0.65 -1.45 0  -0.55 -1.45 0  -0.45 -1.45 0  -0.35 -1.45 0  -0.25 -1.45 0  -0.15 -1.45 0  -0.05000000000000004 -1.45 0  0.05000000000000004 -1.45 0  0.15 -1.45 0  0.25 -1.45 0  0.3500000000000001 -1.45 0  0.45 -1.45 0  0.55 -1.45 0  0.6499999999999999 -1.45 0  0.75 -1.45 0  -0.75 -1.4 0  -0.65 -1.4 0  -0.55 -1.4 0  -0.45 -1.4 0  -0.35 -1.4 0  -0.25 -1.4 0  -0.15 -1.4 0  -0.05000000000000004 -1.4 0  0.05000000000000004 -1.4 0  0.15 -1.4 0  0.25 -1.4 0  0.3500000000000001 -1.4 0  0.45 -1.4 0  0.55 -1.4 0  0.6499999999999999 -1.4 0  0.75 -1.4 0  -0.75 -1.35 0  -0.65 -1.35 0  -0.55 -1.35 0  -0.45 -1.35 0  -0.35 -1.35 0  -0.25 -1.35 0  -0.15 -1.35 0  -0.05000000000000004 -1.35 0  0.05000000000000004 -1.35 0  0.15 -1.35 0  0.25 -1.35 0  0.3500000000000001 -1.35 0  0.45 -1.35 0  0.55 -1.35 0  0.6499999999999999 -1.35 0  0.75 -1.35 0  -0.75 -1.3 0  -0.65 -1.3 0  -0.55 -1.3 0  -0.45 -1.3 0  -0.35 -1.3 0  -0.25 -1.3 0  -0.15 -1.3 0  -0.05000000000000004 -1.3 0  0.05000000000000004 -1.3 0  0.15 -1.3 0  0.25 -1.3 0  0.3500000000000001 -1.3 0  0.45 -1.3 0  0.55 -1.3 0  0.6499999999999999 -1.
[...]
<PointData  Vectors="flow"> 
<DataArray  type="Float64"  Name="flow"  NumberOfComponents="3" format="ascii">-3.9517498099944106e-09 6.8626362811278403e-09 0.0000000000000000e+00  -1.4008952077754286e-11 6.8626362794552902e-09 0.0000000000000000e+00  -3.3714448635511359e-14 6.8626362775475238e-09 0.0000000000000000e+00  -3.5034448847182868e-17 6.8626362821674309e-09 0.0000000000000000e+00  -3.7425517138471467e-20 6.8626362784801600e-09 0.0000000000000000e+00  -5.3151341159900876e-19 6.8626362814422011e-09 0.0000000000000000e+00  4.2367343909565267e-19 6.8626362807096326e-09 0.0000000000000000e+00  -2.1653106709305994e-19 6.8626362819255823e-09 0.0000000000000000e+00  2.7124492097765145e-18 6.8626362852372471e-09 0.0000000000000000e+00  2.2983298136593306e-18 6.8626362818786266e-09 0.0000000000000000e+00  3.5610094830217224e-18 6.8626362813075006e-09 0.0000000000000000e+00  5.4551190389911577e-18 6.8626362785717273e-09 0.0000000000000000e+00  3.7159200736343500e-17 6.8626362762945727e-09 0.0000000000000000e+00  3.3714868983269519e-14 6.8626362792856189e-09 0.0000000000000000e+00  1.4008954806506475e-11 6.8626362783296189e-09 0.0000000000000000e+00  3.9517498119921395e-09 6.8626362792592227e-09 0.0000000000000000e+00  -4.1769733045929854e-09 3.0036695493893276e-08 0.0000000000000000e+00  -1.4549344288593744e-11 3.0036695492850460e-08 0.0000000000000000e+00  -3.4225749208825724e-14 3.0036695494833933e-08 0.0000000000000000e+00  -3.3847788549660430e-17 3.0036695494385905e-08 0.0000000000000000e+00  -1.1557598925018113e-18 3.0036695493064408e-08 0.0000000000000000e+00  2.2246153470327709e-20 3.0036695492588574e-08 0.0000000000000000e+00  2.8606873149451568e-20 3.0036695490785188e-08 0.0000000000000000e+00  6.4245946190233581e-19 3.0036695494650279e-08 0.0000000000000000e+00  2.0146996256330938e-18 3.0036695492408639e-08 0.0000000000000000e+00  2.2599663845147495e-18 3.0036695491673838e-08 0.0000000000000000e+00  4.3481508190751825e-18 3.0036695491309839e-08 0.0000000000000000e+00  5.2109819077075664e-18 3.0036695492915244e-08 0.0000000000000000e+00  3.6223682931187016e-17 3.0036695495870384e-08 0.0000000000000000e+00  3.4226730582098466e-14 3.0036695493390847e-08 0.0000000000000000e+00  1.4549345462029238e-11 3.0036695492740570e-08 0.0000000000000000e+00  4.1769733073571352e-09 3.0036695492300649e-08 0.0000000000000000e+00  -4.8699689989303066e-09 6.3482417649151178e-08 0.0000000000000000e+00  -1.6186838643373957e-11 6.3482417648723108e-08 0.0000000000000000e+00  -3.5723534187718893e-14 6.3482417649945271e-08 0.0000000000000000e+00  -3.0059505481380309e-17 6.3482417650236108e-08 0.0000000000000000e+00  -8.9037962137734949e-19 6.3482417651902645e-08 0.0000000000000000e+00  -1.5964486942768976e-18 6.3482417649512384e-08 0.0000000000000000e+00  1.1538102411358758e-18 6.3482417648217813e-08 0.0000000000000000e+00  4.3916014621996330e-19 6.3482417649647870e-08 0.0000000000000000e+00  5.8091396822118951e-19 6.3482417646581333e-08 0.0000000000000000e+00  2.8733770145754942e-18 6.3482417648803947e-08 0.0000000000000000e+00  3.6646819755541610e-18 6.3482417648527457e-08 0.0000000000000000e+00  7.8137160216711278e-18 6.3482417648790368e-08 0.0000000000000000e+00  3.2051431477399965e-17 6.3482417650036406e-08 0.0000000000000000e+00  3.5724351161494725e-14 6.3482417650008362e-08 0.0000000000000000e+00  1.6186840740603304e-11 6.3482417651937744e-08 0.0000000000000000e+00  4.8699690012428901e-09 6.3482417649477510e-08 0.0000000000000000e+00  -6.0832322485373149e-09 1.0400699247388464e-07 0.0000000000000000e+00  -1.8969134566420676e-11 1.0400699247327164e-07 0.0000000000000000e+00  -3.8086816639985558e-14 1.0400699246940111e-07 0.0000000000000000e+00  -2.3810998105760118e-17 1.0400699247160547e-07 0.0000000000000000e+00  -1.2470634383948629e-18 1.0400699247002303e-07 0.0000000000000000e+00  -2.0729789971456103e-18 1.0400699246617627e-07 0.0000000000000000e+00  -1.4200592775621501e-19 1.0400699246796303e-07 0.0000000000000000e+00  1.1034202848291763e-18 1.0400699246421041e-07 0.0000000000000000e+00  2.3213113974557259e-18 1.0400699247055688e-07 0.0000000000000000e+00  2.7162617246052395e-18 1.0400699246750952e-07 0.0000000000000000e+00  3.9257263054097762e-18 1.0400699247252920e-07 0.0000000000000000e+00  6.7966462609679413e-18 1.0400699247209472e-07 0.0000000000000000e+00  2.6557832289227607e-17 1.0400699247220455e-07 0.0000000000000000e+00  3.8089092027503311e-14 1.0400699247578002e-07 0.0000000000000000e+00  1.8969135113484128e-11 1.0400699247197090e-07 0.0000000000000000e+00  6.0832322488375285e-09 1.0400699247352875e-07 0.0000000000000000e+00  -7.9059471455597196e-09 1.5580956865505633e-07 0.0000000000000000e+00  -2.2971451837817302e-11 1.5580956865442648e-07 0.0000000000000000e+00  -4.1109669041463240e-14 1.5580956865511419e-07 0.0000000000000000e+00  -1.4388946878182120e-17 1.5580956865517701e-07 0.0000000000000000e+00  -4.1596328229738496e-18 1.5580956865605736e-07 0.0000000000000000e+00  -1.7134195915687565e-18 1.5580956864958611e-07 0.0000000000000000e+00  1.1711234367915887e-18 1.5580956865666508e-07 0.0000000000000000e+00  2.9787205843634746e-19 1.5580956865689333e-07 0.0000000000000000e+00  4.8390723230534435e-19 1.5580956864843589e-07 0.0000000000000000e+00  3.1706110330431037e-18 1.5580956864833383e-07 0.0000000000000000e+00  7.0047858376514787e-18 1.5580956864884612e-07 0.0000000000000000e+00  6.9948882186295036e-18 1.5580956865239696e-07 0.0000000000000000e+00  1.7872862439635030e-17 1.5580956865271664e-07 0.0000000000000000e+00  4.1110434865410079e-14 1.5580956865226618e-07 0.0000000000000000e+00  2.2971451705272479e-11 1.5580956865423918e-07 0.0000000000000000e+00  7.9059471457979609e-09 1.5580956865357519e-07 0.0000000000000000e+00  -1.0466380399651239e-08 2.2390197698535100e-07 0.0000000000000000e+00  -2.8289937297063024e-11 2.2390197698860334e-07 0.0000000000000000e+00  -4.4494809088513715e-14 2.2390197698800512e-07 0.0000000000000000e+00  -1.4714749345475585e-18 2.2390197698711373e-07 0.0000000000000000e+00  -3.4536071431467599e-18 2.2390197699414720e-07 0.0000000000000000e+00  -2.5953488738878226e-18 2.2390197699457720e-07 0.0000000000000000e+00  1.0399744018014139e-18 2.2390197698650461e-07 0.0000000000000000e+00  -1.9396079994923341e-18 2.2390197698117280e-07 0.0000000000000000e+00  8.7562000909721257e-19 2.2390197697965449e-07 0.0000000000000000e+00  2.7743184787509890e-18 2.2390197699106495e-07 0.0000000000000000e+00  5.6358597324422329e-18 2.2390197698180871e-07 0.0000000000000000e+00  8.8875888928281057e-18 2.2390197698664723e-07 0.0000000000000000e+00  5.5293960964232416e-18 2.2390197698823623e-07 0.0000000000000000e+00  4.4497280683851828e-14 2.2390197698573240e-07 0.0000000000000000e+00  2.8289938822296844e-11 2.2390197699241690e-07 0.0000000000000000e+00  1.0466380396391896e-08 2.2390197698710592e-07 0.0000000000000000e+00  -1.3934939008438186e-08 3.1441278758924971e-07 0.0000000000000000e+00  -3.5032106435506135e-11 3.1441278758406762e-07 0.0000000000000000e+00  -4.7842320130641670e-14 3.1441278758263084e-07 0.0000000000000000e+00  1.6243826639742537e-17 3.1441278758400430e-07 0.0000000000000000e+00  -1.3853147250877811e-18 3.1441278758119649e-07 0.0000000000000000e+00  -3.6298935902297473e-18 3.1441278758358677e-07 0.0000000000000000e+00  -3.4046968560823057e-18 3.1441278758154341e-07 0.0000000000000000e+00  -4.8664815878450544e-18 3.1441278757927193e-07 0.0000000000000000e+00  4.8899467593026957e-18 3.1441278757879002e-07 0.0000000000000000e+00  4.3398847625071474e-18 3.1441278757715477e-07 0.0000000000000000e+00  5.7503718971766237e-18 3.1441278758458230e-07 0.0000000000000000e+00  1.0404460791665834e-17 3.1441278758638018e-07 0.0000000000000000e+00  -1.0966736682971776e-17 3.1441278758606947e-07 0.0000000000000000e+00  4.7843953922623463e-14 3.1441278758589604e-07 0.0000000000000000e+00  3.5032108455651086e-11 3.1441278758662920e-07 0.0000000000000000e+00  1.3934939006908931e-08 3.1441278758706008e-07 0.0000000000000000e+00  -1.8527585090134045e-08 4.3491599134485342e-07 0.0000000000000000e+00  -4.3304056459062606e-11 4.3491599134209966e-07 0.0000000000000000e+00  -5.0646714097780681e-14 4.3491599134515623e-07 0.0000000000000000e+00  3.3122623152922852e-17 4.3491599134183788e-07 0.0000000000000000e+00  -3.3862535279024807e-18 4.3491599133821115e-07 0.0000000000000000e+00  -2.6931361740467086e-18 4.3491599133785719e-07 0.0000000000000000e+00  -9.4308577657594027e-19 4.3491599133976789e-07 0.0000000000000000e+00  -2.9252251476502318e-18 4.3491599134369081e-07 0.0000000000000000e+00  -8.3295824381044681e-19 4.3491599134397520e-07 0.0000000000000000e+00  5.3401373660106032e-18 4.3491599133372849e-07 0.0000000000000000e+00  8.8801807725066189e-18 4.3491599134080074e-07 0.0000000000000000e+00  9.0341357561420658e-18 4.3491599133869454e-07 0.0000000000000000e+00  -3.0159550876128502e-17 4.3491599134395625e-07 0.0000000000000000e+00  5.0650227440971808e-14 4.3491599134413588e-07 0.0000000000000000e+00  4.3304056814581311e-11 4.3491599134416790e-07 0.0000000000000000e+00  1.8527585082573314e-08 4.3491599134836591e-07 0.0000000000000000e+00  -2.4509198612675135e-08 5.9478555487491951e-07 0.0000000000000000e+00  -5.3194299079170651e-11 5.9478555488364575e-07 0.0000000000000000e+00  -5.2298207610670609e-14 5.9478555488121646e-07 0.0000000000000000e+00  5.6178494364989104e-17 5.9478555487923800e-07 0.0000000000000000e+00  -4.9508219546390188e-18 5.9478555488086600e-07 0.0000000000000000e+00  -4.2918118304525963e-18 5.9478555487503185e-07 0.0000000000000000e+00  -1.9197702201388944e-18 5.9478555486978956e-07 0.0000000000000000e+00  -1.5115948141524433e-18 5.9478555487319082e-07 0.0000000000000000e+00  -3.7888474150715758e-19 5.9478555487325816e-07 0.0000000000000000e+00  4.3339737573486988e-18 5.9478555488001896e-07 0.0000000000000000e+00  7.9723605240608008e-18 5.9478555486993006e-07 0.0000000000000000e+00  1.3821834168412077e-17 5.9478555487149485e-07 0.0000000000000000e+00  -4.9183926295803268e-17 5.9478555488740287e-07 0.0000000000000000e+00  5.2296655096925930e-14 5.9478555489154698e-07 0.0000000000000000e+00  5.3194303672295071e-11 5.9478555487262034e-07 0.0000000000000000e+00  2.4509198609598407e-08 5.9478555487548226e-07 0.0000000000000000e+00  -3.2196370936649600e-08 8.0557362749101283e-07 0.0000000000000000e+00  -6.4754218818180061e-11 8.0557362748859603e-07 0.0000000000000000e+00  -5.2082844391237405e-14 8.0557362748678105e-07 0.0000000000000000e+00  8.0777417834985025e-17 8.0557362748114416e-07 0.0000000000000000e+00  -4.5895403555633072e-18 8.0557362748445658e-07 0.0000000000000000e+00  -6.4274725142311657e-18 8.0557362748909335e-07 0.0000000000000000e+00  -1.3816475484694451e-18 8.0557362748368007e-07 0.0000000000000000e+00  -2.3998772083174077e-18 8.0557362747894166e-07 0.0000000000000000e+00  1.1494740265676612e-18 8.0557362747128385e-07 0.0000000000000000e+00  5.4598874886360924e-18 8.0557362747934538e-07 0.0000000000000000e+00  5.1280433028682739e-18 8.0557362748635076e-07 0.0000000000000000e+00  1.4738219795815006e-17 8.0557362748697323e-07 0.0000000000000000e+00  -6.5772082150069328e-17 8.0557362748480514e-07 0.0000000000000000e+00  5.2077239093167385e-14 8.0557362748894014e-07 0.0000000000000000e+00  6.4754214583184096e-11 8.0557362749068577e-07 0.0000000000000000e+00  3.2196370936957761e-08 8.0557362748884464e-07 0.0000000000000000e+00  -4.1959003166418300e-08 1.0814058899566543e-06 0.0000000000000000e+00  -7.7975280011576419e-11 1.0814058899646888e-06 0.0000000000000000e+00  -4.9206902517344166e-14 1.0814058899574625e-06 0.0000000000000000e+00  1.0588603725817992e-16 1.0814058899558199e-06 0.0000000000000000e+00  -1.7736421852282004e-18 1.0814058899651712e-06 0.0000000000000000e+00  -6.5610671544424928e-18 1.0814058899605038e-06 0.0000000000000000e+00  -6.2487397364445770e-18 1.0814058899561005e-06 0.0000000000000000e+00  -6.0567825414468645e-18 1.0814058899451268e-06 0.0000000000000000e+00  -3.8296317788877542e-19 1.0814058899454779e-06 0.0000000000000000e+00  8.6391923778170730e-18 1.0814058899446010e-06 0.0000000000000000e+00  1.3552604336001651e-17 1.0814058899512087e-06 0.0000000000000000e+00  1.3931877988459255e-17 1.0814058899646628e-06 0.0000000000000000e+00  -1.0199819350656870e-16 1.0814058899518366e-06 0.0000000000000000e+00  4.9203062928667087e-14 1.0814058899386512e-06 0.0000000000000000e+00  7.7975282422092639e-11 1.0814058899493418e-06 0.0000000000000000e+00  4.1959003166272663e-08 1.0814058899532863e-06 0.0000000000000000e+00  -5.4219982512782787e-08 1.4393824496147544e-06 0.0000000000000000e+00  -9.2763698982491967e-11 1.4393824496106497e-06 0.0000000000000000e+00  -4.2824266445471226e-14 1.4393824496134658e-06 0.0000000000000000e+00  1.3687669243046635e-16 1.4393824496184938e-06 0.0000000000000000e+00  -2.2500304526612368e-18 1.4393824496195736e-06 0.0000000000000000e+00  -9.2406702986218440e-18 1.4393824496147019e-06 0.0000000000000000e+00  -9.1098326143397315e-18 1.4393824496134082e-06 0.0000000000000000e+00  -1.0273837087143066e-17 1.4393824496099255e-06 0.0000000000000000e+00  5.0957597557967459e-18 1.4393824496127626e-06 0.0000000000000000e+00  8.9162934747726783e-18 1.4393824496181944e-06 0.0000000000000000e+00  1.3676507113923919e-17 1.4393824496166778e-06 0.0000000000000000e+00  1.4742302014792601e-17 1.4393824496092908e-06 0.0000000000000000e+00  -1.2996179374104287e-16 1.4393824496102524e-06 0.0000000000000000e+00  4.2818373216026199e-14 1.4393824496166651e-06 0.0000000000000000e+00  9.2763699357951910e-11 1.4393824496154422e-06 0.0000000000000000e+00  5.4219982522828975e-08 1.4393824496179871e-06 0.0000000000000000e+00  -6.9452127324713590e-08 1.8999669005257773e-06 0.0000000000000000e+00  -1.0891350380532645e-10 1.8999669005199692e-06 0.0000000000000000e+00  -3.2081869129485426e-14 1.8999669005255795e-06 0.0000000000000000e+00  1.6080996795215961e-16 1.8999669005305516e-06 0.0000000000000000e+00  -3.0851917639903177e-18 1.8999669005263766e-06 0.0000000000000000e+00  -1.0250419942190231e-17 1.8999669005307193e-06 0.0000000000000000e+00  -8.5017821405801178e-18 1.8999669005271459e-06 0.0000000000000000e+00  -7.8797412870191777e-18 1.8999669005270758e-06 0.0000000000000000e+00  4.0330082759095242e-18 1.8999669005306295e-06 0.0000000000000000e+00  8.0961000697735711e-18 1.8999669005225554e-06 0.0000000000000000e+00  1.1918722221638637e-17 1.8999669005246736e-06 0.0000000000000000e+00  1.1248974870691379e-17 1.8999669005200067e-06 0.0000000000000000e+00  -1.5375558351177430e-16 1.8999669005206710e-06 0.0000000000000000e+00  3.2085556259312751e-14 1.8999669005179098e-06 0.0000000000000000e+00  1.0891350510391361e-10 1.8999669005278947e-06 0.0000000000000000e+00  6.9452127327061830e-08 1.8999669005244178e-06 0.0000000000000000e+00  -8.8171541716938248e-08 2.4873398714523158e-06 0.0000000000000000e+00  -1.2607953189665932e-10 2.4873398714475991e-06 0.0000000000000000e+00  -1.6205897646656709e-14 2.4873398714458411e-06 0.0000000000000000e+00  1.8085749257955571e-16 2.4873398714529197e-06 0.0000000000000000e+00  -4.5769448724100481e-18 2.4873398714471353e-06 0.0000000000000000e+00  -8.7038301012176417e-18 2.4873398714459508e-06 0.0000000000000000e+00  -1.1133868617457689e-17 2.4873398714426605e-06 0.0000000000000000e+00  -8.1042178334678091e-18 2.4873398714378286e-06 0.0000000000000000e+00  1.8020236473599430e-18 2.4873398714326452e-06 0.0000000000000000e+00  7.8367622464519919e-18 2.4873398714277832e-06 0.0000000000000000e+00  1.1354511954716867e-17 2.4873398714364030e-06 0.0000000000000000e+00  1.2488917166604259e-17 2.4873398714324440e-06 0.0000000000000000e+00  -1.7211150980808059e-16 2.4873398714438870e-06 0.0000000000000000e+00  1.6207946896635617e-14 2.4873398714460177e-06 0.0000000000000000e+00  1.2607953463862161e-10 2.4873398714403227e-06 0.0000000000000000e+00  8.8171541721602700e-08 2.4873398714393456e-06 0.0000000000000000e+00  -1.1092652074265840e-07 3.2296868835950442e-06 0.0000000000000000e+00  -1.4375249774065611e-10 3.2296868835889701e-06 0.0000000000000000e+00  5.4511696578728483e-15 3.2296868835849137e-06 0.0000000000000000e+00  1.9645155064216185e-16 3.2296868835766229e-06 0.0000000000000000e+00  -3.4023111817964631e-18 3.2296868835870541e-06 0.0000000000000000e+00  -1.1132272261917643e-17 3.2296868836065431e-06 0.0000000000000000e+00  -1.3316253706542108e-17 3.2296868835975933e-06 0.0000000000000000e+00  -1.0662967847679079e-17 3.2296868835923989e-06 0.0000000000000000e+00  -3.4029847116502524e-18 3.2296868835849806e-06 0.0000000000000000e+00  1.0640601276930194e-17 3.2296868835907946e-06 0.0000000000000000e+00  1.3110016344856864e-17 3.2296868835738675e-06 0.0000000000000000e+00  1.3231205965122750e-17 3.2296868835826432e-06 0.0000000000000000e+00  -1.7785968346986763e-16 3.2296868835918420e-06 0.0000000000000000e+00  -5.4476432207637204e-15 3.2296868835922185e-06 0.0000000000000000e+00  1.4375249301654302e-10 3.2296868835982383e-06 0.0000000000000000e+00  1.1092652073931204e-07 3.2296868835953809e-06 0.0000000000000000e+00  -1.3828121186420804e-07 4.1593840669108975e-06 0.0000000000000000e+00  -1.6123858253354819e-10 4.1593840669209018e-06 0.0000000000000000e+00  3.3285564988870630e-14 4.1593840669058619e-06 0.0000000000000000e+00  1.9433248328087513e-16 4.1593840669044278e-06 0.0000000000000000e+00  8.0587423305140651e-18 4.1593840669019554e-06 0.0000000000000000e+00  -6.3599925370750187e-18 4.1593840669000207e-06 0.0000000000000000e+00  -1.7231151363203701e-17 4.1593840669088053e-06 0.0000000000000000e+00  -1.3336805415325864e-17 4.1593840669122468e-06 0.0000000000000000e+00  7.5460030305366420e-19 4.1593840669088638e-06 0.0000000000000000e+00  5.1013199869519404e-18 4.1593840669149920e-06 0.0000000000000000e+00  5.7348958191347108e-18 4.1593840668983487e-06 0.0000000000000000e+00  2.4165764609120110e-17 4.1593840669134098e-06 0.0000000000000000e+00  -1.8567046608809804e-16 4.1593840668996540e-06 0.0000000000000000e+00  -3.3288222014975711e-14 4.1593840668948648e-06 0.0000000000000000e+00  1.6123858566600065e-10 4.1593840668993118e-06 0.0000000000000000e+00  1.3828121185961365e-07 4.1593840669123459e-06 0.0000000000000000e+00  -1.7079338793104531e-07 5.3130397973382457e-06 0.0000000000000000e+00  -1.7764678121661443e-10 5.3130397973265228e-06 0.0000000000000000e+00  6.7372893559387400e-14 5.3130397973216295e-06 0.0000000000000000e+00  1.8472794735142140e-16 5.3130397973324588e-06 0.0000000000000000e+00  -5.5582329835991144e-18 5.3130397973131126e-06 0.0000000000000000e+00  -6.0232782905911726e-18 5.3130397972875567e-06 0.0000000000000000e+00  -7.7706859568901094e-18 5.3130397973052377e-06 0.0000000000000000e+00  -1.1300304168277104e-17 5.3130397973162296e-06 0.0000000000000000e+00  -1.5688478103509605e-18 5.3130397973264508e-06 0.0000000000000000e+00  2.7678865003035656e-18 5.3130397973050784e-06 0.0000000000000000e+00  1.1723391374581671e-17 5.3130397973333228e-06 0.0000000000000000e+00  1.5958295862508223e-17 5.3130397973169530e-06 0.0000000000000000e+00  -1.7716875573667562e-16 5.3130397973114634e-06 0.0000000000000000e+00  -6.7373446787618524e-14 5.3130397973170225e-06 0.0000000000000000e+00  1.7764677833643758e-10 5.3130397973167777e-06 0.0000000000000000e+00  1.7079338793777671e-07 5.3130397973159035e-06 0.0000000000000000e+00  -2.0898593054543586e-07 6.7313462943851584e-06 0.0000000000000000e+00  -1.9188701069394272e-10 6.7313462943823674e-06 0.0000000000000000e+00  1.0732901678383116e-13 6.7313462943762519e-06 0.0000000000000000e+00  1.5261797668094655e-16 6.7313462943711197e-06 0.0000000000000000e+00  -9.9200516605569200e-18 6.7313462943710147e-06 0.0000000000000000e+00  -9.8358100891230100e-18 6.7313462943719904e-06 0.0000000000000000e+00  -5.3059533258467583e-18 6.7313462943640639e-06 0.0000000000000000e+00  -4.3250965184632906e-18 6.7313462943739657e-06 0.0000000000000000e+00  -2.8188771373042744e-18 6.7313462943771895e-06 0.0000000000000000e+00  9.5376180972702748e-18 6.7313462943954558e-06 0.0000000000000000e+00  1.4248151813417