<?xml version="1.0"?>
<VTKFile type="UnstructuredGrid"  version="0.1"  >
<UnstructuredGrid>
<Piece  NumberOfPoints="1876" NumberOfCells="3600">
<Points>
<DataArray  type="Float64"  NumberOfComponents="3"  format="ascii">-0.75 -3 0  -0.65 -3 0  -0.55 -3 0  -0.45 -3 0  -0.35 -3 0  -0.25 -3 0  -0.15 -3 0  -0.05000000000000004 -3 0  0.05000000000000004 -3 0  0.15 -3 0  0.25 -3 0  0.3500000000000001 -3 0  0.45 -3 0  0.55 -3 0  0.6499999999999999 -3 0  0.75 -3 0  -0.75 -2.95 0  -0.65 -2.95 0  -0.55 -2.95 0  -0.45 -2.95 0  -0.35 -2.95 0  -0.25 -2.95 0  -0.15 -2.95 0  -0.05000000000000004 -2.95 0  0.05000000000000004 -2.95 0  0.15 -2.95 0  0.25 -2.95 0  0.3500000000000001 -2.95 0  0.45 -2.95 0  0.55 -2.95 0  0.6499999999999999 -2.95 0  0.75 -2.95 0  -0.75 -2.9 0  -0.65 -2.9 0  -0.55 -2.9 0  -0.45 -2.9 0  -0.35 -2.9 0  -0.25 -2.9 0  -0.15 -2.9 0  -0.05000000000000004 -2.9 0  0.05000000000000004 -2.9 0  0.15 -2.9 0  0.25 -2.9 0  0.3500000000000001 -2.9 0  0.45 -2.9 0  0.55 -2.9 0  0.6499999999999999 -2.9 0  0.75 -2.9 0  -0.75 -2.85 0  -0.65 -2.85 0  -0.55 -2.85 0  -0.45 -2.85 0  -0.35 -2.85 0  -0.25 -2.85 0  -0.15 -2.85 0  -0.05000000000000004 -2.85 0  0.05000000000000004 -2.85 0  0.15 -2.85 0  0.25 -2.85 0  0.3500000000000001 -2.85 0  0.45 -2.85 0  0.55 -2.85 0  0.6499999999999999 -2.85 0  0.75 -2.85 0  -0.75 -2.8 0  -0.65 -2.8 0  -0.55 -2.8 0  -0.45 -2.8 0  -0.35 -2.8 0  -0.25 -2.8 0  -0.15 -2.8 0  -0.05000000000000004 -2.8 0  0.05000000000000004 -2.8 0  0.15 -2.8 0  0.25 -2.8 0  0.3500000000000001 -2.8 0  0.45 -2.8 0  0.55 -2.8 0  0.6499999999999999 -2.8 0  0.75 -2.8 0  -0.75 -2.75 0  -0.65 -2.75 0  -0.55 -2.75 0  -0.45 -2.75 0  -0.35 -2.75 0  -0.25 -2.75 0  -0.15 -2.75 0  -0.05000000000000004 -2.75 0  0.05000000000000004 -2.75 0  0.15 -2.75 0  0.25 -2.75 0  0.3500000000000001 -2.75 0  0.45 -2.75 0  0.55 -2.75 0  0.6499999999999999 -2.75 0  0.75 -2.75 0  -0.75 -2.7 0  -0.65 -2.7 0  -0.55 -2.7 0  -0.45 -2.7 0  -0.35 -2.7 0  -0.25 -2.7 0  -0.15 -2.7 0  -0.05000000000000004 -2.7 0  0.05000000000000004 -2.7 0  0.15 -2.7 0  0.25 -2.7 0  0.3500000000000001 -2.7 0  0.45 -2.7 0  0.55 -2.7 0  0.6499999999999999 -2.7 0  0.75 -2.7 0  -0.75 -2.65 0  -0.65 -2.65 0  -0.55 -2.65 0  -0.45 -2.65 0  -0.35 -2.65 0  -0.25 -2.65 0  -0.15 -2.65 0  -0.05000000000000004 -2.65 0  0.05000000000000004 -2.65 0  0.15 -2.65 0  0.25 -2.65 0  0.3500000000000001 -2.65 0  0.45 -2.65 0  0.55 -2.65 0  0.6499999999999999 -2.65 0  0.75 -2.65 0  -0.75 -2.6 0  -0.65 -2.6 0  -0.55 -2.6 0  -0.45 -2.6 0  -0.35 -2.6 0  -0.25 -2.6 0  -0.15 -2.6 0  -0.05000000000000004 -2.6 0  0.05000000000000004 -2.6 0  0.15 -2.6 0  0.25 -2.6 0  0.3500000000000001 -2.6 0  0.45 -2.6 0  0.55 -2.6 0  0.6499999999999999 -2.6 0  0.75 -2.6 0  -0.75 -2.55 0  -0.65 -2.55 0  -0.55 -2.55 0  -0.45 -2.55 0  -0.35 -2.55 0  -0.25 -2.55 0  -0.15 -2.55 0  -0.05000000000000004 -2.55 0  0.05000000000000004 -2.55 0  0.15 -2.55 0  0.25 -2.55 0  0.3500000000000001 -2.55 0  0.45 -2.55 0  0.55 -2.55 0  0.6499999999999999 -2.55 0  0.75 -2.55 0  -0.75 -2.5 0  -0.65 -2.5 0  -0.55 -2.5 0  -0.45 -2.5 0  -0.35 -2.5 0  -0.25 -2.5 0  -0.15 -2.5 0  -0.05000000000000004 -2.5 0  0.05000000000000004 -2.5 0  0.15 -2.5 0  0.25 -2.5 0  0.3500000000000001 -2.5 0  0.45 -2.5 0  0.55 -2.5 0  0.6499999999999999 -2.5 0  0.75 -2.5 0  -0.75 -2.45 0  -0.65 -2.45 0  -0.55 -2.45 0  -0.45 -2.45 0  -0.35 -2.45 0  -0.25 -2.45 0  -0.15 -2.45 0  -0.05000000000000004 -2.45 0  0.05000000000000004 -2.45 0  0.15 -2.45 0  0.25 -2.45 0  0.3500000000000001 -2.45 0  0.45 -2.45 0  0.55 -2.45 0  0.6499999999999999 -2.45 0  0.75 -2.45 0  -0.75 -2.4 0  -0.65 -2.4 0  -0.55 -2.4 0  -0.45 -2.4 0  -0.35 -2.4 0  -0.25 -2.4 0  -0.15 -2.4 0  -0.05000000000000004 -2.4 0  0.05000000000000004 -2.4 0  0.15 -2.4 0  0.25 -2.4 0  0.3500000000000001 -2.4 0  0.45 -2.4 0  0.55 -2.4 0  0.6499999999999999 -2.4 0  0.75 -2.4 0  -0.75 -2.35 0  -0.65 -2.35 0  -0.55 -2.35 0  -0.45 -2.35 0  -0.35 -2.35 0  -0.25 -2.35 0  -0.15 -2.35 0  -0.05000000000000004 -2.35 0  0.05000000000000004 -2.35 0  0.15 -2.35 0  0.25 -2.35 0  0.3500000000000001 -2.35 0  0.45 -2.35 0  0.55 -2.35 0  0.6499999999999999 -2.35 0  0.75 -2.35 0  -0.75 -2.3 0  -0.65 -2.3 0  -0.55 -2.3 0  -0.45 -2.3 0  -0.35 -2.3 0  -0.25 -2.3 0  -0.15 -2.3 0  -0.05000000000000004 -2.3 0  0.05000000000000004 -2.3 0  0.15 -2.3 0  0.25 -2.3 0  0.3500000000000001 -2.3 0  0.45 -2.3 0  0.55 -2.3 0  0.6499999999999999 -2.3 0  0.75 -2.3 0  -0.75 -2.25 0  -0.65 -2.25 0  -0.55 -2.25 0  -0.45 -2.25 0  -0.35 -2.25 0  -0.25 -2.25 0  -0.15 -2.25 0  -0.05000000000000004 -2.25 0  0.05000000000000004 -2.25 0  0.15 -2.25 0  0.25 -2.25 0  0.3500000000000001 -2.25 0  0.45 -2.25 0  0.55 -2.25 0  0.6499999999999999 -2.25 0  0.75 -2.25 0  -0.75 -2.2 0  -0.65 -2.2 0  -0.55 -2.2 0  -0.45 -2.2 0  -0.35 -2.2 0  -0.25 -2.2 0  -0.15 -2.2 0  -0.05000000000000004 -2.2 0  0.05000000000000004 -2.2 0  0.15 -2.2 0  0.25 -2.2 0  0.3500000000000001 -2.2 0  0.45 -2.2 0  0.55 -2.2 0  0.6499999999999999 -2.2 0  0.75 -2.2 0  -0.75 -2.15 0  -0.65 -2.15 0  -0.55 -2.15 0  -0.45 -2.15 0  -0.35 -2.15 0  -0.25 -2.15 0  -0.15 -2.15 0  -0.05000000000000004 -2.15 0  0.05000000000000004 -2.15 0  0.15 -2.15 0  0.25 -2.15 0  0.3500000000000001 -2.15 0  0.45 -2.15 0  0.55 -2.15 0  0.6499999999999999 -2.15 0  0.75 -2.15 0  -0.75 -2.1 0  -0.65 -2.1 0  -0.55 -2.1 0  -0.45 -2.1 0  -0.35 -2.1 0  -0.25 -2.1 0  -0.15 -2.1 0  -0.05000000000000004 -2.1 0  0.05000000000000004 -2.1 0  0.15 -2.1 0  0.25 -2.1 0  0.3500000000000001 -2.1 0  0.45 -2.1 0  0.55 -2.1 0  0.6499999999999999 -2.1 0  0.75 -2.1 0  -0.75 -2.05 0  -0.65 -2.05 0  -0.55 -2.05 0  -0.45 -2.05 0  -0.35 -2.05 0  -0.25 -2.05 0  -0.15 -2.05 0  -0.05000000000000004 -2.05 0  0.05000000000000004 -2.05 0  0.15 -2.05 0  0.25 -2.05 0  0.3500000000000001 -2.05 0  0.45 -2.05 0  0.55 -2.05 0  0.6499999999999999 -2.05 0  0.75 -2.05 0  -0.75 -2 0  -0.65 -2 0  -0.55 -2 0  -0.45 -2 0  -0.35 -2 0  -0.25 -2 0  -0.15 -2 0  -0.05000000000000004 -2 0  0.05000000000000004 -2 0  0.15 -2 0  0.25 -2 0  0.3500000000000001 -2 0  0.45 -2 0  0.55 -2 0  0.6499999999999999 -2 0  0.75 -2 0  -0.75 -1.95 0  -0.65 -1.95 0  -0.55 -1.95 0  -0.45 -1.95 0  -0.35 -1.95 0  -0.25 -1.95 0  -0.15 -1.95 0  -0.05000000000000004 -1.95 0  0.05000000000000004 -1.95 0  0.15 -1.95 0  0.25 -1.95 0  0.3500000000000001 -1.95 0  0.45 -1.95 0  0.55 -1.95 0  0.6499999999999999 -1.95 0  0.75 -1.95 0  -0.75 -1.9 0  -0.65 -1.9 0  -0.55 -1.9 0  -0.45 -1.9 0  -0.35 -1.9 0  -0.25 -1.9 0  -0.15 -1.9 0  -0.05000000000000004 -1.9 0  0.05000000000000004 -1.9 0  0.15 -1.9 0  0.25 -1.9 0  0.3500000000000001 -1.9 0  0.45 -1.9 0  0.55 -1.9 0  0.6499999999999999 -1.9 0  0.75 -1.9 0  -0.75 -1.85 0  -0.65 -1.85 0  -0.55 -1.85 0  -0.45 -1.85 0  -0.35 -1.85 0  -0.25 -1.85 0  -0.15 -1.85 0  -0.05000000000000004 -1.85 0  0.05000000000000004 -1.85 0  0.15 -1.85 0  0.25 -1.85 0  0.3500000000000001 -1.85 0  0.45 -1.85 0  0.55 -1.85 0  0.6499999999999999 -1.85 0  0.75 -1.85 0  -0.75 -1.8 0  -0.65 -1.8 0  -0.55 -1.8 0  -0.45 -1.8 0  -0.35 -1.8 0  -0.25 -1.8 0  -0.15 -1.8 0  -0.05000000000000004 -1.8 0  0.05000000000000004 -1.8 0  0.15 -1.8 0  0.25 -1.8 0  0.3500000000000001 -1.8 0  0.45 -1.8 0  0.55 -1.8 0  0.6499999999999999 -1.8 0  0.75 -1.8 0  -0.75 -1.75 0  -0.65 -1.75 0  -0.55 -1.75 0  -0.45 -1.75 0  -0.35 -1.75 0  -0.25 -1.75 0  -0.15 -1.75 0  -0.05000000000000004 -1.75 0  0.05000000000000004 -1.75 0  0.15 -1.75 0  0.25 -1.75 0  0.3500000000000001 -1.75 0  0.45 -1.75 0  0.55 -1.75 0  0.6499999999999999 -1.75 0  0.75 -1.75 0  -0.75 -1.7 0  -0.65 -1.7 0  -0.55 -1.7 0  -0.45 -1.7 0  -0.35 -1.7 0  -0.25 -1.7 0  -0.15 -1.7 0  -0.05000000000000004 -1.7 0  0.05000000000000004 -1.7 0  0.15 -1.7 0  0.25 -1.7 0  0.3500000000000001 -1.7 0  0.45 -1.7 0  0.55 -1.7 0  0.6499999999999999 -1.7 0  0.75 -1.7 0  -0.75 -1.65 0  -0.65 -1.65 0  -0.55 -1.65 0  -0.45 -1.65 0  -0.35 -1.65 0  -0.25 -1.65 0  -0.15 -1.65 0  -0.05000000000000004 -1.65 0  0.05000000000000004 -1.65 0  0.15 -1.65 0  0.25 -1.65 0  0.3500000000000001 -1.65 0  0.45 -1.65 0  0.55 -1.65 0  0.6499999999999999 -1.65 0  0.75 -1.65 0  -0.75 -1.6 0  -0.65 -1.6 0  -0.55 -1.6 0  -0.45 -1.6 0  -0.35 -1.6 0  -0.25 -1.6 0  -0.15 -1.6 0  -0.05000000000000004 -1.6 0  0.05000000000000004 -1.6 0  0.15 -1.6 0  0.25 -1.6 0  0.3500000000000001 -1.6 0  0.45 -1.6 0  0.55 -1.6 0  0.6499999999999999 -1.6 0  0.75 -1.6 0  -0.75 -1.55 0  -0.65 -1.55 0  -0.55 -1.55 0  -0.45 -1.55 0  -0.35 -1.55 0  -0.25 -1.55 0  -0.15 -1.55 0  -0.05000000000000004 -1.55 0  0.05000000000000004 -1.55 0  0.15 -1.55 0  0.25 -1.55 0  0.3500000000000001 -1.55 0  0.45 -1.55 0  0.55 -1.55 0  0.6499999999999999 -1.55 0  0.75 -1.55 0  -0.75 -1.5 0  -0.65 -1.5 0  -0.55 -1.5 0  -0.45 -1.5 0  -0.35 -1.5 0  -0.25 -1.5 0  -0.15 -1.5 0  -0.05000000000000004 -1.5 0  0.05000000000000004 -1.5 0  0.15 -1.5 0  0.25 -1.5 0  0.3500000000000001 -1.5 0  0.45 -1.5 0  0.55 -1.5 0  0.6499999999999999 -1.5 0  0.75 -1.5 0  -0.75 -1.45 0  -0.65 -1.45 0  -0.55 -1.45 0  -0.45 -1.45 0  -0.35 -1.45 0  -0.25 -1.45 0  -0.15 -1.45 0  -0.05000000000000004 -1.45 0  0.05000000000000004 -1.45 0  0.15 -1.45 0  0.25 -1.45 0  0.3500000000000001 -1.45 0  0.45 -1.45 0  0.55 -1.45 0  0.6499999999999999 -1.45 0  0.75 -1.45 0  -0.75 -1.4 0  -0.65 -1.4 0  -0.55 -1.4 0  -0.45 -1.4 0  -0.35 -1.4 0  -0.25 -1.4 0  -0.15 -1.4 0  -0.05000000000000004 -1.4 0  0.05000000000000004 -1.4 0  0.15 -1.4 0  0.25 -1.4 0  0.3500000000000001 -1.4 0  0.45 -1.4 0  0.55 -1.4 0  0.6499999999999999 -1.4 0  0.75 -1.4 0  -0.75 -1.35 0  -0.65 -1.35 0  -0.55 -1.35 0  -0.45 -1.35 0  -0.35 -1.35 0  -0.25 -1.35 0  -0.15 -1.35 0  -0.05000000000000004 -1.35 0  0.05000000000000004 -1.35 0  0.15 -1.35 0  0.25 -1.35 0  0.3500000000000001 -1.35 0  0.45 -1.35 0  0.55 -1.35 0  0.6499999999999999 -1.35 0  0.75 -1.35 0  -0.75 -1.3 0  -0.65 -1.3 0  -0.55 -1.3 0  -0.45 -1.3 0  -0.35 -1.3 0  -0.25 -1.3 0  -0.15 -1.3 0  -0.05000000000000004 -1.3 0  0.05000000000000004 -1.3 0  0.15 -1.3 0  0.25 -1.3 0  0.3500000000000001 -1.3 0  0.45 -1.3 0  0.55 -1.3 0  0.6499999999999999 -1.
[...]
<PointData  Vectors="flow"> 
<DataArray  type="Float64"  Name="flow"  NumberOfComponents="3" format="ascii">1.1732299438048954e-09 1.1241179926688798e-08 0.0000000000000000e+00  5.3023048099433025e-10 5.0803478644108071e-09 0.0000000000000000e+00  -4.8913824305133996e-11 -4.6866268869105286e-10 0.0000000000000000e+00  6.3889471286884740e-12 6.1215028302782803e-11 0.0000000000000000e+00  -9.1820419242656157e-13 -8.7976773785987113e-12 0.0000000000000000e+00  1.3815787859024977e-13 1.3237452553298391e-12 0.0000000000000000e+00  -2.1357767293947501e-14 -2.0463721221177674e-13 0.0000000000000000e+00  3.3610977595716293e-15 3.2204006440546885e-14 0.0000000000000000e+00  -5.3566911812950720e-16 -5.1324575969618074e-15 0.0000000000000000e+00  8.6179838422373537e-17 8.2572310302367473e-16 0.0000000000000000e+00  -1.3966375086824938e-17 -1.3381736129702075e-16 0.0000000000000000e+00  2.2766026628978605e-18 2.1813030165440036e-17 0.0000000000000000e+00  -3.7287095678412477e-19 -3.5726240510479045e-18 0.0000000000000000e+00  6.1355017370097542e-20 5.8786667805768063e-19 0.0000000000000000e+00  -1.0391970037096381e-20 -9.9569573378691259e-20 0.0000000000000000e+00  3.3467646327879931e-21 3.2066675086247859e-20 0.0000000000000000e+00  -2.3927623696413018e-10 -2.2926002239353943e-09 0.0000000000000000e+00  -8.4612719236926104e-11 -8.1070791454915534e-10 0.0000000000000000e+00  2.9417082009256425e-11 2.8185669273985316e-10 0.0000000000000000e+00  -4.7272288934192104e-12 -4.5293448932295816e-11 0.0000000000000000e+00  7.4169150798329458e-13 7.1064395648632174e-12 0.0000000000000000e+00  -1.1714177730734702e-13 -1.1223816802471425e-12 0.0000000000000000e+00  1.8673277945000984e-14 1.7891605844977749e-13 0.0000000000000000e+00  -3.0014325680948724e-15 -2.8757912047792822e-14 0.0000000000000000e+00  4.8578914073511996e-16 4.6545378135551165e-15 0.0000000000000000e+00  -7.9079206253987744e-17 -7.5768913899169885e-16 0.0000000000000000e+00  1.2934691453802974e-17 1.2393239253411260e-16 0.0000000000000000e+00  -2.1242209686843044e-18 -2.0353000909254335e-17 0.0000000000000000e+00  3.5005784578939311e-19 3.3540426154704746e-18 0.0000000000000000e+00  -5.7899054446707347e-20 -5.5475373097775612e-19 0.0000000000000000e+00  9.8513616773370620e-21 9.4389790954950740e-20 0.0000000000000000e+00  -3.1840207150825259e-21 -3.0507361270093135e-20 0.0000000000000000e+00  1.1427234514722304e-11 1.0948885162943261e-10 0.0000000000000000e+00  -1.9405353459415448e-12 -1.8593036337858550e-11 0.0000000000000000e+00  -5.3123879609373732e-12 -5.0900089300144320e-11 0.0000000000000000e+00  1.8670826892729902e-12 1.7889257394894764e-11 0.0000000000000000e+00  -3.8838588683779226e-13 -3.7212787297016487e-12 0.0000000000000000e+00  7.1253026998740704e-14 6.8270342147630840e-13 0.0000000000000000e+00  -1.2470535012847268e-14 -1.1948512616960672e-13 0.0000000000000000e+00  2.1367547469926928e-15 2.0473091994441675e-14 0.0000000000000000e+00  -3.6230129713140820e-16 -3.4713519632125729e-15 0.0000000000000000e+00  6.1099216377107299e-17 5.8541574761321616e-16 0.0000000000000000e+00  -1.0275210787110163e-17 -9.8450856843939584e-17 0.0000000000000000e+00  1.7256770508907897e-18 1.6534394069000166e-17 0.0000000000000000e+00  -2.8967226567925886e-19 -2.7754644990663954e-18 0.0000000000000000e+00  4.8658459755487484e-20 4.6621593998281171e-19 0.0000000000000000e+00  -8.3929628226955589e-21 -8.0416294952339066e-20 0.0000000000000000e+00  2.7418691639013335e-21 2.6270932454124483e-20 0.0000000000000000e+00  -1.0258625528307860e-12 -9.8291946922391834e-12 0.0000000000000000e+00  4.1083223419345052e-13 3.9363460578535327e-12 0.0000000000000000e+00  3.7594692344619627e-13 3.6020961037170576e-12 0.0000000000000000e+00  -3.7859445802556197e-13 -3.6274631792216748e-12 0.0000000000000000e+00  1.3040046051772577e-13 1.2494183658907723e-12 0.0000000000000000e+00  -3.0984333160531314e-14 -2.9687314563113834e-13 0.0000000000000000e+00  6.3544448816805615e-15 6.0884448633776729e-14 0.0000000000000000e+00  -1.2124281789198859e-15 -1.1616753714302201e-14 0.0000000000000000e+00  2.2222683439181910e-16 2.1292431574285987e-15 0.0000000000000000e+00  -3.9756489417190951e-17 -3.8092264278797037e-16 0.0000000000000000e+00  7.0029847988680501e-18 6.7098365979852235e-17 0.0000000000000000e+00  -1.2208460378834235e-18 -1.1697408549022600e-17 0.0000000000000000e+00  2.1132320776731216e-19 2.0247712000030893e-18 0.0000000000000000e+00  -3.6424249598856446e-20 -3.4899513569136979e-19 0.0000000000000000e+00  6.4273928245696995e-21 6.1583391714481953e-20 0.0000000000000000e+00  -2.1374674322382583e-21 -2.0479920513538719e-20 0.0000000000000000e+00  1.1276193830960985e-13 1.0804167112455665e-12 0.0000000000000000e+00  -5.9879472270689542e-14 -5.7372889710521217e-13 0.0000000000000000e+00  -2.4966829871542966e-14 -2.3921706760641295e-13 0.0000000000000000e+00  4.9611956150719888e-14 4.7535176590922479e-13 0.0000000000000000e+00  -2.8820088293784335e-14 -2.7613665993114382e-13 0.0000000000000000e+00  9.6956894385384400e-15 9.2898233690182569e-14 0.0000000000000000e+00  -2.4775746770842235e-15 -2.3738622487411708e-14 0.0000000000000000e+00  5.4924344401885849e-16 5.2625185799016374e-15 0.0000000000000000e+00  -1.1223820852610447e-16 -1.0753986491338415e-15 0.0000000000000000e+00  2.1805607593102895e-17 2.0892814717112610e-16 0.0000000000000000e+00  -4.0977009149311756e-18 -3.9261692487247675e-17 0.0000000000000000e+00  7.5257903297342903e-19 7.2107572461640389e-18 0.0000000000000000e+00  -1.3597691201606614e-19 -1.3028485523399865e-18 0.0000000000000000e+00  2.4296343509838794e-20 2.3279287269892128e-19 0.0000000000000000e+00  -4.4260405355443169e-21 -4.2407644201029394e-20 0.0000000000000000e+00  1.5088858800550309e-21 1.4457232153085455e-20 0.0000000000000000e+00  -1.3753860078035751e-14 -1.3178117098024977e-13 0.0000000000000000e+00  8.4595446908840758e-15 8.1054242154517327e-14 0.0000000000000000e+00  1.2180405281245992e-15 1.1670527850868377e-14 0.0000000000000000e+00  -5.9736615532719188e-15 -5.7236013022047434e-14 0.0000000000000000e+00  4.8592722397849259e-15 4.6558608437009205e-14 0.0000000000000000e+00  -2.2752627930565391e-15 -2.1800192342774354e-14 0.0000000000000000e+00  7.5060879097178977e-16 7.1918795786134520e-15 0.0000000000000000e+00  -2.0009371543110113e-16 -1.9171769943631150e-15 0.0000000000000000e+00  4.6866365561217100e-17 4.4904517700515125e-16 0.0000000000000000e+00  -1.0106951832746565e-17 -9.6838701281199953e-17 0.0000000000000000e+00  2.0621264730300276e-18 1.9758048997404042e-17 0.0000000000000000e+00  -4.0474253430315535e-19 -3.8779982356488492e-18 0.0000000000000000e+00  7.7245645322934152e-20 7.4012106681509249e-19 0.0000000000000000e+00  -1.4452255517390320e-20 -1.3847277379453098e-19 0.0000000000000000e+00  2.7424570249549186e-21 2.6276564983289061e-20 0.0000000000000000e+00  -9.6500396791890812e-22 -9.2460845298277046e-21 0.0000000000000000e+00  1.7886015048307578e-15 1.7137298139308684e-14 0.0000000000000000e+00  -1.2049396256023557e-15 -1.1545002924376080e-14 0.0000000000000000e+00  4.3078509450557540e-17 4.1275223008439825e-16 0.0000000000000000e+00  7.0185408410030799e-16 6.7247414569611266e-15 0.0000000000000000e+00  -7.3643783027761227e-16 -7.0561020017297054e-15 0.0000000000000000e+00  4.3922209983849649e-16 4.2083605844990981e-15 0.0000000000000000e+00  -1.8367226616963205e-16 -1.7598365967881083e-15 0.0000000000000000e+00  5.9684261331337956e-17 5.7185850391886796e-16 0.0000000000000000e+00  -1.6333156524468335e-17 -1.5649442995537157e-16 0.0000000000000000e+00  3.9808581419380408e-18 3.8142175685546022e-17 0.0000000000000000e+00  -8.9566981282394140e-19 -8.5817665786852378e-18 0.0000000000000000e+00  1.9036628721679057e-19 1.8239746589143709e-18 0.0000000000000000e+00  -3.8808443630796455e-20 -3.7183904129972531e-19 0.0000000000000000e+00  7.6761144072851053e-21 7.3547886879104071e-20 0.0000000000000000e+00  -1.5306377744962219e-21 -1.4665645653312682e-20 0.0000000000000000e+00  5.5957731085930927e-22 5.3615314435822335e-21 0.0000000000000000e+00  -2.4296443787527543e-16 -2.3279383349910149e-15 0.0000000000000000e+00  1.7417260963094789e-16 1.6688166318128051e-15 0.0000000000000000e+00  -2.8730899487034715e-17 -2.7528210671298209e-16 0.0000000000000000e+00  -8.1409308356464795e-17 -7.8001476843869040e-16 0.0000000000000000e+00  1.0647212147539990e-16 1.0201514894852311e-15 0.0000000000000000e+00  -7.6284502690087037e-17 -7.3091197926316202e-16 0.0000000000000000e+00  3.8550858858116905e-17 3.6937101975684229e-16 0.0000000000000000e+00  -1.5050419572512683e-17 -1.4420402009012206e-16 0.0000000000000000e+00  4.8341864909184219e-18 4.6318251959497610e-17 0.0000000000000000e+00  -1.3459527979314328e-18 -1.2896105877854710e-17 0.0000000000000000e+00  3.3788751315941982e-19 3.2374338470158477e-18 0.0000000000000000e+00  -7.8630763400742159e-20 -7.5339243072339267e-19 0.0000000000000000e+00  1.7293302240491280e-20 1.6569396565307985e-19 0.0000000000000000e+00  -3.6481700660146609e-21 -3.4954559702280122e-20 0.0000000000000000e+00  7.7078483820768347e-22 7.3851942637573653e-21 0.0000000000000000e+00  -2.9456097195638918e-22 -2.8223051266519243e-21 0.0000000000000000e+00  3.4066200530567666e-17 3.2640173531613721e-16 0.0000000000000000e+00  -2.5549580028264112e-17 -2.4480062724755405e-16 0.0000000000000000e+00  6.7177688687744763e-18 6.4365599393838937e-17 0.0000000000000000e+00  9.2890950809723891e-18 8.9002492403736055e-17 0.0000000000000000e+00  -1.5050279683431923e-17 -1.4420267975753447e-16 0.0000000000000000e+00  1.2490280276213504e-17 1.1967431334418561e-16 0.0000000000000000e+00  -7.3349782952978354e-18 -7.0279326922388813e-17 0.0000000000000000e+00  3.3430731261617265e-18 3.2031305301828757e-17 0.0000000000000000e+00  -1.2465874278853050e-18 -1.1944046983459242e-17 0.0000000000000000e+00  3.9679650068210430e-19 3.8018641460704091e-18 0.0000000000000000e+00  -1.1180728350647089e-19 -1.0712697861550279e-18 0.0000000000000000e+00  2.8708123301619709e-20 2.7506387907598522e-19 0.0000000000000000e+00  -6.8653834229216107e-21 -6.5779952796365447e-20 0.0000000000000000e+00  1.5564167671101966e-21 1.4912644373241932e-20 0.0000000000000000e+00  -3.5106051400741345e-22 -3.3636495760710419e-21 0.0000000000000000e+00  1.4100833161112969e-22 1.3510565726461776e-21 0.0000000000000000e+00  -4.8927640634944194e-18 -4.6879506840923329e-17 0.0000000000000000e+00  3.7978358017028611e-18 3.6388566286083253e-17 0.0000000000000000e+00  -1.2913097016067042e-18 -1.2372548768882805e-17 0.0000000000000000e+00  -1.0289970223663111e-18 -9.8592272840679967e-18 0.0000000000000000e+00  2.1031175934920970e-18 2.0150801128342986e-17 0.0000000000000000e+00  -1.9757942150211506e-18 -1.8930865502063178e-17 0.0000000000000000e+00  1.3106400392941864e-18 1.2557760376493177e-17 0.0000000000000000e+00  -6.7897119114645273e-19 -6.5054914128451050e-18 0.0000000000000000e+00  2.8844917051452592e-19 2.7637455407438391e-18 0.0000000000000000e+00  -1.0409384264448964e-19 -9.9736425975650891e-19 0.0000000000000000e+00  3.2896140571178693e-20 3.1519092826338757e-19 0.0000000000000000e+00  -9.3499787758848152e-21 -8.9585843154989761e-20 0.0000000000000000e+00  2.4436782622240834e-21 2.3413847535728490e-20 0.0000000000000000e+00  -5.9878245627352902e-22 -5.7371714415045284e-21 0.0000000000000000e+00  1.4511121972808103e-22 1.3903679657667339e-21 0.0000000000000000e+00  -6.1538584648838331e-23 -5.8962550872840626e-22 0.0000000000000000e+00  7.1614183004705777e-19 6.8616379995206519e-18 0.0000000000000000e+00  -5.7110289663719866e-19 -5.4719626375471175e-18 0.0000000000000000e+00  2.2977783828585003e-19 2.2015923110179063e-18 0.0000000000000000e+00  1.0768717173500601e-19 1.0317933663912329e-18 0.0000000000000000e+00  -2.9200336069948305e-19 -2.7977996420508739e-18 0.0000000000000000e+00  3.0608152581998956e-19 2.9326881078566559e-18 0.0000000000000000e+00  -2.2473781152332253e-19 -2.1533018220374257e-18 0.0000000000000000e+00  1.2952314606441161e-19 1.2410124692683196e-18 0.0000000000000000e+00  -6.1518853324484845e-20 -5.8943645510901942e-19 0.0000000000000000e+00  2.4841371497001215e-20 2.3801500132010543e-19 0.0000000000000000e+00  -8.7476627998252524e-21 -8.3814815663442253e-20 0.0000000000000000e+00  2.7484050589356766e-21 2.6333555448407039e-20 0.0000000000000000e+00  -7.8638160764006900e-22 -7.5346330778537108e-21 0.0000000000000000e+00  2.0899368916861485e-22 2.0024511613365018e-21 0.0000000000000000e+00  -5.4683354627730722e-23 -5.2394283968895650e-22 0.0000000000000000e+00  2.4565545381299104e-23 2.3537220225802939e-22 0.0000000000000000e+00  -1.0643219163302813e-19 -1.0197689058792469e-18 0.0000000000000000e+00  8.6747770554108122e-20 8.3116468530912946e-19 0.0000000000000000e+00  -3.9368667927666735e-20 -3.7720677177206186e-19 0.0000000000000000e+00  -9.9952667599802504e-21 -9.5768602444463749e-20 0.0000000000000000e+00  4.0365961542596397e-20 3.8676223617557695e-19 0.0000000000000000e+00  -4.6803090258707553e-20 -4.4843891131599057e-19 0.0000000000000000e+00  3.7482173625502499e-20 3.5913152403969986e-19 0.0000000000000000e+00  -2.3636456618544293e-20 -2.2647023550791363e-19 0.0000000000000000e+00  1.2348081143700841e-20 1.1831184723732011e-19 0.0000000000000000e+00  -5.5028642368106116e-21 -5.2725117803859996e-20 0.0000000000000000e+00  2.1385636754080766e-21 2.0490424052747223e-20 0.0000000000000000e+00  -7.3891113287498342e-22 -7.0797996917324231e-21 0.0000000000000000e+00  2.3109050893778959e-22 2.2141695274969684e-21 0.0000000000000000e+00  -6.6677610356305869e-23 -6.3886454573949112e-22 0.0000000000000000e+00  1.8893248035991757e-23 1.8102367885647974e-22 0.0000000000000000e+00  -9.0078736698149814e-24 -8.6307998882878698e-23 0.0000000000000000e+00  1.6018093672084792e-20 1.5347568820695208e-19 0.0000000000000000e+00  -1.3292321397844932e-20 -1.2735898641656081e-19 0.0000000000000000e+00  6.6076583185714593e-21 6.3310586680265930e-20 0.0000000000000000e+00  6.6134512246205096e-22 6.3366090803343560e-21 0.0000000000000000e+00  -5.5579842395920182e-21 -5.3253244342137825e-20 0.0000000000000000e+00  7.0974765997224441e-21 6.8003729281061934e-20 0.0000000000000000e+00  -6.1330956057994655e-21 -5.8763613711381168e-20 0.0000000000000000e+00  4.1778050172042235e-21 4.0029201560189460e-20 0.0000000000000000e+00  -2.3686131639986769e-21 -2.2694619152731586e-20 0.0000000000000000e+00  1.1503747573312179e-21 1.1022195349313113e-20 0.0000000000000000e+00  -4.8828719550634972e-22 -4.6784726639213211e-21 0.0000000000000000e+00  1.8418086812393896e-22 1.7647097131875144e-21 0.0000000000000000e+00  -6.2699894716973525e-23 -6.0075247961379499e-22 0.0000000000000000e+00  1.9614142853247463e-23 1.8793085710553447e-22 0.0000000000000000e+00  -6.0250550005098761e-24 -5.7728433958373902e-23 0.0000000000000000e+00  3.0497802958869481e-24 2.9221150741986672e-23 0.0000000000000000e+00  -2.4362976225260613e-21 -2.3343130708854363e-20 0.0000000000000000e+00  2.0524088038339865e-21 1.9664940166967504e-20 0.0000000000000000e+00  -1.0959792592387824e-21 -1.0501010576892495e-20 0.0000000000000000e+00  1.8273397461377368e-23 1.7508464544384977e-22 0.0000000000000000e+00  7.6171050616758251e-22 7.2982495009545688e-21 0.0000000000000000e+00  -1.0704875454523842e-21 -1.0256764388985699e-20 0.0000000000000000e+00  9.9018381885823151e-22 9.4873426365021707e-21 0.0000000000000000e+00  -7.2136441710527113e-22 -6.9116776708691367e-21 0.0000000000000000e+00  4.3904228276075881e-22 4.2066376859868215e-21 0.0000000000000000e+00  -2.2987691750839711e-22 -2.2025416282200001e-21 0.0000000000000000e+00  1.0552307575625017e-22 1.0110583072459359e-21 0.0000000000000000e+00  -4.3104433744780219e-23 -4.1300062099650031e-22 0.0000000000000000e+00  1.5881733681978003e-23 1.5216916923197584e-22 0.0000000000000000e+00  -5.3693679052765522e-24 -5.1446036673812736e-23 0.0000000000000000e+00  1.7866532770356873e-24 1.7118631398574556e-23 0.0000000000000000e+00  -9.5903915855496520e-25 -9.1889333331313276e-24 0.0000000000000000e+00  3.7389312239352341e-22 3.5824178238635257e-21 0.0000000000000000e+00  -3.1904091537373859e-22 -3.0568571426507025e-21 0.0000000000000000e+00  1.8052300433496026e-22 1.7296622740931025e-21 0.0000000000000000e+00  -1.9675019525804213e-23 -1.8851414057281399e-22 0.0000000000000000e+00  -1.0373925466574274e-22 -9.9396681214619556e-22 0.0000000000000000e+00  1.6087218553614197e-22 1.5413800102532761e-21 0.0000000000000000e+00  -1.5834595204081594e-22 -1.5171751683910807e-21 0.0000000000000000e+00  1.2240608477187520e-22 1.1728210913026229e-21 0.0000000000000000e+00  -7.9274549918504322e-23 -7.5956080387032327e-22 0.0000000000000000e+00  4.4339960932261152e-23 4.2483869544399218e-22 0.0000000000000000e+00  -2.1818627250631835e-23 -2.0905289365721750e-22 0.0000000000000000e+00  9.5761867672776975e-24 9.1753231351591308e-23 0.0000000000000000e+00  -3.7946987210036186e-24 -3.6358508675662708e-23 0.0000000000000000e+00  1.3805551748535342e-24 1.3227644931154835e-23 0.0000000000000000e+00  -4.9648293502732243e-25 -4.7569992844478500e-24 0.0000000000000000e+00  2.8192343427401845e-25 2.7012198818813023e-24 0.0000000000000000e+00  -5.7825711252270223e-23 -5.5405100083570516e-22 0.0000000000000000e+00  4.9889745149524747e-23 4.7801337213032984e-22 0.0000000000000000e+00  -2.9613686023559774e-23 -2.8374043352806021e-22 0.0000000000000000e+00  5.4544146102171176e-24 5.2260902776962761e-23 0.0000000000000000e+00  1.4005015853867641e-23 1.3418759376264030e-22 0.0000000000000000e+00  -2.4114021196425919e-23 -2.3104597053319875e-22 0.0000000000000000e+00  2.5148307421550091e-23 2.4095587575996949e-22 0.0000000000000000e+00  -2.0499880213162459e-23 -1.9641745692611556e-22 0.0000000000000000e+00  1.4026366016452980e-23 1.3439215811113138e-22 0.0000000000000000e+00  -8.3167939285897688e-24 -7.9686490664627863e-23 0.0000000000000000e+00  4.3534043576020289e-24 4.1711688263535872e-23 0.0000000000000000e+00  -2.0381622091413944e-24 -1.9528437910843204e-23 0.0000000000000000e+00  8.6317183683043185e-25 8.2703906226544007e-24 0.0000000000000000e+00  -3.3630540702369021e-25 -3.2222750626456017e-24 0.0000000000000000e+00  1.3027616339236791e-25 1.2482274259919941e-24 0.0000000000000000e+00  -7.7993610798584803e-26 -7.4728761974458247e-25 0.0000000000000000e+00  9.0035793342660415e-24 8.6266853156223408e-23 0.0000000000000000e+00  -7.8428501312062161e-24 -7.5145447768766421e-23 0.0000000000000000e+00  4.8468325623946135e-24 4.6439418969920313e-23 0.0000000000000000e+00  -1.1964303147315386e-24 -1.1463471852776396e-23 0.0000000000000000e+00  -1.8672131659885806e-24 -1.7890507543890830e-23 0.0000000000000000e+00  3.6075593768077974e-24 3.4565452633600523e-23 0.0000000000000000e+00  -3.9740372506438586e-24 -3.8076822029425086e-23 0.0000000000000000e+00  3.3989967164815593e-24 3.2567131330009496e-23 0.0000000000000000e+00  -2.4425969058653544e-24 -2.3403486632942569e-23 0.0000000000000000e+00  1.5255641078218255e-24 1.4617032847037085e-23 0.0000000000000000e+00  -8.4386509723616908e-25 -8.0854051177047195e-24 0.0000000000000000e+00  4.1871323429789373e-25 4.0118570355984383e-24 0.0000000000000000e+00  -1.8839839507130742e-25 -1.8051195062646264e-24 0.0000000000000000e+00  7.8226790342969577e-26 7.4952180514659527e-25 0.0000000000000000e+00  -3.2511414722474743e-26 -3.1150471780603812e-25 0.0000000000000000e+00  2.0440440371635967e-26 1.9584794030497784e-25 0.0000000000000000e+00  -1.4101788938561298e-24 -1.3511481494621505e-23 0.0000000000000000e+00  1.2387751216617660e-24 1.1869194188945270e-23 0.0000000000000000e+00  -7.9236316839464903e-25 -7.5919447762463793e-24 0.0000000000000000e+00  2.3771758986187985e-25 2.2776662098393723e-24 0.0000000000000000e+00  2.4448771857360770e-25 2.3425334895890247e-24 0.0000000000000000e+00  -5.3881438229864817e-25 -5.1625936164428999e-24 0.0000000000000000e+00  6.2567956591352934e-25 5.9948832827064073e-24 0.0000000000000000e+00  -5.5924106463565500e-25 -5.3583097355788588e-24 0.0000000000000000e+00  4.200441889529