<?xml version="1.0"?>
<VTKFile type="UnstructuredGrid"  version="0.1"  >
<UnstructuredGrid>
<Piece  NumberOfPoints="431" NumberOfCells="800">
<Points>
<DataArray  type="Float64"  NumberOfComponents="3"  format="ascii">-0.25 -1 0  -0.2 -1 0  -0.15 -1 0  -0.1 -1 0  -0.04999999999999999 -1 0  0 -1 0  0.04999999999999999 -1 0  0.09999999999999998 -1 0  0.15 -1 0  0.2 -1 0  0.25 -1 0  -0.25 -0.95 0  -0.2 -0.95 0  -0.15 -0.95 0  -0.1 -0.95 0  -0.04999999999999999 -0.95 0  0 -0.95 0  0.04999999999999999 -0.95 0  0.09999999999999998 -0.95 0  0.15 -0.95 0  0.2 -0.95 0  0.25 -0.95 0  -0.25 -0.9 0  -0.2 -0.9 0  -0.15 -0.9 0  -0.1 -0.9 0  -0.04999999999999999 -0.9 0  0 -0.9 0  0.04999999999999999 -0.9 0  0.09999999999999998 -0.9 0  0.15 -0.9 0  0.2 -0.9 0  0.25 -0.9 0  -0.25 -0.85 0  -0.2 -0.85 0  -0.15 -0.85 0  -0.1 -0.85 0  -0.04999999999999999 -0.85 0  0 -0.85 0  0.04999999999999999 -0.85 0  0.09999999999999998 -0.85 0  0.15 -0.85 0  0.2 -0.85 0  0.25 -0.85 0  -0.25 -0.8 0  -0.2 -0.8 0  -0.15 -0.8 0  -0.1 -0.8 0  -0.04999999999999999 -0.8 0  0 -0.8 0  0.04999999999999999 -0.8 0  0.09999999999999998 -0.8 0  0.15 -0.8 0  0.2 -0.8 0  0.25 -0.8 0  -0.25 -0.75 0  -0.2 -0.75 0  -0.15 -0.75 0  -0.1 -0.75 0  -0.04999999999999999 -0.75 0  0 -0.75 0  0.04999999999999999 -0.75 0  0.09999999999999998 -0.75 0  0.15 -0.75 0  0.2 -0.75 0  0.25 -0.75 0  -0.25 -0.7 0  -0.2 -0.7 0  -0.15 -0.7 0  -0.1 -0.7 0  -0.04999999999999999 -0.7 0  0 -0.7 0  0.04999999999999999 -0.7 0  0.09999999999999998 -0.7 0  0.15 -0.7 0  0.2 -0.7 0  0.25 -0.7 0  -0.25 -0.65 0  -0.2 -0.65 0  -0.15 -0.65 0  -0.1 -0.65 0  -0.04999999999999999 -0.65 0  0 -0.65 0  0.04999999999999999 -0.65 0  0.09999999999999998 -0.65 0  0.15 -0.65 0  0.2 -0.65 0  0.25 -0.65 0  -0.25 -0.6 0  -0.2 -0.6 0  -0.15 -0.6 0  -0.1 -0.6 0  -0.04999999999999999 -0.6 0  0 -0.6 0  0.04999999999999999 -0.6 0  0.09999999999999998 -0.6 0  0.15 -0.6 0  0.2 -0.6 0  0.25 -0.6 0  -0.25 -0.55 0  -0.2 -0.55 0  -0.15 -0.55 0  -0.1 -0.55 0  -0.04999999999999999 -0.55 0  0 -0.55 0  0.04999999999999999 -0.55 0  0.09999999999999998 -0.55 0  0.15 -0.55 0  0.2 -0.55 0  0.25 -0.55 0  -0.25 -0.5 0  -0.2 -0.5 0  -0.15 -0.5 0  -0.1 -0.5 0  -0.04999999999999999 -0.5 0  0 -0.5 0  0.04999999999999999 -0.5 0  0.09999999999999998 -0.5 0  0.15 -0.5 0  0.2 -0.5 0  0.25 -0.5 0  -0.25 -0.45 0  -0.2 -0.45 0  -0.15 -0.45 0  -0.1 -0.45 0  -0.04999999999999999 -0.45 0  0 -0.45 0  0.04999999999999999 -0.45 0  0.09999999999999998 -0.45 0  0.15 -0.45 0  0.2 -0.45 0  0.25 -0.45 0  -0.25 -0.4 0  -0.2 -0.4 0  -0.15 -0.4 0  -0.1 -0.4 0  -0.04999999999999999 -0.4 0  0 -0.4 0  0.04999999999999999 -0.4 0  0.09999999999999998 -0.4 0  0.15 -0.4 0  0.2 -0.4 0  0.25 -0.4 0  -0.25 -0.35 0  -0.2 -0.35 0  -0.15 -0.35 0  -0.1 -0.35 0  -0.04999999999999999 -0.35 0  0 -0.35 0  0.04999999999999999 -0.35 0  0.09999999999999998 -0.35 0  0.15 -0.35 0  0.2 -0.35 0  0.25 -0.35 0  -0.25 -0.3 0  -0.2 -0.3 0  -0.15 -0.3 0  -0.1 -0.3 0  -0.04999999999999999 -0.3 0  0 -0.3 0  0.04999999999999999 -0.3 0  0.09999999999999998 -0.3 0  0.15 -0.3 0  0.2 -0.3 0  0.25 -0.3 0  -0.25 -0.25 0  -0.2 -0.25 0  -0.15 -0.25 0  -0.1 -0.25 0  -0.04999999999999999 -0.25 0  0 -0.25 0  0.04999999999999999 -0.25 0  0.09999999999999998 -0.25 0  0.15 -0.25 0  0.2 -0.25 0  0.25 -0.25 0  -0.25 -0.2 0  -0.2 -0.2 0  -0.15 -0.2 0  -0.1 -0.2 0  -0.04999999999999999 -0.2 0  0 -0.2 0  0.04999999999999999 -0.2 0  0.09999999999999998 -0.2 0  0.15 -0.2 0  0.2 -0.2 0  0.25 -0.2 0  -0.25 -0.15 0  -0.2 -0.15 0  -0.15 -0.15 0  -0.1 -0.15 0  -0.04999999999999999 -0.15 0  0 -0.15 0  0.04999999999999999 -0.15 0  0.09999999999999998 -0.15 0  0.15 -0.15 0  0.2 -0.15 0  0.25 -0.15 0  -0.25 -0.09999999999999998 0  -0.2 -0.09999999999999998 0  -0.15 -0.09999999999999998 0  -0.1 -0.09999999999999998 0  -0.04999999999999999 -0.09999999999999998 0  0 -0.09999999999999998 0  0.04999999999999999 -0.09999999999999998 0  0.09999999999999998 -0.09999999999999998 0  0.15 -0.09999999999999998 0  0.2 -0.09999999999999998 0  0.25 -0.09999999999999998 0  -0.25 -0.05000000000000004 0  -0.2 -0.05000000000000004 0  -0.15 -0.05000000000000004 0  -0.1 -0.05000000000000004 0  -0.04999999999999999 -0.05000000000000004 0  0 -0.05000000000000004 0  0.04999999999999999 -0.05000000000000004 0  0.09999999999999998 -0.05000000000000004 0  0.15 -0.05000000000000004 0  0.2 -0.05000000000000004 0  0.25 -0.05000000000000004 0  -0.25 0 0  -0.2 0 0  -0.15 0 0  -0.1 0 0  -0.04999999999999999 0 0  0 0 0  0.04999999999999999 0 0  0.09999999999999998 0 0  0.15 0 0  0.2 0 0  0.25 0 0  -0.225 -0.975 0  -0.175 -0.975 0  -0.125 -0.975 0  -0.07500000000000001 -0.975 0  -0.02499999999999999 -0.975 0  0.02500000000000002 -0.975 0  0.07500000000000001 -0.975 0  0.125 -0.975 0  0.175 -0.975 0  0.225 -0.975 0  -0.225 -0.925 0  -0.175 -0.925 0  -0.125 -0.925 0  -0.07500000000000001 -0.925 0  -0.02499999999999999 -0.925 0  0.02500000000000002 -0.925 0  0.07500000000000001 -0.925 0  0.125 -0.925 0  0.175 -0.925 0  0.225 -0.925 0  -0.225 -0.875 0  -0.175 -0.875 0  -0.125 -0.875 0  -0.07500000000000001 -0.875 0  -0.02499999999999999 -0.875 0  0.02500000000000002 -0.875 0  0.07500000000000001 -0.875 0  0.125 -0.875 0  0.175 -0.875 0  0.225 -0.875 0  -0.225 -0.825 0  -0.175 -0.825 0  -0.125 -0.825 0  -0.07500000000000001 -0.825 0  -0.02499999999999999 -0.825 0  0.02500000000000002 -0.825 0  0.07500000000000001 -0.825 0  0.125 -0.825 0  0.175 -0.825 0  0.225 -0.825 0  -0.225 -0.775 0  -0.175 -0.775 0  -0.125 -0.775 0  -0.07500000000000001 -0.775 0  -0.02499999999999999 -0.775 0  0.02500000000000002 -0.775 0  0.07500000000000001 -0.775 0  0.125 -0.775 0  0.175 -0.775 0  0.225 -0.775 0  -0.225 -0.725 0  -0.175 -0.725 0  -0.125 -0.725 0  -0.07500000000000001 -0.725 0  -0.02499999999999999 -0.725 0  0.02500000000000002 -0.725 0  0.07500000000000001 -0.725 0  0.125 -0.725 0  0.175 -0.725 0  0.225 -0.725 0  -0.225 -0.675 0  -0.175 -0.675 0  -0.125 -0.675 0  -0.07500000000000001 -0.675 0  -0.02499999999999999 -0.675 0  0.02500000000000002 -0.675 0  0.07500000000000001 -0.675 0  0.125 -0.675 0  0.175 -0.675 0  0.225 -0.675 0  -0.225 -0.625 0  -0.175 -0.625 0  -0.125 -0.625 0  -0.07500000000000001 -0.625 0  -0.02499999999999999 -0.625 0  0.02500000000000002 -0.625 0  0.07500000000000001 -0.625 0  0.125 -0.625 0  0.175 -0.625 0  0.225 -0.625 0  -0.225 -0.575 0  -0.175 -0.575 0  -0.125 -0.575 0  -0.07500000000000001 -0.575 0  -0.02499999999999999 -0.575 0  0.02500000000000002 -0.575 0  0.07500000000000001 -0.575 0  0.125 -0.575 0  0.175 -0.575 0  0.225 -0.575 0  -0.225 -0.525 0  -0.175 -0.525 0  -0.125 -0.525 0  -0.07500000000000001 -0.525 0  -0.02499999999999999 -0.525 0  0.02500000000000002 -0.525 0  0.07500000000000001 -0.525 0  0.125 -0.525 0  0.175 -0.525 0  0.225 -0.525 0  -0.225 -0.475 0  -0.175 -0.475 0  -0.125 -0.475 0  -0.07500000000000001 -0.475 0  -0.02499999999999999 -0.475 0  0.02500000000000002 -0.475 0  0.07500000000000001 -0.475 0  0.125 -0.475 0  0.175 -0.475 0  0.225 -0.475 0  -0.225 -0.425 0  -0.175 -0.425 0  -0.125 -0.425 0  -0.07500000000000001 -0.425 0  -0.02499999999999999 -0.425 0  0.02500000000000002 -0.425 0  0.07500000000000001 -0.425 0  0.125 -0.425 0  0.175 -0.425 0  0.225 -0.425 0  -0.225 -0.375 0  -0.175 -0.375 0  -0.125 -0.375 0  -0.07500000000000001 -0.375 0  -0.02499999999999999 -0.375 0  0.02500000000000002 -0.375 0  0.07500000000000001 -0.375 0  0.125 -0.375 0  0.175 -0.375 0  0.225 -0.375 0  -0.225 -0.325 0  -0.175 -0.325 0  -0.125 -0.325 0  -0.07500000000000001 -0.325 0  -0.02499999999999999 -0.325 0  0.02500000000000002 -0.325 0  0.07500000000000001 -0.325 0  0.125 -0.325 0  0.175 -0.325 0  0.225 -0.325 0  -0.225 -0.275 0  -0.175 -0.275 0  -0.125 -0.275 0  -0.07500000000000001 -0.275 0  -0.02499999999999999 -0.275 0  0.02500000000000002 -0.275 0  0.07500000000000001 -0.275 0  0.125 -0.275 0  0.175 -0.275 0  0.225 -0.275 0  -0.225 -0.225 0  -0.175 -0.225 0  -0.125 -0.225 0  -0.07500000000000001 -0.225 0  -0.02499999999999999 -0.225 0  0.02500000000000002 -0.225 0  0.07500000000000001 -0.225 0  0.125 -0.225 0  0.175 -0.225 0  0.225 -0.225 0  -0.225 -0.175 0  -0.175 -0.175 0  -0.125 -0.175 0  -0.07500000000000001 -0.175 0  -0.02499999999999999 -0.175 0  0.02500000000000002 -0.175 0  0.07500000000000001 -0.175 0  0.125 -0.175 0  0.175 -0.175 0  0.225 -0.175 0  -0.225 -0.125 0  -0.175 -0.125 0  -0.125 -0.125 0  -0.07500000000000001 -0.125 0  -0.02499999999999999 -0.125 0  0.02500000000000002 -0.125 0  0.07500000000000001 -0.125 0  0.125 -0.125 0  0.175 -0.125 0  0.225 -0.125 0  -0.225 -0.07499999999999996 0  -0.175 -0.07499999999999996 0  -0.125 -0.07499999999999996 0  -0.07500000000000001 -0.07499999999999996 0  -0.02499999999999999 -0.07499999999999996 0  0.02500000000000002 -0.07499999999999996 0  0.07500000000000001 -0.07499999999999996 0  0.125 -0.07499999999999996 0  0.175 -0.07499999999999996 0  0.225 -0.07499999999999996 0  -0.225 -0.02500000000000002 0  -0.175 -0.02500000000000002 0  -0.125 -0.02500000000000002 0  -0.07500000000000001 -0.02500000000000002 0  -0.02499999999999999 -0.02500000000000002 0  0.02500000000000002 -0.02500000000000002 0  0.07500000000000001 -0.02500000000000002 0  0.125 -0.02500000000000002 0  0.175 -0.02500000000000002 0  0.225 -0.02500000000000002 0  </DataArray>
</Points>
<Cells>
[...]
<PointData  Vectors="flow"> 
<DataArray  type="Float64"  Name="flow"  NumberOfComponents="3" format="ascii">-1.5051966944388226e-01 3.0105217814094754e-01 0.0000000000000000e+00  2.9011298817568482e-05 3.0105217814117818e-01 0.0000000000000000e+00  -5.5920207465012176e-09 3.0105217813892204e-01 0.0000000000000000e+00  2.7905306622193473e-12 3.0105217813874896e-01 0.0000000000000000e+00  1.9249410487158133e-12 3.0105217813881585e-01 0.0000000000000000e+00  5.9903505212456838e-12 3.0105217813981933e-01 0.0000000000000000e+00  3.3482178243673050e-12 3.0105217813901242e-01 0.0000000000000000e+00  -4.4418472760929525e-12 3.0105217814144414e-01 0.0000000000000000e+00  5.5904790336300366e-09 3.0105217814018065e-01 0.0000000000000000e+00  -2.9011300631556064e-05 3.0105217814099433e-01 0.0000000000000000e+00  1.5051966944240902e-01 3.0105217813882024e-01 0.0000000000000000e+00  -1.5005566753516084e-01 9.0209962893501650e-01 0.0000000000000000e+00  2.8921866136098586e-05 9.0209962893816575e-01 0.0000000000000000e+00  -5.5761289420154492e-09 9.0209962893799400e-01 0.0000000000000000e+00  2.0394442936611575e-12 9.0209962893927953e-01 0.0000000000000000e+00  3.3325883978627849e-12 9.0209962893814999e-01 0.0000000000000000e+00  7.2887424948573787e-12 9.0209962893689544e-01 0.0000000000000000e+00  4.1112048508756152e-12 9.0209962893542861e-01 0.0000000000000000e+00  -4.8480805264878661e-12 9.0209962893970153e-01 0.0000000000000000e+00  5.5716204345729773e-09 9.0209962893711060e-01 0.0000000000000000e+00  -2.8921869244369717e-05 9.0209962893612894e-01 0.0000000000000000e+00  1.5005566753360997e-01 9.0209962893497631e-01 0.0000000000000000e+00  -1.4866652253336843e-01 1.7986375136827188e+00 0.0000000000000000e+00  2.8654123791598944e-05 1.7986375136815396e+00 0.0000000000000000e+00  -5.5222691544837610e-09 1.7986375136819892e+00 0.0000000000000000e+00  3.8153477218401311e-12 1.7986375136841974e+00 0.0000000000000000e+00  -5.8308902911810448e-13 1.7986375136862471e+00 0.0000000000000000e+00  2.8548513803066210e-12 1.7986375136832939e+00 0.0000000000000000e+00  5.8390433717929889e-12 1.7986375136790991e+00 0.0000000000000000e+00  -3.0113544484974998e-12 1.7986375136789865e+00 0.0000000000000000e+00  5.5179256393349631e-09 1.7986375136807788e+00 0.0000000000000000e+00  -2.8654124367423702e-05 1.7986375136822166e+00 0.0000000000000000e+00  1.4866652253673129e-01 1.7986375136824539e+00 0.0000000000000000e+00  -1.4636079899607071e-01 2.6840862000469934e+00 0.0000000000000000e+00  2.8209715113870799e-05 2.6840862000497370e+00 0.0000000000000000e+00  -5.4366743318532957e-09 2.6840862000471351e+00 0.0000000000000000e+00  5.5150404428508150e-12 2.6840862000471692e+00 0.0000000000000000e+00  1.4673794194662875e-12 2.6840862000475147e+00 0.0000000000000000e+00  5.5971775385513732e-13 2.6840862000512415e+00 0.0000000000000000e+00  9.6327154567354720e-13 2.6840862000415262e+00 0.0000000000000000e+00  -3.0647467805601691e-12 2.6840862000440127e+00 0.0000000000000000e+00  5.4381852317599734e-09 2.6840862000460266e+00 0.0000000000000000e+00  -2.8209715116892671e-05 2.6840862000456869e+00 0.0000000000000000e+00  1.4636079899169613e-01 2.6840862000483448e+00 0.0000000000000000e+00  -1.4315271244752811e-01 3.5529866024386951e+00 0.0000000000000000e+00  2.7591385327307721e-05 3.5529866024375956e+00 0.0000000000000000e+00  -5.3198497148476164e-09 3.5529866024382519e+00 0.0000000000000000e+00  4.3328187412439804e-12 3.5529866024373864e+00 0.0000000000000000e+00  5.1913237359762807e-12 3.5529866024404524e+00 0.0000000000000000e+00  -4.3267422334212401e-12 3.5529866024413050e+00 0.0000000000000000e+00  2.8582839274530534e-14 3.5529866024385224e+00 0.0000000000000000e+00  5.0953543021883723e-13 3.5529866024428065e+00 0.0000000000000000e+00  5.3131851901619171e-09 3.5529866024401136e+00 0.0000000000000000e+00  -2.7591385098849731e-05 3.5529866024402312e+00 0.0000000000000000e+00  1.4315271245327188e-01 3.5529866024382826e+00 0.0000000000000000e+00  -1.3906204183967810e-01 4.3999816609298916e+00 0.0000000000000000e+00  2.6802946906058861e-05 4.3999816609276738e+00 0.0000000000000000e+00  -5.1649264268587687e-09 4.3999816609283098e+00 0.0000000000000000e+00  5.8450539617713568e-12 4.3999816609332640e+00 0.0000000000000000e+00  6.8648000826431897e-12 4.3999816609345421e+00 0.0000000000000000e+00  -1.6202259969787862e-12 4.3999816609331237e+00 0.0000000000000000e+00  9.9982160253819022e-14 4.3999816609370734e+00 0.0000000000000000e+00  -7.9199028792424077e-13 4.3999816609312878e+00 0.0000000000000000e+00  5.1647466053545615e-09 4.3999816609370832e+00 0.0000000000000000e+00  -2.6802948642330507e-05 4.3999816609439932e+00 0.0000000000000000e+00  1.3906204183082482e-01 4.3999816609370859e+00 0.0000000000000000e+00  -1.3411400749544175e-01 5.2198493693477479e+00 0.0000000000000000e+00  2.5849255879645590e-05 5.2198493693483599e+00 0.0000000000000000e+00  -4.9793846760765045e-09 5.2198493693505590e+00 0.0000000000000000e+00  1.3521944830701434e-11 5.2198493693556243e+00 0.0000000000000000e+00  3.3866118611852499e-13 5.2198493693494896e+00 0.0000000000000000e+00  1.2600007454876499e-12 5.2198493693479797e+00 0.0000000000000000e+00  -2.6334006600908644e-12 5.2198493693542893e+00 0.0000000000000000e+00  2.8540655985317040e-12 5.2198493693519437e+00 0.0000000000000000e+00  4.9901613317778800e-09 5.2198493693610679e+00 0.0000000000000000e+00  -2.5849254104250648e-05 5.2198493693628620e+00 0.0000000000000000e+00  1.3411400748925587e-01 5.2198493693711416e+00 0.0000000000000000e+00  -1.2833911569251025e-01 6.0075349706447758e+00 0.0000000000000000e+00  2.4736203810729346e-05 6.0075349706449792e+00 0.0000000000000000e+00  -4.7628310378631372e-09 6.0075349706489698e+00 0.0000000000000000e+00  4.2329079612448504e-12 6.0075349706369696e+00 0.0000000000000000e+00  5.5061951527529824e-13 6.0075349706399246e+00 0.0000000000000000e+00  4.8240493799341080e-12 6.0075349706419710e+00 0.0000000000000000e+00  1.7131755847280235e-13 6.0075349706489831e+00 0.0000000000000000e+00  6.4986824817567373e-12 6.0075349706436594e+00 0.0000000000000000e+00  4.7783006439270738e-09 6.0075349706485097e+00 0.0000000000000000e+00  -2.4736196847765561e-05 6.0075349706485053e+00 0.0000000000000000e+00  1.2833911569179321e-01 6.0075349706413341e+00 0.0000000000000000e+00  -1.2177297055868205e-01 6.7581821211217559e+00 0.0000000000000000e+00  2.3470634499963692e-05 6.7581821211218802e+00 0.0000000000000000e+00  -4.5237645721542500e-09 6.7581821211143636e+00 0.0000000000000000e+00  4.3046639602819510e-12 6.7581821211166258e+00 0.0000000000000000e+00  6.7473603712097347e-12 6.7581821211205613e+00 0.0000000000000000e+00  6.8531666715738689e-12 6.7581821211206945e+00 0.0000000000000000e+00  5.8690934880535652e-12 6.7581821211179331e+00 0.0000000000000000e+00  -5.9855686459022910e-13 6.7581821211306412e+00 0.0000000000000000e+00  4.5339327030060814e-09 6.7581821211183835e+00 0.0000000000000000e+00  -2.3470635029584206e-05 6.7581821211161621e+00 0.0000000000000000e+00  1.2177297055521150e-01 6.7581821211166586e+00 0.0000000000000000e+00  -1.1445605457531123e-01 7.4671628315024172e+00 0.0000000000000000e+00  2.2060360426368735e-05 7.4671628314969691e+00 0.0000000000000000e+00  -4.2496546340256410e-09 7.4671628314950684e+00 0.0000000000000000e+00  3.7431429232005936e-12 7.4671628315004375e+00 0.0000000000000000e+00  1.0420929845070829e-11 7.4671628315003016e+00 0.0000000000000000e+00  -2.4540156513899215e-12 7.4671628315097740e+00 0.0000000000000000e+00  8.4947138472403123e-12 7.4671628314994116e+00 0.0000000000000000e+00  9.6189722421755672e-12 7.4671628315017875e+00 0.0000000000000000e+00  4.2511455490559416e-09 7.4671628315153900e+00 0.0000000000000000e+00  -2.2060363542066570e-05 7.4671628315072054e+00 0.0000000000000000e+00  1.1445605458274551e-01 7.4671628315110858e+00 0.0000000000000000e+00  -1.0643347898546854e-01 8.1301059999427157e+00 0.0000000000000000e+00  2.0514090377645381e-05 8.1301059999442913e+00 0.0000000000000000e+00  -3.9630420563941920e-09 8.1301059999324288e+00 0.0000000000000000e+00  1.7528449404167468e-11 8.1301059999362284e+00 0.0000000000000000e+00  1.4344783006502443e-11 8.1301059999335230e+00 0.0000000000000000e+00  6.4366132506426206e-12 8.1301059999476042e+00 0.0000000000000000e+00  2.7444108096751185e-12 8.1301059999475207e+00 0.0000000000000000e+00  4.7968127537940707e-12 8.1301059999474088e+00 0.0000000000000000e+00  3.9764365062977955e-09 8.1301059999545426e+00 0.0000000000000000e+00  -2.0514103374344743e-05 8.1301059999468865e+00 0.0000000000000000e+00  1.0643347897781018e-01 8.1301059999503238e+00 0.0000000000000000e+00  -9.7754705461818803e-02 8.7429243613533423e+00 0.0000000000000000e+00  1.8841242614230031e-05 8.7429243613517773e+00 0.0000000000000000e+00  -3.5759750272014291e-09 8.7429243613627534e+00 0.0000000000000000e+00  -2.7919031320082839e-11 8.7429243613628476e+00 0.0000000000000000e+00  3.0738687004714975e-11 8.7429243613629808e+00 0.0000000000000000e+00  1.6899549461501211e-11 8.7429243613514558e+00 0.0000000000000000e+00  -1.3604222641120008e-11 8.7429243613606573e+00 0.0000000000000000e+00  6.2517269264011548e-11 8.7429243613692638e+00 0.0000000000000000e+00  3.5715551558884164e-09 8.7429243613630607e+00 0.0000000000000000e+00  -1.8841259538372034e-05 8.7429243613674004e+00 0.0000000000000000e+00  9.7754705462702915e-02 8.7429243613698944e+00 0.0000000000000000e+00  -8.8473242428125057e-02 9.3018396867830688e+00 0.0000000000000000e+00  1.7052905523550686e-05 9.3018396867887212e+00 0.0000000000000000e+00  -3.6549137587394127e-09 9.3018396867973454e+00 0.0000000000000000e+00  2.4351471959184154e-10 9.3018396867891244e+00 0.0000000000000000e+00  -9.9523549076713670e-11 9.3018396867977629e+00 0.0000000000000000e+00  7.1987696987717489e-12 9.3018396867849447e+00 0.0000000000000000e+00  1.1324619545516968e-10 9.3018396867853887e+00 0.0000000000000000e+00  -2.1358696733437140e-10 9.3018396867701387e+00 0.0000000000000000e+00  3.6676647541314069e-09 9.3018396867642199e+00 0.0000000000000000e+00  -1.7052903820120578e-05 9.3018396867795019e+00 0.0000000000000000e+00  8.8473242423664916e-02 9.3018396867635964e+00 0.0000000000000000e+00  -7.8646307854200792e-02 9.8034060773442775e+00 0.0000000000000000e+00  1.5155338135088066e-05 9.8034060773537988e+00 0.0000000000000000e+00  -7.2308541864306108e-10 9.8034060773534826e+00 0.0000000000000000e+00  -1.2619812203160325e-09 9.8034060773618936e+00 0.0000000000000000e+00  5.4746395582698067e-10 9.8034060773542571e+00 0.0000000000000000e+00  1.4995643194346115e-12 9.8034060773524665e+00 0.0000000000000000e+00  -5.4261452624645566e-10 9.8034060773541754e+00 0.0000000000000000e+00  1.2665794416120228e-09 9.8034060773400729e+00 0.0000000000000000e+00  7.3717739854579563e-10 9.8034060773292229e+00 0.0000000000000000e+00  -1.5155336093248179e-05 9.8034060773194476e+00 0.0000000000000000e+00  7.8646307846552535e-02 9.8034060773182734e+00 0.0000000000000000e+00  -6.8334521251609645e-02 1.0244531209459439e+01 0.0000000000000000e+00  1.3189664585137245e-05 1.0244531209440218e+01 0.0000000000000000e+00  -1.5439887831825713e-08 1.0244531209447025e+01 0.0000000000000000e+00  6.8555474186439371e-09 1.0244531209453070e+01 0.0000000000000000e+00  -2.6147365321854447e-09 1.0244531209445242e+01 0.0000000000000000e+00  4.1035863107823322e-12 1.0244531209446995e+01 0.0000000000000000e+00  2.6258095557216454e-09 1.0244531209460696e+01 0.0000000000000000e+00  -6.8516550359056058e-09 1.0244531209468995e+01 0.0000000000000000e+00  1.5441771640473709e-08 1.0244531209466285e+01 0.0000000000000000e+00  -1.3189677843111660e-05 1.0244531209454232e+01 0.0000000000000000e+00  6.8334521248724842e-02 1.0244531209456293e+01 0.0000000000000000e+00  -5.7601247083244204e-02 1.0622495400020073e+01 0.0000000000000000e+00  1.0984551469590532e-05 1.0622495400035394e+01 0.0000000000000000e+00  7.2559178730497048e-08 1.0622495400026546e+01 0.0000000000000000e+00  -3.4690916901970547e-08 1.0622495400031704e+01 0.0000000000000000e+00  1.1240965549006248e-08 1.0622495400035321e+01 0.0000000000000000e+00  1.1731163996701184e-11 1.0622495400031605e+01 0.0000000000000000e+00  -1.1237936891199664e-08 1.0622495400008631e+01 0.0000000000000000e+00  3.4695823854375116e-08 1.0622495400001934e+01 0.0000000000000000e+00  -7.2540093454723754e-08 1.0622495400013856e+01 0.0000000000000000e+00  -1.0984554159143170e-05 1.0622495400050239e+01 0.0000000000000000e+00  5.7601247057685358e-02 1.0622495400063771e+01 0.0000000000000000e+00  -4.6514031914571707e-02 1.0934968374119743e+01 0.0000000000000000e+00  9.7069035017268357e-06 1.0934968374129879e+01 0.0000000000000000e+00  -4.1975852603095058e-07 1.0934968374141446e+01 0.0000000000000000e+00  1.5723995146787485e-07 1.0934968374127257e+01 0.0000000000000000e+00  -3.8044570170803700e-08 1.0934968374133202e+01 0.0000000000000000e+00  -3.4967346011293277e-12 1.0934968374143153e+01 0.0000000000000000e+00  3.8023317564719984e-08 1.0934968374131810e+01 0.0000000000000000e+00  -1.5721355448374411e-07 1.0934968374135254e+01 0.0000000000000000e+00  4.1978896068708032e-07 1.0934968374141100e+01 0.0000000000000000e+00  -9.7068740640600658e-06 1.0934968374128632e+01 0.0000000000000000e+00  4.6514031946181034e-02 1.0934968374139585e+01 0.0000000000000000e+00  -3.5132036967514255e-02 1.1180023631994047e+01 0.0000000000000000e+00  2.0473702221828942e-06 1.1180023631976853e+01 0.0000000000000000e+00  2.1648513633815766e-06 1.1180023631981792e+01 0.0000000000000000e+00  -5.4777953326372747e-07 1.1180023631973276e+01 0.0000000000000000e+00  7.2902670773598534e-08 1.1180023631986430e+01 0.0000000000000000e+00  2.7550109814918691e-12 1.1180023631983470e+01 0.0000000000000000e+00  -7.2892100039552528e-08 1.1180023631995994e+01 0.0000000000000000e+00  5.4778574282982857e-07 1.1180023631994446e+01 0.0000000000000000e+00  -2.1648399846529330e-06 1.1180023631988615e+01 0.0000000000000000e+00  -2.0473441613606699e-06 1.1180023631979381e+01 0.0000000000000000e+00  3.5132036997356571e-02 1.1180023631971945e+01 0.0000000000000000e+00  -2.3590366042636694e-02 1.1356150326386198e+01 0.0000000000000000e+00  3.4696347890708294e-05 1.1356150326375831e+01 0.0000000000000000e+00  -8.7941299767955915e-06 1.1356150326379767e+01 0.0000000000000000e+00  6.2668763221968911e-07 1.1356150326394674e+01 0.0000000000000000e+00  -4.2619990279077686e-08 1.1356150326385720e+01 0.0000000000000000e+00  -7.3422005435292951e-12 1.1356150326381654e+01 0.0000000000000000e+00  4.2630417801602860e-08 1.1356150326369997e+01 0.0000000000000000e+00  -6.2667094111587147e-07 1.1356150326367221e+01 0.0000000000000000e+00  8.7941553761051188e-06 1.1356150326376753e+01 0.0000000000000000e+00  -3.4696348944133579e-05 1.1356150326376611e+01 0.0000000000000000e+00  2.3590366029950356e-02 1.1356150326354719e+01 0.0000000000000000e+00  -1.1446167200137268e-02 1.1462262577725179e+01 0.0000000000000000e+00  -1.7775958328116245e-04 1.1462262577719024e+01 0.0000000000000000e+00  -2.2078939762901518e-06 1.1462262577701170e+01 0.0000000000000000e+00  5.8379331142033788e-07 1.1462262577693972e+01 0.0000000000000000e+00  -8.4672800844009644e-08 1.1462262577687508e+01 0.0000000000000000e+00  -3.1148975009507950e-12 1.1462262577696160e+01 0.0000000000000000e+00  8.4670552652991709e-08 1.1462262577701340e+01 0.0000000000000000e+00  -5.8378463340342980e-07 1.1462262577702628e+01 0.0000000000000000e+00  2.2079270864002428e-06 1.1462262577691339e+01 0.0000000000000000e+00  1.7775957369225667e-04 1.1462262577697389e+01 0.0000000000000000e+00  1.1446167186091802e-02 1.1462262577706630e+01 0.0000000000000000e+00  -5.0849096419725579e-03 1.1497706168642036e+01 0.0000000000000000e+00  -4.3046191722296846e-04 1.1497706168674529e+01 0.0000000000000000e+00  1.8520280849647865e-05 1.1497706168668833e+01 0.0000000000000000e+00  -1.5819404471776894e-06 1.1497706168653680e+01 0.0000000000000000e+00  1.6679662579869540e-07 1.1497706168639240e+01 0.0000000000000000e+00  2.9712680124191829e-12 1.1497706168619933e+01 0.0000000000000000e+00  -1.6679544617379963e-07 1.1497706168634499e+01 0.0000000000000000e+00  1.5819388906911548e-06 1.1497706168653615e+01 0.0000000000000000e+00  -1.8520272560526817e-05 1.1497706168637315e+01 0.0000000000000000e+00  4.3046189965167974e-04 1.1497706168621761e+01 0.0000000000000000e+00  5.0849096553505597e-03 1.1497706168636734e+01 0.0000000000000000e+00  7.5129350952580595e-02 3.0145176879381091e-01 0.0000000000000000e+00  -1.4480500535192074e-05 3.0145176879255292e-01 0.0000000000000000e+00  2.7884492878723614e-09 3.0145176879047481e-01 0.0000000000000000e+00  3.6520608959789101e-12 3.0145176879007018e-01 0.0000000000000000e+00  2.3769315798827605e-12 3.0145176879249136e-01 0.0000000000000000e+00  1.4802201675672409e-11 3.0145176879427366e-01 0.0000000000000000e+00  -6.2395000400923390e-12 3.0145176879457836e-01 0.0000000000000000e+00  -2.7955797404260126e-09 3.0145176879370894e-01 0.0000000000000000e+00  1.4480498255430132e-05 3.0145176879233382e-01 0.0000000000000000e+00  -7.5129350953236279e-02 3.0145176879163788e-01 0.0000000000000000e+00  7.4666153523731515e-02 1.3531469797935993e+00 0.0000000000000000e+00  -1.4391224242770259e-05 1.3531469797990543e+00 0.0000000000000000e+00  2.7735805496661379e-09 1.3531469798033180e+00 0.0000000000000000e+00  2.8194639847521420e-12 1.3531469798042279e+00 0.0000000000000000e+00  2.8226503419317943e-13 1.3531469797982485e+00 0.0000000000000000e+00  1.0803803080576625e-11 1.3531469797918998e+00 0.0000000000000000e+00  3.6675150678765062e-13 1.3531469797942890e+00 0.0000000000000000e+00  -2.7808859472303812e-09 1.3531469797981053e+00 0.0000000000000000e+00  1.4391221438278814e-05 1.3531469797965952e+00 0.0000000000000000e+00  -7.4666153523289702e-02 1.3531469797949833e+00 0.0000000000000000e+00  7.3742614426191302e-02 2.2459735006309849e+00 0.0000000000000000e+00  -1.4213220382996424e-05 2.2459735006255586e+00 0.0000000000000000e+00  2.7418244481948956e-09 2.2459735006252752e+00 0.0000000000000000e+00  4.1174049178652068e-12 2.2459735006277777e+00 0.0000000000000000e+00  -1.7810621191618221e-12 2.2459735006312771e+00 0.0000000000000000e+00  3.9336508955194038e-12 2.2459735006298258e+00 0.0000000000000000e+00  3.0623768481141291e-12 2.2459735006237098e+00 0.0000000000000000e+00  -2.7433948631173167e-09 2.2459735006244408e+00 0.0000000000000000e+00  1.4213218201126007e-05 2.2459735006313246e+00 0.0000000000000000e+00  -7.3742614426552347e-02 2.2459735006337804e+00 0.0000000000000000e+00  7.2364427591257052e-02 3.1249528479810036e+00 0.0000000000000000e+00  -1.3947592885801569e-05 3.1249528479820472e+00 0.0000000000000000e+00  2.6915611067688505e-09 3.1249528479769588e+00 0.0000000000000000e+00  6.3377298859811625e-12 3.1249528479769171e+00 0.0000000000000000e+00  4.6923610936601984e-12 3.1249528479805440e+00 0.0000000000000000e+00  -1.0084576518863630e-11 3.1249528479761146e+00 0.0000000000000000e+00  7.4017782847434265e-12 3.1249528479730451e+00 0.0000000000000000e+00  -2.6914418537762930e-09 3.1249528479746633e+00 0.0000000000000000e+00  1.3947583261191517e-05 3.1249528479671187e+00 0.0000000000000000e+00  -7.2364427586632724e-02 3.1249528479661071e+00 0.0000000000000000e+00  7.0540089994367797e-02 3.9846658218410913e+00 0.0000000000000000e+00  -1.3595967698249326e-05 3.9846658218418569e+00 0.0000000000000000e+00  2.6230184061412000e-09 3.9846658218468440e+00 0.0000000000000000e+00  1.0085705223494135e-11 3.9846658218487918e+00 0.0000000000000000e+00  6.3470861503807607e-12 3.9846658218498621e+00 0.0000000000000000e+00  -1.4660254303306486e-11 3.9846658218532420e+00 0.0000000000000000e+00  1.0032037977743854e-11 3.9846658218554714e+00 0.0000000000000000e+00  -2.6265542300199349e-09 3.9846658218520079e+00 0.0000000000000000e+00  1.3595961519236514e-05 3.9846658218558599e+00 0.0000000000000000e+00  -7.0540089993344476e-02 3.9846658218534143e+00 0.0000000000000000e+00  6.8280849282717326e-02 4.8198120058927945e+00 0.0000000000000000e+00  -1.3160519039563624e-05 4.8198120058