<?xml version="1.0"?>
<VTKFile type="UnstructuredGrid"  version="0.1"  >
<UnstructuredGrid>
<Piece  NumberOfPoints="431" NumberOfCells="800">
<Points>
<DataArray  type="Float64"  NumberOfComponents="3"  format="ascii">-0.75 -3 0  -0.6 -3 0  -0.45 -3 0  -0.3 -3 0  -0.15 -3 0  0 -3 0  0.15 -3 0  0.3 -3 0  0.45 -3 0  0.6000000000000001 -3 0  0.75 -3 0  -0.75 -2.85 0  -0.6 -2.85 0  -0.45 -2.85 0  -0.3 -2.85 0  -0.15 -2.85 0  0 -2.85 0  0.15 -2.85 0  0.3 -2.85 0  0.45 -2.85 0  0.6000000000000001 -2.85 0  0.75 -2.85 0  -0.75 -2.7 0  -0.6 -2.7 0  -0.45 -2.7 0  -0.3 -2.7 0  -0.15 -2.7 0  0 -2.7 0  0.15 -2.7 0  0.3 -2.7 0  0.45 -2.7 0  0.6000000000000001 -2.7 0  0.75 -2.7 0  -0.75 -2.55 0  -0.6 -2.55 0  -0.45 -2.55 0  -0.3 -2.55 0  -0.15 -2.55 0  0 -2.55 0  0.15 -2.55 0  0.3 -2.55 0  0.45 -2.55 0  0.6000000000000001 -2.55 0  0.75 -2.55 0  -0.75 -2.4 0  -0.6 -2.4 0  -0.45 -2.4 0  -0.3 -2.4 0  -0.15 -2.4 0  0 -2.4 0  0.15 -2.4 0  0.3 -2.4 0  0.45 -2.4 0  0.6000000000000001 -2.4 0  0.75 -2.4 0  -0.75 -2.25 0  -0.6 -2.25 0  -0.45 -2.25 0  -0.3 -2.25 0  -0.15 -2.25 0  0 -2.25 0  0.15 -2.25 0  0.3 -2.25 0  0.45 -2.25 0  0.6000000000000001 -2.25 0  0.75 -2.25 0  -0.75 -2.1 0  -0.6 -2.1 0  -0.45 -2.1 0  -0.3 -2.1 0  -0.15 -2.1 0  0 -2.1 0  0.15 -2.1 0  0.3 -2.1 0  0.45 -2.1 0  0.6000000000000001 -2.1 0  0.75 -2.1 0  -0.75 -1.95 0  -0.6 -1.95 0  -0.45 -1.95 0  -0.3 -1.95 0  -0.15 -1.95 0  0 -1.95 0  0.15 -1.95 0  0.3 -1.95 0  0.45 -1.95 0  0.6000000000000001 -1.95 0  0.75 -1.95 0  -0.75 -1.8 0  -0.6 -1.8 0  -0.45 -1.8 0  -0.3 -1.8 0  -0.15 -1.8 0  0 -1.8 0  0.15 -1.8 0  0.3 -1.8 0  0.45 -1.8 0  0.6000000000000001 -1.8 0  0.75 -1.8 0  -0.75 -1.65 0  -0.6 -1.65 0  -0.45 -1.65 0  -0.3 -1.65 0  -0.15 -1.65 0  0 -1.65 0  0.15 -1.65 0  0.3 -1.65 0  0.45 -1.65 0  0.6000000000000001 -1.65 0  0.75 -1.65 0  -0.75 -1.5 0  -0.6 -1.5 0  -0.45 -1.5 0  -0.3 -1.5 0  -0.15 -1.5 0  0 -1.5 0  0.15 -1.5 0  0.3 -1.5 0  0.45 -1.5 0  0.6000000000000001 -1.5 0  0.75 -1.5 0  -0.75 -1.35 0  -0.6 -1.35 0  -0.45 -1.35 0  -0.3 -1.35 0  -0.15 -1.35 0  0 -1.35 0  0.15 -1.35 0  0.3 -1.35 0  0.45 -1.35 0  0.6000000000000001 -1.35 0  0.75 -1.35 0  -0.75 -1.2 0  -0.6 -1.2 0  -0.45 -1.2 0  -0.3 -1.2 0  -0.15 -1.2 0  0 -1.2 0  0.15 -1.2 0  0.3 -1.2 0  0.45 -1.2 0  0.6000000000000001 -1.2 0  0.75 -1.2 0  -0.75 -1.05 0  -0.6 -1.05 0  -0.45 -1.05 0  -0.3 -1.05 0  -0.15 -1.05 0  0 -1.05 0  0.15 -1.05 0  0.3 -1.05 0  0.45 -1.05 0  0.6000000000000001 -1.05 0  0.75 -1.05 0  -0.75 -0.8999999999999999 0  -0.6 -0.8999999999999999 0  -0.45 -0.8999999999999999 0  -0.3 -0.8999999999999999 0  -0.15 -0.8999999999999999 0  0 -0.8999999999999999 0  0.15 -0.8999999999999999 0  0.3 -0.8999999999999999 0  0.45 -0.8999999999999999 0  0.6000000000000001 -0.8999999999999999 0  0.75 -0.8999999999999999 0  -0.75 -0.75 0  -0.6 -0.75 0  -0.45 -0.75 0  -0.3 -0.75 0  -0.15 -0.75 0  0 -0.75 0  0.15 -0.75 0  0.3 -0.75 0  0.45 -0.75 0  0.6000000000000001 -0.75 0  0.75 -0.75 0  -0.75 -0.6000000000000001 0  -0.6 -0.6000000000000001 0  -0.45 -0.6000000000000001 0  -0.3 -0.6000000000000001 0  -0.15 -0.6000000000000001 0  0 -0.6000000000000001 0  0.15 -0.6000000000000001 0  0.3 -0.6000000000000001 0  0.45 -0.6000000000000001 0  0.6000000000000001 -0.6000000000000001 0  0.75 -0.6000000000000001 0  -0.75 -0.4500000000000002 0  -0.6 -0.4500000000000002 0  -0.45 -0.4500000000000002 0  -0.3 -0.4500000000000002 0  -0.15 -0.4500000000000002 0  0 -0.4500000000000002 0  0.15 -0.4500000000000002 0  0.3 -0.4500000000000002 0  0.45 -0.4500000000000002 0  0.6000000000000001 -0.4500000000000002 0  0.75 -0.4500000000000002 0  -0.75 -0.2999999999999998 0  -0.6 -0.2999999999999998 0  -0.45 -0.2999999999999998 0  -0.3 -0.2999999999999998 0  -0.15 -0.2999999999999998 0  0 -0.2999999999999998 0  0.15 -0.2999999999999998 0  0.3 -0.2999999999999998 0  0.45 -0.2999999999999998 0  0.6000000000000001 -0.2999999999999998 0  0.75 -0.2999999999999998 0  -0.75 -0.1499999999999999 0  -0.6 -0.1499999999999999 0  -0.45 -0.1499999999999999 0  -0.3 -0.1499999999999999 0  -0.15 -0.1499999999999999 0  0 -0.1499999999999999 0  0.15 -0.1499999999999999 0  0.3 -0.1499999999999999 0  0.45 -0.1499999999999999 0  0.6000000000000001 -0.1499999999999999 0  0.75 -0.1499999999999999 0  -0.75 0 0  -0.6 0 0  -0.45 0 0  -0.3 0 0  -0.15 0 0  0 0 0  0.15 0 0  0.3 0 0  0.45 0 0  0.6000000000000001 0 0  0.75 0 0  -0.675 -2.925 0  -0.525 -2.925 0  -0.375 -2.925 0  -0.225 -2.925 0  -0.07499999999999996 -2.925 0  0.07499999999999996 -2.925 0  0.225 -2.925 0  0.375 -2.925 0  0.5249999999999999 -2.925 0  0.675 -2.925 0  -0.675 -2.775 0  -0.525 -2.775 0  -0.375 -2.775 0  -0.225 -2.775 0  -0.07499999999999996 -2.775 0  0.07499999999999996 -2.775 0  0.225 -2.775 0  0.375 -2.775 0  0.5249999999999999 -2.775 0  0.675 -2.775 0  -0.675 -2.625 0  -0.525 -2.625 0  -0.375 -2.625 0  -0.225 -2.625 0  -0.07499999999999996 -2.625 0  0.07499999999999996 -2.625 0  0.225 -2.625 0  0.375 -2.625 0  0.5249999999999999 -2.625 0  0.675 -2.625 0  -0.675 -2.475 0  -0.525 -2.475 0  -0.375 -2.475 0  -0.225 -2.475 0  -0.07499999999999996 -2.475 0  0.07499999999999996 -2.475 0  0.225 -2.475 0  0.375 -2.475 0  0.5249999999999999 -2.475 0  0.675 -2.475 0  -0.675 -2.325 0  -0.525 -2.325 0  -0.375 -2.325 0  -0.225 -2.325 0  -0.07499999999999996 -2.325 0  0.07499999999999996 -2.325 0  0.225 -2.325 0  0.375 -2.325 0  0.5249999999999999 -2.325 0  0.675 -2.325 0  -0.675 -2.175 0  -0.525 -2.175 0  -0.375 -2.175 0  -0.225 -2.175 0  -0.07499999999999996 -2.175 0  0.07499999999999996 -2.175 0  0.225 -2.175 0  0.375 -2.175 0  0.5249999999999999 -2.175 0  0.675 -2.175 0  -0.675 -2.025 0  -0.525 -2.025 0  -0.375 -2.025 0  -0.225 -2.025 0  -0.07499999999999996 -2.025 0  0.07499999999999996 -2.025 0  0.225 -2.025 0  0.375 -2.025 0  0.5249999999999999 -2.025 0  0.675 -2.025 0  -0.675 -1.875 0  -0.525 -1.875 0  -0.375 -1.875 0  -0.225 -1.875 0  -0.07499999999999996 -1.875 0  0.07499999999999996 -1.875 0  0.225 -1.875 0  0.375 -1.875 0  0.5249999999999999 -1.875 0  0.675 -1.875 0  -0.675 -1.725 0  -0.525 -1.725 0  -0.375 -1.725 0  -0.225 -1.725 0  -0.07499999999999996 -1.725 0  0.07499999999999996 -1.725 0  0.225 -1.725 0  0.375 -1.725 0  0.5249999999999999 -1.725 0  0.675 -1.725 0  -0.675 -1.575 0  -0.525 -1.575 0  -0.375 -1.575 0  -0.225 -1.575 0  -0.07499999999999996 -1.575 0  0.07499999999999996 -1.575 0  0.225 -1.575 0  0.375 -1.575 0  0.5249999999999999 -1.575 0  0.675 -1.575 0  -0.675 -1.425 0  -0.525 -1.425 0  -0.375 -1.425 0  -0.225 -1.425 0  -0.07499999999999996 -1.425 0  0.07499999999999996 -1.425 0  0.225 -1.425 0  0.375 -1.425 0  0.5249999999999999 -1.425 0  0.675 -1.425 0  -0.675 -1.275 0  -0.525 -1.275 0  -0.375 -1.275 0  -0.225 -1.275 0  -0.07499999999999996 -1.275 0  0.07499999999999996 -1.275 0  0.225 -1.275 0  0.375 -1.275 0  0.5249999999999999 -1.275 0  0.675 -1.275 0  -0.675 -1.125 0  -0.525 -1.125 0  -0.375 -1.125 0  -0.225 -1.125 0  -0.07499999999999996 -1.125 0  0.07499999999999996 -1.125 0  0.225 -1.125 0  0.375 -1.125 0  0.5249999999999999 -1.125 0  0.675 -1.125 0  -0.675 -0.9750000000000001 0  -0.525 -0.9750000000000001 0  -0.375 -0.9750000000000001 0  -0.225 -0.9750000000000001 0  -0.07499999999999996 -0.9750000000000001 0  0.07499999999999996 -0.9750000000000001 0  0.225 -0.9750000000000001 0  0.375 -0.9750000000000001 0  0.5249999999999999 -0.9750000000000001 0  0.675 -0.9750000000000001 0  -0.675 -0.8250000000000002 0  -0.525 -0.8250000000000002 0  -0.375 -0.8250000000000002 0  -0.225 -0.8250000000000002 0  -0.07499999999999996 -0.8250000000000002 0  0.07499999999999996 -0.8250000000000002 0  0.225 -0.8250000000000002 0  0.375 -0.8250000000000002 0  0.5249999999999999 -0.8250000000000002 0  0.675 -0.8250000000000002 0  -0.675 -0.6749999999999998 0  -0.525 -0.6749999999999998 0  -0.375 -0.6749999999999998 0  -0.225 -0.6749999999999998 0  -0.07499999999999996 -0.6749999999999998 0  0.07499999999999996 -0.6749999999999998 0  0.225 -0.6749999999999998 0  0.375 -0.6749999999999998 0  0.5249999999999999 -0.6749999999999998 0  0.675 -0.6749999999999998 0  -0.675 -0.5249999999999999 0  -0.525 -0.5249999999999999 0  -0.375 -0.5249999999999999 0  -0.225 -0.5249999999999999 0  -0.07499999999999996 -0.5249999999999999 0  0.07499999999999996 -0.5249999999999999 0  0.225 -0.5249999999999999 0  0.375 -0.5249999999999999 0  0.5249999999999999 -0.5249999999999999 0  0.675 -0.5249999999999999 0  -0.675 -0.375 0  -0.525 -0.375 0  -0.375 -0.375 0  -0.225 -0.375 0  -0.07499999999999996 -0.375 0  0.07499999999999996 -0.375 0  0.225 -0.375 0  0.375 -0.375 0  0.5249999999999999 -0.375 0  0.675 -0.375 0  -0.675 -0.2250000000000001 0  -0.525 -0.2250000000000001 0  -0.375 -0.2250000000000001 0  -0.225 -0.2250000000000001 0  -0.07499999999999996 -0.2250000000000001 0  0.07499999999999996 -0.2250000000000001 0  0.225 -0.2250000000000001 0  0.375 -0.2250000000000001 0  0.5249999999999999 -0.2250000000000001 0  0.675 -0.2250000000000001 0  -0.675 -0.07500000000000018 0  -0.525 -0.07500000000000018 0  -0.375 -0.07500000000000018 0  -0.225 -0.07500000000000018 0  -0.07499999999999996 -0.07500000000000018 0  0.07499999999999996 -0.07500000000000018 0  0.225 -0.07500000000000018 0  0.375 -0.07500000000000018 0  0.5249999999999999 -0.07500000000000018 0  0.675 -0.07500000000000018 0  </DataArray>
</Points>
<Cells>
[...]
<PointData  Vectors="flow"> 
<DataArray  type="Float64"  Name="flow"  NumberOfComponents="3" format="ascii">-4.2202413285810743e-03 -1.7979750114004990e+01 0.0000000000000000e+00  -1.9072992480132426e-03 -8.1257826749537188e+00 0.0000000000000000e+00  1.7594858020930380e-04 7.4960440855662624e-01 0.0000000000000000e+00  -2.2981768289481275e-05 -9.7910621419786278e-02 0.0000000000000000e+00  3.3028847435986244e-06 1.4071480212063874e-02 0.0000000000000000e+00  -4.9696958318914072e-07 -2.1172696593173782e-03 0.0000000000000000e+00  7.6826350521855889e-08 3.2730796108722807e-04 0.0000000000000000e+00  -1.2090470830162582e-08 -5.1509766234168946e-05 0.0000000000000000e+00  1.9282038748659484e-09 8.2148439247198588e-06 0.0000000000000000e+00  -3.1818785810903451e-10 -1.3555950318211790e-06 0.0000000000000000e+00  1.0047727260929432e-10 4.2806941902046845e-07 0.0000000000000000e+00  8.6070379426943103e-04 3.6669085813496349e+00 0.0000000000000000e+00  3.0436155890229522e-04 1.2966900106663299e+00 0.0000000000000000e+00  -1.0581658430838665e-04 -4.5081681251200162e-01 0.0000000000000000e+00  1.7004379108460934e-05 7.2444787728935034e-02 0.0000000000000000e+00  -2.6679485745270232e-06 -1.1366423138446408e-02 0.0000000000000000e+00  4.2137228019538835e-07 1.7951978839629140e-03 0.0000000000000000e+00  -6.7169935609693589e-08 -2.8616815091997297e-04 0.0000000000000000e+00  1.0796701871904331e-08 4.5997843866790749e-05 0.0000000000000000e+00  -1.7486978720521418e-09 -7.4500836128631777e-06 0.0000000000000000e+00  2.9209794384307418e-10 1.2444425875709122e-06 0.0000000000000000e+00  -9.3055106312951796e-11 -3.9644831375118852e-07 0.0000000000000000e+00  -4.1105060116363012e-05 -1.7512238087148568e-01 0.0000000000000000e+00  6.9803259878883549e-06 2.9738706203022779e-02 0.0000000000000000e+00  1.9109262719227222e-05 8.1412351049150858e-02 0.0000000000000000e+00  -6.7161084414173081e-06 -2.8613044163482138e-02 0.0000000000000000e+00  1.3970681371521789e-06 5.9520141249079011e-03 0.0000000000000000e+00  -2.5630523385471095e-07 -1.0919527341742602e-03 0.0000000000000000e+00  4.4857959837081965e-08 1.9111108718656582e-04 0.0000000000000000e+00  -7.6863243449449869e-09 -3.2746513826442448e-05 0.0000000000000000e+00  1.3042808658109747e-09 5.5567068847325747e-06 0.0000000000000000e+00  -2.2598827139475644e-10 -9.6279154010839283e-07 0.0000000000000000e+00  7.3922198582091938e-11 3.1493522642477340e-07 0.0000000000000000e+00  3.6901440896217326e-06 1.5721344693427414e-02 0.0000000000000000e+00  -1.4778101965499325e-06 -6.2960044180293048e-03 0.0000000000000000e+00  -1.3523237725739436e-06 -5.7613869944928130e-03 0.0000000000000000e+00  1.3618472551773944e-06 5.8019604650821500e-03 0.0000000000000000e+00  -4.6906526416172107e-07 -1.9983871964078079e-03 0.0000000000000000e+00  1.1145416850582795e-07 4.7483495442018908e-04 0.0000000000000000e+00  -2.2857682252520850e-08 -9.7381970149993633e-05 0.0000000000000000e+00  4.3613727414345074e-09 1.8581020832614436e-05 0.0000000000000000e+00  -8.0013529172958585e-10 -3.4088649161519309e-06 0.0000000000000000e+00  1.4740012528247286e-10 6.2797769440425446e-07 0.0000000000000000e+00  -5.0381061921275868e-11 -2.1464149400368826e-07 0.0000000000000000e+00  -4.0561749626061374e-07 -1.7280768223475469e-03 0.0000000000000000e+00  2.1539326109240753e-07 9.1765297506912725e-04 0.0000000000000000e+00  8.9808522055470686e-08 3.8261669391508025e-04 0.0000000000000000e+00  -1.7845983981350643e-07 -7.6030328017071534e-04 0.0000000000000000e+00  1.0366913059915939e-07 4.4166788521919181e-04 0.0000000000000000e+00  -3.4876498573533500e-08 -1.4858646233257411e-04 0.0000000000000000e+00  8.9121328897865479e-09 3.7968900322352525e-05 0.0000000000000000e+00  -1.9757783491319077e-09 -8.4175283430999587e-06 0.0000000000000000e+00  4.0422269083197776e-10 1.7221344481769812e-06 0.0000000000000000e+00  -8.1144356236889972e-11 -3.4570422274680978e-07 0.0000000000000000e+00  2.9479790119177836e-11 1.2559453796315017e-07 0.0000000000000000e+00  4.9474196456224135e-08 2.1077792005633409e-04 0.0000000000000000e+00  -3.0429942835889868e-08 -1.2964253121437191e-04 0.0000000000000000e+00  -4.3814300985362744e-09 -1.8666472407669183e-05 0.0000000000000000e+00  2.1487938974452038e-08 9.1546369779648261e-05 0.0000000000000000e+00  -1.7479354331028136e-08 -7.4468353479610619e-05 0.0000000000000000e+00  8.1843803592108384e-09 3.4868412073974226e-05 0.0000000000000000e+00  -2.7000346056985172e-09 -1.1503121203248215e-05 0.0000000000000000e+00  7.1981174578059280e-10 3.0666576412615038e-06 0.0000000000000000e+00  -1.6886149007720960e-10 -7.1941084859418568e-07 0.0000000000000000e+00  3.7811756446629388e-11 1.6109171948955610e-07 0.0000000000000000e+00  -1.4835405544331641e-11 -6.3204178092983464e-08 0.0000000000000000e+00  -6.4338027088610771e-09 -2.7410319927610252e-05 0.0000000000000000e+00  4.3343046534772403e-09 1.8465701015655169e-05 0.0000000000000000e+00  -1.5495828376829965e-10 -6.6017817544704713e-07 0.0000000000000000e+00  -2.5246488708651351e-09 -1.0755914718986451e-05 0.0000000000000000e+00  2.6490506859242682e-09 1.1285911317366720e-05 0.0000000000000000e+00  -1.5799327733903241e-09 -6.7310834264626829e-06 0.0000000000000000e+00  6.6069531573245522e-10 2.8148003285767490e-06 0.0000000000000000e+00  -2.1471864248196078e-10 -9.1477885648355477e-07 0.0000000000000000e+00  5.8891810726428322e-11 2.5090035336402661e-07 0.0000000000000000e+00  -1.5004366739860542e-11 -6.3924013722761175e-08 0.0000000000000000e+00  6.4436516314559157e-12 2.7452279889934812e-08 0.0000000000000000e+00  8.7397067148935329e-10 3.7234302630818814e-06 0.0000000000000000e+00  -6.2651865349734197e-10 -2.6691954214458214e-06 0.0000000000000000e+00  1.0334830415243813e-10 4.4030104884825086e-07 0.0000000000000000e+00  2.9283854587932781e-10 1.2475978193477318e-06 0.0000000000000000e+00  -3.8299241383721287e-10 -1.6316858113580739e-06 0.0000000000000000e+00  2.7440454809572363e-10 1.1690623404625047e-06 0.0000000000000000e+00  -1.3867448643866167e-10 -5.9080332597790548e-07 0.0000000000000000e+00  5.4151171402678249e-11 2.3070352010607876e-07 0.0000000000000000e+00  -1.7451319996206725e-11 -7.4348917102527677e-08 0.0000000000000000e+00  5.1243881196193006e-12 2.1831741529555757e-08 0.0000000000000000e+00  -2.4308392500814181e-12 -1.0356251901469805e-08 0.0000000000000000e+00  -1.2253999139192740e-10 -5.2206455808060135e-07 0.0000000000000000e+00  9.1904740126013661e-11 3.9154733890866398e-07 0.0000000000000000e+00  -2.4164575414169031e-11 -1.0294980635713053e-07 0.0000000000000000e+00  -3.3413940070816726e-11 -1.4235543563088583e-07 0.0000000000000000e+00  5.4137616637920674e-11 2.3064577191960824e-07 0.0000000000000000e+00  -4.4929210041196913e-11 -1.9141463875289064e-07 0.0000000000000000e+00  2.6385960970822584e-11 1.1241370998392302e-07 0.0000000000000000e+00  -1.2031001965684189e-11 -5.1256407423703840e-08 0.0000000000000000e+00  4.5088100802568916e-12 1.9209157070119992e-08 0.0000000000000000e+00  -1.5305880483170735e-12 -6.5208571011924115e-09 0.0000000000000000e+00  8.0436684226770863e-13 3.4268928475773175e-09 0.0000000000000000e+00  1.7599827832662364e-11 7.4981614046031614e-08 0.0000000000000000e+00  -1.3661246415601279e-11 -5.8201836737364966e-08 0.0000000000000000e+00  4.6449866158519512e-12 1.9789318224603572e-08 0.0000000000000000e+00  3.7014240838560563e-12 1.5769401537060472e-08 0.0000000000000000e+00  -7.5651765400755600e-12 -3.2230380485047845e-08 0.0000000000000000e+00  7.1072668242683846e-12 3.0279519947942873e-08 0.0000000000000000e+00  -4.7150192800939105e-12 -2.0087682631956795e-08 0.0000000000000000e+00  2.4444854090892459e-12 1.0414389460408696e-08 0.0000000000000000e+00  -1.0463735985012582e-12 -4.4579289102574364e-09 0.0000000000000000e+00  4.0807009838780752e-13 1.7385257919544270e-09 0.0000000000000000e+00  -2.3666222702525166e-13 -1.0082664407176451e-09 0.0000000000000000e+00  -2.5760434412433081e-12 -1.0974874124544070e-08 0.0000000000000000e+00  2.0543218668862431e-12 8.7521520559037080e-09 0.0000000000000000e+00  -8.2653650666757286e-13 -3.5213436135373609e-09 0.0000000000000000e+00  -3.8736518339213918e-13 -1.6503153867265180e-09 0.0000000000000000e+00  1.0503792740205907e-12 4.4749945326396663e-09 0.0000000000000000e+00  -1.1010541865784812e-12 -4.6908879363342445e-09 0.0000000000000000e+00  8.0859410086115453e-13 3.4449024937704647e-09 0.0000000000000000e+00  -4.6665903908715624e-13 -1.9881358097712815e-09 0.0000000000000000e+00  2.2411853582520917e-13 9.5482579225126133e-10 0.0000000000000000e+00  -9.9243457828503719e-14 -4.2281292307192074e-10 0.0000000000000000e+00  6.2932633164620417e-14 2.6811571429652227e-10 0.0000000000000000e+00  3.8284866016879063e-13 1.6310733688849973e-09 0.0000000000000000e+00  -3.1204153520141505e-13 -1.3294094795280891e-09 0.0000000000000000e+00  1.4161336670457149e-13 6.0332401583470365e-10 0.0000000000000000e+00  3.5955012355840356e-14 1.5318132001739030e-10 0.0000000000000000e+00  -1.4520485033103792e-13 -6.1862503137263814e-10 0.0000000000000000e+00  1.6837223134183138e-13 7.1732642992750575e-10 0.0000000000000000e+00  -1.3489169271306015e-13 -5.7468726042058154e-10 0.0000000000000000e+00  8.5261962467659951e-14 3.6324671032820277e-10 0.0000000000000000e+00  -4.5248506645610714e-14 -1.9277495744384569e-10 0.0000000000000000e+00  2.2452329036089868e-14 9.5655019255034423e-11 0.0000000000000000e+00  -1.5385294198529153e-14 -6.5546902080363043e-11 0.0000000000000000e+00  -5.7618893676250395e-14 -2.4547726764542915e-10 0.0000000000000000e+00  4.7813970154444367e-14 2.0370475724060973e-10 0.0000000000000000e+00  -2.3768416224403157e-14 -1.0126202533164348e-10 0.0000000000000000e+00  -2.3792773956420519e-15 -1.0136579805480412e-11 0.0000000000000000e+00  1.9994106006421919e-14 8.5182102576409238e-11 0.0000000000000000e+00  -2.5535914453436265e-14 -1.0879220524570373e-10 0.0000000000000000e+00  2.2081708531086169e-14 9.4076042237307096e-11 0.0000000000000000e+00  -1.5098249443149445e-14 -6.4323987898107523e-11 0.0000000000000000e+00  8.7456280990780681e-15 3.7259529863026280e-11 0.0000000000000000e+00  -4.8005288622177272e-15 -2.0451984291325660e-11 0.0000000000000000e+00  3.5128408518866969e-15 1.4965968955246185e-11 0.0000000000000000e+00  8.7636358585173759e-15 3.7336249412839223e-11 0.0000000000000000e+00  -7.3827399298937954e-15 -3.1453134728862951e-11 0.0000000000000000e+00  3.9423315286369407e-15 1.6795754136478857e-11 0.0000000000000000e+00  -6.5609523798017810e-17 -2.7952023383060115e-13 0.0000000000000000e+00  -2.7404297520259521e-15 -1.1675219095344480e-11 0.0000000000000000e+00  3.8523901416550565e-15 1.6412571390059030e-11 0.0000000000000000e+00  -3.5677598581017398e-15 -1.5199943728576990e-11 0.0000000000000000e+00  2.6140219837707104e-15 1.1136676412890153e-11 0.0000000000000000e+00  -1.6363830282216378e-15 -6.9715818711523814e-12 0.0000000000000000e+00  9.8193732826624153e-16 4.1834071597456895e-12 0.0000000000000000e+00  -7.5915363909299323e-16 -3.2342682956518851e-12 0.0000000000000000e+00  -1.3449347335361653e-15 -5.7299070232924985e-12 0.0000000000000000e+00  1.1476235952249189e-15 4.8892904126924462e-12 0.0000000000000000e+00  -6.4935112918953317e-16 -2.7664700025578969e-12 0.0000000000000000e+00  7.0732833238180537e-17 3.0134737979677279e-13 0.0000000000000000e+00  3.7330910924051402e-16 1.5904314414367898e-12 0.0000000000000000e+00  -5.7918257384762381e-16 -2.4675266501093193e-12 0.0000000000000000e+00  5.7122704476989781e-16 2.4336332270309924e-12 0.0000000000000000e+00  -4.4523415385180179e-16 -1.8968580716608829e-12 0.0000000000000000e+00  2.9879890399659219e-16 1.2729910945646281e-12 0.0000000000000000e+00  -1.9393970076370791e-16 -8.2625307071924379e-13 0.0000000000000000e+00  1.5696687590129231e-16 6.6873550234392791e-13 0.0000000000000000e+00  2.0800518594056259e-16 8.8617711037056944e-13 0.0000000000000000e+00  -1.7945810470473627e-16 -7.6455624863730757e-13 0.0000000000000000e+00  1.0652029855437067e-16 4.5381488899846798e-13 0.0000000000000000e+00  -1.9607547601552663e-17 -8.3535224357154343e-14 0.0000000000000000e+00  -5.0420927193484836e-17 -2.1481133444094088e-13 0.0000000000000000e+00  8.6881148821133877e-17 3.7014502816285230e-13 0.0000000000000000e+00  -9.0886641439071652e-17 -3.8720987131916113e-13 0.0000000000000000e+00  7.4937524829753209e-17 3.1926088242304768e-13 0.0000000000000000e+00  -5.3555865354084914e-17 -2.2816730163852931e-13 0.0000000000000000e+00  3.7246978655407834e-17 1.5868556240860146e-13 0.0000000000000000e+00  -3.1318915076033040e-17 -1.3342987357032145e-13 0.0000000000000000e+00  -3.2386750891078420e-17 -1.3797923926352713e-13 0.0000000000000000e+00  2.8211314106246341e-17 1.2019037266490864e-13 0.0000000000000000e+00  -1.7433530463649758e-17 -7.4273127277937009e-14 0.0000000000000000e+00  4.2999930340938101e-18 1.8319521142398654e-14 0.0000000000000000e+00  6.7286128355144335e-18 2.8666317392117903e-14 0.0000000000000000e+00  -1.3013567251008470e-17 -5.5442489906993433e-14 0.0000000000000000e+00  1.4399980683447528e-17 6.1349111147142843e-14 0.0000000000000000e+00  -1.2504267135110778e-17 -5.3272687731259978e-14 0.0000000000000000e+00  9.4629102230155544e-18 4.0315410402913571e-14 0.0000000000000000e+00  -6.9934727542219185e-18 -2.9794716169060631e-14 0.0000000000000000e+00  6.0708043344249533e-18 2.5863815935065969e-14 0.0000000000000000e+00  5.0726039423121195e-18 2.1611122257966284e-14 0.0000000000000000e+00  -4.4559896749944688e-18 -1.8984123093719649e-14 0.0000000000000000e+00  2.8499550687344120e-18 1.2141836445456147e-14 0.0000000000000000e+00  -8.5408947401963720e-19 -3.6387291915928332e-15 0.0000000000000000e+00  -8.8263088240876243e-19 -3.7603258849534320e-15 0.0000000000000000e+00  1.9473830632260706e-18 8.2965541842183677e-15 0.0000000000000000e+00  -2.2754327066282799e-18 -9.6941639780978944e-15 0.0000000000000000e+00  2.0735853587794127e-18 8.8342214788575661e-15 0.0000000000000000e+00  -1.6535380933256852e-18 -7.0446686355682863e-15 0.0000000000000000e+00  1.2891107270087986e-18 5.4920766222377110e-15 0.0000000000000000e+00  -1.1493107150558415e-18 -4.8964781516416714e-15 0.0000000000000000e+00  -7.9914795021543905e-19 -3.4046584852112513e-15 0.0000000000000000e+00  7.0726289484063485e-19 3.0131950104421564e-15 0.0000000000000000e+00  -4.6600957063464681e-19 -1.9853688399290376e-15 0.0000000000000000e+00  1.6093352278580362e-19 6.8563484866588127e-16 0.0000000000000000e+00  1.1292341263063833e-19 4.8109446428322153e-16 0.0000000000000000e+00  -2.9136433861350157e-19 -1.2413171647140091e-15 0.0000000000000000e+00  3.5921848141940766e-19 1.5304002850530940e-15 0.0000000000000000e+00  -3.4258188711431226e-19 -1.4595223932301928e-15 0.0000000000000000e+00  2.8664101358301444e-19 1.2211940965898514e-15 0.0000000000000000e+00  -2.3425019189865478e-19 -9.9799030116403548e-16 0.0000000000000000e+00  2.1360127621867258e-19 9.1001847321739388e-16 0.0000000000000000e+00  1.2952569695783257e-19 5.5182618322614807e-16 0.0000000000000000e+00  -1.1542619907045105e-19 -4.9175723716109129e-16 0.0000000000000000e+00  7.8129557703373557e-20 3.3286009368963600e-16 0.0000000000000000e+00  -3.0200541557086657e-20 -1.2866519903177932e-16 0.0000000000000000e+00  -1.4067453187993935e-20 -5.9932424088564163e-17 0.0000000000000000e+00  4.4504203159613159e-20 1.8960395615617517e-16 0.0000000000000000e+00  -5.8012118081539473e-20 -2.4715254543060157e-16 0.0000000000000000e+00  5.7862753703039580e-20 2.4651619930907125e-16 0.0000000000000000e+00  -5.0694706195475819e-20 -2.1597773172938772e-16 0.0000000000000000e+00  4.3259783764890348e-20 1.8430228072765946e-16 0.0000000000000000e+00  -4.0236257434571967e-20 -1.7142096810838401e-16 0.0000000000000000e+00  -4.0131051280120567e-20 -1.7097275194721572e-16 0.0000000000000000e+00  3.5965462932560671e-20 1.5322584324327225e-16 0.0000000000000000e+00  -2.4877776973621106e-20 -1.0598830222063098e-16 0.0000000000000000e+00  1.0437558663850293e-20 4.4467764273420606e-17 0.0000000000000000e+00  3.2151433092698085e-21 1.3697670057372379e-17 0.0000000000000000e+00  -1.3010997015113271e-20 -5.5431539775109889e-17 0.0000000000000000e+00  1.7850837313556444e-20 7.6051004962650717e-17 0.0000000000000000e+00  -1.8509532348945361e-20 -7.8857283375551231e-17 0.0000000000000000e+00  1.6850283888584345e-20 7.1788286516935731e-17 0.0000000000000000e+00  -1.4882492232354134e-20 -6.3404784366043538e-17 0.0000000000000000e+00  1.4054076204545199e-20 5.9875433314583830e-17 0.0000000000000000e+00  -1.3337683868704920e-03 -5.6823343592897748e+00 0.0000000000000000e+00  3.8320142330250850e-04 1.6325762670606947e+00 0.0000000000000000e+00  -1.6038651679974305e-05 -6.8330440588443800e-02 0.0000000000000000e+00  1.3356132529871982e-06 5.6901941543085104e-03 0.0000000000000000e+00  -1.3983471651946438e-07 -5.9574632456576009e-04 0.0000000000000000e+00  1.6485222020397843e-08 7.0232991296803650e-05 0.0000000000000000e+00  -2.0906614884760588e-09 -8.9069719499694243e-06 0.0000000000000000e+00  2.7856573886111917e-10 1.1867905138804118e-06 0.0000000000000000e+00  -3.8354022136962902e-11 -1.6340196690160943e-07 0.0000000000000000e+00  4.6669369924046234e-12 1.9882834745247394e-08 0.0000000000000000e+00  -2.8273515476081348e-04 -1.2045537293368780e+00 0.0000000000000000e+00  -5.6158640825256134e-05 -2.3925606385162590e-01 0.0000000000000000e+00  1.9104762730529000e-05 8.1393179474349667e-02 0.0000000000000000e+00  -2.2543475574172050e-06 -9.6043336379786383e-03 0.0000000000000000e+00  2.7645334775854329e-07 1.1777909659374702e-03 0.0000000000000000e+00  -3.5688767642016674e-08 -1.5204702151381267e-04 0.0000000000000000e+00  4.8003995614131080e-09 2.0451433423264870e-05 0.0000000000000000e+00  -6.6649013017955134e-10 -2.8394883280544533e-06 0.0000000000000000e+00  9.4576833448213281e-11 4.0293142016702504e-07 0.0000000000000000e+00  -1.1744191179364612e-11 -5.0034490034026691e-08 0.0000000000000000e+00  7.9781000588507166e-06 3.3989583598266218e-02 0.0000000000000000e+00  -5.8148636844979292e-06 -2.4773416459912899e-02 0.0000000000000000e+00  -3.1006694401033439e-06 -1.3209970089064525e-02 0.0000000000000000e+00  1.1065645783123654e-06 4.7143641924749782e-03 0.0000000000000000e+00  -1.9578795191039396e-07 -8.3412728718650650e-04 0.0000000000000000e+00  3.0712696941080472e-08 1.3084716567937478e-04 0.0000000000000000e+00  -4.6688314952626609e-09 -1.9890906010686055e-05 0.0000000000000000e+00  7.0520150735727355e-10 3.0044127563118459e-06 0.0000000000000000e+00  -1.0638935699227631e-10 -4.5325703071912631e-07 0.0000000000000000e+00  1.3761752362866894e-11 5.8630028320763362e-08 0.0000000000000000e+00  -5.0552741447589772e-07 -2.1537291070299193e-03 0.0000000000000000e+00  6.3123304649399873e-07 2.6892804358844748e-03 0.0000000000000000e+00  1.9781958788646345e-08 8.4278278916574809e-05 0.0000000000000000e+00  -2.0449782045033149e-07 -8.7123446843070441e-04 0.0000000000000000e+00  7.2204615907566736e-08 3.0761770477524993e-04 0.0000000000000000e+00  -1.5658030142390000e-08 -6.6708855564993308e-05 0.0000000000000000e+00  2.8899887426079173e-09 1.2312394334531627e-05 0.0000000000000000e+00  -4.9742044785124633e-10 -2.1191905053848763e-06 0.0000000000000000e+00  8.2414207963005926e-11 3.5111424907937470e-07 0.0000000000000000e+00  -1.1338624310871175e-11 -4.8306628904226489e-08 0.0000000000000000e+00  4.2794995386967911e-08 1.8232211460911398e-04 0.0000000000000000e+00  -6.7597602553362925e-08 -2.8799016634054123e-04 0.0000000000000000e+00  1.7886202220529965e-08 7.6201672220913846e-05 0.0000000000000000e+00  1.7695531142730787e-08 7.5389344662871464e-05 0.0000000000000000e+00  -1.4874414513452140e-08 -6.3370370370245281e-05 0.0000000000000000e+00  5.1200049825586474e-09 2.1813067784873850e-05 0.0000000000000000e+00  -1.2390329201841759e-09 -5.2787271043164507e-06 0.0000000000000000e+00  2.5515135064913604e-10 1.0870367755639122e-06 0.0000000000000000e+00  -4.8007150241126710e-11 -2.0452777408138472e-07 0.0000000000000000e+00  7.17205380