<?xml version="1.0"?>
<VTKFile type="UnstructuredGrid"  version="0.1"  >
<UnstructuredGrid>
<Piece  NumberOfPoints="431" NumberOfCells="800">
<Points>
<DataArray  type="Float64"  NumberOfComponents="3"  format="ascii">-0.75 -3 0  -0.6 -3 0  -0.45 -3 0  -0.3 -3 0  -0.15 -3 0  0 -3 0  0.15 -3 0  0.3 -3 0  0.45 -3 0  0.6000000000000001 -3 0  0.75 -3 0  -0.75 -2.85 0  -0.6 -2.85 0  -0.45 -2.85 0  -0.3 -2.85 0  -0.15 -2.85 0  0 -2.85 0  0.15 -2.85 0  0.3 -2.85 0  0.45 -2.85 0  0.6000000000000001 -2.85 0  0.75 -2.85 0  -0.75 -2.7 0  -0.6 -2.7 0  -0.45 -2.7 0  -0.3 -2.7 0  -0.15 -2.7 0  0 -2.7 0  0.15 -2.7 0  0.3 -2.7 0  0.45 -2.7 0  0.6000000000000001 -2.7 0  0.75 -2.7 0  -0.75 -2.55 0  -0.6 -2.55 0  -0.45 -2.55 0  -0.3 -2.55 0  -0.15 -2.55 0  0 -2.55 0  0.15 -2.55 0  0.3 -2.55 0  0.45 -2.55 0  0.6000000000000001 -2.55 0  0.75 -2.55 0  -0.75 -2.4 0  -0.6 -2.4 0  -0.45 -2.4 0  -0.3 -2.4 0  -0.15 -2.4 0  0 -2.4 0  0.15 -2.4 0  0.3 -2.4 0  0.45 -2.4 0  0.6000000000000001 -2.4 0  0.75 -2.4 0  -0.75 -2.25 0  -0.6 -2.25 0  -0.45 -2.25 0  -0.3 -2.25 0  -0.15 -2.25 0  0 -2.25 0  0.15 -2.25 0  0.3 -2.25 0  0.45 -2.25 0  0.6000000000000001 -2.25 0  0.75 -2.25 0  -0.75 -2.1 0  -0.6 -2.1 0  -0.45 -2.1 0  -0.3 -2.1 0  -0.15 -2.1 0  0 -2.1 0  0.15 -2.1 0  0.3 -2.1 0  0.45 -2.1 0  0.6000000000000001 -2.1 0  0.75 -2.1 0  -0.75 -1.95 0  -0.6 -1.95 0  -0.45 -1.95 0  -0.3 -1.95 0  -0.15 -1.95 0  0 -1.95 0  0.15 -1.95 0  0.3 -1.95 0  0.45 -1.95 0  0.6000000000000001 -1.95 0  0.75 -1.95 0  -0.75 -1.8 0  -0.6 -1.8 0  -0.45 -1.8 0  -0.3 -1.8 0  -0.15 -1.8 0  0 -1.8 0  0.15 -1.8 0  0.3 -1.8 0  0.45 -1.8 0  0.6000000000000001 -1.8 0  0.75 -1.8 0  -0.75 -1.65 0  -0.6 -1.65 0  -0.45 -1.65 0  -0.3 -1.65 0  -0.15 -1.65 0  0 -1.65 0  0.15 -1.65 0  0.3 -1.65 0  0.45 -1.65 0  0.6000000000000001 -1.65 0  0.75 -1.65 0  -0.75 -1.5 0  -0.6 -1.5 0  -0.45 -1.5 0  -0.3 -1.5 0  -0.15 -1.5 0  0 -1.5 0  0.15 -1.5 0  0.3 -1.5 0  0.45 -1.5 0  0.6000000000000001 -1.5 0  0.75 -1.5 0  -0.75 -1.35 0  -0.6 -1.35 0  -0.45 -1.35 0  -0.3 -1.35 0  -0.15 -1.35 0  0 -1.35 0  0.15 -1.35 0  0.3 -1.35 0  0.45 -1.35 0  0.6000000000000001 -1.35 0  0.75 -1.35 0  -0.75 -1.2 0  -0.6 -1.2 0  -0.45 -1.2 0  -0.3 -1.2 0  -0.15 -1.2 0  0 -1.2 0  0.15 -1.2 0  0.3 -1.2 0  0.45 -1.2 0  0.6000000000000001 -1.2 0  0.75 -1.2 0  -0.75 -1.05 0  -0.6 -1.05 0  -0.45 -1.05 0  -0.3 -1.05 0  -0.15 -1.05 0  0 -1.05 0  0.15 -1.05 0  0.3 -1.05 0  0.45 -1.05 0  0.6000000000000001 -1.05 0  0.75 -1.05 0  -0.75 -0.8999999999999999 0  -0.6 -0.8999999999999999 0  -0.45 -0.8999999999999999 0  -0.3 -0.8999999999999999 0  -0.15 -0.8999999999999999 0  0 -0.8999999999999999 0  0.15 -0.8999999999999999 0  0.3 -0.8999999999999999 0  0.45 -0.8999999999999999 0  0.6000000000000001 -0.8999999999999999 0  0.75 -0.8999999999999999 0  -0.75 -0.75 0  -0.6 -0.75 0  -0.45 -0.75 0  -0.3 -0.75 0  -0.15 -0.75 0  0 -0.75 0  0.15 -0.75 0  0.3 -0.75 0  0.45 -0.75 0  0.6000000000000001 -0.75 0  0.75 -0.75 0  -0.75 -0.6000000000000001 0  -0.6 -0.6000000000000001 0  -0.45 -0.6000000000000001 0  -0.3 -0.6000000000000001 0  -0.15 -0.6000000000000001 0  0 -0.6000000000000001 0  0.15 -0.6000000000000001 0  0.3 -0.6000000000000001 0  0.45 -0.6000000000000001 0  0.6000000000000001 -0.6000000000000001 0  0.75 -0.6000000000000001 0  -0.75 -0.4500000000000002 0  -0.6 -0.4500000000000002 0  -0.45 -0.4500000000000002 0  -0.3 -0.4500000000000002 0  -0.15 -0.4500000000000002 0  0 -0.4500000000000002 0  0.15 -0.4500000000000002 0  0.3 -0.4500000000000002 0  0.45 -0.4500000000000002 0  0.6000000000000001 -0.4500000000000002 0  0.75 -0.4500000000000002 0  -0.75 -0.2999999999999998 0  -0.6 -0.2999999999999998 0  -0.45 -0.2999999999999998 0  -0.3 -0.2999999999999998 0  -0.15 -0.2999999999999998 0  0 -0.2999999999999998 0  0.15 -0.2999999999999998 0  0.3 -0.2999999999999998 0  0.45 -0.2999999999999998 0  0.6000000000000001 -0.2999999999999998 0  0.75 -0.2999999999999998 0  -0.75 -0.1499999999999999 0  -0.6 -0.1499999999999999 0  -0.45 -0.1499999999999999 0  -0.3 -0.1499999999999999 0  -0.15 -0.1499999999999999 0  0 -0.1499999999999999 0  0.15 -0.1499999999999999 0  0.3 -0.1499999999999999 0  0.45 -0.1499999999999999 0  0.6000000000000001 -0.1499999999999999 0  0.75 -0.1499999999999999 0  -0.75 0 0  -0.6 0 0  -0.45 0 0  -0.3 0 0  -0.15 0 0  0 0 0  0.15 0 0  0.3 0 0  0.45 0 0  0.6000000000000001 0 0  0.75 0 0  -0.675 -2.925 0  -0.525 -2.925 0  -0.375 -2.925 0  -0.225 -2.925 0  -0.07499999999999996 -2.925 0  0.07499999999999996 -2.925 0  0.225 -2.925 0  0.375 -2.925 0  0.5249999999999999 -2.925 0  0.675 -2.925 0  -0.675 -2.775 0  -0.525 -2.775 0  -0.375 -2.775 0  -0.225 -2.775 0  -0.07499999999999996 -2.775 0  0.07499999999999996 -2.775 0  0.225 -2.775 0  0.375 -2.775 0  0.5249999999999999 -2.775 0  0.675 -2.775 0  -0.675 -2.625 0  -0.525 -2.625 0  -0.375 -2.625 0  -0.225 -2.625 0  -0.07499999999999996 -2.625 0  0.07499999999999996 -2.625 0  0.225 -2.625 0  0.375 -2.625 0  0.5249999999999999 -2.625 0  0.675 -2.625 0  -0.675 -2.475 0  -0.525 -2.475 0  -0.375 -2.475 0  -0.225 -2.475 0  -0.07499999999999996 -2.475 0  0.07499999999999996 -2.475 0  0.225 -2.475 0  0.375 -2.475 0  0.5249999999999999 -2.475 0  0.675 -2.475 0  -0.675 -2.325 0  -0.525 -2.325 0  -0.375 -2.325 0  -0.225 -2.325 0  -0.07499999999999996 -2.325 0  0.07499999999999996 -2.325 0  0.225 -2.325 0  0.375 -2.325 0  0.5249999999999999 -2.325 0  0.675 -2.325 0  -0.675 -2.175 0  -0.525 -2.175 0  -0.375 -2.175 0  -0.225 -2.175 0  -0.07499999999999996 -2.175 0  0.07499999999999996 -2.175 0  0.225 -2.175 0  0.375 -2.175 0  0.5249999999999999 -2.175 0  0.675 -2.175 0  -0.675 -2.025 0  -0.525 -2.025 0  -0.375 -2.025 0  -0.225 -2.025 0  -0.07499999999999996 -2.025 0  0.07499999999999996 -2.025 0  0.225 -2.025 0  0.375 -2.025 0  0.5249999999999999 -2.025 0  0.675 -2.025 0  -0.675 -1.875 0  -0.525 -1.875 0  -0.375 -1.875 0  -0.225 -1.875 0  -0.07499999999999996 -1.875 0  0.07499999999999996 -1.875 0  0.225 -1.875 0  0.375 -1.875 0  0.5249999999999999 -1.875 0  0.675 -1.875 0  -0.675 -1.725 0  -0.525 -1.725 0  -0.375 -1.725 0  -0.225 -1.725 0  -0.07499999999999996 -1.725 0  0.07499999999999996 -1.725 0  0.225 -1.725 0  0.375 -1.725 0  0.5249999999999999 -1.725 0  0.675 -1.725 0  -0.675 -1.575 0  -0.525 -1.575 0  -0.375 -1.575 0  -0.225 -1.575 0  -0.07499999999999996 -1.575 0  0.07499999999999996 -1.575 0  0.225 -1.575 0  0.375 -1.575 0  0.5249999999999999 -1.575 0  0.675 -1.575 0  -0.675 -1.425 0  -0.525 -1.425 0  -0.375 -1.425 0  -0.225 -1.425 0  -0.07499999999999996 -1.425 0  0.07499999999999996 -1.425 0  0.225 -1.425 0  0.375 -1.425 0  0.5249999999999999 -1.425 0  0.675 -1.425 0  -0.675 -1.275 0  -0.525 -1.275 0  -0.375 -1.275 0  -0.225 -1.275 0  -0.07499999999999996 -1.275 0  0.07499999999999996 -1.275 0  0.225 -1.275 0  0.375 -1.275 0  0.5249999999999999 -1.275 0  0.675 -1.275 0  -0.675 -1.125 0  -0.525 -1.125 0  -0.375 -1.125 0  -0.225 -1.125 0  -0.07499999999999996 -1.125 0  0.07499999999999996 -1.125 0  0.225 -1.125 0  0.375 -1.125 0  0.5249999999999999 -1.125 0  0.675 -1.125 0  -0.675 -0.9750000000000001 0  -0.525 -0.9750000000000001 0  -0.375 -0.9750000000000001 0  -0.225 -0.9750000000000001 0  -0.07499999999999996 -0.9750000000000001 0  0.07499999999999996 -0.9750000000000001 0  0.225 -0.9750000000000001 0  0.375 -0.9750000000000001 0  0.5249999999999999 -0.9750000000000001 0  0.675 -0.9750000000000001 0  -0.675 -0.8250000000000002 0  -0.525 -0.8250000000000002 0  -0.375 -0.8250000000000002 0  -0.225 -0.8250000000000002 0  -0.07499999999999996 -0.8250000000000002 0  0.07499999999999996 -0.8250000000000002 0  0.225 -0.8250000000000002 0  0.375 -0.8250000000000002 0  0.5249999999999999 -0.8250000000000002 0  0.675 -0.8250000000000002 0  -0.675 -0.6749999999999998 0  -0.525 -0.6749999999999998 0  -0.375 -0.6749999999999998 0  -0.225 -0.6749999999999998 0  -0.07499999999999996 -0.6749999999999998 0  0.07499999999999996 -0.6749999999999998 0  0.225 -0.6749999999999998 0  0.375 -0.6749999999999998 0  0.5249999999999999 -0.6749999999999998 0  0.675 -0.6749999999999998 0  -0.675 -0.5249999999999999 0  -0.525 -0.5249999999999999 0  -0.375 -0.5249999999999999 0  -0.225 -0.5249999999999999 0  -0.07499999999999996 -0.5249999999999999 0  0.07499999999999996 -0.5249999999999999 0  0.225 -0.5249999999999999 0  0.375 -0.5249999999999999 0  0.5249999999999999 -0.5249999999999999 0  0.675 -0.5249999999999999 0  -0.675 -0.375 0  -0.525 -0.375 0  -0.375 -0.375 0  -0.225 -0.375 0  -0.07499999999999996 -0.375 0  0.07499999999999996 -0.375 0  0.225 -0.375 0  0.375 -0.375 0  0.5249999999999999 -0.375 0  0.675 -0.375 0  -0.675 -0.2250000000000001 0  -0.525 -0.2250000000000001 0  -0.375 -0.2250000000000001 0  -0.225 -0.2250000000000001 0  -0.07499999999999996 -0.2250000000000001 0  0.07499999999999996 -0.2250000000000001 0  0.225 -0.2250000000000001 0  0.375 -0.2250000000000001 0  0.5249999999999999 -0.2250000000000001 0  0.675 -0.2250000000000001 0  -0.675 -0.07500000000000018 0  -0.525 -0.07500000000000018 0  -0.375 -0.07500000000000018 0  -0.225 -0.07500000000000018 0  -0.07499999999999996 -0.07500000000000018 0  0.07499999999999996 -0.07500000000000018 0  0.225 -0.07500000000000018 0  0.375 -0.07500000000000018 0  0.5249999999999999 -0.07500000000000018 0  0.675 -0.07500000000000018 0  </DataArray>
</Points>
<Cells>
[...]
<PointData  Vectors="flow"> 
<DataArray  type="Float64"  Name="flow"  NumberOfComponents="3" format="ascii">-6.9651921540592856e-314 -3.0854316018366856e-310 0.0000000000000000e+00  -3.1431424122244280e-314 -1.3944330504898378e-310 0.0000000000000000e+00  2.8989031664046560e-315 1.2863537647379342e-311 0.0000000000000000e+00  -3.7868023575620743e-316 -1.6803168089419479e-312 0.0000000000000000e+00  5.4429566963729480e-317 2.4136164231742521e-313 0.0000000000000000e+00  -8.1949038259056288e-318 -3.6446751686106608e-314 0.0000000000000000e+00  1.2773227361627499e-318 5.5035790451833148e-315 0.0000000000000000e+00  -2.0685046394435469e-319 -9.9707190360963629e-316 0.0000000000000000e+00  2.4835197819501940e-319 2.7779666027052642e-317 0.0000000000000000e+00  4.7779458192675677e-318 -1.3645302633101884e-316 0.0000000000000000e+00  1.1490517827728142e-316 -1.0586311491042118e-316 0.0000000000000000e+00  1.3983293598529189e-314 6.2926240779849906e-311 0.0000000000000000e+00  5.0066626405655643e-315 2.2251901293286268e-311 0.0000000000000000e+00  -1.7438979123620805e-315 -7.7363397005049181e-312 0.0000000000000000e+00  2.8017310120505344e-316 1.2431359412040296e-312 0.0000000000000000e+00  -4.3958008641787388e-317 -1.9511353301506747e-313 0.0000000000000000e+00  6.9445867179445614e-318 3.0747586211656153e-314 0.0000000000000000e+00  -1.1086833092677572e-318 -4.9698619978934159e-315 0.0000000000000000e+00  1.9729523435378498e-319 7.3028633616827998e-316 0.0000000000000000e+00  3.0862798698765148e-319 -1.8691228176476806e-316 0.0000000000000000e+00  8.3059006139003233e-318 -3.7701161302853841e-317 0.0000000000000000e+00  1.9860714168515662e-316 -6.5860926853221529e-317 0.0000000000000000e+00  -1.2490256203628384e-315 -3.0054068334723851e-312 0.0000000000000000e+00  9.1123822480358861e-317 5.1012947655395810e-313 0.0000000000000000e+00  3.1386573994087766e-316 1.3968794825506419e-312 0.0000000000000000e+00  -1.1070594637095708e-316 -4.9122075096685138e-313 0.0000000000000000e+00  2.3018187415760963e-317 1.0193588491662699e-313 0.0000000000000000e+00  -4.2163562216091980e-318 -1.8942700836332622e-314 0.0000000000000000e+00  7.4570810123756865e-319 3.0754081183814413e-315 0.0000000000000000e+00  -9.8156021859280451e-320 -7.6611663391199615e-316 0.0000000000000000e+00  1.0312780445338091e-318 -1.0879556250080857e-316 0.0000000000000000e+00  2.3895648002775017e-317 -2.2068594726651025e-316 0.0000000000000000e+00  5.7169784974829890e-316 -1.9875009463912433e-316 0.0000000000000000e+00  -1.7169255496003325e-315 2.6914079484228951e-313 0.0000000000000000e+00  -9.8684341076347871e-317 -1.0868984002662489e-313 0.0000000000000000e+00  -2.5404855509156897e-317 -9.9515481363825707e-314 0.0000000000000000e+00  2.2311016434899011e-317 9.8918310803592452e-314 0.0000000000000000e+00  -7.7373990378566345e-318 -3.4940219708238621e-314 0.0000000000000000e+00  1.8501128020123407e-318 7.5017165480595853e-315 0.0000000000000000e+00  -3.7812326073168122e-319 -2.3178483704314328e-315 0.0000000000000000e+00  2.0651943996164106e-319 -3.2785273837464335e-316 0.0000000000000000e+00  3.0902175730738695e-318 -7.0521744529829513e-316 0.0000000000000000e+00  7.4322952211207686e-317 -6.3593165538810208e-316 0.0000000000000000e+00  1.7778405483147004e-315 -6.5039460208047601e-316 0.0000000000000000e+00  -5.5808410308799690e-315 -3.1686313903148397e-314 0.0000000000000000e+00  -2.2948822081281789e-316 1.3715962913638807e-314 0.0000000000000000e+00  -8.2594584431912461e-318 4.5344083477496081e-315 0.0000000000000000e+00  -3.3619536782865551e-318 -1.5078751758589068e-314 0.0000000000000000e+00  1.6985976904022056e-318 5.5477646550461719e-315 0.0000000000000000e+00  -5.8135222349201957e-319 -4.5813403005553771e-315 0.0000000000000000e+00  1.7292297604443629e-319 -1.3799460995917269e-315 0.0000000000000000e+00  3.7417073556495125e-319 -2.1759576576022852e-315 0.0000000000000000e+00  9.7492343477221904e-318 -2.0019339032989146e-315 0.0000000000000000e+00  2.3304384822427422e-316 -2.0374186861145246e-315 0.0000000000000000e+00  5.5740822128448607e-315 -2.0293265528836105e-315 0.0000000000000000e+00  -1.7491001582995371e-314 -2.7590042001762140e-315 0.0000000000000000e+00  -7.3168092044482669e-316 -8.6008271723975053e-315 0.0000000000000000e+00  -3.0715404094641329e-317 -6.6963898763623362e-315 0.0000000000000000e+00  -8.6198151032984761e-319 -4.8050782592985683e-315 0.0000000000000000e+00  -3.7088025836364854e-319 -7.6539556338231974e-315 0.0000000000000000e+00  1.4195988201956537e-319 -5.7776734887652638e-315 0.0000000000000000e+00  2.8986831441505935e-320 -6.5734465810512004e-315 0.0000000000000000e+00  1.2667843159369561e-318 -6.3234223536866715e-315 0.0000000000000000e+00  3.0614940786215970e-317 -6.3884091153707367e-315 0.0000000000000000e+00  7.3115819899152665e-316 -6.3732936710018696e-315 0.0000000000000000e+00  1.7491872457687326e-314 -6.3771595716389143e-315 0.0000000000000000e+00  -5.4894085838710820e-314 -2.0480535494365836e-314 0.0000000000000000e+00  -2.2950363714316508e-315 -1.9693285696518626e-314 0.0000000000000000e+00  -9.5603347708881858e-317 -2.0021487576263216e-314 0.0000000000000000e+00  -4.2664198935022915e-318 -2.0194734990395307e-314 0.0000000000000000e+00  1.6452386006513510e-321 -1.9816480634285158e-314 0.0000000000000000e+00  -3.0632070042157286e-320 -2.0125673506288326e-314 0.0000000000000000e+00  6.7523951817123165e-320 -1.9961837711685528e-314 0.0000000000000000e+00  4.2347996921684517e-318 -2.0025841939841678e-314 0.0000000000000000e+00  9.5622784251389252e-317 -2.0005835576602965e-314 0.0000000000000000e+00  2.2950920378079677e-315 -2.0011251524212677e-314 0.0000000000000000e+00  5.4893765022124349e-314 -2.0009683690876760e-314 0.0000000000000000e+00  -1.7227666242459046e-313 -6.2733872733725028e-314 0.0000000000000000e+00  -7.1991879694521636e-315 -6.2843562224020827e-314 0.0000000000000000e+00  -3.0296599468631079e-316 -6.2790209063057722e-314 0.0000000000000000e+00  -1.1240981574180041e-317 -6.2776362048243393e-314 0.0000000000000000e+00  -1.2124370948944190e-318 -6.2825813740783608e-314 0.0000000000000000e+00  2.6679544875427313e-320 -6.2777724355211297e-314 0.0000000000000000e+00  1.2124370948944190e-318 -6.2807922304592422e-314 0.0000000000000000e+00  1.1236698025030598e-317 -6.2793838138268089e-314 0.0000000000000000e+00  3.0294919645435219e-316 -6.2799077210376590e-314 0.0000000000000000e+00  7.1991668876710556e-315 -6.2797434936169813e-314 0.0000000000000000e+00  1.7227682052559713e-313 -6.2797981372774114e-314 0.0000000000000000e+00  -5.4063265112892714e-313 -1.9708685590783970e-313 0.0000000000000000e+00  -2.2614415562115062e-314 -1.9707118876012675e-313 0.0000000000000000e+00  -9.3326793508171499e-316 -1.9707969162989168e-313 0.0000000000000000e+00  -4.7435242657218081e-317 -1.9708035894459689e-313 0.0000000000000000e+00  2.3573502379717149e-318 -1.9707396178261454e-313 0.0000000000000000e+00  1.3191552743961283e-321 -1.9708120379685128e-313 0.0000000000000000e+00  -2.3494451876382549e-318 -1.9707601413130736e-313 0.0000000000000000e+00  4.7408894136325367e-317 -1.9707881943604445e-313 0.0000000000000000e+00  9.3324784637255509e-316 -1.9707763170223185e-313 0.0000000000000000e+00  2.2614458377843930e-314 -1.9707807307083590e-313 0.0000000000000000e+00  5.4063248841828799e-313 -1.9707786918476583e-313 0.0000000000000000e+00  -1.6968024172416431e-312 -6.1848711705265624e-313 0.0000000000000000e+00  -7.0840999211751900e-314 -6.1848938283770806e-313 0.0000000000000000e+00  -3.0339596371372012e-315 -6.1848803206223233e-313 0.0000000000000000e+00  -7.7169101355235980e-317 -6.1848809662179028e-313 0.0000000000000000e+00  -2.8322807213495299e-317 -6.1848888712682362e-313 0.0000000000000000e+00  1.0212336899538566e-320 -6.1848785057709865e-313 0.0000000000000000e+00  2.8305351874227728e-317 -6.1848871453487156e-313 0.0000000000000000e+00  7.7170746593836632e-317 -6.1848820399707709e-313 0.0000000000000000e+00  3.0339197808615512e-315 -6.1848845004176871e-313 0.0000000000000000e+00  7.0840982413519942e-314 -6.1848832916366780e-313 0.0000000000000000e+00  1.6968026800845666e-312 -6.1848843324353676e-313 0.0000000000000000e+00  -5.3242134939615156e-312 -1.9409983053425330e-312 0.0000000000000000e+00  -2.2311043773033393e-313 -1.9409980168081958e-312 0.0000000000000000e+00  -8.8910228892940943e-315 -1.9409982167368000e-312 0.0000000000000000e+00  -6.6255882930507022e-316 -1.9409981808379902e-312 0.0000000000000000e+00  1.1628658582305355e-316 -1.9409980444758720e-312 0.0000000000000000e+00  -1.8774494541967369e-320 -1.9409982075175351e-312 0.0000000000000000e+00  -1.1629415984940429e-316 -1.9409980517188743e-312 0.0000000000000000e+00  6.6256343893754592e-316 -1.9409981485557409e-312 0.0000000000000000e+00  8.8910390254780874e-315 -1.9409980718125242e-312 0.0000000000000000e+00  2.2311040742928787e-313 -1.9409981268168525e-312 0.0000000000000000e+00  5.3242135730120190e-312 -1.9409980550142922e-312 0.0000000000000000e+00  -1.6714183992460567e-311 -6.0914219157829304e-312 0.0000000000000000e+00  -6.9535620363529083e-313 -6.0914219174281690e-312 0.0000000000000000e+00  -3.1674240915026620e-314 -6.0914218459566326e-312 0.0000000000000000e+00  3.6279602524241135e-316 -6.0914218232296129e-312 0.0000000000000000e+00  -7.9412422724344473e-316 -6.0914218835056217e-312 0.0000000000000000e+00  -7.5740263507463095e-321 -6.0914218456256087e-312 0.0000000000000000e+00  7.9408305675317678e-316 -6.0914218821864664e-312 0.0000000000000000e+00  -3.6274793783310163e-316 -6.0914218657192585e-312 0.0000000000000000e+00  3.1674279783170978e-314 -6.0914219022801163e-312 0.0000000000000000e+00  6.9535619836361039e-313 -6.0914218558379456e-312 0.0000000000000000e+00  1.6714183906162121e-311 -6.0914218835056217e-312 0.0000000000000000e+00  -5.2421587369174638e-311 -1.9116670221345037e-311 0.0000000000000000e+00  -2.2118445558374129e-312 -1.9116670263508600e-311 0.0000000000000000e+00  -7.6907982389728440e-314 -1.9116670246048320e-311 0.0000000000000000e+00  -1.2846966659269305e-314 -1.9116670286235619e-311 0.0000000000000000e+00  3.8836596636427271e-315 -1.9116670266799077e-311 0.0000000000000000e+00  -2.5034306274775962e-320 -1.9116670285904595e-311 0.0000000000000000e+00  -3.8836043282903929e-315 -1.9116670268449256e-311 0.0000000000000000e+00  1.2846922524385162e-314 -1.9116670271413650e-311 0.0000000000000000e+00  7.6907983051776406e-314 -1.9116670242095794e-311 0.0000000000000000e+00  2.2118446180896843e-312 -1.9116670284585440e-311 0.0000000000000000e+00  5.2421587153099969e-311 -1.9116670258236919e-311 0.0000000000000000e+00  -1.6471663411464510e-310 -5.9993723681012047e-311 0.0000000000000000e+00  -6.7590068917013755e-312 -5.9993723614807251e-311 0.0000000000000000e+00  -3.7487252682803729e-313 -5.9993723706046353e-311 0.0000000000000000e+00  3.8099538621695121e-314 -5.9993723710655986e-311 0.0000000000000000e+00  -2.1498755383880061e-314 -5.9993723679697833e-311 0.0000000000000000e+00  1.7129255941316018e-320 -5.9993723670473627e-311 0.0000000000000000e+00  2.1498728378251859e-314 -5.9993723647089500e-311 0.0000000000000000e+00  -3.8099516882806704e-314 -5.9993723648403715e-311 0.0000000000000000e+00  3.7487253374495634e-313 -5.9993723657958944e-311 0.0000000000000000e+00  6.7590069045470823e-312 -5.9993723655320634e-311 0.0000000000000000e+00  1.6471663395983952e-310 -5.9993723645439321e-311 0.0000000000000000e+00  -5.1565402002220323e-310 -1.8827791803355171e-310 0.0000000000000000e+00  -2.2341993145373082e-311 -1.8827791810305193e-310 0.0000000000000000e+00  -3.9036654636466035e-313 -1.8827791806582902e-310 0.0000000000000000e+00  -3.0610979203343755e-313 -1.8827791804507827e-310 0.0000000000000000e+00  9.9520966149601854e-314 -1.8827791807966286e-310 0.0000000000000000e+00  7.9050503334599447e-321 -1.8827791808427743e-310 0.0000000000000000e+00  -9.9520933872293211e-314 -1.8827791808822996e-310 0.0000000000000000e+00  3.0610982793224737e-313 -1.8827791804870471e-310 0.0000000000000000e+00  3.9036650025351363e-313 -1.8827791804639742e-310 0.0000000000000000e+00  2.2341993107824093e-311 -1.8827791805792397e-310 0.0000000000000000e+00  5.1565402017371340e-310 -1.8827791805792397e-310 0.0000000000000000e+00  -1.6264259467180044e-309 -5.9087138239852473e-310 0.0000000000000000e+00  -6.3061279292615380e-311 -5.9087138232013134e-310 0.0000000000000000e+00  -5.7876987315668800e-312 -5.9087138234384649e-310 0.0000000000000000e+00  1.2305747678057285e-312 -5.9087138234351547e-310 0.0000000000000000e+00  -4.3134771594880550e-313 -5.9087138228192524e-310 0.0000000000000000e+00  1.9762625833649862e-320 -5.9087138227698459e-310 0.0000000000000000e+00  4.3134774658087555e-313 -5.9087138226545309e-310 0.0000000000000000e+00  -1.2305747849300437e-312 -5.9087138233791770e-310 0.0000000000000000e+00  5.7876987635181053e-312 -5.9087138234549173e-310 0.0000000000000000e+00  6.3061279210926567e-311 -5.9087138238765035e-310 0.0000000000000000e+00  1.6264259468108887e-309 -5.9087138239720558e-310 0.0000000000000000e+00  -5.0510031051985084e-309 -1.8543278685421172e-309 0.0000000000000000e+00  -2.4232291701679622e-310 -1.8543278685974526e-309 0.0000000000000000e+00  7.5745614719281649e-312 -1.8543278685681397e-309 0.0000000000000000e+00  -6.3775644037574361e-312 -1.8543278685740685e-309 0.0000000000000000e+00  1.3669355296797324e-312 -1.8543278685875713e-309 0.0000000000000000e+00  -1.5479076684206254e-320 -1.8543278685668205e-309 0.0000000000000000e+00  -1.3669355000357936e-312 -1.8543278686129317e-309 0.0000000000000000e+00  6.3775644867604646e-312 -1.8543278685529867e-309 0.0000000000000000e+00  -7.5745615882015740e-312 -1.8543278686745268e-309 0.0000000000000000e+00  2.4232291696080376e-310 -1.8543278685319049e-309 0.0000000000000000e+00  5.0510031053875725e-309 -1.8543278686574025e-309 0.0000000000000000e+00  -1.6209971047363637e-308 -5.8194252536007829e-309 0.0000000000000000e+00  -4.7817764914760080e-310 -5.8194252535971614e-309 0.0000000000000000e+00  -1.1219192714843559e-310 -5.8194252535648841e-309 0.0000000000000000e+00  1.8735860961203189e-311 -5.8194252536021021e-309 0.0000000000000000e+00  -2.3449668738586955e-312 -5.8194252535510503e-309 0.0000000000000000e+00  2.6348520892713678e-320 -5.8194252536205456e-309 0.0000000000000000e+00  2.3449668422384942e-312 -5.8194252536162669e-309 0.0000000000000000e+00  -1.8735860966143845e-311 -5.8194252536660045e-309 0.0000000000000000e+00  1.1219192715238812e-310 -5.8194252535918947e-309 0.0000000000000000e+00  4.7817764916176072e-310 -5.8194252536577635e-309 0.0000000000000000e+00  1.6209971047191712e-308 -5.8194252535942020e-309 0.0000000000000000e+00  -4.8316514689482681e-308 -1.8263064939293765e-308 0.0000000000000000e+00  -3.3014713531409593e-309 -1.8263064939307263e-308 0.0000000000000000e+00  2.3905456826248368e-310 -1.8263064939333285e-308 0.0000000000000000e+00  -1.6827443787207981e-311 -1.8263064939267411e-308 0.0000000000000000e+00  1.1242357263755874e-312 -1.8263064939367870e-308 0.0000000000000000e+00  -1.9762625833649862e-321 -1.8263064939333952e-308 0.0000000000000000e+00  -1.1242357458071893e-312 -1.8263064939310227e-308 0.0000000000000000e+00  1.6827443798739473e-311 -1.8263064939303315e-308 0.0000000000000000e+00  -2.3905456830102080e-310 -1.8263064939302332e-308 0.0000000000000000e+00  3.3014713530296315e-309 -1.8263064939377415e-308 0.0000000000000000e+00  4.8316514690044611e-308 -1.8263064939264788e-308 0.0000000000000000e+00  -1.7225115570528003e-307 -5.7314859533847892e-308 0.0000000000000000e+00  5.4877214537209965e-310 -5.7314859533822200e-308 0.0000000000000000e+00  1.1838954378051136e-310 -5.7314859533832744e-308 0.0000000000000000e+00  -2.0004808124933817e-311 -5.7314859533883139e-308 0.0000000000000000e+00  2.7986370695535149e-312 -5.7314859533880164e-308 0.0000000000000000e+00  -5.2716804411261006e-321 -5.7314859533862398e-308 0.0000000000000000e+00  -2.7986370527552829e-312 -5.7314859533899907e-308 0.0000000000000000e+00  2.0004808027434902e-311 -5.7314859533855135e-308 0.0000000000000000e+00  -1.1838954369981561e-310 -5.7314859533872595e-308 0.0000000000000000e+00  -5.4877214542644687e-310 -5.7314859533787576e-308 0.0000000000000000e+00  1.7225115570548896e-307 -5.7314859533932249e-308 0.0000000000000000e+00  -2.7265870543943258e-307 3.0632873246379533e-307 0.0000000000000000e+00  7.1371927740145456e-309 3.0632873246376699e-307 0.0000000000000000e+00  -4.9230384888869196e-310 3.0632873246378743e-307 0.0000000000000000e+00  4.7049359644930594e-311 3.0632873246379794e-307 0.0000000000000000e+00  -5.1893886958770452e-312 3.0632873246379992e-307 0.0000000000000000e+00  -1.3191552743961283e-321 3.0632873246376047e-307 0.0000000000000000e+00  5.1893886787527299e-312 3.0632873246382430e-307 0.0000000000000000e+00  -4.7049359610677022e-311 3.0632873246379735e-307 0.0000000000000000e+00  4.9230384875167274e-310 3.0632873246392055e-307 0.0000000000000000e+00  -7.1371927740441846e-309 3.0632873246389991e-307 0.0000000000000000e+00  2.7265870543973708e-307 3.0632873246407746e-307 0.0000000000000000e+00  -2.1894899194978156e-314 -9.7512077551332905e-311 0.0000000000000000e+00  6.3174494310524335e-315 2.8016074887878658e-311 0.0000000000000000e+00  -2.6412156547898031e-316 -1.1724808447299457e-312 0.0000000000000000e+00  2.1993169182959962e-317 9.7756625119970137e-314 0.0000000000000000e+00  -2.2944408592867490e-318 -1.0113800447131988e-314 0.0000000000000000e+00  2.5757124314641706e-319 1.3147765336187004e-315 0.0000000000000000e+00  -4.2158621559633568e-320 -4.3304522834002546e-317 0.0000000000000000e+00  -1.3175248577648522e-319 1.2992345475558092e-316 0.0000000000000000e+00  -3.4070766937212362e-318 1.0674321380798403e-316 0.0000000000000000e+00  -8.1640726474081975e-317 1.0989996226092688e-316 0.0000000000000000e+00  -4.4580109769331762e-315 -2.0670611760668996e-311 0.0000000000000000e+00  -9.1693313669891170e-316 -4.1055382175282629e-312 0.0000000000000000e+00  3.1513615069865509e-316 1.3969906772909782e-312 0.0000000000000000e+00  -3.7116187578177805e-317 -1.6457996813613941e-313 0.0000000000000000e+00  4.5394751539893732e-318 2.0447610959726975e-314 0.0000000000000000e+00  -5.9683130017622583e-319 -2.3731870181835102e-315 0.0000000000000000e+00  8.6955553668059392e-320 5.8700466550442615e-316 0.0000000000000000e+00  -3.7021821039822127e-319 1.8729370044335750e-316 0.0000000000000000e+00  -8.3767199835752075e-318 2.4294393563564112e-316 0.0000000000000000e+00  -2.0062622493804667e-316 2.3515680394987410e-316 0.0000000000000000e+00  7.4339422877643096e-316 5.8404412501039224e-313 0.0000000000000000e+00  -7.0238348475374974e-317 -4.2436338164965301e-313 0.0000000000000000e+00  -5.0000762514408546e-317 -2.2592785498079397e-313 0.0000000000000000e+00  1.8277795526233788e-317 8.1664225881436785e-314 0.0000000000000000e+00  -3.2318464311107213e-318 -1.3551135040159816e-314 0.0000000000000000e+00  4.8945601336554771e-319 3.0083966806213751e-315 0.0000000000000000e+00  -1.0539902422731313e-319 4.2161717869036055e-316 0.0000000000000000e+00  -1.0441237513256816e-318 8.1454692477993850e-316 0.0000000000000000e+00  -2.5603800922767792e-317 7.5519251639911993e-316 0.0000000000000000e+00  -6.1192665089527656e-316 7.6397897984476066e-316 0.0000000000000000e+00  1.9064820707016429e-315 -3.4557762834685603e-314 0.0000000000000000e+00  9.0483182379365892e-317 4.8551152501645895e-314 0.0000000000000000e+00  3.6817771928089692e-318 3.8478227750632954e-315 0.0000000000000000e+00  -3.2199888556105313e-318 -1.2549329325615056e-314 0.0000000000000000e+00  1.1818050248522617e-318 7.6804639009611809e-315 0.0000000000000000e+00  -2.7931013156343191e-319 1.2567771793221048e-315 0.0000000000000000e+00  -8.8931816251424378e-320 2.6128497008234565e-315 0.0000000000000000e+00  -3.3550367592447777e-318 2.3651363815261902e-315 0.0000000000000000e+00  -8.0059716407389986e-317 2.4075482957204772e-315 0.0000000000000000e+00  -1.9148330943309779e-315 2.4006722210856414e-315 0.0000000000000000e+00  6.0082769837230650e-315 1.0667