<?xml version="1.0"?>
<VTKFile type="UnstructuredGrid"  version="0.1"  >
<UnstructuredGrid>
<Piece  NumberOfPoints="1876" NumberOfCells="3600">
<Points>
<DataArray  type="Float64"  NumberOfComponents="3"  format="ascii">-0.75 -3 0  -0.65 -3 0  -0.55 -3 0  -0.45 -3 0  -0.35 -3 0  -0.25 -3 0  -0.15 -3 0  -0.05000000000000004 -3 0  0.05000000000000004 -3 0  0.15 -3 0  0.25 -3 0  0.3500000000000001 -3 0  0.45 -3 0  0.55 -3 0  0.6499999999999999 -3 0  0.75 -3 0  -0.75 -2.95 0  -0.65 -2.95 0  -0.55 -2.95 0  -0.45 -2.95 0  -0.35 -2.95 0  -0.25 -2.95 0  -0.15 -2.95 0  -0.05000000000000004 -2.95 0  0.05000000000000004 -2.95 0  0.15 -2.95 0  0.25 -2.95 0  0.3500000000000001 -2.95 0  0.45 -2.95 0  0.55 -2.95 0  0.6499999999999999 -2.95 0  0.75 -2.95 0  -0.75 -2.9 0  -0.65 -2.9 0  -0.55 -2.9 0  -0.45 -2.9 0  -0.35 -2.9 0  -0.25 -2.9 0  -0.15 -2.9 0  -0.05000000000000004 -2.9 0  0.05000000000000004 -2.9 0  0.15 -2.9 0  0.25 -2.9 0  0.3500000000000001 -2.9 0  0.45 -2.9 0  0.55 -2.9 0  0.6499999999999999 -2.9 0  0.75 -2.9 0  -0.75 -2.85 0  -0.65 -2.85 0  -0.55 -2.85 0  -0.45 -2.85 0  -0.35 -2.85 0  -0.25 -2.85 0  -0.15 -2.85 0  -0.05000000000000004 -2.85 0  0.05000000000000004 -2.85 0  0.15 -2.85 0  0.25 -2.85 0  0.3500000000000001 -2.85 0  0.45 -2.85 0  0.55 -2.85 0  0.6499999999999999 -2.85 0  0.75 -2.85 0  -0.75 -2.8 0  -0.65 -2.8 0  -0.55 -2.8 0  -0.45 -2.8 0  -0.35 -2.8 0  -0.25 -2.8 0  -0.15 -2.8 0  -0.05000000000000004 -2.8 0  0.05000000000000004 -2.8 0  0.15 -2.8 0  0.25 -2.8 0  0.3500000000000001 -2.8 0  0.45 -2.8 0  0.55 -2.8 0  0.6499999999999999 -2.8 0  0.75 -2.8 0  -0.75 -2.75 0  -0.65 -2.75 0  -0.55 -2.75 0  -0.45 -2.75 0  -0.35 -2.75 0  -0.25 -2.75 0  -0.15 -2.75 0  -0.05000000000000004 -2.75 0  0.05000000000000004 -2.75 0  0.15 -2.75 0  0.25 -2.75 0  0.3500000000000001 -2.75 0  0.45 -2.75 0  0.55 -2.75 0  0.6499999999999999 -2.75 0  0.75 -2.75 0  -0.75 -2.7 0  -0.65 -2.7 0  -0.55 -2.7 0  -0.45 -2.7 0  -0.35 -2.7 0  -0.25 -2.7 0  -0.15 -2.7 0  -0.05000000000000004 -2.7 0  0.05000000000000004 -2.7 0  0.15 -2.7 0  0.25 -2.7 0  0.3500000000000001 -2.7 0  0.45 -2.7 0  0.55 -2.7 0  0.6499999999999999 -2.7 0  0.75 -2.7 0  -0.75 -2.65 0  -0.65 -2.65 0  -0.55 -2.65 0  -0.45 -2.65 0  -0.35 -2.65 0  -0.25 -2.65 0  -0.15 -2.65 0  -0.05000000000000004 -2.65 0  0.05000000000000004 -2.65 0  0.15 -2.65 0  0.25 -2.65 0  0.3500000000000001 -2.65 0  0.45 -2.65 0  0.55 -2.65 0  0.6499999999999999 -2.65 0  0.75 -2.65 0  -0.75 -2.6 0  -0.65 -2.6 0  -0.55 -2.6 0  -0.45 -2.6 0  -0.35 -2.6 0  -0.25 -2.6 0  -0.15 -2.6 0  -0.05000000000000004 -2.6 0  0.05000000000000004 -2.6 0  0.15 -2.6 0  0.25 -2.6 0  0.3500000000000001 -2.6 0  0.45 -2.6 0  0.55 -2.6 0  0.6499999999999999 -2.6 0  0.75 -2.6 0  -0.75 -2.55 0  -0.65 -2.55 0  -0.55 -2.55 0  -0.45 -2.55 0  -0.35 -2.55 0  -0.25 -2.55 0  -0.15 -2.55 0  -0.05000000000000004 -2.55 0  0.05000000000000004 -2.55 0  0.15 -2.55 0  0.25 -2.55 0  0.3500000000000001 -2.55 0  0.45 -2.55 0  0.55 -2.55 0  0.6499999999999999 -2.55 0  0.75 -2.55 0  -0.75 -2.5 0  -0.65 -2.5 0  -0.55 -2.5 0  -0.45 -2.5 0  -0.35 -2.5 0  -0.25 -2.5 0  -0.15 -2.5 0  -0.05000000000000004 -2.5 0  0.05000000000000004 -2.5 0  0.15 -2.5 0  0.25 -2.5 0  0.3500000000000001 -2.5 0  0.45 -2.5 0  0.55 -2.5 0  0.6499999999999999 -2.5 0  0.75 -2.5 0  -0.75 -2.45 0  -0.65 -2.45 0  -0.55 -2.45 0  -0.45 -2.45 0  -0.35 -2.45 0  -0.25 -2.45 0  -0.15 -2.45 0  -0.05000000000000004 -2.45 0  0.05000000000000004 -2.45 0  0.15 -2.45 0  0.25 -2.45 0  0.3500000000000001 -2.45 0  0.45 -2.45 0  0.55 -2.45 0  0.6499999999999999 -2.45 0  0.75 -2.45 0  -0.75 -2.4 0  -0.65 -2.4 0  -0.55 -2.4 0  -0.45 -2.4 0  -0.35 -2.4 0  -0.25 -2.4 0  -0.15 -2.4 0  -0.05000000000000004 -2.4 0  0.05000000000000004 -2.4 0  0.15 -2.4 0  0.25 -2.4 0  0.3500000000000001 -2.4 0  0.45 -2.4 0  0.55 -2.4 0  0.6499999999999999 -2.4 0  0.75 -2.4 0  -0.75 -2.35 0  -0.65 -2.35 0  -0.55 -2.35 0  -0.45 -2.35 0  -0.35 -2.35 0  -0.25 -2.35 0  -0.15 -2.35 0  -0.05000000000000004 -2.35 0  0.05000000000000004 -2.35 0  0.15 -2.35 0  0.25 -2.35 0  0.3500000000000001 -2.35 0  0.45 -2.35 0  0.55 -2.35 0  0.6499999999999999 -2.35 0  0.75 -2.35 0  -0.75 -2.3 0  -0.65 -2.3 0  -0.55 -2.3 0  -0.45 -2.3 0  -0.35 -2.3 0  -0.25 -2.3 0  -0.15 -2.3 0  -0.05000000000000004 -2.3 0  0.05000000000000004 -2.3 0  0.15 -2.3 0  0.25 -2.3 0  0.3500000000000001 -2.3 0  0.45 -2.3 0  0.55 -2.3 0  0.6499999999999999 -2.3 0  0.75 -2.3 0  -0.75 -2.25 0  -0.65 -2.25 0  -0.55 -2.25 0  -0.45 -2.25 0  -0.35 -2.25 0  -0.25 -2.25 0  -0.15 -2.25 0  -0.05000000000000004 -2.25 0  0.05000000000000004 -2.25 0  0.15 -2.25 0  0.25 -2.25 0  0.3500000000000001 -2.25 0  0.45 -2.25 0  0.55 -2.25 0  0.6499999999999999 -2.25 0  0.75 -2.25 0  -0.75 -2.2 0  -0.65 -2.2 0  -0.55 -2.2 0  -0.45 -2.2 0  -0.35 -2.2 0  -0.25 -2.2 0  -0.15 -2.2 0  -0.05000000000000004 -2.2 0  0.05000000000000004 -2.2 0  0.15 -2.2 0  0.25 -2.2 0  0.3500000000000001 -2.2 0  0.45 -2.2 0  0.55 -2.2 0  0.6499999999999999 -2.2 0  0.75 -2.2 0  -0.75 -2.15 0  -0.65 -2.15 0  -0.55 -2.15 0  -0.45 -2.15 0  -0.35 -2.15 0  -0.25 -2.15 0  -0.15 -2.15 0  -0.05000000000000004 -2.15 0  0.05000000000000004 -2.15 0  0.15 -2.15 0  0.25 -2.15 0  0.3500000000000001 -2.15 0  0.45 -2.15 0  0.55 -2.15 0  0.6499999999999999 -2.15 0  0.75 -2.15 0  -0.75 -2.1 0  -0.65 -2.1 0  -0.55 -2.1 0  -0.45 -2.1 0  -0.35 -2.1 0  -0.25 -2.1 0  -0.15 -2.1 0  -0.05000000000000004 -2.1 0  0.05000000000000004 -2.1 0  0.15 -2.1 0  0.25 -2.1 0  0.3500000000000001 -2.1 0  0.45 -2.1 0  0.55 -2.1 0  0.6499999999999999 -2.1 0  0.75 -2.1 0  -0.75 -2.05 0  -0.65 -2.05 0  -0.55 -2.05 0  -0.45 -2.05 0  -0.35 -2.05 0  -0.25 -2.05 0  -0.15 -2.05 0  -0.05000000000000004 -2.05 0  0.05000000000000004 -2.05 0  0.15 -2.05 0  0.25 -2.05 0  0.3500000000000001 -2.05 0  0.45 -2.05 0  0.55 -2.05 0  0.6499999999999999 -2.05 0  0.75 -2.05 0  -0.75 -2 0  -0.65 -2 0  -0.55 -2 0  -0.45 -2 0  -0.35 -2 0  -0.25 -2 0  -0.15 -2 0  -0.05000000000000004 -2 0  0.05000000000000004 -2 0  0.15 -2 0  0.25 -2 0  0.3500000000000001 -2 0  0.45 -2 0  0.55 -2 0  0.6499999999999999 -2 0  0.75 -2 0  -0.75 -1.95 0  -0.65 -1.95 0  -0.55 -1.95 0  -0.45 -1.95 0  -0.35 -1.95 0  -0.25 -1.95 0  -0.15 -1.95 0  -0.05000000000000004 -1.95 0  0.05000000000000004 -1.95 0  0.15 -1.95 0  0.25 -1.95 0  0.3500000000000001 -1.95 0  0.45 -1.95 0  0.55 -1.95 0  0.6499999999999999 -1.95 0  0.75 -1.95 0  -0.75 -1.9 0  -0.65 -1.9 0  -0.55 -1.9 0  -0.45 -1.9 0  -0.35 -1.9 0  -0.25 -1.9 0  -0.15 -1.9 0  -0.05000000000000004 -1.9 0  0.05000000000000004 -1.9 0  0.15 -1.9 0  0.25 -1.9 0  0.3500000000000001 -1.9 0  0.45 -1.9 0  0.55 -1.9 0  0.6499999999999999 -1.9 0  0.75 -1.9 0  -0.75 -1.85 0  -0.65 -1.85 0  -0.55 -1.85 0  -0.45 -1.85 0  -0.35 -1.85 0  -0.25 -1.85 0  -0.15 -1.85 0  -0.05000000000000004 -1.85 0  0.05000000000000004 -1.85 0  0.15 -1.85 0  0.25 -1.85 0  0.3500000000000001 -1.85 0  0.45 -1.85 0  0.55 -1.85 0  0.6499999999999999 -1.85 0  0.75 -1.85 0  -0.75 -1.8 0  -0.65 -1.8 0  -0.55 -1.8 0  -0.45 -1.8 0  -0.35 -1.8 0  -0.25 -1.8 0  -0.15 -1.8 0  -0.05000000000000004 -1.8 0  0.05000000000000004 -1.8 0  0.15 -1.8 0  0.25 -1.8 0  0.3500000000000001 -1.8 0  0.45 -1.8 0  0.55 -1.8 0  0.6499999999999999 -1.8 0  0.75 -1.8 0  -0.75 -1.75 0  -0.65 -1.75 0  -0.55 -1.75 0  -0.45 -1.75 0  -0.35 -1.75 0  -0.25 -1.75 0  -0.15 -1.75 0  -0.05000000000000004 -1.75 0  0.05000000000000004 -1.75 0  0.15 -1.75 0  0.25 -1.75 0  0.3500000000000001 -1.75 0  0.45 -1.75 0  0.55 -1.75 0  0.6499999999999999 -1.75 0  0.75 -1.75 0  -0.75 -1.7 0  -0.65 -1.7 0  -0.55 -1.7 0  -0.45 -1.7 0  -0.35 -1.7 0  -0.25 -1.7 0  -0.15 -1.7 0  -0.05000000000000004 -1.7 0  0.05000000000000004 -1.7 0  0.15 -1.7 0  0.25 -1.7 0  0.3500000000000001 -1.7 0  0.45 -1.7 0  0.55 -1.7 0  0.6499999999999999 -1.7 0  0.75 -1.7 0  -0.75 -1.65 0  -0.65 -1.65 0  -0.55 -1.65 0  -0.45 -1.65 0  -0.35 -1.65 0  -0.25 -1.65 0  -0.15 -1.65 0  -0.05000000000000004 -1.65 0  0.05000000000000004 -1.65 0  0.15 -1.65 0  0.25 -1.65 0  0.3500000000000001 -1.65 0  0.45 -1.65 0  0.55 -1.65 0  0.6499999999999999 -1.65 0  0.75 -1.65 0  -0.75 -1.6 0  -0.65 -1.6 0  -0.55 -1.6 0  -0.45 -1.6 0  -0.35 -1.6 0  -0.25 -1.6 0  -0.15 -1.6 0  -0.05000000000000004 -1.6 0  0.05000000000000004 -1.6 0  0.15 -1.6 0  0.25 -1.6 0  0.3500000000000001 -1.6 0  0.45 -1.6 0  0.55 -1.6 0  0.6499999999999999 -1.6 0  0.75 -1.6 0  -0.75 -1.55 0  -0.65 -1.55 0  -0.55 -1.55 0  -0.45 -1.55 0  -0.35 -1.55 0  -0.25 -1.55 0  -0.15 -1.55 0  -0.05000000000000004 -1.55 0  0.05000000000000004 -1.55 0  0.15 -1.55 0  0.25 -1.55 0  0.3500000000000001 -1.55 0  0.45 -1.55 0  0.55 -1.55 0  0.6499999999999999 -1.55 0  0.75 -1.55 0  -0.75 -1.5 0  -0.65 -1.5 0  -0.55 -1.5 0  -0.45 -1.5 0  -0.35 -1.5 0  -0.25 -1.5 0  -0.15 -1.5 0  -0.05000000000000004 -1.5 0  0.05000000000000004 -1.5 0  0.15 -1.5 0  0.25 -1.5 0  0.3500000000000001 -1.5 0  0.45 -1.5 0  0.55 -1.5 0  0.6499999999999999 -1.5 0  0.75 -1.5 0  -0.75 -1.45 0  -0.65 -1.45 0  -0.55 -1.45 0  -0.45 -1.45 0  -0.35 -1.45 0  -0.25 -1.45 0  -0.15 -1.45 0  -0.05000000000000004 -1.45 0  0.05000000000000004 -1.45 0  0.15 -1.45 0  0.25 -1.45 0  0.3500000000000001 -1.45 0  0.45 -1.45 0  0.55 -1.45 0  0.6499999999999999 -1.45 0  0.75 -1.45 0  -0.75 -1.4 0  -0.65 -1.4 0  -0.55 -1.4 0  -0.45 -1.4 0  -0.35 -1.4 0  -0.25 -1.4 0  -0.15 -1.4 0  -0.05000000000000004 -1.4 0  0.05000000000000004 -1.4 0  0.15 -1.4 0  0.25 -1.4 0  0.3500000000000001 -1.4 0  0.45 -1.4 0  0.55 -1.4 0  0.6499999999999999 -1.4 0  0.75 -1.4 0  -0.75 -1.35 0  -0.65 -1.35 0  -0.55 -1.35 0  -0.45 -1.35 0  -0.35 -1.35 0  -0.25 -1.35 0  -0.15 -1.35 0  -0.05000000000000004 -1.35 0  0.05000000000000004 -1.35 0  0.15 -1.35 0  0.25 -1.35 0  0.3500000000000001 -1.35 0  0.45 -1.35 0  0.55 -1.35 0  0.6499999999999999 -1.35 0  0.75 -1.35 0  -0.75 -1.3 0  -0.65 -1.3 0  -0.55 -1.3 0  -0.45 -1.3 0  -0.35 -1.3 0  -0.25 -1.3 0  -0.15 -1.3 0  -0.05000000000000004 -1.3 0  0.05000000000000004 -1.3 0  0.15 -1.3 0  0.25 -1.3 0  0.3500000000000001 -1.3 0  0.45 -1.3 0  0.55 -1.3 0  0.6499999999999999 -1.
[...]
<PointData  Vectors="flow"> 
<DataArray  type="Float64"  Name="flow"  NumberOfComponents="3" format="ascii">1.7153626679917120e-05 2.0912508352385987e-04 0.0000000000000000e+00  7.7524237881215941e-06 9.4512157834317467e-05 0.0000000000000000e+00  -7.1516200728410373e-07 -8.7187576888027536e-06 0.0000000000000000e+00  9.3411879318241780e-08 1.1388126504710904e-06 0.0000000000000000e+00  -1.3424931758679428e-08 -1.6366742891885753e-07 0.0000000000000000e+00  2.0199865207502470e-09 2.4626270452972658e-08 0.0000000000000000e+00  -3.1226885131210412e-10 -3.8069646046919248e-09 0.0000000000000000e+00  4.9142128111235299e-11 5.9910664010393125e-10 0.0000000000000000e+00  -7.8319413213698539e-12 -9.5481580283135378e-11 0.0000000000000000e+00  1.2600230529735011e-12 1.5361324524076993e-11 0.0000000000000000e+00  -2.0420036632727683e-13 -2.4894688138334172e-12 0.0000000000000000e+00  3.3285880900044053e-14 4.0579830453792943e-13 0.0000000000000000e+00  -5.4516927617064287e-15 -6.6463245668803790e-14 0.0000000000000000e+00  8.9706290609431051e-16 1.0936366907341105e-14 0.0000000000000000e+00  -1.5193950293079117e-16 -1.8523407226866945e-15 0.0000000000000000e+00  4.8932565520968445e-17 5.9655179878606936e-16 0.0000000000000000e+00  -3.4984235306396448e-06 -4.2650345999624337e-05 0.0000000000000000e+00  -1.2371104282045486e-06 -1.5081989742111149e-05 0.0000000000000000e+00  4.3010293545934758e-07 5.2435157870783214e-06 0.0000000000000000e+00  -6.9116135414385361e-08 -8.4261584218233503e-07 0.0000000000000000e+00  1.0844165124484711e-08 1.3220451743067489e-07 0.0000000000000000e+00  -1.7127131191653047e-09 -2.0880206896258821e-08 0.0000000000000000e+00  2.7301931769663749e-10 3.3284615948755388e-09 0.0000000000000000e+00  -4.3883514949398739e-11 -5.3499728660049752e-10 0.0000000000000000e+00  7.1026533283860058e-12 8.6590608403454006e-11 0.0000000000000000e+00  -1.1562057287984236e-12 -1.4095655928481696e-11 0.0000000000000000e+00  1.8911626794904587e-13 2.3055739796918534e-12 0.0000000000000000e+00  -3.1057930011818748e-14 -3.7863667718756545e-13 0.0000000000000000e+00  5.1181455389497135e-15 6.2396869961804516e-14 0.0000000000000000e+00  -8.4653376803360562e-16 -1.0320350806809727e-14 0.0000000000000000e+00  1.4403534566620649e-16 1.7559787358610620e-15 0.0000000000000000e+00  -4.6553110049781635e-17 -5.6754313295473106e-16 0.0000000000000000e+00  1.6707595632421703e-07 2.0368738327526357e-06 0.0000000000000000e+00  -2.8372288875880117e-08 -3.4589520873029632e-07 0.0000000000000000e+00  -7.7671662185226267e-08 -9.4691887290163094e-07 0.0000000000000000e+00  2.7298348121304524e-08 3.3280247013973098e-07 0.0000000000000000e+00  -5.6785343280259243e-09 -6.9228740242542340e-08 0.0000000000000000e+00  1.0417802847637769e-09 1.2700660515120170e-08 0.0000000000000000e+00  -1.8232990322039621e-10 -2.2228393418695313e-09 0.0000000000000000e+00  3.1241184586189437e-11 3.8087078947684983e-10 0.0000000000000000e+00  -5.2971552843995592e-12 -6.4579232249810478e-11 0.0000000000000000e+00  8.9332287647669189e-13 1.0890771068002833e-11 0.0000000000000000e+00  -1.5023238268870528e-13 -1.8315287002570900e-12 0.0000000000000000e+00  2.5230876570606528e-14 3.0759729523469966e-13 0.0000000000000000e+00  -4.2352566359439028e-15 -5.1633302639942352e-14 0.0000000000000000e+00  7.1142835884199568e-16 8.6732396443172272e-15 0.0000000000000000e+00  -1.2271230525538374e-16 -1.4960230605917270e-15 0.0000000000000000e+00  4.0088475657386911e-17 4.8873080757962299e-16 0.0000000000000000e+00  -1.4998989199931666e-08 -1.8285724224612410e-07 0.0000000000000000e+00  6.0067191522369407e-09 7.3229741316836712e-08 0.0000000000000000e+00  5.4966660289501251e-09 6.7011528457287783e-08 0.0000000000000000e+00  -5.5353752521816120e-09 -6.7483444378770772e-08 0.0000000000000000e+00  1.9065664241027246e-09 2.3243531535582846e-08 0.0000000000000000e+00  -4.5301748968172994e-10 -5.5228740915981516e-09 0.0000000000000000e+00  9.2907426914928080e-11 1.1326627176933002e-09 0.0000000000000000e+00  -1.7726738451590396e-11 -2.1611206355765048e-10 0.0000000000000000e+00  3.2491466617825709e-12 3.9611335824514598e-11 0.0000000000000000e+00  -5.8127392773055455e-13 -7.0864873624194785e-12 0.0000000000000000e+00  1.0238963599525524e-13 1.2482632144812896e-12 0.0000000000000000e+00  -1.7849814759749060e-14 -2.1761252428841968e-13 0.0000000000000000e+00  3.0897263012968693e-15 3.7667793690593258e-14 0.0000000000000000e+00  -5.3255372743777166e-16 -6.4925245727631155e-15 0.0000000000000000e+00  9.3973988321748293e-17 1.1456654924094914e-15 0.0000000000000000e+00  -3.1251604654912775e-17 -3.8099782370598129e-16 0.0000000000000000e+00  1.6486761215741330e-09 2.0099512369103849e-08 0.0000000000000000e+00  -8.7548917289880365e-10 -1.0673354960035888e-08 0.0000000000000000e+00  -3.6503643745106391e-10 -4.4502703070121088e-09 0.0000000000000000e+00  7.2536929283437199e-10 8.8431978135112330e-09 0.0000000000000000e+00  -4.2137437599874124e-10 -5.1371032621759727e-09 0.0000000000000000e+00  1.4175928419771179e-10 1.7282305777842832e-09 0.0000000000000000e+00  -3.6224263885125058e-11 -4.4162102579952609e-10 0.0000000000000000e+00  8.0304095926298879e-12 9.7901167381453358e-11 0.0000000000000000e+00  -1.6410187435513126e-12 -2.0006158943121284e-11 0.0000000000000000e+00  3.1881666007243992e-13 3.8867909341005405e-12 0.0000000000000000e+00  -5.9911897162056478e-14 -7.3040417235829106e-13 0.0000000000000000e+00  1.1003350065284425e-14 1.3414518949155490e-13 0.0000000000000000e+00  -1.9880989213819635e-15 -2.4237519024152366e-14 0.0000000000000000e+00  3.5523335255421125e-16 4.3307579154870070e-15 0.0000000000000000e+00  -6.4712503646713382e-17 -7.8892982706689082e-16 0.0000000000000000e+00  2.2061203965798580e-17 2.6895485182651915e-16 0.0000000000000000e+00  -2.0109321487423215e-10 -2.4515885848145606e-09 0.0000000000000000e+00  1.2368578919737505e-10 1.5078910996062643e-09 0.0000000000000000e+00  1.7808795804084069e-11 2.1711244971587684e-10 0.0000000000000000e+00  -8.7340048502922214e-11 -1.0647891130530198e-09 0.0000000000000000e+00  7.1046722236759445e-11 8.6615221370380001e-10 0.0000000000000000e+00  -3.3266290855331058e-11 -4.0555947634064613e-10 0.0000000000000000e+00  1.0974543439657733e-11 1.3379399915130602e-10 0.0000000000000000e+00  -2.9255415049937275e-12 -3.5666166869575818e-11 0.0000000000000000e+00  6.8522640674719527e-13 8.3538036718223533e-12 0.0000000000000000e+00  -1.4777229265780635e-13 -1.8015369939673491e-12 0.0000000000000000e+00  3.0150055299827658e-14 3.6756850026398680e-13 0.0000000000000000e+00  -5.9176825238569294e-15 -7.2144268682151663e-14 0.0000000000000000e+00  1.1293974974945312e-15 1.3768828621629028e-14 0.0000000000000000e+00  -2.1130435439117336e-16 -2.5760756944037042e-15 0.0000000000000000e+00  4.0097070689508353e-17 4.8883559223209483e-16 0.0000000000000000e+00  -1.4109184561583632e-17 -1.7200936308991583e-16 0.0000000000000000e+00  2.6150885983614976e-11 3.1881340999155045e-10 0.0000000000000000e+00  -1.7617249387950458e-11 -2.1477724906005754e-10 0.0000000000000000e+00  6.2984470601361099e-13 7.6786285028790582e-12 0.0000000000000000e+00  1.0261707865541776e-11 1.2510360371730102e-10 0.0000000000000000e+00  -1.0767351856518149e-11 -1.3126806350294339e-10 0.0000000000000000e+00  6.4218033046144063e-12 7.8290158548429764e-11 0.0000000000000000e+00  -2.6854458513992556e-12 -3.2739087684015369e-11 0.0000000000000000e+00  8.7263502176231478e-13 1.0638559134876253e-11 0.0000000000000000e+00  -2.3880473815453040e-13 -2.9113412425448048e-12 0.0000000000000000e+00  5.8203555742069821e-14 7.0957726217723621e-13 0.0000000000000000e+00  -1.3095459827615957e-14 -1.5965073633319682e-13 0.0000000000000000e+00  2.7833181727091538e-15 3.3932278940332562e-14 0.0000000000000000e+00  -5.6741268630797457e-16 -6.9175007495981108e-15 0.0000000000000000e+00  1.1223136742305895e-16 1.3682467576272098e-15 0.0000000000000000e+00  -2.2379235293583379e-17 -2.7283206853568682e-16 0.0000000000000000e+00  8.1814995770588423e-18 9.9743151365535059e-17 0.0000000000000000e+00  -3.5523481869991160e-12 -4.3307757897154575e-11 0.0000000000000000e+00  2.5465527361046156e-12 3.1045799443640715e-11 0.0000000000000000e+00  -4.2007035925156707e-13 -5.1212055971365144e-12 0.0000000000000000e+00  -1.1902738173287546e-12 -1.4510990364303644e-11 0.0000000000000000e+00  1.5567136120688012e-12 1.8978369427134488e-11 0.0000000000000000e+00  -1.1153447689590294e-12 -1.3597507531135334e-11 0.0000000000000000e+00  5.6364657630344557e-13 6.8715869563255047e-12 0.0000000000000000e+00  -2.2005002521989254e-13 -2.6826968292025231e-12 0.0000000000000000e+00  7.0679947101744930e-14 8.6168074640562321e-13 0.0000000000000000e+00  -1.9678982748794541e-14 -2.3991246794617431e-13 0.0000000000000000e+00  4.9402048516979616e-15 6.0227540887657076e-14 0.0000000000000000e+00  -1.1496491101811868e-15 -1.4015722195426336e-14 0.0000000000000000e+00  2.5284289091217796e-16 3.0824846352945614e-15 0.0000000000000000e+00  -5.3339371116213915e-17 -6.5027650699940960e-16 0.0000000000000000e+00  1.1269534531547605e-17 1.3739032533243295e-16 0.0000000000000000e+00  -4.3067337090176588e-18 -5.2504701391676307e-17 0.0000000000000000e+00  4.9807703032998112e-13 6.0722086654142240e-12 0.0000000000000000e+00  -3.7355674388275927e-13 -4.5541439558576537e-12 0.0000000000000000e+00  9.8219534802539973e-14 1.1974242416796653e-12 0.0000000000000000e+00  1.3581452643161714e-13 1.6557562265837195e-12 0.0000000000000000e+00  -2.2004797992171326e-13 -2.6826718943499374e-12 0.0000000000000000e+00  1.8261859588313414e-13 2.2263588819839558e-12 0.0000000000000000e+00  -1.0724366527398969e-13 -1.3074401627315997e-12 0.0000000000000000e+00  4.8878592532222425e-14 5.9589379765370479e-13 0.0000000000000000e+00  -1.8226175929736269e-14 -2.2220085785643763e-13 0.0000000000000000e+00  5.8015047063358926e-15 7.0727909550286506e-14 0.0000000000000000e+00  -1.6347182506659564e-15 -1.9929347716814599e-14 0.0000000000000000e+00  4.1973735191241161e-16 5.1171458033148092e-15 0.0000000000000000e+00  -1.0037778601981631e-16 -1.2237361391285469e-15 0.0000000000000000e+00  2.2756146245966985e-17 2.7742710466822441e-16 0.0000000000000000e+00  -5.1328054071081754e-18 -6.2575592876223324e-17 0.0000000000000000e+00  2.0616625854015159e-18 2.5134356041155947e-17 0.0000000000000000e+00  -7.1536401385996976e-14 -8.7212204124493965e-13 0.0000000000000000e+00  5.5527612364510554e-14 6.7695402204386123e-13 0.0000000000000000e+00  -1.8880053877315838e-14 -2.3017248292171206e-13 0.0000000000000000e+00  -1.5044817829294430e-14 -1.8341595301452903e-13 0.0000000000000000e+00  3.0749380590927405e-14 3.7487505729113351e-13 0.0000000000000000e+00  -2.8887803741948157e-14 -3.5218000735836035e-13 0.0000000000000000e+00  1.9162679971235968e-14 2.3361806364932961e-13 0.0000000000000000e+00  -9.9271403707726425e-15 -1.2102478956368076e-13 0.0000000000000000e+00  4.2173739370231768e-15 5.1415289214839230e-14 0.0000000000000000e+00  -1.5219411385041746e-15 -1.8554447618981392e-14 0.0000000000000000e+00  4.8096975153739667e-16 5.8636486230907184e-15 0.0000000000000000e+00  -1.3670469819968075e-16 -1.6666085815300262e-15 0.0000000000000000e+00  3.5728669266722495e-17 4.3557908097343536e-16 0.0000000000000000e+00  -8.7547123832257023e-18 -1.0673136314158670e-16 0.0000000000000000e+00  2.1216503239000775e-18 2.5865684818329718e-17 0.0000000000000000e+00  -8.9974681693957540e-19 -1.0969087281298158e-17 0.0000000000000000e+00  1.0470606949103543e-14 1.2765035602298446e-13 0.0000000000000000e+00  -8.3500135130909554e-15 -1.0179755604655265e-13 0.0000000000000000e+00  3.3595488063415086e-15 4.0957281969485308e-14 0.0000000000000000e+00  1.5744786875858964e-15 1.9194948869525521e-14 0.0000000000000000e+00  -4.2693392417821530e-15 -5.2048814060683430e-14 0.0000000000000000e+00  4.4751740741528807e-15 5.4558209147498811e-14 0.0000000000000000e+00  -3.2858592981613647e-15 -4.0058910748019540e-14 0.0000000000000000e+00  1.8937393353529758e-15 2.3087152592738079e-14 0.0000000000000000e+00  -8.9945832807714260e-16 -1.0965570225775284e-14 0.0000000000000000e+00  3.6320212855695304e-16 4.4279076890160864e-15 0.0000000000000000e+00  -1.2789832273063298e-16 -1.5592473779856353e-15 0.0000000000000000e+00  4.0184036040950444e-17 4.8989581329924093e-16 0.0000000000000000e+00  -1.1497572659681477e-17 -1.4017040755542161e-16 0.0000000000000000e+00  3.0556667440915835e-18 3.7252563262751417e-17 0.0000000000000000e+00  -7.9951748235092830e-19 -9.7471609587478677e-18 0.0000000000000000e+00  3.5916931449325736e-19 4.3787424253873759e-18 0.0000000000000000e+00  -1.5561298035723964e-15 -1.8971252040073975e-14 0.0000000000000000e+00  1.2683267071878770e-15 1.5462556899803559e-14 0.0000000000000000e+00  -5.7560364537467576e-16 -7.0173592244808532e-15 0.0000000000000000e+00  -1.4613936123283684e-16 -1.7816294299864164e-15 0.0000000000000000e+00  5.9018493223246330e-16 7.1951241303470997e-15 0.0000000000000000e+00  -6.8430126762758855e-16 -8.3425250192511537e-15 0.0000000000000000e+00  5.4802148284635570e-16 6.6810966865268965e-15 0.0000000000000000e+00  -3.4558524099346562e-16 -4.2131348510681751e-15 0.0000000000000000e+00  1.8053952276860084e-16 2.2010122688832966e-15 0.0000000000000000e+00  -8.0456588486300750e-17 -9.8087075702429593e-16 0.0000000000000000e+00  3.1267632669015854e-17 3.8119322610400319e-16 0.0000000000000000e+00  -1.0803513658938723e-17 -1.3170892304201856e-16 0.0000000000000000e+00  3.3787411756088800e-18 4.1191261984379686e-17 0.0000000000000000e+00  -9.7488377448986281e-19 -1.1885104798563406e-17 0.0000000000000000e+00  2.7623546883693815e-19 3.3676706722555520e-18 0.0000000000000000e+00  -1.3170282852715618e-19 -1.6056292660441173e-18 0.0000000000000000e+00  2.3419824939328260e-16 2.8551821360815934e-15 0.0000000000000000e+00  -1.9434512405014460e-16 -2.3693205558113351e-15 0.0000000000000000e+00  9.6609624246066009e-17 1.1777973321129129e-15 0.0000000000000000e+00  9.6694321494272916e-18 1.1788299020432258e-16 0.0000000000000000e+00  -8.1262490138658632e-17 -9.9069574934260679e-16 0.0000000000000000e+00  1.0377118705839350e-16 1.2651061239640711e-15 0.0000000000000000e+00  -8.9671110910223552e-17 -1.0932078043142074e-15 0.0000000000000000e+00  6.1083087748503237e-17 7.4468251324697214e-16 0.0000000000000000e+00  -3.4631153235488244e-17 -4.2219892901004059e-16 0.0000000000000000e+00  1.6819464277619499e-17 2.0505120797584874e-16 0.0000000000000000e+00  -7.1391770287892617e-18 -8.7035879950978897e-17 0.0000000000000000e+00  2.6928820476018200e-18 3.2829744615110991e-17 0.0000000000000000e+00  -9.1672616482752256e-19 -1.1176087679027743e-17 0.0000000000000000e+00  2.8677556853008731e-19 3.4961682354711624e-18 0.0000000000000000e+00  -8.8091464721344762e-20 -1.0739498568637019e-18 0.0000000000000000e+00  4.4590400140785755e-20 5.4361513910766802e-19 0.0000000000000000e+00  -3.5620757992630600e-17 -4.3426350178841965e-16 0.0000000000000000e+00  3.0007974652749082e-17 3.6583635185351602e-16 0.0000000000000000e+00  -1.6024155504371131e-17 -1.9535535667068168e-16 0.0000000000000000e+00  2.6717272251822676e-19 3.2571839736570012e-18 0.0000000000000000e+00  1.1136860024723542e-17 1.3577285004054315e-16 0.0000000000000000e+00  -1.5651444814508308e-17 -1.9081152721687583e-16 0.0000000000000000e+00  1.4477335549503641e-17 1.7649760382960156e-16 0.0000000000000000e+00  -1.0546965645174153e-17 -1.2858126812638443e-16 0.0000000000000000e+00  6.4191742249199513e-18 7.8258106637719980e-17 0.0000000000000000e+00  -3.3609974294390276e-18 -4.0974942574552441e-17 0.0000000000000000e+00  1.5428377507728723e-18 1.8809204578987600e-17 0.0000000000000000e+00  -6.3022374139995655e-19 -7.6832494386325370e-18 0.0000000000000000e+00  2.3220454954209758e-19 2.8308763344175818e-18 0.0000000000000000e+00  -7.8504757776246446e-20 -9.5707539480259001e-19 0.0000000000000000e+00  2.6122401224544023e-20 3.1846614362444216e-19 0.0000000000000000e+00  -1.4021973939670825e-20 -1.7094615185581366e-19 0.0000000000000000e+00  5.4666376984268643e-18 6.6645443940821622e-17 0.0000000000000000e+00  -4.6646514494777054e-18 -5.6868185497111035e-17 0.0000000000000000e+00  2.6394009459529553e-18 3.2177740228052717e-17 0.0000000000000000e+00  -2.8766563762530047e-19 -3.5070193387015372e-18 0.0000000000000000e+00  -1.5167567585412073e-18 -1.8491243264998082e-17 0.0000000000000000e+00  2.3520891436847299e-18 2.8675034603878265e-17 0.0000000000000000e+00  -2.3151534461993891e-18 -2.8224740274535233e-17 0.0000000000000000e+00  1.7896818033108527e-18 2.1818555549928903e-17 0.0000000000000000e+00  -1.1590618204905068e-18 -1.4130475411545177e-17 0.0000000000000000e+00  6.4828820714160168e-19 7.9034788383698090e-18 0.0000000000000000e+00  -3.1900701861718318e-19 -3.8891116530547144e-18 0.0000000000000000e+00  1.4001205278678166e-19 1.7069295478875528e-18 0.0000000000000000e+00  -5.5481745557697588e-20 -6.7639484584254136e-19 0.0000000000000000e+00  2.0184899137217546e-20 2.4608024861199201e-19 0.0000000000000000e+00  -7.2590057604466472e-21 -8.8496748488228132e-20 0.0000000000000000e+00  4.1219620837267639e-21 5.0252094272912557e-20 0.0000000000000000e+00  -8.4546142771061211e-19 -1.0307277579567671e-17 0.0000000000000000e+00  7.2943080593029129e-19 8.8927129557762807e-18 0.0000000000000000e+00  -4.3297745454483613e-19 -5.2785599241031585e-18 0.0000000000000000e+00  7.9748213447158866e-20 9.7223474132971983e-19 0.0000000000000000e+00  2.0476532743824695e-19 2.4963564266819379e-18 0.0000000000000000e+00  -3.5256764416838464e-19 -4.2982594532528417e-18 0.0000000000000000e+00  3.6768979467233701e-19 4.4826181924401557e-18 0.0000000000000000e+00  -2.9972580738877442e-19 -3.6540485387744612e-18 0.0000000000000000e+00  2.0507748510220619e-19 2.5001620357677743e-18 0.0000000000000000e+00  -1.2159865078294885e-19 -1.4824461599799545e-18 0.0000000000000000e+00  6.3650500510450751e-20 7.7598262361436713e-19 0.0000000000000000e+00  -2.9799677235770148e-20 -3.6329693464825976e-19 0.0000000000000000e+00  1.2620311583242233e-20 1.5385805947570144e-19 0.0000000000000000e+00  -4.9170731048791763e-21 -5.9945534722092414e-20 0.0000000000000000e+00  1.9047490936663207e-21 2.3221375907132083e-20 0.0000000000000000e+00  -1.1403333934001262e-21 -1.3902151456930283e-20 0.0000000000000000e+00  1.3164004166322255e-19 1.6048638122768580e-18 0.0000000000000000e+00  -1.1466918652020286e-19 -1.3979669521854352e-18 0.0000000000000000e+00  7.0864843498410997e-20 8.6393487465019758e-19 0.0000000000000000e+00  -1.7492835974576554e-20 -2.1326048727266547e-19 0.0000000000000000e+00  -2.7300255802643004e-20 -3.3282572726352650e-19 0.0000000000000000e+00  5.2745608055914284e-20 6.4303776082079996e-19 0.0000000000000000e+00  -5.8103828469080818e-20 -7.0836145664044816e-19 0.0000000000000000e+00  4.9696243322685546e-20 6.0586202729048129e-19 0.0000000000000000e+00  -3.5712858910548487e-20 -4.3538633210947082e-19 0.0000000000000000e+00  2.2305053941078273e-20 2.7192770109036383e-19 0.0000000000000000e+00  -1.2338030513657271e-20 -1.5041668504476126e-19 0.0000000000000000e+00  6.1219461240422922e-21 7.4634508399194091e-20 0.0000000000000000e+00  -2.7545459039921749e-21 -3.3581507455626447e-20 0.0000000000000000e+00  1.1437426780632827e-21 1.3943715083867198e-20 0.0000000000000000e+00  -4.7534473010180413e-22 -5.7950722748063614e-21 0.0000000000000000e+00  2.9885674599391062e-22 3.6434535468127313e-21 0.0000000000000000e+00  -2.0618023282509432e-20 -2.5136059688763772e-19 0.0000000000000000e+00  1.8111953321307841e-20 2.2080833527368431e-19 0.0000000000000000e+00  -1.1585028201273419e-20 -1.4123660467987311e-19 0.0000000000000000e+00  3.4756347749836100e-21 4.2372521343713535e-20 0.0000000000000000e+00  3.5746198555376395e-21 4.3579278586641507e-20 0.0000000000000000e+00  -7.8779277775219844e-21 -9.6042215165963956e-20 0.0000000000000000e+00  9.1479711642256603e-21 1.1152570062821228e-19 0.0000000000000000e+00  -8.1765833692655186e-21 -9.9683216380089489e-20 0.0000000000000000e+00  6.141405821095