<?xml version="1.0"?>
<VTKFile type="UnstructuredGrid"  version="0.1"  >
<UnstructuredGrid>
<Piece  NumberOfPoints="1876" NumberOfCells="3600">
<Points>
<DataArray  type="Float64"  NumberOfComponents="3"  format="ascii">-0.75 -3 0  -0.65 -3 0  -0.55 -3 0  -0.45 -3 0  -0.35 -3 0  -0.25 -3 0  -0.15 -3 0  -0.05000000000000004 -3 0  0.05000000000000004 -3 0  0.15 -3 0  0.25 -3 0  0.3500000000000001 -3 0  0.45 -3 0  0.55 -3 0  0.6499999999999999 -3 0  0.75 -3 0  -0.75 -2.95 0  -0.65 -2.95 0  -0.55 -2.95 0  -0.45 -2.95 0  -0.35 -2.95 0  -0.25 -2.95 0  -0.15 -2.95 0  -0.05000000000000004 -2.95 0  0.05000000000000004 -2.95 0  0.15 -2.95 0  0.25 -2.95 0  0.3500000000000001 -2.95 0  0.45 -2.95 0  0.55 -2.95 0  0.6499999999999999 -2.95 0  0.75 -2.95 0  -0.75 -2.9 0  -0.65 -2.9 0  -0.55 -2.9 0  -0.45 -2.9 0  -0.35 -2.9 0  -0.25 -2.9 0  -0.15 -2.9 0  -0.05000000000000004 -2.9 0  0.05000000000000004 -2.9 0  0.15 -2.9 0  0.25 -2.9 0  0.3500000000000001 -2.9 0  0.45 -2.9 0  0.55 -2.9 0  0.6499999999999999 -2.9 0  0.75 -2.9 0  -0.75 -2.85 0  -0.65 -2.85 0  -0.55 -2.85 0  -0.45 -2.85 0  -0.35 -2.85 0  -0.25 -2.85 0  -0.15 -2.85 0  -0.05000000000000004 -2.85 0  0.05000000000000004 -2.85 0  0.15 -2.85 0  0.25 -2.85 0  0.3500000000000001 -2.85 0  0.45 -2.85 0  0.55 -2.85 0  0.6499999999999999 -2.85 0  0.75 -2.85 0  -0.75 -2.8 0  -0.65 -2.8 0  -0.55 -2.8 0  -0.45 -2.8 0  -0.35 -2.8 0  -0.25 -2.8 0  -0.15 -2.8 0  -0.05000000000000004 -2.8 0  0.05000000000000004 -2.8 0  0.15 -2.8 0  0.25 -2.8 0  0.3500000000000001 -2.8 0  0.45 -2.8 0  0.55 -2.8 0  0.6499999999999999 -2.8 0  0.75 -2.8 0  -0.75 -2.75 0  -0.65 -2.75 0  -0.55 -2.75 0  -0.45 -2.75 0  -0.35 -2.75 0  -0.25 -2.75 0  -0.15 -2.75 0  -0.05000000000000004 -2.75 0  0.05000000000000004 -2.75 0  0.15 -2.75 0  0.25 -2.75 0  0.3500000000000001 -2.75 0  0.45 -2.75 0  0.55 -2.75 0  0.6499999999999999 -2.75 0  0.75 -2.75 0  -0.75 -2.7 0  -0.65 -2.7 0  -0.55 -2.7 0  -0.45 -2.7 0  -0.35 -2.7 0  -0.25 -2.7 0  -0.15 -2.7 0  -0.05000000000000004 -2.7 0  0.05000000000000004 -2.7 0  0.15 -2.7 0  0.25 -2.7 0  0.3500000000000001 -2.7 0  0.45 -2.7 0  0.55 -2.7 0  0.6499999999999999 -2.7 0  0.75 -2.7 0  -0.75 -2.65 0  -0.65 -2.65 0  -0.55 -2.65 0  -0.45 -2.65 0  -0.35 -2.65 0  -0.25 -2.65 0  -0.15 -2.65 0  -0.05000000000000004 -2.65 0  0.05000000000000004 -2.65 0  0.15 -2.65 0  0.25 -2.65 0  0.3500000000000001 -2.65 0  0.45 -2.65 0  0.55 -2.65 0  0.6499999999999999 -2.65 0  0.75 -2.65 0  -0.75 -2.6 0  -0.65 -2.6 0  -0.55 -2.6 0  -0.45 -2.6 0  -0.35 -2.6 0  -0.25 -2.6 0  -0.15 -2.6 0  -0.05000000000000004 -2.6 0  0.05000000000000004 -2.6 0  0.15 -2.6 0  0.25 -2.6 0  0.3500000000000001 -2.6 0  0.45 -2.6 0  0.55 -2.6 0  0.6499999999999999 -2.6 0  0.75 -2.6 0  -0.75 -2.55 0  -0.65 -2.55 0  -0.55 -2.55 0  -0.45 -2.55 0  -0.35 -2.55 0  -0.25 -2.55 0  -0.15 -2.55 0  -0.05000000000000004 -2.55 0  0.05000000000000004 -2.55 0  0.15 -2.55 0  0.25 -2.55 0  0.3500000000000001 -2.55 0  0.45 -2.55 0  0.55 -2.55 0  0.6499999999999999 -2.55 0  0.75 -2.55 0  -0.75 -2.5 0  -0.65 -2.5 0  -0.55 -2.5 0  -0.45 -2.5 0  -0.35 -2.5 0  -0.25 -2.5 0  -0.15 -2.5 0  -0.05000000000000004 -2.5 0  0.05000000000000004 -2.5 0  0.15 -2.5 0  0.25 -2.5 0  0.3500000000000001 -2.5 0  0.45 -2.5 0  0.55 -2.5 0  0.6499999999999999 -2.5 0  0.75 -2.5 0  -0.75 -2.45 0  -0.65 -2.45 0  -0.55 -2.45 0  -0.45 -2.45 0  -0.35 -2.45 0  -0.25 -2.45 0  -0.15 -2.45 0  -0.05000000000000004 -2.45 0  0.05000000000000004 -2.45 0  0.15 -2.45 0  0.25 -2.45 0  0.3500000000000001 -2.45 0  0.45 -2.45 0  0.55 -2.45 0  0.6499999999999999 -2.45 0  0.75 -2.45 0  -0.75 -2.4 0  -0.65 -2.4 0  -0.55 -2.4 0  -0.45 -2.4 0  -0.35 -2.4 0  -0.25 -2.4 0  -0.15 -2.4 0  -0.05000000000000004 -2.4 0  0.05000000000000004 -2.4 0  0.15 -2.4 0  0.25 -2.4 0  0.3500000000000001 -2.4 0  0.45 -2.4 0  0.55 -2.4 0  0.6499999999999999 -2.4 0  0.75 -2.4 0  -0.75 -2.35 0  -0.65 -2.35 0  -0.55 -2.35 0  -0.45 -2.35 0  -0.35 -2.35 0  -0.25 -2.35 0  -0.15 -2.35 0  -0.05000000000000004 -2.35 0  0.05000000000000004 -2.35 0  0.15 -2.35 0  0.25 -2.35 0  0.3500000000000001 -2.35 0  0.45 -2.35 0  0.55 -2.35 0  0.6499999999999999 -2.35 0  0.75 -2.35 0  -0.75 -2.3 0  -0.65 -2.3 0  -0.55 -2.3 0  -0.45 -2.3 0  -0.35 -2.3 0  -0.25 -2.3 0  -0.15 -2.3 0  -0.05000000000000004 -2.3 0  0.05000000000000004 -2.3 0  0.15 -2.3 0  0.25 -2.3 0  0.3500000000000001 -2.3 0  0.45 -2.3 0  0.55 -2.3 0  0.6499999999999999 -2.3 0  0.75 -2.3 0  -0.75 -2.25 0  -0.65 -2.25 0  -0.55 -2.25 0  -0.45 -2.25 0  -0.35 -2.25 0  -0.25 -2.25 0  -0.15 -2.25 0  -0.05000000000000004 -2.25 0  0.05000000000000004 -2.25 0  0.15 -2.25 0  0.25 -2.25 0  0.3500000000000001 -2.25 0  0.45 -2.25 0  0.55 -2.25 0  0.6499999999999999 -2.25 0  0.75 -2.25 0  -0.75 -2.2 0  -0.65 -2.2 0  -0.55 -2.2 0  -0.45 -2.2 0  -0.35 -2.2 0  -0.25 -2.2 0  -0.15 -2.2 0  -0.05000000000000004 -2.2 0  0.05000000000000004 -2.2 0  0.15 -2.2 0  0.25 -2.2 0  0.3500000000000001 -2.2 0  0.45 -2.2 0  0.55 -2.2 0  0.6499999999999999 -2.2 0  0.75 -2.2 0  -0.75 -2.15 0  -0.65 -2.15 0  -0.55 -2.15 0  -0.45 -2.15 0  -0.35 -2.15 0  -0.25 -2.15 0  -0.15 -2.15 0  -0.05000000000000004 -2.15 0  0.05000000000000004 -2.15 0  0.15 -2.15 0  0.25 -2.15 0  0.3500000000000001 -2.15 0  0.45 -2.15 0  0.55 -2.15 0  0.6499999999999999 -2.15 0  0.75 -2.15 0  -0.75 -2.1 0  -0.65 -2.1 0  -0.55 -2.1 0  -0.45 -2.1 0  -0.35 -2.1 0  -0.25 -2.1 0  -0.15 -2.1 0  -0.05000000000000004 -2.1 0  0.05000000000000004 -2.1 0  0.15 -2.1 0  0.25 -2.1 0  0.3500000000000001 -2.1 0  0.45 -2.1 0  0.55 -2.1 0  0.6499999999999999 -2.1 0  0.75 -2.1 0  -0.75 -2.05 0  -0.65 -2.05 0  -0.55 -2.05 0  -0.45 -2.05 0  -0.35 -2.05 0  -0.25 -2.05 0  -0.15 -2.05 0  -0.05000000000000004 -2.05 0  0.05000000000000004 -2.05 0  0.15 -2.05 0  0.25 -2.05 0  0.3500000000000001 -2.05 0  0.45 -2.05 0  0.55 -2.05 0  0.6499999999999999 -2.05 0  0.75 -2.05 0  -0.75 -2 0  -0.65 -2 0  -0.55 -2 0  -0.45 -2 0  -0.35 -2 0  -0.25 -2 0  -0.15 -2 0  -0.05000000000000004 -2 0  0.05000000000000004 -2 0  0.15 -2 0  0.25 -2 0  0.3500000000000001 -2 0  0.45 -2 0  0.55 -2 0  0.6499999999999999 -2 0  0.75 -2 0  -0.75 -1.95 0  -0.65 -1.95 0  -0.55 -1.95 0  -0.45 -1.95 0  -0.35 -1.95 0  -0.25 -1.95 0  -0.15 -1.95 0  -0.05000000000000004 -1.95 0  0.05000000000000004 -1.95 0  0.15 -1.95 0  0.25 -1.95 0  0.3500000000000001 -1.95 0  0.45 -1.95 0  0.55 -1.95 0  0.6499999999999999 -1.95 0  0.75 -1.95 0  -0.75 -1.9 0  -0.65 -1.9 0  -0.55 -1.9 0  -0.45 -1.9 0  -0.35 -1.9 0  -0.25 -1.9 0  -0.15 -1.9 0  -0.05000000000000004 -1.9 0  0.05000000000000004 -1.9 0  0.15 -1.9 0  0.25 -1.9 0  0.3500000000000001 -1.9 0  0.45 -1.9 0  0.55 -1.9 0  0.6499999999999999 -1.9 0  0.75 -1.9 0  -0.75 -1.85 0  -0.65 -1.85 0  -0.55 -1.85 0  -0.45 -1.85 0  -0.35 -1.85 0  -0.25 -1.85 0  -0.15 -1.85 0  -0.05000000000000004 -1.85 0  0.05000000000000004 -1.85 0  0.15 -1.85 0  0.25 -1.85 0  0.3500000000000001 -1.85 0  0.45 -1.85 0  0.55 -1.85 0  0.6499999999999999 -1.85 0  0.75 -1.85 0  -0.75 -1.8 0  -0.65 -1.8 0  -0.55 -1.8 0  -0.45 -1.8 0  -0.35 -1.8 0  -0.25 -1.8 0  -0.15 -1.8 0  -0.05000000000000004 -1.8 0  0.05000000000000004 -1.8 0  0.15 -1.8 0  0.25 -1.8 0  0.3500000000000001 -1.8 0  0.45 -1.8 0  0.55 -1.8 0  0.6499999999999999 -1.8 0  0.75 -1.8 0  -0.75 -1.75 0  -0.65 -1.75 0  -0.55 -1.75 0  -0.45 -1.75 0  -0.35 -1.75 0  -0.25 -1.75 0  -0.15 -1.75 0  -0.05000000000000004 -1.75 0  0.05000000000000004 -1.75 0  0.15 -1.75 0  0.25 -1.75 0  0.3500000000000001 -1.75 0  0.45 -1.75 0  0.55 -1.75 0  0.6499999999999999 -1.75 0  0.75 -1.75 0  -0.75 -1.7 0  -0.65 -1.7 0  -0.55 -1.7 0  -0.45 -1.7 0  -0.35 -1.7 0  -0.25 -1.7 0  -0.15 -1.7 0  -0.05000000000000004 -1.7 0  0.05000000000000004 -1.7 0  0.15 -1.7 0  0.25 -1.7 0  0.3500000000000001 -1.7 0  0.45 -1.7 0  0.55 -1.7 0  0.6499999999999999 -1.7 0  0.75 -1.7 0  -0.75 -1.65 0  -0.65 -1.65 0  -0.55 -1.65 0  -0.45 -1.65 0  -0.35 -1.65 0  -0.25 -1.65 0  -0.15 -1.65 0  -0.05000000000000004 -1.65 0  0.05000000000000004 -1.65 0  0.15 -1.65 0  0.25 -1.65 0  0.3500000000000001 -1.65 0  0.45 -1.65 0  0.55 -1.65 0  0.6499999999999999 -1.65 0  0.75 -1.65 0  -0.75 -1.6 0  -0.65 -1.6 0  -0.55 -1.6 0  -0.45 -1.6 0  -0.35 -1.6 0  -0.25 -1.6 0  -0.15 -1.6 0  -0.05000000000000004 -1.6 0  0.05000000000000004 -1.6 0  0.15 -1.6 0  0.25 -1.6 0  0.3500000000000001 -1.6 0  0.45 -1.6 0  0.55 -1.6 0  0.6499999999999999 -1.6 0  0.75 -1.6 0  -0.75 -1.55 0  -0.65 -1.55 0  -0.55 -1.55 0  -0.45 -1.55 0  -0.35 -1.55 0  -0.25 -1.55 0  -0.15 -1.55 0  -0.05000000000000004 -1.55 0  0.05000000000000004 -1.55 0  0.15 -1.55 0  0.25 -1.55 0  0.3500000000000001 -1.55 0  0.45 -1.55 0  0.55 -1.55 0  0.6499999999999999 -1.55 0  0.75 -1.55 0  -0.75 -1.5 0  -0.65 -1.5 0  -0.55 -1.5 0  -0.45 -1.5 0  -0.35 -1.5 0  -0.25 -1.5 0  -0.15 -1.5 0  -0.05000000000000004 -1.5 0  0.05000000000000004 -1.5 0  0.15 -1.5 0  0.25 -1.5 0  0.3500000000000001 -1.5 0  0.45 -1.5 0  0.55 -1.5 0  0.6499999999999999 -1.5 0  0.75 -1.5 0  -0.75 -1.45 0  -0.65 -1.45 0  -0.55 -1.45 0  -0.45 -1.45 0  -0.35 -1.45 0  -0.25 -1.45 0  -0.15 -1.45 0  -0.05000000000000004 -1.45 0  0.05000000000000004 -1.45 0  0.15 -1.45 0  0.25 -1.45 0  0.3500000000000001 -1.45 0  0.45 -1.45 0  0.55 -1.45 0  0.6499999999999999 -1.45 0  0.75 -1.45 0  -0.75 -1.4 0  -0.65 -1.4 0  -0.55 -1.4 0  -0.45 -1.4 0  -0.35 -1.4 0  -0.25 -1.4 0  -0.15 -1.4 0  -0.05000000000000004 -1.4 0  0.05000000000000004 -1.4 0  0.15 -1.4 0  0.25 -1.4 0  0.3500000000000001 -1.4 0  0.45 -1.4 0  0.55 -1.4 0  0.6499999999999999 -1.4 0  0.75 -1.4 0  -0.75 -1.35 0  -0.65 -1.35 0  -0.55 -1.35 0  -0.45 -1.35 0  -0.35 -1.35 0  -0.25 -1.35 0  -0.15 -1.35 0  -0.05000000000000004 -1.35 0  0.05000000000000004 -1.35 0  0.15 -1.35 0  0.25 -1.35 0  0.3500000000000001 -1.35 0  0.45 -1.35 0  0.55 -1.35 0  0.6499999999999999 -1.35 0  0.75 -1.35 0  -0.75 -1.3 0  -0.65 -1.3 0  -0.55 -1.3 0  -0.45 -1.3 0  -0.35 -1.3 0  -0.25 -1.3 0  -0.15 -1.3 0  -0.05000000000000004 -1.3 0  0.05000000000000004 -1.3 0  0.15 -1.3 0  0.25 -1.3 0  0.3500000000000001 -1.3 0  0.45 -1.3 0  0.55 -1.3 0  0.6499999999999999 -1.
[...]
<PointData  Vectors="flow"> 
<DataArray  type="Float64"  Name="flow"  NumberOfComponents="3" format="ascii">-4.9322717724585770e-10 8.5172126575452084e-10 0.0000000000000000e+00  -3.0661965752559002e-12 8.5172125705348801e-10 0.0000000000000000e+00  -1.4611154326457178e-14 8.5172126205093607e-10 0.0000000000000000e+00  -4.6861749262888350e-17 8.5172126340077448e-10 0.0000000000000000e+00  -2.0519017321369991e-18 8.5172126085727185e-10 0.0000000000000000e+00  -3.6477784295075102e-19 8.5172126211435787e-10 0.0000000000000000e+00  -1.6489310639969562e-19 8.5172126428144473e-10 0.0000000000000000e+00  -8.8402223189683861e-19 8.5172126017139106e-10 0.0000000000000000e+00  2.4058339935070206e-18 8.5172125859517410e-10 0.0000000000000000e+00  2.3354053466037802e-18 8.5172125967513584e-10 0.0000000000000000e+00  4.6385490258112827e-18 8.5172126055154869e-10 0.0000000000000000e+00  3.6206361478388576e-18 8.5172125892022320e-10 0.0000000000000000e+00  4.8884000080032311e-17 8.5172125826303565e-10 0.0000000000000000e+00  1.4612753947669012e-14 8.5172125945953679e-10 0.0000000000000000e+00  3.0661963926423875e-12 8.5172125900819572e-10 0.0000000000000000e+00  4.9322718234839907e-10 8.5172125916067737e-10 0.0000000000000000e+00  -5.4275596952891158e-10 3.7867883323819006e-09 0.0000000000000000e+00  -3.3013899195359933e-12 3.7867883349422206e-09 0.0000000000000000e+00  -1.5332460346115784e-14 3.7867883338694915e-09 0.0000000000000000e+00  -4.7797061227328526e-17 3.7867883329438590e-09 0.0000000000000000e+00  -1.0269270425846838e-18 3.7867883365208138e-09 0.0000000000000000e+00  -1.3977573824352513e-19 3.7867883351314308e-09 0.0000000000000000e+00  -3.9315434213697375e-20 3.7867883329245112e-09 0.0000000000000000e+00  -1.5350599855679566e-18 3.7867883351605244e-09 0.0000000000000000e+00  1.8689090513783509e-18 3.7867883345707396e-09 0.0000000000000000e+00  3.1450763630130237e-18 3.7867883322059990e-09 0.0000000000000000e+00  3.6319435194161282e-18 3.7867883333341683e-09 0.0000000000000000e+00  4.4150131381368505e-18 3.7867883339848881e-09 0.0000000000000000e+00  4.9269200224610239e-17 3.7867883376868125e-09 0.0000000000000000e+00  1.5334079936116056e-14 3.7867883334970666e-09 0.0000000000000000e+00  3.3013910803348538e-12 3.7867883344433522e-09 0.0000000000000000e+00  5.4275597176169508e-10 3.7867883342484742e-09 0.0000000000000000e+00  -6.9891476105169948e-10 8.3299063786374427e-09 0.0000000000000000e+00  -4.0300913040327032e-12 8.3299063796913668e-09 0.0000000000000000e+00  -1.7514693554026603e-14 8.3299063782608025e-09 0.0000000000000000e+00  -4.7674264350019613e-17 8.3299063793061934e-09 0.0000000000000000e+00  -1.0945738397771458e-18 8.3299063778528305e-09 0.0000000000000000e+00  -2.6811238530519895e-18 8.3299063767504899e-09 0.0000000000000000e+00  -3.2854970650901814e-19 8.3299063741048106e-09 0.0000000000000000e+00  -2.0006809240704233e-19 8.3299063758353022e-09 0.0000000000000000e+00  1.7021886229582506e-18 8.3299063765426161e-09 0.0000000000000000e+00  3.0275793826479478e-18 8.3299063776365542e-09 0.0000000000000000e+00  3.6420430729818150e-18 8.3299063769812336e-09 0.0000000000000000e+00  6.0725833741557653e-18 8.3299063762787587e-09 0.0000000000000000e+00  5.0445450256886173e-17 8.3299063777017542e-09 0.0000000000000000e+00  1.7514419661955008e-14 8.3299063788916370e-09 0.0000000000000000e+00  4.0300922390135902e-12 8.3299063799254142e-09 0.0000000000000000e+00  6.9891476561140926e-10 8.3299063766671630e-09 0.0000000000000000e+00  -9.8516175079952949e-10 1.4500582136361402e-08 0.0000000000000000e+00  -5.3221887093473930e-12 1.4500582130560827e-08 0.0000000000000000e+00  -2.1200705810196428e-14 1.4500582130764782e-08 0.0000000000000000e+00  -5.1492256693897399e-17 1.4500582130020786e-08 0.0000000000000000e+00  -1.4247407938333108e-18 1.4500582129172807e-08 0.0000000000000000e+00  -1.5333227787129296e-18 1.4500582129566852e-08 0.0000000000000000e+00  -3.2901219753689133e-19 1.4500582132441904e-08 0.0000000000000000e+00  -6.9988310402976001e-20 1.4500582131621751e-08 0.0000000000000000e+00  9.3278440446108140e-19 1.4500582129271026e-08 0.0000000000000000e+00  3.1226217955833679e-18 1.4500582126259283e-08 0.0000000000000000e+00  3.5075497587360159e-18 1.4500582128442021e-08 0.0000000000000000e+00  6.1079255168702214e-18 1.4500582130067862e-08 0.0000000000000000e+00  5.3925407199186188e-17 1.4500582131700135e-08 0.0000000000000000e+00  2.1201499755473957e-14 1.4500582134111841e-08 0.0000000000000000e+00  5.3221895210807388e-12 1.4500582132435407e-08 0.0000000000000000e+00  9.8516175085700593e-10 1.4500582132916322e-08 0.0000000000000000e+00  -1.4430801305880887e-09 2.3410983058410623e-08 0.0000000000000000e+00  -7.2957571159087834e-12 2.3410983058674189e-08 0.0000000000000000e+00  -2.6450577255791686e-14 2.3410983053541616e-08 0.0000000000000000e+00  -5.1593485636023627e-17 2.3410983054207195e-08 0.0000000000000000e+00  -1.0778857470633132e-18 2.3410983057907154e-08 0.0000000000000000e+00  -1.2736060844702555e-18 2.3410983055651810e-08 0.0000000000000000e+00  -2.0674011827936424e-19 2.3410983057886028e-08 0.0000000000000000e+00  -1.8294757248011670e-19 2.3410983053358630e-08 0.0000000000000000e+00  -7.2395210051508854e-19 2.3410983055623547e-08 0.0000000000000000e+00  2.7723609733456289e-18 2.3410983056464171e-08 0.0000000000000000e+00  5.2387721684959416e-18 2.3410983054410308e-08 0.0000000000000000e+00  6.2031168030829931e-18 2.3410983059038512e-08 0.0000000000000000e+00  5.5656862650084521e-17 2.3410983057266969e-08 0.0000000000000000e+00  2.6449825994136911e-14 2.3410983054244693e-08 0.0000000000000000e+00  7.2957550979194731e-12 2.3410983055886200e-08 0.0000000000000000e+00  1.4430801257857275e-09 2.3410983053935463e-08 0.0000000000000000e+00  -2.1361601080018762e-09 3.6562782086048381e-08 0.0000000000000000e+00  -1.0118865499638106e-11 3.6562782088665852e-08 0.0000000000000000e+00  -3.3308509810092903e-14 3.6562782091188958e-08 0.0000000000000000e+00  -5.2179237302882524e-17 3.6562782092070970e-08 0.0000000000000000e+00  -1.4863545626230889e-18 3.6562782093164861e-08 0.0000000000000000e+00  -1.2326032667138429e-18 3.6562782088951957e-08 0.0000000000000000e+00  -1.9536943054275754e-18 3.6562782088359967e-08 0.0000000000000000e+00  -1.9332280700319038e-18 3.6562782083802579e-08 0.0000000000000000e+00  2.7798684717814471e-18 3.6562782080856406e-08 0.0000000000000000e+00  3.6343435858380216e-18 3.6562782092859730e-08 0.0000000000000000e+00  4.0463601623604763e-18 3.6562782089542789e-08 0.0000000000000000e+00  7.3768754859047844e-18 3.6562782087611382e-08 0.0000000000000000e+00  5.3746134649574764e-17 3.6562782089467714e-08 0.0000000000000000e+00  3.3308037779572553e-14 3.6562782087170031e-08 0.0000000000000000e+00  1.0118865959222663e-11 3.6562782089605052e-08 0.0000000000000000e+00  2.1361601066167151e-09 3.6562782096473060e-08 0.0000000000000000e+00  -3.1551800753315996e-09 5.6030029317992287e-08 0.0000000000000000e+00  -1.4010961297999281e-11 5.6030029317065077e-08 0.0000000000000000e+00  -4.1768900198143921e-14 5.6030029320092287e-08 0.0000000000000000e+00  -4.7139862022065878e-17 5.6030029315081637e-08 0.0000000000000000e+00  -3.0115862084837851e-18 5.6030029313194130e-08 0.0000000000000000e+00  -3.0102557889839121e-18 5.6030029313394778e-08 0.0000000000000000e+00  -5.5925088070785564e-19 5.6030029312483556e-08 0.0000000000000000e+00  -5.8043407309580022e-18 5.6030029315050575e-08 0.0000000000000000e+00  3.7146408443536838e-18 5.6030029311443181e-08 0.0000000000000000e+00  6.1076594496572929e-18 5.6030029308954638e-08 0.0000000000000000e+00  3.3565959528012117e-18 5.6030029312308537e-08 0.0000000000000000e+00  7.9956467236295948e-18 5.6030029312412656e-08 0.0000000000000000e+00  5.1604744210415141e-17 5.6030029316336503e-08 0.0000000000000000e+00  4.1769861058207599e-14 5.6030029319305552e-08 0.0000000000000000e+00  1.4010963039199033e-11 5.6030029319793768e-08 0.0000000000000000e+00  3.1551800774118629e-09 5.6030029318398354e-08 0.0000000000000000e+00  -4.6252283346029329e-09 8.4688509222603836e-08 0.0000000000000000e+00  -1.9242606821411420e-11 8.4688509224575676e-08 0.0000000000000000e+00  -5.1733618835645553e-14 8.4688509226916570e-08 0.0000000000000000e+00  -4.4390547600590802e-17 8.4688509219079570e-08 0.0000000000000000e+00  -1.9029305725247935e-19 8.4688509215466471e-08 0.0000000000000000e+00  -1.2724566570470950e-18 8.4688509232339381e-08 0.0000000000000000e+00  -3.2518110246813788e-18 8.4688509217647952e-08 0.0000000000000000e+00  -2.6537831067658939e-18 8.4688509215217139e-08 0.0000000000000000e+00  1.7730727982983980e-18 8.4688509224784496e-08 0.0000000000000000e+00  3.5462523725839518e-18 8.4688509218449549e-08 0.0000000000000000e+00  5.2682197128036208e-18 8.4688509216436073e-08 0.0000000000000000e+00  8.5971196931039074e-18 8.4688509223194866e-08 0.0000000000000000e+00  4.5130555125949758e-17 8.4688509232876387e-08 0.0000000000000000e+00  5.1735149887910159e-14 8.4688509232159056e-08 0.0000000000000000e+00  1.9242608228352248e-11 8.4688509225670082e-08 0.0000000000000000e+00  4.6252283340113077e-09 8.4688509221374804e-08 0.0000000000000000e+00  -6.7143544520951710e-09 1.2650392025325251e-07 0.0000000000000000e+00  -2.6132098846151555e-11 1.2650392025082171e-07 0.0000000000000000e+00  -6.2941598876342952e-14 1.2650392024790879e-07 0.0000000000000000e+00  -3.1301511018209583e-17 1.2650392025279466e-07 0.0000000000000000e+00  -3.0633198724767514e-19 1.2650392024675087e-07 0.0000000000000000e+00  -2.8811462660966807e-18 1.2650392023139255e-07 0.0000000000000000e+00  -7.2744751378346777e-18 1.2650392023653679e-07 0.0000000000000000e+00  -2.4410775135005800e-19 1.2650392023988204e-07 0.0000000000000000e+00  3.6618682898130028e-18 1.2650392023160327e-07 0.0000000000000000e+00  3.3696700191738612e-18 1.2650392024034685e-07 0.0000000000000000e+00  5.8944444795271142e-18 1.2650392024423992e-07 0.0000000000000000e+00  1.4630756760517546e-17 1.2650392024521867e-07 0.0000000000000000e+00  3.5017738185026800e-17 1.2650392025122228e-07 0.0000000000000000e+00  6.2937104675366476e-14 1.2650392025864263e-07 0.0000000000000000e+00  2.6132098296628710e-11 1.2650392024746132e-07 0.0000000000000000e+00  6.7143544514458226e-09 1.2650392025415944e-07 0.0000000000000000e+00  -9.6437380571318837e-09 1.8689080439407338e-07 0.0000000000000000e+00  -3.5037137129763116e-11 1.8689080439558485e-07 0.0000000000000000e+00  -7.4920243714829728e-14 1.8689080439219272e-07 0.0000000000000000e+00  -5.2092598052411779e-18 1.8689080438708175e-07 0.0000000000000000e+00  -6.0211995959900465e-18 1.8689080439845585e-07 0.0000000000000000e+00  -5.1546641224956193e-18 1.8689080439245737e-07 0.0000000000000000e+00  1.3764538641990028e-19 1.8689080439852144e-07 0.0000000000000000e+00  -5.0901368987733733e-18 1.8689080439216647e-07 0.0000000000000000e+00  -9.7884098635389997e-20 1.8689080439045358e-07 0.0000000000000000e+00  7.1636595862318681e-18 1.8689080438622988e-07 0.0000000000000000e+00  7.6591118929044467e-18 1.8689080438482862e-07 0.0000000000000000e+00  1.3444234238098570e-17 1.8689080439127721e-07 0.0000000000000000e+00  1.3383817328871890e-17 1.8689080438671780e-07 0.0000000000000000e+00  7.4917609105950727e-14 1.8689080438764085e-07 0.0000000000000000e+00  3.5037131914591063e-11 1.8689080439072331e-07 0.0000000000000000e+00  9.6437380582219108e-09 1.8689080438686722e-07 0.0000000000000000e+00  -1.3699104681270053e-08 2.7315278100617001e-07 0.0000000000000000e+00  -4.6339558560993874e-11 2.7315278101542437e-07 0.0000000000000000e+00  -8.6925066955405100e-14 2.7315278101249369e-07 0.0000000000000000e+00  2.9385316774144676e-17 2.7315278100849967e-07 0.0000000000000000e+00  -2.5483494283235218e-18 2.7315278101400459e-07 0.0000000000000000e+00  -4.5829392396835084e-18 2.7315278101379092e-07 0.0000000000000000e+00  -7.9309606048418935e-18 2.7315278100446504e-07 0.0000000000000000e+00  -5.9994710150315264e-18 2.7315278099260584e-07 0.0000000000000000e+00  4.3482612633520843e-18 2.7315278099530136e-07 0.0000000000000000e+00  4.6115811977527212e-18 2.7315278100630606e-07 0.0000000000000000e+00  7.9252924319607395e-18 2.7315278100536925e-07 0.0000000000000000e+00  1.3600056091990240e-17 2.7315278100414168e-07 0.0000000000000000e+00  -2.2289358012256125e-17 2.7315278099858907e-07 0.0000000000000000e+00  8.6919136712660427e-14 2.7315278099967814e-07 0.0000000000000000e+00  4.6339559615213664e-11 2.7315278100717835e-07 0.0000000000000000e+00  1.3699104681516402e-08 2.7315278100751907e-07 0.0000000000000000e+00  -1.9242896655411078e-08 3.9501184410334359e-07 0.0000000000000000e+00  -6.0421192063084968e-11 3.9501184409455482e-07 0.0000000000000000e+00  -9.7855754985679599e-14 3.9501184409122524e-07 0.0000000000000000e+00  7.6467713881769458e-17 3.9501184409577132e-07 0.0000000000000000e+00  -2.6593224875470872e-18 3.9501184409835324e-07 0.0000000000000000e+00  -8.4663895593841620e-18 3.9501184409420923e-07 0.0000000000000000e+00  -1.0438614646898426e-17 3.9501184408342338e-07 0.0000000000000000e+00  -6.5221594051287021e-18 3.9501184408760010e-07 0.0000000000000000e+00  4.8650751079959079e-18 3.9501184408951593e-07 0.0000000000000000e+00  9.4093374253017431e-18 3.9501184408380444e-07 0.0000000000000000e+00  8.3514179067523413e-18 3.9501184409830522e-07 0.0000000000000000e+00  1.1275884851142437e-17 3.9501184409385729e-07 0.0000000000000000e+00  -6.8474230212597000e-17 3.9501184409818616e-07 0.0000000000000000e+00  9.7850899002093955e-14 3.9501184409201563e-07 0.0000000000000000e+00  6.0421190920356898e-11 3.9501184409606185e-07 0.0000000000000000e+00  1.9242896660709458e-08 3.9501184409434291e-07 0.0000000000000000e+00  -2.6726421406521710e-08 5.6522978299504850e-07 0.0000000000000000e+00  -7.7628905455078392e-11 5.6522978299644981e-07 0.0000000000000000e+00  -1.0625447802634431e-13 5.6522978300404431e-07 0.0000000000000000e+00  1.3292363883183612e-16 5.6522978300043839e-07 0.0000000000000000e+00  2.7071899147325996e-19 5.6522978299365482e-07 0.0000000000000000e+00  -1.0528829114157486e-17 5.6522978299879885e-07 0.0000000000000000e+00  -1.0677438714738450e-17 5.6522978300842305e-07 0.0000000000000000e+00  -4.9771877216113483e-18 5.6522978300816587e-07 0.0000000000000000e+00  1.1859898137749579e-18 5.6522978300693661e-07 0.0000000000000000e+00  8.4255386743845232e-18 5.6522978299225711e-07 0.0000000000000000e+00  1.0305527421359134e-17 5.6522978299063927e-07 0.0000000000000000e+00  1.3095718038410298e-17 5.6522978299046013e-07 0.0000000000000000e+00  -1.2752385246889896e-16 5.6522978299515862e-07 0.0000000000000000e+00  1.0625241268033698e-13 5.6522978299307248e-07 0.0000000000000000e+00  7.7628904652479326e-11 5.6522978300621589e-07 0.0000000000000000e+00  2.6726421408503211e-08 5.6522978300708707e-07 0.0000000000000000e+00  -3.6700857707179042e-08 8.0031772250442517e-07 0.0000000000000000e+00  -9.8227770705118531e-11 8.0031772248839391e-07 0.0000000000000000e+00  -1.1026688192015659e-13 8.0031772248455897e-07 0.0000000000000000e+00  2.0264206145408564e-16 8.0031772251442461e-07 0.0000000000000000e+00  -7.5968710405424835e-18 8.0031772250284852e-07 0.0000000000000000e+00  -8.0617642509174197e-18 8.0031772249391084e-07 0.0000000000000000e+00  -7.0161408761259432e-18 8.0031772248820830e-07 0.0000000000000000e+00  -4.5309394247642388e-18 8.0031772249627375e-07 0.0000000000000000e+00  -3.1288759545159929e-18 8.0031772248216959e-07 0.0000000000000000e+00  3.3842650867597296e-18 8.0031772248371818e-07 0.0000000000000000e+00  1.0957138702853652e-17 8.0031772248125046e-07 0.0000000000000000e+00  1.5372937438995693e-17 8.0031772249775595e-07 0.0000000000000000e+00  -1.9673449097937523e-16 8.0031772249358230e-07 0.0000000000000000e+00  1.1027390768550463e-13 8.0031772249735626e-07 0.0000000000000000e+00  9.8227774444938759e-11 8.0031772249179040e-07 0.0000000000000000e+00  3.6700857705797141e-08 8.0031772250022156e-07 0.0000000000000000e+00  -4.9825619827998059e-08 1.1213199808468354e-06 0.0000000000000000e+00  -1.2234198427857892e-10 1.1213199808447240e-06 0.0000000000000000e+00  -1.0770197621173963e-13 1.1213199808471926e-06 0.0000000000000000e+00  2.8280144567559267e-16 1.1213199808246116e-06 0.0000000000000000e+00  -6.2874539957565569e-18 1.1213199808382850e-06 0.0000000000000000e+00  -9.3714160734744993e-18 1.1213199808575557e-06 0.0000000000000000e+00  -9.3919331014514545e-18 1.1213199808573862e-06 0.0000000000000000e+00  -9.4117035404621253e-18 1.1213199808436842e-06 0.0000000000000000e+00  -4.7393276669515317e-18 1.1213199808381760e-06 0.0000000000000000e+00  7.6638864168908067e-18 1.1213199808515741e-06 0.0000000000000000e+00  1.4254942615440301e-17 1.1213199808401489e-06 0.0000000000000000e+00  1.7135656674373880e-17 1.1213199808387390e-06 0.0000000000000000e+00  -2.7253635834152901e-16 1.1213199808482544e-06 0.0000000000000000e+00  1.0770744758318475e-13 1.1213199808445785e-06 0.0000000000000000e+00  1.2234197717739003e-10 1.1213199808369848e-06 0.0000000000000000e+00  4.9825619826057321e-08 1.1213199808313701e-06 0.0000000000000000e+00  -6.6872191042168896e-08 1.5546457266361283e-06 0.0000000000000000e+00  -1.4988464171785648e-10 1.5546457266582962e-06 0.0000000000000000e+00  -9.6116550826212549e-14 1.5546457266371136e-06 0.0000000000000000e+00  3.5847935340419876e-16 1.5546457266191709e-06 0.0000000000000000e+00  4.7263790150432277e-18 1.5546457266365550e-06 0.0000000000000000e+00  -4.2989584158611885e-18 1.5546457266279017e-06 0.0000000000000000e+00  -1.1161131801297361e-17 1.5546457266388278e-06 0.0000000000000000e+00  -1.2764511851807395e-17 1.5546457266403789e-06 0.0000000000000000e+00  -1.1048992512925507e-18 1.5546457266408581e-06 0.0000000000000000e+00  2.6014953969453270e-18 1.5546457266345774e-06 0.0000000000000000e+00  6.8049439780916656e-18 1.5546457266281950e-06 0.0000000000000000e+00  2.2963173965047994e-17 1.5546457266348567e-06 0.0000000000000000e+00  -3.5049186850634469e-16 1.5546457266404261e-06 0.0000000000000000e+00  9.6106828015190972e-14 1.5546457266333089e-06 0.0000000000000000e+00  1.4988464028462754e-10 1.5546457266349918e-06 0.0000000000000000e+00  6.6872191040163652e-08 1.5546457266327946e-06 0.0000000000000000e+00  -8.8721186629843248e-08 2.1329063712001609e-06 0.0000000000000000e+00  -1.8047949513334010e-10 2.1329063712059669e-06 0.0000000000000000e+00  -7.2937463172200698e-14 2.1329063711929112e-06 0.0000000000000000e+00  4.4082950864999639e-16 2.1329063712060804e-06 0.0000000000000000e+00  4.1628934404060319e-18 2.1329063711958038e-06 0.0000000000000000e+00  -8.5494145040191646e-18 2.1329063711987926e-06 0.0000000000000000e+00  -7.2144254657286758e-18 2.1329063711955535e-06 0.0000000000000000e+00  -1.0633882199526544e-17 2.1329063711934736e-06 0.0000000000000000e+00  -1.9267950182610331e-18 2.1329063712069575e-06 0.0000000000000000e+00  3.3504370000323405e-18 2.1329063712018266e-06 0.0000000000000000e+00  1.2393268305915605e-17 2.1329063712210966e-06 0.0000000000000000e+00  1.9716066670567090e-17 2.1329063712036812e-06 0.0000000000000000e+00  -4.2884827483513189e-16 2.1329063711936714e-06 0.0000000000000000e+00  7.2916981326525988e-14 2.1329063712015539e-06 0.0000000000000000e+00  1.8047949415384191e-10 2.1329063712137059e-06 0.0000000000000000e+00  8.8721186644837531e-08 2.1329063712108895e-06 0.0000000000000000e+00  -1.1635015042750777e-07 2.8956987467193537e-06 0.0000000000000000e+00  -2.1337958493204448e-10 2.8956987467018176e-06 0.0000000000000000e+00  -3.5724219470830977e-14 2.8956987467204832e-06 0.0000000000000000e+00  4.9452016802488928e-16 2.8956987467384471e-06 0.0000000000000000e+00  -4.2108108697665056e-18 2.8956987466992392e-06 0.0000000000000000e+00  -3.1720959151897153e-18 2.8956987466938568e-06 0.0000000000000000e+00  -7.9141328024635049e-18 2.8956987467006339e-06 0.0000000000000000e+00  -1.1186694339020701e-17 2.8956987467171455e-06 0.0000000000000000e+00  7.4706236000710024e-19 2.8956987467065470e-06 0.0000000000000000e+00  5.7192403644120897e-18 2.8956987467120680e-06 0.0000000000000000e+00  1.11951