<?xml version="1.0"?>
<VTKFile type="UnstructuredGrid"  version="0.1"  >
<UnstructuredGrid>
<Piece  NumberOfPoints="431" NumberOfCells="800">
<Points>
<DataArray  type="Float64"  NumberOfComponents="3"  format="ascii">-0.75 -3 0  -0.6 -3 0  -0.45 -3 0  -0.3 -3 0  -0.15 -3 0  0 -3 0  0.15 -3 0  0.3 -3 0  0.45 -3 0  0.6000000000000001 -3 0  0.75 -3 0  -0.75 -2.85 0  -0.6 -2.85 0  -0.45 -2.85 0  -0.3 -2.85 0  -0.15 -2.85 0  0 -2.85 0  0.15 -2.85 0  0.3 -2.85 0  0.45 -2.85 0  0.6000000000000001 -2.85 0  0.75 -2.85 0  -0.75 -2.7 0  -0.6 -2.7 0  -0.45 -2.7 0  -0.3 -2.7 0  -0.15 -2.7 0  0 -2.7 0  0.15 -2.7 0  0.3 -2.7 0  0.45 -2.7 0  0.6000000000000001 -2.7 0  0.75 -2.7 0  -0.75 -2.55 0  -0.6 -2.55 0  -0.45 -2.55 0  -0.3 -2.55 0  -0.15 -2.55 0  0 -2.55 0  0.15 -2.55 0  0.3 -2.55 0  0.45 -2.55 0  0.6000000000000001 -2.55 0  0.75 -2.55 0  -0.75 -2.4 0  -0.6 -2.4 0  -0.45 -2.4 0  -0.3 -2.4 0  -0.15 -2.4 0  0 -2.4 0  0.15 -2.4 0  0.3 -2.4 0  0.45 -2.4 0  0.6000000000000001 -2.4 0  0.75 -2.4 0  -0.75 -2.25 0  -0.6 -2.25 0  -0.45 -2.25 0  -0.3 -2.25 0  -0.15 -2.25 0  0 -2.25 0  0.15 -2.25 0  0.3 -2.25 0  0.45 -2.25 0  0.6000000000000001 -2.25 0  0.75 -2.25 0  -0.75 -2.1 0  -0.6 -2.1 0  -0.45 -2.1 0  -0.3 -2.1 0  -0.15 -2.1 0  0 -2.1 0  0.15 -2.1 0  0.3 -2.1 0  0.45 -2.1 0  0.6000000000000001 -2.1 0  0.75 -2.1 0  -0.75 -1.95 0  -0.6 -1.95 0  -0.45 -1.95 0  -0.3 -1.95 0  -0.15 -1.95 0  0 -1.95 0  0.15 -1.95 0  0.3 -1.95 0  0.45 -1.95 0  0.6000000000000001 -1.95 0  0.75 -1.95 0  -0.75 -1.8 0  -0.6 -1.8 0  -0.45 -1.8 0  -0.3 -1.8 0  -0.15 -1.8 0  0 -1.8 0  0.15 -1.8 0  0.3 -1.8 0  0.45 -1.8 0  0.6000000000000001 -1.8 0  0.75 -1.8 0  -0.75 -1.65 0  -0.6 -1.65 0  -0.45 -1.65 0  -0.3 -1.65 0  -0.15 -1.65 0  0 -1.65 0  0.15 -1.65 0  0.3 -1.65 0  0.45 -1.65 0  0.6000000000000001 -1.65 0  0.75 -1.65 0  -0.75 -1.5 0  -0.6 -1.5 0  -0.45 -1.5 0  -0.3 -1.5 0  -0.15 -1.5 0  0 -1.5 0  0.15 -1.5 0  0.3 -1.5 0  0.45 -1.5 0  0.6000000000000001 -1.5 0  0.75 -1.5 0  -0.75 -1.35 0  -0.6 -1.35 0  -0.45 -1.35 0  -0.3 -1.35 0  -0.15 -1.35 0  0 -1.35 0  0.15 -1.35 0  0.3 -1.35 0  0.45 -1.35 0  0.6000000000000001 -1.35 0  0.75 -1.35 0  -0.75 -1.2 0  -0.6 -1.2 0  -0.45 -1.2 0  -0.3 -1.2 0  -0.15 -1.2 0  0 -1.2 0  0.15 -1.2 0  0.3 -1.2 0  0.45 -1.2 0  0.6000000000000001 -1.2 0  0.75 -1.2 0  -0.75 -1.05 0  -0.6 -1.05 0  -0.45 -1.05 0  -0.3 -1.05 0  -0.15 -1.05 0  0 -1.05 0  0.15 -1.05 0  0.3 -1.05 0  0.45 -1.05 0  0.6000000000000001 -1.05 0  0.75 -1.05 0  -0.75 -0.8999999999999999 0  -0.6 -0.8999999999999999 0  -0.45 -0.8999999999999999 0  -0.3 -0.8999999999999999 0  -0.15 -0.8999999999999999 0  0 -0.8999999999999999 0  0.15 -0.8999999999999999 0  0.3 -0.8999999999999999 0  0.45 -0.8999999999999999 0  0.6000000000000001 -0.8999999999999999 0  0.75 -0.8999999999999999 0  -0.75 -0.75 0  -0.6 -0.75 0  -0.45 -0.75 0  -0.3 -0.75 0  -0.15 -0.75 0  0 -0.75 0  0.15 -0.75 0  0.3 -0.75 0  0.45 -0.75 0  0.6000000000000001 -0.75 0  0.75 -0.75 0  -0.75 -0.6000000000000001 0  -0.6 -0.6000000000000001 0  -0.45 -0.6000000000000001 0  -0.3 -0.6000000000000001 0  -0.15 -0.6000000000000001 0  0 -0.6000000000000001 0  0.15 -0.6000000000000001 0  0.3 -0.6000000000000001 0  0.45 -0.6000000000000001 0  0.6000000000000001 -0.6000000000000001 0  0.75 -0.6000000000000001 0  -0.75 -0.4500000000000002 0  -0.6 -0.4500000000000002 0  -0.45 -0.4500000000000002 0  -0.3 -0.4500000000000002 0  -0.15 -0.4500000000000002 0  0 -0.4500000000000002 0  0.15 -0.4500000000000002 0  0.3 -0.4500000000000002 0  0.45 -0.4500000000000002 0  0.6000000000000001 -0.4500000000000002 0  0.75 -0.4500000000000002 0  -0.75 -0.2999999999999998 0  -0.6 -0.2999999999999998 0  -0.45 -0.2999999999999998 0  -0.3 -0.2999999999999998 0  -0.15 -0.2999999999999998 0  0 -0.2999999999999998 0  0.15 -0.2999999999999998 0  0.3 -0.2999999999999998 0  0.45 -0.2999999999999998 0  0.6000000000000001 -0.2999999999999998 0  0.75 -0.2999999999999998 0  -0.75 -0.1499999999999999 0  -0.6 -0.1499999999999999 0  -0.45 -0.1499999999999999 0  -0.3 -0.1499999999999999 0  -0.15 -0.1499999999999999 0  0 -0.1499999999999999 0  0.15 -0.1499999999999999 0  0.3 -0.1499999999999999 0  0.45 -0.1499999999999999 0  0.6000000000000001 -0.1499999999999999 0  0.75 -0.1499999999999999 0  -0.75 0 0  -0.6 0 0  -0.45 0 0  -0.3 0 0  -0.15 0 0  0 0 0  0.15 0 0  0.3 0 0  0.45 0 0  0.6000000000000001 0 0  0.75 0 0  -0.675 -2.925 0  -0.525 -2.925 0  -0.375 -2.925 0  -0.225 -2.925 0  -0.07499999999999996 -2.925 0  0.07499999999999996 -2.925 0  0.225 -2.925 0  0.375 -2.925 0  0.5249999999999999 -2.925 0  0.675 -2.925 0  -0.675 -2.775 0  -0.525 -2.775 0  -0.375 -2.775 0  -0.225 -2.775 0  -0.07499999999999996 -2.775 0  0.07499999999999996 -2.775 0  0.225 -2.775 0  0.375 -2.775 0  0.5249999999999999 -2.775 0  0.675 -2.775 0  -0.675 -2.625 0  -0.525 -2.625 0  -0.375 -2.625 0  -0.225 -2.625 0  -0.07499999999999996 -2.625 0  0.07499999999999996 -2.625 0  0.225 -2.625 0  0.375 -2.625 0  0.5249999999999999 -2.625 0  0.675 -2.625 0  -0.675 -2.475 0  -0.525 -2.475 0  -0.375 -2.475 0  -0.225 -2.475 0  -0.07499999999999996 -2.475 0  0.07499999999999996 -2.475 0  0.225 -2.475 0  0.375 -2.475 0  0.5249999999999999 -2.475 0  0.675 -2.475 0  -0.675 -2.325 0  -0.525 -2.325 0  -0.375 -2.325 0  -0.225 -2.325 0  -0.07499999999999996 -2.325 0  0.07499999999999996 -2.325 0  0.225 -2.325 0  0.375 -2.325 0  0.5249999999999999 -2.325 0  0.675 -2.325 0  -0.675 -2.175 0  -0.525 -2.175 0  -0.375 -2.175 0  -0.225 -2.175 0  -0.07499999999999996 -2.175 0  0.07499999999999996 -2.175 0  0.225 -2.175 0  0.375 -2.175 0  0.5249999999999999 -2.175 0  0.675 -2.175 0  -0.675 -2.025 0  -0.525 -2.025 0  -0.375 -2.025 0  -0.225 -2.025 0  -0.07499999999999996 -2.025 0  0.07499999999999996 -2.025 0  0.225 -2.025 0  0.375 -2.025 0  0.5249999999999999 -2.025 0  0.675 -2.025 0  -0.675 -1.875 0  -0.525 -1.875 0  -0.375 -1.875 0  -0.225 -1.875 0  -0.07499999999999996 -1.875 0  0.07499999999999996 -1.875 0  0.225 -1.875 0  0.375 -1.875 0  0.5249999999999999 -1.875 0  0.675 -1.875 0  -0.675 -1.725 0  -0.525 -1.725 0  -0.375 -1.725 0  -0.225 -1.725 0  -0.07499999999999996 -1.725 0  0.07499999999999996 -1.725 0  0.225 -1.725 0  0.375 -1.725 0  0.5249999999999999 -1.725 0  0.675 -1.725 0  -0.675 -1.575 0  -0.525 -1.575 0  -0.375 -1.575 0  -0.225 -1.575 0  -0.07499999999999996 -1.575 0  0.07499999999999996 -1.575 0  0.225 -1.575 0  0.375 -1.575 0  0.5249999999999999 -1.575 0  0.675 -1.575 0  -0.675 -1.425 0  -0.525 -1.425 0  -0.375 -1.425 0  -0.225 -1.425 0  -0.07499999999999996 -1.425 0  0.07499999999999996 -1.425 0  0.225 -1.425 0  0.375 -1.425 0  0.5249999999999999 -1.425 0  0.675 -1.425 0  -0.675 -1.275 0  -0.525 -1.275 0  -0.375 -1.275 0  -0.225 -1.275 0  -0.07499999999999996 -1.275 0  0.07499999999999996 -1.275 0  0.225 -1.275 0  0.375 -1.275 0  0.5249999999999999 -1.275 0  0.675 -1.275 0  -0.675 -1.125 0  -0.525 -1.125 0  -0.375 -1.125 0  -0.225 -1.125 0  -0.07499999999999996 -1.125 0  0.07499999999999996 -1.125 0  0.225 -1.125 0  0.375 -1.125 0  0.5249999999999999 -1.125 0  0.675 -1.125 0  -0.675 -0.9750000000000001 0  -0.525 -0.9750000000000001 0  -0.375 -0.9750000000000001 0  -0.225 -0.9750000000000001 0  -0.07499999999999996 -0.9750000000000001 0  0.07499999999999996 -0.9750000000000001 0  0.225 -0.9750000000000001 0  0.375 -0.9750000000000001 0  0.5249999999999999 -0.9750000000000001 0  0.675 -0.9750000000000001 0  -0.675 -0.8250000000000002 0  -0.525 -0.8250000000000002 0  -0.375 -0.8250000000000002 0  -0.225 -0.8250000000000002 0  -0.07499999999999996 -0.8250000000000002 0  0.07499999999999996 -0.8250000000000002 0  0.225 -0.8250000000000002 0  0.375 -0.8250000000000002 0  0.5249999999999999 -0.8250000000000002 0  0.675 -0.8250000000000002 0  -0.675 -0.6749999999999998 0  -0.525 -0.6749999999999998 0  -0.375 -0.6749999999999998 0  -0.225 -0.6749999999999998 0  -0.07499999999999996 -0.6749999999999998 0  0.07499999999999996 -0.6749999999999998 0  0.225 -0.6749999999999998 0  0.375 -0.6749999999999998 0  0.5249999999999999 -0.6749999999999998 0  0.675 -0.6749999999999998 0  -0.675 -0.5249999999999999 0  -0.525 -0.5249999999999999 0  -0.375 -0.5249999999999999 0  -0.225 -0.5249999999999999 0  -0.07499999999999996 -0.5249999999999999 0  0.07499999999999996 -0.5249999999999999 0  0.225 -0.5249999999999999 0  0.375 -0.5249999999999999 0  0.5249999999999999 -0.5249999999999999 0  0.675 -0.5249999999999999 0  -0.675 -0.375 0  -0.525 -0.375 0  -0.375 -0.375 0  -0.225 -0.375 0  -0.07499999999999996 -0.375 0  0.07499999999999996 -0.375 0  0.225 -0.375 0  0.375 -0.375 0  0.5249999999999999 -0.375 0  0.675 -0.375 0  -0.675 -0.2250000000000001 0  -0.525 -0.2250000000000001 0  -0.375 -0.2250000000000001 0  -0.225 -0.2250000000000001 0  -0.07499999999999996 -0.2250000000000001 0  0.07499999999999996 -0.2250000000000001 0  0.225 -0.2250000000000001 0  0.375 -0.2250000000000001 0  0.5249999999999999 -0.2250000000000001 0  0.675 -0.2250000000000001 0  -0.675 -0.07500000000000018 0  -0.525 -0.07500000000000018 0  -0.375 -0.07500000000000018 0  -0.225 -0.07500000000000018 0  -0.07499999999999996 -0.07500000000000018 0  0.07499999999999996 -0.07500000000000018 0  0.225 -0.07500000000000018 0  0.375 -0.07500000000000018 0  0.5249999999999999 -0.07500000000000018 0  0.675 -0.07500000000000018 0  </DataArray>
</Points>
<Cells>
[...]
<PointData  Vectors="flow"> 
<DataArray  type="Float64"  Name="flow"  NumberOfComponents="3" format="ascii">-8.6719649369278624e-03 -2.5193702028632448e+01 0.0000000000000000e+00  -3.9192147830467332e-03 -1.1386061884294271e+01 0.0000000000000000e+00  3.6154802521455148e-04 1.0503655495086410e+00 0.0000000000000000e+00  -4.7224097694429675e-05 -1.3719495576119928e-01 0.0000000000000000e+00  6.7869343142116980e-06 1.9717330736893496e-02 0.0000000000000000e+00  -1.0211981885843694e-06 -2.9667743196028357e-03 0.0000000000000000e+00  1.5786666355918216e-07 4.5863258337543324e-04 0.0000000000000000e+00  -2.4844109837996167e-08 -7.2176848612447031e-05 0.0000000000000000e+00  3.9621706656543228e-09 1.1510856866130984e-05 0.0000000000000000e+00  -6.5382847426060841e-10 -1.8994956596529610e-06 0.0000000000000000e+00  2.0646577225926154e-10 5.9982220675975821e-07 0.0000000000000000e+00  1.7686176082955935e-03 5.1381694172044172e+00 0.0000000000000000e+00  6.2541749664274079e-04 1.8169563839925280e+00 0.0000000000000000e+00  -2.1743725948874301e-04 -6.3169645695344345e-01 0.0000000000000000e+00  3.4941456642334083e-05 1.0151155516608930e-01 0.0000000000000000e+00  -5.4822354198412431e-06 -1.5926933125634236e-02 0.0000000000000000e+00  8.6585703393325617e-07 2.5154788183493104e-03 0.0000000000000000e+00  -1.3802417470254275e-07 -4.0098639183793275e-04 0.0000000000000000e+00  2.2185608067844207e-08 6.4453397015613460e-05 0.0000000000000000e+00  -3.5933126688788650e-09 -1.0439254463535107e-05 0.0000000000000000e+00  6.0021760130184992e-10 1.7437459110502743e-06 0.0000000000000000e+00  -1.9121433025237261e-10 -5.5551387661507378e-07 0.0000000000000000e+00  -8.4464752677842927e-05 -2.4538611795189877e-01 0.0000000000000000e+00  1.4343526235180091e-05 4.1670662720301323e-02 0.0000000000000000e+00  3.9266677748828617e-05 1.1407714238392440e-01 0.0000000000000000e+00  -1.3800598681914288e-05 -4.0093355258889983e-02 0.0000000000000000e+00  2.8707661379062028e-06 8.3401198227075410e-03 0.0000000000000000e+00  -5.2666893385607792e-07 -1.5300730899873939e-03 0.0000000000000000e+00  9.2176400485629293e-08 2.6778991667942821e-04 0.0000000000000000e+00  -1.5794247300930737e-08 -4.5885282419874161e-05 0.0000000000000000e+00  2.6801021684751747e-09 7.7862048486067237e-06 0.0000000000000000e+00  -4.6437210886970196e-10 -1.3490890042061816e-06 0.0000000000000000e+00  1.5189906553994477e-10 4.4129557989158552e-07 0.0000000000000000e+00  7.5826943688479759e-06 2.2029164542565816e-02 0.0000000000000000e+00  -3.0366789977444899e-06 -8.8221281315378364e-03 0.0000000000000000e+00  -2.7788231586932057e-06 -8.0730080390732234e-03 0.0000000000000000e+00  2.7983924915309386e-06 8.1298606605954334e-03 0.0000000000000000e+00  -9.6385898512322739e-07 -2.8001930641358480e-03 0.0000000000000000e+00  2.2902165210584183e-07 6.6535131348256478e-04 0.0000000000000000e+00  -4.6969119441315207e-08 -1.3645419560136599e-04 0.0000000000000000e+00  8.9619688889472551e-09 2.6036218483373865e-05 0.0000000000000000e+00  -1.6441583915321868e-09 -4.7765917995987487e-06 0.0000000000000000e+00  3.0288521878869680e-10 8.7993897652253025e-07 0.0000000000000000e+00  -1.0352554947690421e-10 -3.0076134588195761e-07 0.0000000000000000e+00  -8.3348330853846007e-07 -2.4214270092050988e-03 0.0000000000000000e+00  4.4260094682118970e-07 1.2858396514405129e-03 0.0000000000000000e+00  1.8454308501931381e-07 5.3613264458933951e-04 0.0000000000000000e+00  -3.6670828822787364e-07 -1.0653570917591631e-03 0.0000000000000000e+00  2.1302456319481908e-07 6.1887673773403519e-04 0.0000000000000000e+00  -7.1665989976498798e-08 -2.0820328612796495e-04 0.0000000000000000e+00  1.8313100582675806e-08 5.3203028685648304e-05 0.0000000000000000e+00  -4.0599290971291135e-09 -1.1794863640982508e-05 0.0000000000000000e+00  8.3061719192824669e-10 2.4131003971417153e-06 0.0000000000000000e+00  -1.6673951969293775e-10 -4.8440991241246167e-07 0.0000000000000000e+00  6.0576560996680341e-11 1.7598639279211582e-07 0.0000000000000000e+00  1.0166207653705572e-07 2.9534760374549674e-04 0.0000000000000000e+00  -6.2528982766556351e-08 -1.8165854814124722e-04 0.0000000000000000e+00  -9.0031837588971806e-09 -2.6155955493407505e-05 0.0000000000000000e+00  4.4154501803323669e-08 1.2827719781460906e-04 0.0000000000000000e+00  -3.5917459708347655e-08 -1.0434702908728440e-04 0.0000000000000000e+00  1.6817677942938992e-08 4.8858542439864800e-05 0.0000000000000000e+00  -5.5481674165258790e-09 -1.6118478074294278e-05 0.0000000000000000e+00  1.4791055142566641e-09 4.2970819031344911e-06 0.0000000000000000e+00  -3.4698511462596890e-10 -1.0080575336544693e-06 0.0000000000000000e+00  7.7697506037900752e-11 2.2572598364081985e-07 0.0000000000000000e+00  -3.0484540264147551e-11 -8.8563368219390012e-08 0.0000000000000000e+00  -1.3220502610715260e-08 -3.8408066207093453e-05 0.0000000000000000e+00  8.9063480153053549e-09 2.5874629301764243e-05 0.0000000000000000e+00  -3.1841610441194292e-10 -9.2505914334506128e-07 0.0000000000000000e+00  -5.1877759544045130e-09 -1.5071472559813295e-05 0.0000000000000000e+00  5.4434030842979710e-09 1.5814117829692809e-05 0.0000000000000000e+00  -3.2465256241994747e-09 -9.4317723606222530e-06 0.0000000000000000e+00  1.3576300893557462e-09 3.9441727665069839e-06 0.0000000000000000e+00  -4.4121470644295236e-10 -1.2818123603613399e-06 0.0000000000000000e+00  1.2101386577897165e-10 3.5156821988355485e-07 0.0000000000000000e+00  -3.0831730258569191e-11 -8.9572020967688604e-08 0.0000000000000000e+00  1.3240740674076898e-11 3.8466861617554320e-08 0.0000000000000000e+00  1.7958790573730418e-09 5.2173690945464457e-06 0.0000000000000000e+00  -1.2874021584180117e-09 -3.7401473144899508e-06 0.0000000000000000e+00  2.1236531281546540e-10 6.1696149041230180e-07 0.0000000000000000e+00  6.0173942775455224e-10 1.7481671053779129e-06 0.0000000000000000e+00  -7.8699214696861100e-10 -2.2863613718236375e-06 0.0000000000000000e+00  5.6386031848556148e-10 1.6381211124600733e-06 0.0000000000000000e+00  -2.8495533558666975e-10 -8.2784926697164338e-07 0.0000000000000000e+00  1.1127256076976152e-10 3.2326788223723985e-07 0.0000000000000000e+00  -3.5859853341869280e-11 -1.0417967167260811e-07 0.0000000000000000e+00  1.0529851408163285e-11 3.0591214414783142e-08 0.0000000000000000e+00  -4.9950112097266363e-12 -1.4511454435390389e-08 0.0000000000000000e+00  -2.5180136062965811e-10 -7.3153068494246141e-07 0.0000000000000000e+00  1.8885049973628332e-10 5.4864650087016927e-07 0.0000000000000000e+00  -4.9654589487154946e-11 -1.4425599515127138e-07 0.0000000000000000e+00  -6.8660650929210846e-11 -1.9947220649340866e-07 0.0000000000000000e+00  1.1124470775483824e-10 3.2318696394897582e-07 0.0000000000000000e+00  -9.2322809002045085e-11 -2.6821526117330709e-07 0.0000000000000000e+00  5.4219204673552080e-11 1.5751706755156932e-07 0.0000000000000000e+00  -2.4721910213035634e-11 -7.1821835537364561e-08 0.0000000000000000e+00  9.2649305759964498e-12 2.6916379614688742e-08 0.0000000000000000e+00  -3.1451295919963956e-12 -9.1371976660992230e-09 0.0000000000000000e+00  1.6528535952038168e-12 4.8018530145569040e-09 0.0000000000000000e+00  3.6165014741498117e-11 1.0506622338595210e-07 0.0000000000000000e+00  -2.8071818810100285e-11 -8.1553955031784765e-08 0.0000000000000000e+00  9.5447529960827915e-12 2.7729316789119453e-08 0.0000000000000000e+00  7.6058730704608059e-12 2.2096503064583555e-08 0.0000000000000000e+00  -1.5545306675450810e-11 -4.5162062712832155e-08 0.0000000000000000e+00  1.4604370674263955e-11 4.2428465262389499e-08 0.0000000000000000e+00  -9.6886596501012854e-12 -2.8147392898472513e-08 0.0000000000000000e+00  5.0230520261695672e-12 1.4592918322668634e-08 0.0000000000000000e+00  -2.1501412953985832e-12 -6.2465680511526622e-09 0.0000000000000000e+00  8.3852303920675864e-13 2.4360683821448083e-09 0.0000000000000000e+00  -4.8630549176396893e-13 -1.4128096392799013e-09 0.0000000000000000e+00  -5.2933841122246249e-12 -1.5378284277718610e-08 0.0000000000000000e+00  4.2213242826071468e-12 1.2263747249410754e-08 0.0000000000000000e+00  -1.6984089408275216e-12 -4.9341999292184377e-09 0.0000000000000000e+00  -7.9597753460529639e-13 -2.3124656262084979e-09 0.0000000000000000e+00  2.1583723596785216e-12 6.2704808531941086e-09 0.0000000000000000e+00  -2.2625017282783134e-12 -6.5729964080900465e-09 0.0000000000000000e+00  1.6615399795708502e-12 4.8270886077633838e-09 0.0000000000000000e+00  -9.5891455236397597e-13 -2.7858285496869085e-09 0.0000000000000000e+00  4.6053008182953464e-13 1.3379271873469212e-09 0.0000000000000000e+00  -2.0393046735970090e-13 -5.9245666542560652e-10 0.0000000000000000e+00  1.2931715172213230e-13 3.7569083954726285e-10 0.0000000000000000e+00  7.8669675467345869e-13 2.2855032012106758e-09 0.0000000000000000e+00  -6.4119869965862865e-13 -1.8628037702916439e-09 0.0000000000000000e+00  2.9099429512369402e-13 8.4539358919219897e-10 0.0000000000000000e+00  7.3882174544151730e-14 2.1464172240439575e-10 0.0000000000000000e+00  -2.9837425699207552e-13 -8.6683377739024349e-10 0.0000000000000000e+00  3.4597976107674222e-13 1.0051367910157617e-09 0.0000000000000000e+00  -2.7718226006848025e-13 -8.0526700910094749e-10 0.0000000000000000e+00  1.7520058484944605e-13 5.0899091060010293e-10 0.0000000000000000e+00  -9.2978915784186669e-14 -2.7012137574923804e-10 0.0000000000000000e+00  4.6136179188312590e-14 1.3403434627143605e-10 0.0000000000000000e+00  -3.1614479231409998e-14 -9.1846055114320628e-11 0.0000000000000000e+00  -1.1839821156223119e-13 -3.4396924855170975e-10 0.0000000000000000e+00  9.8250559717176905e-14 2.8543650068514075e-10 0.0000000000000000e+00  -4.8840541584295913e-14 -1.4189103167980559e-10 0.0000000000000000e+00  -4.8890593081729216e-15 -1.4203644076776904e-11 0.0000000000000000e+00  4.1084898405847215e-14 1.1935941806058943e-10 0.0000000000000000e+00  -5.2472486175818791e-14 -1.5244251920181721e-10 0.0000000000000000e+00  4.5374609464199466e-14 1.3182184185716740e-10 0.0000000000000000e+00  -3.1024645176868225e-14 -9.0132475374948348e-11 0.0000000000000000e+00  1.7970958132888481e-14 5.2209040011341940e-11 0.0000000000000000e+00  -9.8643690563210438e-15 -2.8657862031607274e-11 0.0000000000000000e+00  7.2183627249609391e-15 2.0970712053141463e-11 0.0000000000000000e+00  1.8007961386089187e-14 5.2316541476351485e-11 0.0000000000000000e+00  -1.5170426718706466e-14 -4.4072965374984018e-11 0.0000000000000000e+00  8.1009018499846740e-15 2.3534655508422157e-11 0.0000000000000000e+00  -1.3481776173587333e-16 -3.9167115435148801e-13 0.0000000000000000e+00  -5.6311734025109535e-15 -1.6359626198474856e-11 0.0000000000000000e+00  7.9160857474071755e-15 2.2997729696071877e-11 0.0000000000000000e+00  -7.3312130714665868e-15 -2.1298563702031790e-11 0.0000000000000000e+00  5.3714243387213843e-15 1.5605005929259583e-11 0.0000000000000000e+00  -3.3625224576654884e-15 -9.7687651505911306e-12 0.0000000000000000e+00  2.0177343943144824e-15 5.8619009040055906e-12 0.0000000000000000e+00  -1.5599472227738883e-15 -4.5319423910033481e-12 0.0000000000000000e+00  -2.7636397882495805e-15 -8.0288974697237473e-12 0.0000000000000000e+00  2.3581949001782763e-15 6.8510032123791909e-12 0.0000000000000000e+00  -1.3343194821466176e-15 -3.8764510337273503e-12 0.0000000000000000e+00  1.4534539661911490e-16 4.2225592934106676e-13 0.0000000000000000e+00  7.6709440383069446e-16 2.2285546561248242e-12 0.0000000000000000e+00  -1.1901335922358174e-15 -3.4575636911739116e-12 0.0000000000000000e+00  1.1737861694594147e-15 3.4100713291359913e-12 0.0000000000000000e+00  -9.1488961656696020e-16 -2.6579277656815892e-12 0.0000000000000000e+00  6.1398707251704184e-16 1.7837488351177082e-12 0.0000000000000000e+00  -3.9851708799473436e-16 -1.1577676848650231e-12 0.0000000000000000e+00  3.2254346092875708e-16 9.3704989642194067e-13 0.0000000000000000e+00  4.2741955701907142e-16 1.2417348362300235e-12 0.0000000000000000e+00  -3.6875957332284279e-16 -1.0713164638085625e-12 0.0000000000000000e+00  2.1888328704774660e-16 6.3589744112620540e-13 0.0000000000000000e+00  -4.0290578680477015e-17 -1.1705176868447406e-13 0.0000000000000000e+00  -1.0360746665080234e-16 -3.0099933080062358e-13 0.0000000000000000e+00  1.7852777071168279e-16 5.1865701624244795e-13 0.0000000000000000e+00  -1.8675845915659132e-16 -5.4256872641190810e-13 0.0000000000000000e+00  1.5398540917144095e-16 4.4735680363540128e-13 0.0000000000000000e+00  -1.1004929584763976e-16 -3.1971406575226034e-13 0.0000000000000000e+00  7.6536972120217102e-17 2.2235441261523370e-13 0.0000000000000000e+00  -6.4355687804539888e-17 -1.8696547255294315e-13 0.0000000000000000e+00  -6.6549930745992544e-17 -1.9334016424594076e-13 0.0000000000000000e+00  5.7970032447475905e-17 1.6841393325435458e-13 0.0000000000000000e+00  -3.5823298512282571e-17 -1.0407347296320320e-13 0.0000000000000000e+00  8.8358427676056428e-18 2.5669798191985282e-14 0.0000000000000000e+00  1.3826293342178100e-17 4.0168003117722067e-14 0.0000000000000000e+00  -2.6740934965215011e-17 -7.7687485175571912e-14 0.0000000000000000e+00  2.9589807277983734e-17 8.5963999285988028e-14 0.0000000000000000e+00  -2.5694399375525481e-17 -7.4647100902715781e-14 0.0000000000000000e+00  1.9444865652476346e-17 5.6491020754614175e-14 0.0000000000000000e+00  -1.4370540874344647e-17 -4.1749145368060146e-14 0.0000000000000000e+00  1.2474595225288568e-17 3.6241063855714636e-14 0.0000000000000000e+00  1.0423442666356312e-17 3.0282076848634893e-14 0.0000000000000000e+00  -9.1563925406740549e-18 -2.6601056047242126e-14 0.0000000000000000e+00  5.8562315525671097e-18 1.7013462787168565e-14 0.0000000000000000e+00  -1.7550261691284265e-18 -5.0986837099849844e-15 0.0000000000000000e+00  -1.8136744959730083e-18 -5.2690682170424648e-15 0.0000000000000000e+00  4.0015810301402293e-18 1.1625351445723800e-14 0.0000000000000000e+00  -4.6756739986842979e-18 -1.3583719302675969e-14 0.0000000000000000e+00  4.2609078782487588e-18 1.2378745098349156e-14 0.0000000000000000e+00  -3.3977735514987982e-18 -9.8711762604928672e-15 0.0000000000000000e+00  2.6489298014141150e-18 7.6956432131555367e-15 0.0000000000000000e+00  -2.3616616791795609e-18 -6.8610748625521701e-15 0.0000000000000000e+00  -1.6421295523438779e-18 -4.7706976371631627e-15 0.0000000000000000e+00  1.4533195018281462e-18 4.2221686489463855e-15 0.0000000000000000e+00  -9.5757999179992990e-19 -2.7819513982645923e-15 0.0000000000000000e+00  3.3069432719951618e-19 9.6072970804415959e-16 0.0000000000000000e+00  2.3204072910693591e-19 6.7412230447712246e-16 0.0000000000000000e+00  -5.9871015224075277e-19 -1.7393664857706593e-15 0.0000000000000000e+00  7.3814027043163442e-19 2.1444374099575998e-15 0.0000000000000000e+00  -7.0395455657052788e-19 -2.0451214308321249e-15 0.0000000000000000e+00  5.8900442551543008e-19 1.7111695097833852e-15 0.0000000000000000e+00  -4.8134912021648767e-19 -1.3984104403879968e-15 0.0000000000000000e+00  4.3891868583595142e-19 1.2751419852566081e-15 0.0000000000000000e+00  2.6615594109332808e-19 7.7323346229200589e-16 0.0000000000000000e+00  -2.3718358103429565e-19 -6.8906326422244367e-16 0.0000000000000000e+00  1.6054455946696429e-19 4.6641237861850594e-16 0.0000000000000000e+00  -6.2057597437759092e-20 -1.8028908440370555e-16 0.0000000000000000e+00  -2.8906512992985992e-20 -8.3978899860502607e-17 0.0000000000000000e+00  9.1449483405690655e-20 2.6567808476535639e-16 0.0000000000000000e+00  -1.1920622892178955e-19 -3.4631669215171355e-16 0.0000000000000000e+00  1.1889930745632586e-19 3.4542502711347613e-16 0.0000000000000000e+00  -1.0417004156557007e-19 -3.0263371757162085e-16 0.0000000000000000e+00  8.8892387610057047e-20 2.5824923674735836e-16 0.0000000000000000e+00  -8.2679493066603324e-20 -2.4019960036142753e-16 0.0000000000000000e+00  -8.2463310149200394e-20 -2.3957154800601279e-16 0.0000000000000000e+00  7.3903648916779834e-20 2.1470410952764216e-16 0.0000000000000000e+00  -5.1120112056834678e-20 -1.4851361602558124e-16 0.0000000000000000e+00  2.1447622472923009e-20 6.2309408967335879e-17 0.0000000000000000e+00  6.6066387854087345e-21 1.9193538048292661e-17 0.0000000000000000e+00  -2.6735653514741803e-20 -7.7672141560777334e-17 0.0000000000000000e+00  3.6680801694820038e-20 1.0656468225966203e-16 0.0000000000000000e+00  -3.8034321507143485e-20 -1.1049691389223242e-16 0.0000000000000000e+00  3.4624814005177851e-20 1.0059164828130641e-16 0.0000000000000000e+00  -3.0581296367823868e-20 -8.8844463041982253e-17 0.0000000000000000e+00  2.8879025292069160e-20 8.3899042878681121e-17 0.0000000000000000e+00  -2.7406946153983531e-03 -7.9622373930267045e+00 0.0000000000000000e+00  7.8742163016954790e-04 2.2876091019366420e+00 0.0000000000000000e+00  -3.2957031168428451e-05 -9.5746422990022576e-02 0.0000000000000000e+00  2.7444855394313142e-06 7.9732507459627650e-03 0.0000000000000000e+00  -2.8733943492984009e-07 -8.3477552750144720e-04 0.0000000000000000e+00  3.3874666448619159e-08 9.8412327429008039e-05 0.0000000000000000e+00  -4.2959967716219601e-09 -1.2480684985167035e-05 0.0000000000000000e+00  5.7241094334414020e-10 1.6629622985594712e-06 0.0000000000000000e+00  -7.8811780954177436e-11 -2.2896316349830543e-07 0.0000000000000000e+00  9.5898577379677060e-12 2.7860354614501614e-08 0.0000000000000000e+00  -5.8097846962391897e-04 -1.6878525864913401e+00 0.0000000000000000e+00  -1.1539761028450181e-04 -3.3525193303582818e-01 0.0000000000000000e+00  3.9257430944873747e-05 1.1405027866558022e-01 0.0000000000000000e+00  -4.6323471696212089e-06 -1.3457846651068205e-02 0.0000000000000000e+00  5.6807029546446876e-07 1.6503518936412046e-03 0.0000000000000000e+00  -7.3335081465066673e-08 -2.1305231330085434e-04 0.0000000000000000e+00  9.8641033625000694e-09 2.8657090140691542e-05 0.0000000000000000e+00  -1.3695375666274595e-09 -3.9787662452027697e-06 0.0000000000000000e+00  1.9434125199288756e-10 5.6459817702107854e-07 0.0000000000000000e+00  -2.4132556929930326e-11 -7.0109652530151932e-08 0.0000000000000000e+00  1.6393802767889845e-05 4.7627104705142385e-02 0.0000000000000000e+00  -1.1948675456892763e-05 -3.4713167233403688e-02 0.0000000000000000e+00  -6.3714120999380200e-06 -1.8510159936639171e-02 0.0000000000000000e+00  2.2738247594000959e-06 6.6058919599307217e-03 0.0000000000000000e+00  -4.0231496775818530e-07 -1.1688012455167169e-03 0.0000000000000000e+00  6.3110000176480533e-08 1.8334651385669187e-04 0.0000000000000000e+00  -9.5937506580826552e-09 -2.7871664285390500e-05 0.0000000000000000e+00  1.4490836587601248e-09 4.2098627218730859e-06 0.0000000000000000e+00  -2.1861422171549578e-10 -6.3511575533108098e-07 0.0000000000000000e+00  2.8278343504491188e-11 8.2153948418505962e-08 0.0000000000000000e+00  -1.0387832523465524e-06 -3.0178622633158436e-03 0.0000000000000000e+00  1.2970895311492964e-06 3.7682909686452982e-03 0.0000000000000000e+00  4.0648967592706932e-08 1.1809295641190423e-04 0.0000000000000000e+00  -4.2021244534366393e-07 -1.2207968106086140e-03 0.0000000000000000e+00  1.4836968994976617e-07 4.3104207476180284e-04 0.0000000000000000e+00  -3.2174910817675824e-08 -9.3474215109720326e-05 0.0000000000000000e+00  5.9384947667052968e-09 1.7252453018331537e-05 0.0000000000000000e+00  -1.0221246480535473e-09 -2.9694658599835722e-06 0.0000000000000000e+00  1.6934887512704452e-10 4.9199058458673904e-07 0.0000000000000000e+00  -2.3299177653883708e-11 -6.7688527755056442e-08 0.0000000000000000e+00  8.7937316986692570e-08 2.5547457554008342e-04 0.0000000000000000e+00  -1.3890296632876233e-07 -4.0353944809879891e-04 0.0000000000000000e+00  3.6753471291033234e-08 1.0677580121215528e-04 0.0000000000000000e+00  3.6361670734519628e-08 1.0563754632445079e-04 0.0000000000000000e+00  -3.0564697863227895e-08 -8.8796241239662600e-05 0.0000000000000000e+00  1.0520844716852449e-08 3.0565048269186468e-05 0.0000000000000000e+00  -2.5460273958193636e-09 -7.3966922183764835e-06 0.0000000000000000e+00  5.2429787639254169e-10 1.5231847185901890e-06 0.0000000000000000e+00  -9.8647515911809833e-11 -2.8658973367889999e-07 0.0000000000000000e+00  1.47374982