<?xml version="1.0"?>
<VTKFile type="UnstructuredGrid"  version="0.1"  >
<UnstructuredGrid>
<Piece  NumberOfPoints="1411" NumberOfCells="2700">
<Points>
<DataArray  type="Float64"  NumberOfComponents="3"  format="ascii">-0.75 -4.5 0  -0.65 -4.5 0  -0.55 -4.5 0  -0.45 -4.5 0  -0.35 -4.5 0  -0.25 -4.5 0  -0.15 -4.5 0  -0.05000000000000004 -4.5 0  0.05000000000000004 -4.5 0  0.15 -4.5 0  0.25 -4.5 0  0.3500000000000001 -4.5 0  0.45 -4.5 0  0.55 -4.5 0  0.6499999999999999 -4.5 0  0.75 -4.5 0  -0.75 -4.4 0  -0.65 -4.4 0  -0.55 -4.4 0  -0.45 -4.4 0  -0.35 -4.4 0  -0.25 -4.4 0  -0.15 -4.4 0  -0.05000000000000004 -4.4 0  0.05000000000000004 -4.4 0  0.15 -4.4 0  0.25 -4.4 0  0.3500000000000001 -4.4 0  0.45 -4.4 0  0.55 -4.4 0  0.6499999999999999 -4.4 0  0.75 -4.4 0  -0.75 -4.3 0  -0.65 -4.3 0  -0.55 -4.3 0  -0.45 -4.3 0  -0.35 -4.3 0  -0.25 -4.3 0  -0.15 -4.3 0  -0.05000000000000004 -4.3 0  0.05000000000000004 -4.3 0  0.15 -4.3 0  0.25 -4.3 0  0.3500000000000001 -4.3 0  0.45 -4.3 0  0.55 -4.3 0  0.6499999999999999 -4.3 0  0.75 -4.3 0  -0.75 -4.2 0  -0.65 -4.2 0  -0.55 -4.2 0  -0.45 -4.2 0  -0.35 -4.2 0  -0.25 -4.2 0  -0.15 -4.2 0  -0.05000000000000004 -4.2 0  0.05000000000000004 -4.2 0  0.15 -4.2 0  0.25 -4.2 0  0.3500000000000001 -4.2 0  0.45 -4.2 0  0.55 -4.2 0  0.6499999999999999 -4.2 0  0.75 -4.2 0  -0.75 -4.1 0  -0.65 -4.1 0  -0.55 -4.1 0  -0.45 -4.1 0  -0.35 -4.1 0  -0.25 -4.1 0  -0.15 -4.1 0  -0.05000000000000004 -4.1 0  0.05000000000000004 -4.1 0  0.15 -4.1 0  0.25 -4.1 0  0.3500000000000001 -4.1 0  0.45 -4.1 0  0.55 -4.1 0  0.6499999999999999 -4.1 0  0.75 -4.1 0  -0.75 -4 0  -0.65 -4 0  -0.55 -4 0  -0.45 -4 0  -0.35 -4 0  -0.25 -4 0  -0.15 -4 0  -0.05000000000000004 -4 0  0.05000000000000004 -4 0  0.15 -4 0  0.25 -4 0  0.3500000000000001 -4 0  0.45 -4 0  0.55 -4 0  0.6499999999999999 -4 0  0.75 -4 0  -0.75 -3.9 0  -0.65 -3.9 0  -0.55 -3.9 0  -0.45 -3.9 0  -0.35 -3.9 0  -0.25 -3.9 0  -0.15 -3.9 0  -0.05000000000000004 -3.9 0  0.05000000000000004 -3.9 0  0.15 -3.9 0  0.25 -3.9 0  0.3500000000000001 -3.9 0  0.45 -3.9 0  0.55 -3.9 0  0.6499999999999999 -3.9 0  0.75 -3.9 0  -0.75 -3.8 0  -0.65 -3.8 0  -0.55 -3.8 0  -0.45 -3.8 0  -0.35 -3.8 0  -0.25 -3.8 0  -0.15 -3.8 0  -0.05000000000000004 -3.8 0  0.05000000000000004 -3.8 0  0.15 -3.8 0  0.25 -3.8 0  0.3500000000000001 -3.8 0  0.45 -3.8 0  0.55 -3.8 0  0.6499999999999999 -3.8 0  0.75 -3.8 0  -0.75 -3.7 0  -0.65 -3.7 0  -0.55 -3.7 0  -0.45 -3.7 0  -0.35 -3.7 0  -0.25 -3.7 0  -0.15 -3.7 0  -0.05000000000000004 -3.7 0  0.05000000000000004 -3.7 0  0.15 -3.7 0  0.25 -3.7 0  0.3500000000000001 -3.7 0  0.45 -3.7 0  0.55 -3.7 0  0.6499999999999999 -3.7 0  0.75 -3.7 0  -0.75 -3.6 0  -0.65 -3.6 0  -0.55 -3.6 0  -0.45 -3.6 0  -0.35 -3.6 0  -0.25 -3.6 0  -0.15 -3.6 0  -0.05000000000000004 -3.6 0  0.05000000000000004 -3.6 0  0.15 -3.6 0  0.25 -3.6 0  0.3500000000000001 -3.6 0  0.45 -3.6 0  0.55 -3.6 0  0.6499999999999999 -3.6 0  0.75 -3.6 0  -0.75 -3.5 0  -0.65 -3.5 0  -0.55 -3.5 0  -0.45 -3.5 0  -0.35 -3.5 0  -0.25 -3.5 0  -0.15 -3.5 0  -0.05000000000000004 -3.5 0  0.05000000000000004 -3.5 0  0.15 -3.5 0  0.25 -3.5 0  0.3500000000000001 -3.5 0  0.45 -3.5 0  0.55 -3.5 0  0.6499999999999999 -3.5 0  0.75 -3.5 0  -0.75 -3.4 0  -0.65 -3.4 0  -0.55 -3.4 0  -0.45 -3.4 0  -0.35 -3.4 0  -0.25 -3.4 0  -0.15 -3.4 0  -0.05000000000000004 -3.4 0  0.05000000000000004 -3.4 0  0.15 -3.4 0  0.25 -3.4 0  0.3500000000000001 -3.4 0  0.45 -3.4 0  0.55 -3.4 0  0.6499999999999999 -3.4 0  0.75 -3.4 0  -0.75 -3.3 0  -0.65 -3.3 0  -0.55 -3.3 0  -0.45 -3.3 0  -0.35 -3.3 0  -0.25 -3.3 0  -0.15 -3.3 0  -0.05000000000000004 -3.3 0  0.05000000000000004 -3.3 0  0.15 -3.3 0  0.25 -3.3 0  0.3500000000000001 -3.3 0  0.45 -3.3 0  0.55 -3.3 0  0.6499999999999999 -3.3 0  0.75 -3.3 0  -0.75 -3.2 0  -0.65 -3.2 0  -0.55 -3.2 0  -0.45 -3.2 0  -0.35 -3.2 0  -0.25 -3.2 0  -0.15 -3.2 0  -0.05000000000000004 -3.2 0  0.05000000000000004 -3.2 0  0.15 -3.2 0  0.25 -3.2 0  0.3500000000000001 -3.2 0  0.45 -3.2 0  0.55 -3.2 0  0.6499999999999999 -3.2 0  0.75 -3.2 0  -0.75 -3.1 0  -0.65 -3.1 0  -0.55 -3.1 0  -0.45 -3.1 0  -0.35 -3.1 0  -0.25 -3.1 0  -0.15 -3.1 0  -0.05000000000000004 -3.1 0  0.05000000000000004 -3.1 0  0.15 -3.1 0  0.25 -3.1 0  0.3500000000000001 -3.1 0  0.45 -3.1 0  0.55 -3.1 0  0.6499999999999999 -3.1 0  0.75 -3.1 0  -0.75 -3 0  -0.65 -3 0  -0.55 -3 0  -0.45 -3 0  -0.35 -3 0  -0.25 -3 0  -0.15 -3 0  -0.05000000000000004 -3 0  0.05000000000000004 -3 0  0.15 -3 0  0.25 -3 0  0.3500000000000001 -3 0  0.45 -3 0  0.55 -3 0  0.6499999999999999 -3 0  0.75 -3 0  -0.75 -2.9 0  -0.65 -2.9 0  -0.55 -2.9 0  -0.45 -2.9 0  -0.35 -2.9 0  -0.25 -2.9 0  -0.15 -2.9 0  -0.05000000000000004 -2.9 0  0.05000000000000004 -2.9 0  0.15 -2.9 0  0.25 -2.9 0  0.3500000000000001 -2.9 0  0.45 -2.9 0  0.55 -2.9 0  0.6499999999999999 -2.9 0  0.75 -2.9 0  -0.75 -2.8 0  -0.65 -2.8 0  -0.55 -2.8 0  -0.45 -2.8 0  -0.35 -2.8 0  -0.25 -2.8 0  -0.15 -2.8 0  -0.05000000000000004 -2.8 0  0.05000000000000004 -2.8 0  0.15 -2.8 0  0.25 -2.8 0  0.3500000000000001 -2.8 0  0.45 -2.8 0  0.55 -2.8 0  0.6499999999999999 -2.8 0  0.75 -2.8 0  -0.75 -2.7 0  -0.65 -2.7 0  -0.55 -2.7 0  -0.45 -2.7 0  -0.35 -2.7 0  -0.25 -2.7 0  -0.15 -2.7 0  -0.05000000000000004 -2.7 0  0.05000000000000004 -2.7 0  0.15 -2.7 0  0.25 -2.7 0  0.3500000000000001 -2.7 0  0.45 -2.7 0  0.55 -2.7 0  0.6499999999999999 -2.7 0  0.75 -2.7 0  -0.75 -2.6 0  -0.65 -2.6 0  -0.55 -2.6 0  -0.45 -2.6 0  -0.35 -2.6 0  -0.25 -2.6 0  -0.15 -2.6 0  -0.05000000000000004 -2.6 0  0.05000000000000004 -2.6 0  0.15 -2.6 0  0.25 -2.6 0  0.3500000000000001 -2.6 0  0.45 -2.6 0  0.55 -2.6 0  0.6499999999999999 -2.6 0  0.75 -2.6 0  -0.75 -2.5 0  -0.65 -2.5 0  -0.55 -2.5 0  -0.45 -2.5 0  -0.35 -2.5 0  -0.25 -2.5 0  -0.15 -2.5 0  -0.05000000000000004 -2.5 0  0.05000000000000004 -2.5 0  0.15 -2.5 0  0.25 -2.5 0  0.3500000000000001 -2.5 0  0.45 -2.5 0  0.55 -2.5 0  0.6499999999999999 -2.5 0  0.75 -2.5 0  -0.75 -2.4 0  -0.65 -2.4 0  -0.55 -2.4 0  -0.45 -2.4 0  -0.35 -2.4 0  -0.25 -2.4 0  -0.15 -2.4 0  -0.05000000000000004 -2.4 0  0.05000000000000004 -2.4 0  0.15 -2.4 0  0.25 -2.4 0  0.3500000000000001 -2.4 0  0.45 -2.4 0  0.55 -2.4 0  0.6499999999999999 -2.4 0  0.75 -2.4 0  -0.75 -2.3 0  -0.65 -2.3 0  -0.55 -2.3 0  -0.45 -2.3 0  -0.35 -2.3 0  -0.25 -2.3 0  -0.15 -2.3 0  -0.05000000000000004 -2.3 0  0.05000000000000004 -2.3 0  0.15 -2.3 0  0.25 -2.3 0  0.3500000000000001 -2.3 0  0.45 -2.3 0  0.55 -2.3 0  0.6499999999999999 -2.3 0  0.75 -2.3 0  -0.75 -2.2 0  -0.65 -2.2 0  -0.55 -2.2 0  -0.45 -2.2 0  -0.35 -2.2 0  -0.25 -2.2 0  -0.15 -2.2 0  -0.05000000000000004 -2.2 0  0.05000000000000004 -2.2 0  0.15 -2.2 0  0.25 -2.2 0  0.3500000000000001 -2.2 0  0.45 -2.2 0  0.55 -2.2 0  0.6499999999999999 -2.2 0  0.75 -2.2 0  -0.75 -2.1 0  -0.65 -2.1 0  -0.55 -2.1 0  -0.45 -2.1 0  -0.35 -2.1 0  -0.25 -2.1 0  -0.15 -2.1 0  -0.05000000000000004 -2.1 0  0.05000000000000004 -2.1 0  0.15 -2.1 0  0.25 -2.1 0  0.3500000000000001 -2.1 0  0.45 -2.1 0  0.55 -2.1 0  0.6499999999999999 -2.1 0  0.75 -2.1 0  -0.75 -2 0  -0.65 -2 0  -0.55 -2 0  -0.45 -2 0  -0.35 -2 0  -0.25 -2 0  -0.15 -2 0  -0.05000000000000004 -2 0  0.05000000000000004 -2 0  0.15 -2 0  0.25 -2 0  0.3500000000000001 -2 0  0.45 -2 0  0.55 -2 0  0.6499999999999999 -2 0  0.75 -2 0  -0.75 -1.9 0  -0.65 -1.9 0  -0.55 -1.9 0  -0.45 -1.9 0  -0.35 -1.9 0  -0.25 -1.9 0  -0.15 -1.9 0  -0.05000000000000004 -1.9 0  0.05000000000000004 -1.9 0  0.15 -1.9 0  0.25 -1.9 0  0.3500000000000001 -1.9 0  0.45 -1.9 0  0.55 -1.9 0  0.6499999999999999 -1.9 0  0.75 -1.9 0  -0.75 -1.8 0  -0.65 -1.8 0  -0.55 -1.8 0  -0.45 -1.8 0  -0.35 -1.8 0  -0.25 -1.8 0  -0.15 -1.8 0  -0.05000000000000004 -1.8 0  0.05000000000000004 -1.8 0  0.15 -1.8 0  0.25 -1.8 0  0.3500000000000001 -1.8 0  0.45 -1.8 0  0.55 -1.8 0  0.6499999999999999 -1.8 0  0.75 -1.8 0  -0.75 -1.7 0  -0.65 -1.7 0  -0.55 -1.7 0  -0.45 -1.7 0  -0.35 -1.7 0  -0.25 -1.7 0  -0.15 -1.7 0  -0.05000000000000004 -1.7 0  0.05000000000000004 -1.7 0  0.15 -1.7 0  0.25 -1.7 0  0.3500000000000001 -1.7 0  0.45 -1.7 0  0.55 -1.7 0  0.6499999999999999 -1.7 0  0.75 -1.7 0  -0.75 -1.6 0  -0.65 -1.6 0  -0.55 -1.6 0  -0.45 -1.6 0  -0.35 -1.6 0  -0.25 -1.6 0  -0.15 -1.6 0  -0.05000000000000004 -1.6 0  0.05000000000000004 -1.6 0  0.15 -1.6 0  0.25 -1.6 0  0.3500000000000001 -1.6 0  0.45 -1.6 0  0.55 -1.6 0  0.6499999999999999 -1.6 0  0.75 -1.6 0  -0.75 -1.5 0  -0.65 -1.5 0  -0.55 -1.5 0  -0.45 -1.5 0  -0.35 -1.5 0  -0.25 -1.5 0  -0.15 -1.5 0  -0.05000000000000004 -1.5 0  0.05000000000000004 -1.5 0  0.15 -1.5 0  0.25 -1.5 0  0.3500000000000001 -1.5 0  0.45 -1.5 0  0.55 -1.5 0  0.6499999999999999 -1.5 0  0.75 -1.5 0  -0.75 -1.4 0  -0.65 -1.4 0  -0.55 -1.4 0  -0.45 -1.4 0  -0.35 -1.4 0  -0.25 -1.4 0  -0.15 -1.4 0  -0.05000000000000004 -1.4 0  0.05000000000000004 -1.4 0  0.15 -1.4 0  0.25 -1.4 0  0.3500000000000001 -1.4 0  0.45 -1.4 0  0.55 -1.4 0  0.6499999999999999 -1.4 0  0.75 -1.4 0  -0.75 -1.3 0  -0.65 -1.3 0  -0.55 -1.3 0  -0.45 -1.3 0  -0.35 -1.3 0  -0.25 -1.3 0  -0.15 -1.3 0  -0.05000000000000004 -1.3 0  0.05000000000000004 -1.3 0  0.15 -1.3 0  0.25 -1.3 0  0.3500000000000001 -1.3 0  0.45 -1.3 0  0.55 -1.3 0  0.6499999999999999 -1.3 0  0.75 -1.3 0  -0.75 -1.2 0  -0.65 -1.2 0  -0.55 -1.2 0  -0.45 -1.2 0  -0.35 -1.2 0  -0.25 -1.2 0  -0.15 -1.2 0  -0.05000000000000004 -1.2 0  0.05000000000000004 -1.2 0  0.15 -1.2 0  0.25 -1.2 0  0.3500000000000001 -1.2 0  0.45 -1.2 0  0.55 -1.2 0  0.6499999999999999 -1.2 0  0.75 -1.2 0  -0.75 -1.1 0  -0.65 -1.1 0  -0.55 -1.1 0  -0.45 -1.1 0  -0.35 -1.1 0  -0.25 -1.1 0  -0.15 -1.1 0  -0.05000000000000004 -1.1 0  0.05000000000000004 -1.1 0  0.15 -1.1 0  0.25 -1.1 0  0.3500000000000001 -1.1 0  0.45 -1.1 0  0.55 -1.1 0  0.6499999999999999 -1.1 0  0.75 -1.1 0  -0.75 -1 0  -0.65 -1 0  -0.55 -1 0  -0.45 -1 0  -0.35 -1 0  -0.25 -1 0  -0.15 -1 0  -0.05000000000000004 -1 0  0.05000000000000004 -1 0  0.15 -1 0  0.25 -1 0  0.3500000000000001 -1 0  0.45 -1 0  0.55 -1 0  0.6499999999999999 -1 0  0.75 -1 0  -0.75 -0.8999999999999999 0  -0.65 -0.899999
[...]
<PointData  Vectors="flow"> 
<DataArray  type="Float64"  Name="flow"  NumberOfComponents="3" format="ascii">-3.9592362709919847e-10 7.9186078424530789e-10 0.0000000000000000e+00  3.0714721358042834e-14 7.9186078424274425e-10 0.0000000000000000e+00  -2.3841632778815709e-18 7.9186078424335243e-10 0.0000000000000000e+00  -7.6132804411989480e-25 7.9186078423836639e-10 0.0000000000000000e+00  -2.2923046572154702e-21 7.9186078424658630e-10 0.0000000000000000e+00  -2.5411652844729809e-21 7.9186078424612338e-10 0.0000000000000000e+00  -5.6302599657989618e-21 7.9186078424708540e-10 0.0000000000000000e+00  -3.1967242595777972e-21 7.9186078424095361e-10 0.0000000000000000e+00  -4.5574877580398421e-24 7.9186078424528421e-10 0.0000000000000000e+00  -2.4225386929797634e-21 7.9186078424375434e-10 0.0000000000000000e+00  -5.0954817444675791e-21 7.9186078424460065e-10 0.0000000000000000e+00  -2.5259787218899055e-22 7.9186078424735785e-10 0.0000000000000000e+00  4.9811810740204414e-21 7.9186078424660077e-10 0.0000000000000000e+00  2.3844580135055263e-18 7.9186078424391616e-10 0.0000000000000000e+00  -3.0714725428713455e-14 7.9186078424638095e-10 0.0000000000000000e+00  3.9592362710158974e-10 7.9186078424506987e-10 0.0000000000000000e+00  -3.9543226774241600e-10 2.3744632378065247e-09 0.0000000000000000e+00  3.0676604958310267e-14 2.3744632378078246e-09 0.0000000000000000e+00  -2.3826486840693822e-18 2.3744632378099620e-09 0.0000000000000000e+00  4.2852764722902417e-22 2.3744632378072117e-09 0.0000000000000000e+00  1.2232568401177618e-21 2.3744632378088809e-09 0.0000000000000000e+00  -2.4946309503365200e-21 2.3744632378133142e-09 0.0000000000000000e+00  -7.8741811769303371e-21 2.3744632378098206e-09 0.0000000000000000e+00  -4.1010615892327747e-21 2.3744632378119713e-09 0.0000000000000000e+00  3.2289764255635055e-22 2.3744632378069920e-09 0.0000000000000000e+00  -2.6108975567350848e-21 2.3744632377984820e-09 0.0000000000000000e+00  -2.7241386251918471e-21 2.3744632378070140e-09 0.0000000000000000e+00  1.3000487617398232e-22 2.3744632378105212e-09 0.0000000000000000e+00  3.5162665065415355e-21 2.3744632378083664e-09 0.0000000000000000e+00  2.3813548425975870e-18 2.3744632378101014e-09 0.0000000000000000e+00  -3.0676605617386526e-14 2.3744632378108140e-09 0.0000000000000000e+00  3.9543226773996522e-10 2.3744632378100567e-09 0.0000000000000000e+00  -3.9395940923057718e-10 4.7430328402319213e-09 0.0000000000000000e+00  3.0562348933298230e-14 4.7430328402348462e-09 0.0000000000000000e+00  -2.3731026487776695e-18 4.7430328402349033e-09 0.0000000000000000e+00  -1.1916815880106610e-21 4.7430328402341779e-09 0.0000000000000000e+00  4.6483760579569751e-21 4.7430328402332200e-09 0.0000000000000000e+00  -1.6015845294582521e-21 4.7430328402304142e-09 0.0000000000000000e+00  -7.8318600045455428e-21 4.7430328402323316e-09 0.0000000000000000e+00  -6.4151344689232716e-21 4.7430328402322944e-09 0.0000000000000000e+00  -1.4361163430682872e-20 4.7430328402275695e-09 0.0000000000000000e+00  -1.8380022247085060e-21 4.7430328402212515e-09 0.0000000000000000e+00  8.3380508252875787e-21 4.7430328402257870e-09 0.0000000000000000e+00  8.8382239656457470e-22 4.7430328402353839e-09 0.0000000000000000e+00  4.1215838989037011e-21 4.7430328402309262e-09 0.0000000000000000e+00  2.3748876551370647e-18 4.7430328402278748e-09 0.0000000000000000e+00  -3.0562348983812743e-14 4.7430328402297136e-09 0.0000000000000000e+00  3.9395940922706265e-10 4.7430328402296433e-09 0.0000000000000000e+00  -3.9150870725546345e-10 7.0998298000960872e-09 0.0000000000000000e+00  3.0372235165948903e-14 7.0998298000957613e-09 0.0000000000000000e+00  -2.3605476251494606e-18 7.0998298000930961e-09 0.0000000000000000e+00  -5.1911734280864129e-22 7.0998298000964801e-09 0.0000000000000000e+00  -4.2172538207894399e-21 7.0998298000962170e-09 0.0000000000000000e+00  -2.6782838915446902e-21 7.0998298000894093e-09 0.0000000000000000e+00  -3.8244321200085404e-21 7.0998298000937942e-09 0.0000000000000000e+00  -8.4670553459233394e-21 7.0998298000952683e-09 0.0000000000000000e+00  -1.0174770264939255e-20 7.0998298000914078e-09 0.0000000000000000e+00  -3.9427199321444968e-21 7.0998298000936081e-09 0.0000000000000000e+00  9.5878775155617805e-21 7.0998298000904640e-09 0.0000000000000000e+00  4.8723422185429778e-21 7.0998298000862785e-09 0.0000000000000000e+00  -3.4247010801158313e-21 7.0998298000895276e-09 0.0000000000000000e+00  2.3560997491736060e-18 7.0998298000859881e-09 0.0000000000000000e+00  -3.0372232089245730e-14 7.0998298000852089e-09 0.0000000000000000e+00  3.9150870725859908e-10 7.0998298000861759e-09 0.0000000000000000e+00  -3.8808624455474245e-10 9.4390043303403884e-09 0.0000000000000000e+00  3.0106731662569518e-14 9.4390043303358852e-09 0.0000000000000000e+00  -2.3357124081200980e-18 9.4390043303427177e-09 0.0000000000000000e+00  3.6827398383451516e-21 9.4390043303439254e-09 0.0000000000000000e+00  -1.8640357615980144e-21 9.4390043303432852e-09 0.0000000000000000e+00  -5.5816696315427136e-21 9.4390043303433579e-09 0.0000000000000000e+00  -4.1692505425969982e-21 9.4390043303387555e-09 0.0000000000000000e+00  -1.1346586161695492e-20 9.4390043303333110e-09 0.0000000000000000e+00  -1.6113373846847585e-20 9.4390043303335062e-09 0.0000000000000000e+00  -1.2974996655662629e-21 9.4390043303381054e-09 0.0000000000000000e+00  2.1992737997703532e-21 9.4390043303342821e-09 0.0000000000000000e+00  7.8537112540991142e-22 9.4390043303254379e-09 0.0000000000000000e+00  1.4643096873416737e-21 9.4390043303323234e-09 0.0000000000000000e+00  2.3363911315737871e-18 9.4390043303327899e-09 0.0000000000000000e+00  -3.0106732186238333e-14 9.4390043303321712e-09 0.0000000000000000e+00  3.8808624455574055e-10 9.4390043303334417e-09 0.0000000000000000e+00  -3.8370051580121045e-10 1.1754750383425807e-08 0.0000000000000000e+00  2.9766511177908442e-14 1.1754750383428493e-08 0.0000000000000000e+00  -2.3078928723989288e-18 1.1754750383425613e-08 0.0000000000000000e+00  -3.1817638927690806e-21 1.1754750383419356e-08 0.0000000000000000e+00  -5.0974457403768064e-21 1.1754750383414565e-08 0.0000000000000000e+00  -5.4837406161778461e-21 1.1754750383415125e-08 0.0000000000000000e+00  -9.6315731947310208e-21 1.1754750383416187e-08 0.0000000000000000e+00  -1.1524138660766610e-20 1.1754750383418663e-08 0.0000000000000000e+00  -5.6265635913685973e-21 1.1754750383420404e-08 0.0000000000000000e+00  -5.9327698927605439e-21 1.1754750383420225e-08 0.0000000000000000e+00  -7.4043707744701629e-21 1.1754750383401843e-08 0.0000000000000000e+00  6.3323833660575233e-21 1.1754750383404285e-08 0.0000000000000000e+00  6.1130690753816105e-21 1.1754750383409316e-08 0.0000000000000000e+00  2.3086600053032805e-18 1.1754750383418451e-08 0.0000000000000000e+00  -2.9766508254148567e-14 1.1754750383409998e-08 0.0000000000000000e+00  3.8370051579909442e-10 1.1754750383409713e-08 0.0000000000000000e+00  -3.7836240653550420e-10 1.4041320062172376e-08 0.0000000000000000e+00  2.9352396963024266e-14 1.4041320062171892e-08 0.0000000000000000e+00  -2.2822501431819370e-18 1.4041320062170658e-08 0.0000000000000000e+00  -5.4479454133219848e-21 1.4041320062169317e-08 0.0000000000000000e+00  -5.8968505861086264e-21 1.4041320062162813e-08 0.0000000000000000e+00  -5.4944197286464755e-21 1.4041320062165948e-08 0.0000000000000000e+00  -5.3739816589549504e-21 1.4041320062161302e-08 0.0000000000000000e+00  -1.0010193070367448e-20 1.4041320062164885e-08 0.0000000000000000e+00  -1.1278393208228408e-20 1.4041320062160053e-08 0.0000000000000000e+00  -1.6668812802538764e-20 1.4041320062152506e-08 0.0000000000000000e+00  -1.0477284720828371e-20 1.4041320062163349e-08 0.0000000000000000e+00  4.1262197366415546e-21 1.4041320062163602e-08 0.0000000000000000e+00  1.1466058381752946e-20 1.4041320062151612e-08 0.0000000000000000e+00  2.2807074669532584e-18 1.4041320062153659e-08 0.0000000000000000e+00  -2.9352404582695830e-14 1.4041320062156925e-08 0.0000000000000000e+00  3.7836240654261226e-10 1.4041320062154559e-08 0.0000000000000000e+00  -3.7208516618592546e-10 1.6293037886328696e-08 0.0000000000000000e+00  2.8865437995892618e-14 1.6293037886327273e-08 0.0000000000000000e+00  -2.2439040474464147e-18 1.6293037886328147e-08 0.0000000000000000e+00  -1.1824913730014574e-20 1.6293037886328607e-08 0.0000000000000000e+00  -4.9039293373501579e-21 1.6293037886335287e-08 0.0000000000000000e+00  -5.7792009330659745e-21 1.6293037886335945e-08 0.0000000000000000e+00  -1.0255012728193712e-20 1.6293037886329513e-08 0.0000000000000000e+00  -1.1450630477909574e-20 1.6293037886329818e-08 0.0000000000000000e+00  -1.7730506630348194e-20 1.6293037886325357e-08 0.0000000000000000e+00  -8.7660249039413362e-21 1.6293037886324064e-08 0.0000000000000000e+00  2.3652682077576386e-21 1.6293037886324484e-08 0.0000000000000000e+00  -9.4260783407506374e-22 1.6293037886325642e-08 0.0000000000000000e+00  2.5556789660806647e-21 1.6293037886330370e-08 0.0000000000000000e+00  2.2400615347705047e-18 1.6293037886316444e-08 0.0000000000000000e+00  -2.8865440259818434e-14 1.6293037886324917e-08 0.0000000000000000e+00  3.7208516617973401e-10 1.6293037886319769e-08 0.0000000000000000e+00  -3.6488437511750781e-10 1.8504314879444444e-08 0.0000000000000000e+00  2.8306828191348605e-14 1.8504314879448530e-08 0.0000000000000000e+00  -2.1951352077810627e-18 1.8504314879442746e-08 0.0000000000000000e+00  -1.2459953567927735e-21 1.8504314879456087e-08 0.0000000000000000e+00  -5.2986188329598678e-21 1.8504314879448672e-08 0.0000000000000000e+00  -1.2868907119634173e-20 1.8504314879439557e-08 0.0000000000000000e+00  -6.0346781174319883e-21 1.8504314879448315e-08 0.0000000000000000e+00  -1.4395323160013300e-20 1.8504314879446555e-08 0.0000000000000000e+00  -2.0733416331696622e-20 1.8504314879444973e-08 0.0000000000000000e+00  -1.1366510540062694e-20 1.8504314879450697e-08 0.0000000000000000e+00  -5.6952744307539322e-21 1.8504314879451071e-08 0.0000000000000000e+00  4.4898574746995594e-21 1.8504314879448020e-08 0.0000000000000000e+00  -2.9684542942491499e-21 1.8504314879445492e-08 0.0000000000000000e+00  2.1958826476637248e-18 1.8504314879448378e-08 0.0000000000000000e+00  -2.8306824498116167e-14 1.8504314879449450e-08 0.0000000000000000e+00  3.6488437510313540e-10 1.8504314879451829e-08 0.0000000000000000e+00  -3.5677790600628999e-10 2.0669662440986896e-08 0.0000000000000000e+00  2.7677956831144289e-14 2.0669662440984772e-08 0.0000000000000000e+00  -2.1528316882091251e-18 2.0669662440978541e-08 0.0000000000000000e+00  -2.6768933819937297e-21 2.0669662440966931e-08 0.0000000000000000e+00  -1.2914990638326022e-20 2.0669662440975097e-08 0.0000000000000000e+00  -7.0351567594597568e-21 2.0669662440979418e-08 0.0000000000000000e+00  -8.2003005185179763e-21 2.0669662440973509e-08 0.0000000000000000e+00  -1.2312218435014516e-20 2.0669662440967646e-08 0.0000000000000000e+00  -1.3168892134120706e-20 2.0669662440985970e-08 0.0000000000000000e+00  -4.0838584373910224e-21 2.0669662440980778e-08 0.0000000000000000e+00  -5.5675305016135775e-21 2.0669662440981681e-08 0.0000000000000000e+00  -3.9223286107344737e-21 2.0669662440969307e-08 0.0000000000000000e+00  1.0190564566379862e-20 2.0669662440974541e-08 0.0000000000000000e+00  2.1514353295006730e-18 2.0669662440992838e-08 0.0000000000000000e+00  -2.7677966405535496e-14 2.0669662440981857e-08 0.0000000000000000e+00  3.5677790600829750e-10 2.0669662440981361e-08 0.0000000000000000e+00  -3.4778587955392093e-10 2.2783705969416317e-08 0.0000000000000000e+00  2.6980389198778958e-14 2.2783705969410338e-08 0.0000000000000000e+00  -2.1017829047830401e-18 2.2783705969414689e-08 0.0000000000000000e+00  -1.4721003129199743e-21 2.2783705969409603e-08 0.0000000000000000e+00  -1.7276060036802465e-21 2.2783705969419609e-08 0.0000000000000000e+00  -1.4279169685982752e-20 2.2783705969418318e-08 0.0000000000000000e+00  -1.5620497179803887e-20 2.2783705969414381e-08 0.0000000000000000e+00  -2.3082361918155792e-21 2.2783705969418368e-08 0.0000000000000000e+00  -1.1581101094210456e-20 2.2783705969413177e-08 0.0000000000000000e+00  -1.4283440348343278e-20 2.2783705969422537e-08 0.0000000000000000e+00  -1.1995214886178982e-20 2.2783705969410556e-08 0.0000000000000000e+00  -5.3855511371061414e-21 2.2783705969412075e-08 0.0000000000000000e+00  1.4494700348883717e-20 2.2783705969408323e-08 0.0000000000000000e+00  2.1000965189152389e-18 2.2783705969398539e-08 0.0000000000000000e+00  -2.6980394500348545e-14 2.2783705969409249e-08 0.0000000000000000e+00  3.4778587954559877e-10 2.2783705969416800e-08 0.0000000000000000e+00  -3.3793061439303538e-10 2.4841198202461853e-08 0.0000000000000000e+00  2.6215850726966513e-14 2.4841198202470915e-08 0.0000000000000000e+00  -2.0486591229890655e-18 2.4841198202464903e-08 0.0000000000000000e+00  5.1058538524426197e-22 2.4841198202472361e-08 0.0000000000000000e+00  -5.1344775933538114e-22 2.4841198202466180e-08 0.0000000000000000e+00  -6.7500373789960281e-21 2.4841198202480739e-08 0.0000000000000000e+00  -9.5390622574485385e-21 2.4841198202480163e-08 0.0000000000000000e+00  -1.5943253217254468e-20 2.4841198202472222e-08 0.0000000000000000e+00  -4.4585341383161342e-21 2.4841198202466882e-08 0.0000000000000000e+00  -6.8729842363866054e-21 2.4841198202465145e-08 0.0000000000000000e+00  -1.8253427328615921e-20 2.4841198202473797e-08 0.0000000000000000e+00  -5.9079858432262233e-21 2.4841198202479548e-08 0.0000000000000000e+00  -8.1355282053808561e-22 2.4841198202471580e-08 0.0000000000000000e+00  2.0364891571346315e-18 2.4841198202455338e-08 0.0000000000000000e+00  -2.6215851610236865e-14 2.4841198202454223e-08 0.0000000000000000e+00  3.3793061439473338e-10 2.4841198202455841e-08 0.0000000000000000e+00  -3.2723657186230918e-10 2.6837032241198906e-08 0.0000000000000000e+00  2.5386250237059337e-14 2.6837032241187716e-08 0.0000000000000000e+00  -1.9690906651956501e-18 2.6837032241198109e-08 0.0000000000000000e+00  2.5471169489662381e-21 2.6837032241216360e-08 0.0000000000000000e+00  -9.4835010686300891e-23 2.6837032241214646e-08 0.0000000000000000e+00  -2.6563863791752962e-21 2.6837032241206758e-08 0.0000000000000000e+00  -2.4300669525363368e-20 2.6837032241200048e-08 0.0000000000000000e+00  -1.3684839568060455e-20 2.6837032241193844e-08 0.0000000000000000e+00  -1.9345613695190490e-20 2.6837032241191696e-08 0.0000000000000000e+00  -1.3389478974368238e-20 2.6837032241182088e-08 0.0000000000000000e+00  4.4772985390275942e-21 2.6837032241191547e-08 0.0000000000000000e+00  -3.1980266542390232e-21 2.6837032241199339e-08 0.0000000000000000e+00  -5.9526984322930669e-21 2.6837032241207962e-08 0.0000000000000000e+00  1.9601832086945337e-18 2.6837032241204048e-08 0.0000000000000000e+00  -2.5386249423996189e-14 2.6837032241204935e-08 0.0000000000000000e+00  3.2723657187845326e-10 2.6837032241202205e-08 0.0000000000000000e+00  -3.1573029523483743e-10 2.8766254225877498e-08 0.0000000000000000e+00  2.4493627751178003e-14 2.8766254225875880e-08 0.0000000000000000e+00  -1.8929738678078273e-18 2.8766254225879979e-08 0.0000000000000000e+00  1.6313391632477404e-20 2.8766254225869656e-08 0.0000000000000000e+00  -3.7991683605330261e-21 2.8766254225881405e-08 0.0000000000000000e+00  -2.1159323190314910e-20 2.8766254225874235e-08 0.0000000000000000e+00  -2.2889026593026723e-20 2.8766254225875155e-08 0.0000000000000000e+00  -2.6638809468776937e-20 2.8766254225877031e-08 0.0000000000000000e+00  -1.5440026330691287e-20 2.8766254225867572e-08 0.0000000000000000e+00  1.6300444005470642e-21 2.8766254225885224e-08 0.0000000000000000e+00  -1.2878981000541902e-21 2.8766254225889747e-08 0.0000000000000000e+00  4.0158396797697604e-21 2.8766254225882901e-08 0.0000000000000000e+00  -3.1146389798727358e-21 2.8766254225880343e-08 0.0000000000000000e+00  1.8997962991863926e-18 2.8766254225887976e-08 0.0000000000000000e+00  -2.4493634356053986e-14 2.8766254225888681e-08 0.0000000000000000e+00  3.1573029521346732e-10 2.8766254225876674e-08 0.0000000000000000e+00  -3.0344034375471534e-10 3.0624075631974601e-08 0.0000000000000000e+00  2.3540225752393715e-14 3.0624075631970029e-08 0.0000000000000000e+00  -1.8262951056674809e-18 3.0624075631971729e-08 0.0000000000000000e+00  -1.1544941365740922e-21 3.0624075631973371e-08 0.0000000000000000e+00  8.7218578967096802e-22 3.0624075631959176e-08 0.0000000000000000e+00  -1.0754758357294754e-20 3.0624075631955596e-08 0.0000000000000000e+00  -1.3632815789366581e-20 3.0624075631973827e-08 0.0000000000000000e+00  -2.0896984800442221e-20 3.0624075631985150e-08 0.0000000000000000e+00  -1.1910082998225021e-20 3.0624075632000674e-08 0.0000000000000000e+00  4.3167603554322314e-21 3.0624075631996968e-08 0.0000000000000000e+00  -3.0341477750584912e-21 3.0624075631990841e-08 0.0000000000000000e+00  -5.0080260249668808e-21 3.0624075631986526e-08 0.0000000000000000e+00  -1.1589290157993825e-21 3.0624075631973649e-08 0.0000000000000000e+00  1.8320343691894450e-18 3.0624075631980551e-08 0.0000000000000000e+00  -2.3540232148588669e-14 3.0624075631973053e-08 0.0000000000000000e+00  3.0344034374164666e-10 3.0624075631978162e-08 0.0000000000000000e+00  -2.9039722197940740e-10 3.2405885155875700e-08 0.0000000000000000e+00  2.2528363590093527e-14 3.2405885155875263e-08 0.0000000000000000e+00  -1.7380981654113081e-18 3.2405885155864312e-08 0.0000000000000000e+00  9.6505820175107800e-21 3.2405885155871750e-08 0.0000000000000000e+00  -1.3943770432691259e-20 3.2405885155878248e-08 0.0000000000000000e+00  -1.3303018326433878e-20 3.2405885155875019e-08 0.0000000000000000e+00  2.7294577237006047e-21 3.2405885155869883e-08 0.0000000000000000e+00  -3.7969208368711258e-21 3.2405885155873000e-08 0.0000000000000000e+00  -2.1500029665672367e-21 3.2405885155880319e-08 0.0000000000000000e+00  -9.4326195361654531e-21 3.2405885155872603e-08 0.0000000000000000e+00  -8.2304524753434095e-21 3.2405885155874258e-08 0.0000000000000000e+00  -1.2483996235567922e-20 3.2405885155875667e-08 0.0000000000000000e+00  -1.2327121401687157e-20 3.2405885155873100e-08 0.0000000000000000e+00  1.7424787988916793e-18 3.2405885155860129e-08 0.0000000000000000e+00  -2.2528382147493785e-14 3.2405885155852810e-08 0.0000000000000000e+00  2.9039722196552690e-10 3.2405885155861598e-08 0.0000000000000000e+00  -2.7663330379796961e-10 3.4107260160700314e-08 0.0000000000000000e+00  2.1460612944560548e-14 3.4107260160713642e-08 0.0000000000000000e+00  -1.6663814192353330e-18 3.4107260160728498e-08 0.0000000000000000e+00  7.8279257730422156e-22 3.4107260160711008e-08 0.0000000000000000e+00  4.4999170444496564e-21 3.4107260160704099e-08 0.0000000000000000e+00  -1.2270026614232040e-20 3.4107260160738967e-08 0.0000000000000000e+00  -1.3945764421957249e-20 3.4107260160732931e-08 0.0000000000000000e+00  -1.2954619575111505e-20 3.4107260160725116e-08 0.0000000000000000e+00  -1.0393780814908823e-20 3.4107260160710538e-08 0.0000000000000000e+00  2.4660821771405081e-21 3.4107260160706700e-08 0.0000000000000000e+00  3.3924140410839349e-21 3.4107260160713781e-08 0.0000000000000000e+00  -1.0107564364833639e-20 3.4107260160722363e-08 0.0000000000000000e+00  -1.0080835779704726e-20 3.4107260160723502e-08 0.0000000000000000e+00  1.6507020386279882e-18 3.4107260160727194e-08 0.0000000000000000e+00  -2.1460620401040087e-14 3.4107260160732455e-08 0.0000000000000000e+00  2.7663330381691975e-10 3.4107260160737378e-08 0.0000000000000000e+00  -2.6218275238100575e-10 3.5723977654072203e-08 0.0000000000000000e+00  2.0339596094830965e-14 3.5723977654071621e-08 0.0000000000000000e+00  -1.5693274208991015e-18 3.5723977654089071e-08 0.0000000000000000e+00  -9.1503609299594615e-21 3.5723977654084558e-08 0.0000000000000000e+00  1.2994494093461994e-20 3.5723977654089204e-08 0.0000000000000000e+00  8.1089606128825538e-21 3.5723977654080224e-08 0.0000000000000000e+00  -8.9968282994036103e-21 3.5723977654082659e-08 0.0000000000000000e+00  -1.2733884659291838e-20 3.5723977654095139e-08 0.0000000000000000e+00  -2.6076266034779209e-20 3.5723977654101095e-08 0.0000000000000000e+00  -1.7395462872524915e-20 3.57239776