<?xml version="1.0"?>
<VTKFile type="UnstructuredGrid"  version="0.1"  >
<UnstructuredGrid>
<Piece  NumberOfPoints="431" NumberOfCells="800">
<Points>
<DataArray  type="Float64"  NumberOfComponents="3"  format="ascii">-0.75 -3 0  -0.6 -3 0  -0.45 -3 0  -0.3 -3 0  -0.15 -3 0  0 -3 0  0.15 -3 0  0.3 -3 0  0.45 -3 0  0.6000000000000001 -3 0  0.75 -3 0  -0.75 -2.85 0  -0.6 -2.85 0  -0.45 -2.85 0  -0.3 -2.85 0  -0.15 -2.85 0  0 -2.85 0  0.15 -2.85 0  0.3 -2.85 0  0.45 -2.85 0  0.6000000000000001 -2.85 0  0.75 -2.85 0  -0.75 -2.7 0  -0.6 -2.7 0  -0.45 -2.7 0  -0.3 -2.7 0  -0.15 -2.7 0  0 -2.7 0  0.15 -2.7 0  0.3 -2.7 0  0.45 -2.7 0  0.6000000000000001 -2.7 0  0.75 -2.7 0  -0.75 -2.55 0  -0.6 -2.55 0  -0.45 -2.55 0  -0.3 -2.55 0  -0.15 -2.55 0  0 -2.55 0  0.15 -2.55 0  0.3 -2.55 0  0.45 -2.55 0  0.6000000000000001 -2.55 0  0.75 -2.55 0  -0.75 -2.4 0  -0.6 -2.4 0  -0.45 -2.4 0  -0.3 -2.4 0  -0.15 -2.4 0  0 -2.4 0  0.15 -2.4 0  0.3 -2.4 0  0.45 -2.4 0  0.6000000000000001 -2.4 0  0.75 -2.4 0  -0.75 -2.25 0  -0.6 -2.25 0  -0.45 -2.25 0  -0.3 -2.25 0  -0.15 -2.25 0  0 -2.25 0  0.15 -2.25 0  0.3 -2.25 0  0.45 -2.25 0  0.6000000000000001 -2.25 0  0.75 -2.25 0  -0.75 -2.1 0  -0.6 -2.1 0  -0.45 -2.1 0  -0.3 -2.1 0  -0.15 -2.1 0  0 -2.1 0  0.15 -2.1 0  0.3 -2.1 0  0.45 -2.1 0  0.6000000000000001 -2.1 0  0.75 -2.1 0  -0.75 -1.95 0  -0.6 -1.95 0  -0.45 -1.95 0  -0.3 -1.95 0  -0.15 -1.95 0  0 -1.95 0  0.15 -1.95 0  0.3 -1.95 0  0.45 -1.95 0  0.6000000000000001 -1.95 0  0.75 -1.95 0  -0.75 -1.8 0  -0.6 -1.8 0  -0.45 -1.8 0  -0.3 -1.8 0  -0.15 -1.8 0  0 -1.8 0  0.15 -1.8 0  0.3 -1.8 0  0.45 -1.8 0  0.6000000000000001 -1.8 0  0.75 -1.8 0  -0.75 -1.65 0  -0.6 -1.65 0  -0.45 -1.65 0  -0.3 -1.65 0  -0.15 -1.65 0  0 -1.65 0  0.15 -1.65 0  0.3 -1.65 0  0.45 -1.65 0  0.6000000000000001 -1.65 0  0.75 -1.65 0  -0.75 -1.5 0  -0.6 -1.5 0  -0.45 -1.5 0  -0.3 -1.5 0  -0.15 -1.5 0  0 -1.5 0  0.15 -1.5 0  0.3 -1.5 0  0.45 -1.5 0  0.6000000000000001 -1.5 0  0.75 -1.5 0  -0.75 -1.35 0  -0.6 -1.35 0  -0.45 -1.35 0  -0.3 -1.35 0  -0.15 -1.35 0  0 -1.35 0  0.15 -1.35 0  0.3 -1.35 0  0.45 -1.35 0  0.6000000000000001 -1.35 0  0.75 -1.35 0  -0.75 -1.2 0  -0.6 -1.2 0  -0.45 -1.2 0  -0.3 -1.2 0  -0.15 -1.2 0  0 -1.2 0  0.15 -1.2 0  0.3 -1.2 0  0.45 -1.2 0  0.6000000000000001 -1.2 0  0.75 -1.2 0  -0.75 -1.05 0  -0.6 -1.05 0  -0.45 -1.05 0  -0.3 -1.05 0  -0.15 -1.05 0  0 -1.05 0  0.15 -1.05 0  0.3 -1.05 0  0.45 -1.05 0  0.6000000000000001 -1.05 0  0.75 -1.05 0  -0.75 -0.8999999999999999 0  -0.6 -0.8999999999999999 0  -0.45 -0.8999999999999999 0  -0.3 -0.8999999999999999 0  -0.15 -0.8999999999999999 0  0 -0.8999999999999999 0  0.15 -0.8999999999999999 0  0.3 -0.8999999999999999 0  0.45 -0.8999999999999999 0  0.6000000000000001 -0.8999999999999999 0  0.75 -0.8999999999999999 0  -0.75 -0.75 0  -0.6 -0.75 0  -0.45 -0.75 0  -0.3 -0.75 0  -0.15 -0.75 0  0 -0.75 0  0.15 -0.75 0  0.3 -0.75 0  0.45 -0.75 0  0.6000000000000001 -0.75 0  0.75 -0.75 0  -0.75 -0.6000000000000001 0  -0.6 -0.6000000000000001 0  -0.45 -0.6000000000000001 0  -0.3 -0.6000000000000001 0  -0.15 -0.6000000000000001 0  0 -0.6000000000000001 0  0.15 -0.6000000000000001 0  0.3 -0.6000000000000001 0  0.45 -0.6000000000000001 0  0.6000000000000001 -0.6000000000000001 0  0.75 -0.6000000000000001 0  -0.75 -0.4500000000000002 0  -0.6 -0.4500000000000002 0  -0.45 -0.4500000000000002 0  -0.3 -0.4500000000000002 0  -0.15 -0.4500000000000002 0  0 -0.4500000000000002 0  0.15 -0.4500000000000002 0  0.3 -0.4500000000000002 0  0.45 -0.4500000000000002 0  0.6000000000000001 -0.4500000000000002 0  0.75 -0.4500000000000002 0  -0.75 -0.2999999999999998 0  -0.6 -0.2999999999999998 0  -0.45 -0.2999999999999998 0  -0.3 -0.2999999999999998 0  -0.15 -0.2999999999999998 0  0 -0.2999999999999998 0  0.15 -0.2999999999999998 0  0.3 -0.2999999999999998 0  0.45 -0.2999999999999998 0  0.6000000000000001 -0.2999999999999998 0  0.75 -0.2999999999999998 0  -0.75 -0.1499999999999999 0  -0.6 -0.1499999999999999 0  -0.45 -0.1499999999999999 0  -0.3 -0.1499999999999999 0  -0.15 -0.1499999999999999 0  0 -0.1499999999999999 0  0.15 -0.1499999999999999 0  0.3 -0.1499999999999999 0  0.45 -0.1499999999999999 0  0.6000000000000001 -0.1499999999999999 0  0.75 -0.1499999999999999 0  -0.75 0 0  -0.6 0 0  -0.45 0 0  -0.3 0 0  -0.15 0 0  0 0 0  0.15 0 0  0.3 0 0  0.45 0 0  0.6000000000000001 0 0  0.75 0 0  -0.675 -2.925 0  -0.525 -2.925 0  -0.375 -2.925 0  -0.225 -2.925 0  -0.07499999999999996 -2.925 0  0.07499999999999996 -2.925 0  0.225 -2.925 0  0.375 -2.925 0  0.5249999999999999 -2.925 0  0.675 -2.925 0  -0.675 -2.775 0  -0.525 -2.775 0  -0.375 -2.775 0  -0.225 -2.775 0  -0.07499999999999996 -2.775 0  0.07499999999999996 -2.775 0  0.225 -2.775 0  0.375 -2.775 0  0.5249999999999999 -2.775 0  0.675 -2.775 0  -0.675 -2.625 0  -0.525 -2.625 0  -0.375 -2.625 0  -0.225 -2.625 0  -0.07499999999999996 -2.625 0  0.07499999999999996 -2.625 0  0.225 -2.625 0  0.375 -2.625 0  0.5249999999999999 -2.625 0  0.675 -2.625 0  -0.675 -2.475 0  -0.525 -2.475 0  -0.375 -2.475 0  -0.225 -2.475 0  -0.07499999999999996 -2.475 0  0.07499999999999996 -2.475 0  0.225 -2.475 0  0.375 -2.475 0  0.5249999999999999 -2.475 0  0.675 -2.475 0  -0.675 -2.325 0  -0.525 -2.325 0  -0.375 -2.325 0  -0.225 -2.325 0  -0.07499999999999996 -2.325 0  0.07499999999999996 -2.325 0  0.225 -2.325 0  0.375 -2.325 0  0.5249999999999999 -2.325 0  0.675 -2.325 0  -0.675 -2.175 0  -0.525 -2.175 0  -0.375 -2.175 0  -0.225 -2.175 0  -0.07499999999999996 -2.175 0  0.07499999999999996 -2.175 0  0.225 -2.175 0  0.375 -2.175 0  0.5249999999999999 -2.175 0  0.675 -2.175 0  -0.675 -2.025 0  -0.525 -2.025 0  -0.375 -2.025 0  -0.225 -2.025 0  -0.07499999999999996 -2.025 0  0.07499999999999996 -2.025 0  0.225 -2.025 0  0.375 -2.025 0  0.5249999999999999 -2.025 0  0.675 -2.025 0  -0.675 -1.875 0  -0.525 -1.875 0  -0.375 -1.875 0  -0.225 -1.875 0  -0.07499999999999996 -1.875 0  0.07499999999999996 -1.875 0  0.225 -1.875 0  0.375 -1.875 0  0.5249999999999999 -1.875 0  0.675 -1.875 0  -0.675 -1.725 0  -0.525 -1.725 0  -0.375 -1.725 0  -0.225 -1.725 0  -0.07499999999999996 -1.725 0  0.07499999999999996 -1.725 0  0.225 -1.725 0  0.375 -1.725 0  0.5249999999999999 -1.725 0  0.675 -1.725 0  -0.675 -1.575 0  -0.525 -1.575 0  -0.375 -1.575 0  -0.225 -1.575 0  -0.07499999999999996 -1.575 0  0.07499999999999996 -1.575 0  0.225 -1.575 0  0.375 -1.575 0  0.5249999999999999 -1.575 0  0.675 -1.575 0  -0.675 -1.425 0  -0.525 -1.425 0  -0.375 -1.425 0  -0.225 -1.425 0  -0.07499999999999996 -1.425 0  0.07499999999999996 -1.425 0  0.225 -1.425 0  0.375 -1.425 0  0.5249999999999999 -1.425 0  0.675 -1.425 0  -0.675 -1.275 0  -0.525 -1.275 0  -0.375 -1.275 0  -0.225 -1.275 0  -0.07499999999999996 -1.275 0  0.07499999999999996 -1.275 0  0.225 -1.275 0  0.375 -1.275 0  0.5249999999999999 -1.275 0  0.675 -1.275 0  -0.675 -1.125 0  -0.525 -1.125 0  -0.375 -1.125 0  -0.225 -1.125 0  -0.07499999999999996 -1.125 0  0.07499999999999996 -1.125 0  0.225 -1.125 0  0.375 -1.125 0  0.5249999999999999 -1.125 0  0.675 -1.125 0  -0.675 -0.9750000000000001 0  -0.525 -0.9750000000000001 0  -0.375 -0.9750000000000001 0  -0.225 -0.9750000000000001 0  -0.07499999999999996 -0.9750000000000001 0  0.07499999999999996 -0.9750000000000001 0  0.225 -0.9750000000000001 0  0.375 -0.9750000000000001 0  0.5249999999999999 -0.9750000000000001 0  0.675 -0.9750000000000001 0  -0.675 -0.8250000000000002 0  -0.525 -0.8250000000000002 0  -0.375 -0.8250000000000002 0  -0.225 -0.8250000000000002 0  -0.07499999999999996 -0.8250000000000002 0  0.07499999999999996 -0.8250000000000002 0  0.225 -0.8250000000000002 0  0.375 -0.8250000000000002 0  0.5249999999999999 -0.8250000000000002 0  0.675 -0.8250000000000002 0  -0.675 -0.6749999999999998 0  -0.525 -0.6749999999999998 0  -0.375 -0.6749999999999998 0  -0.225 -0.6749999999999998 0  -0.07499999999999996 -0.6749999999999998 0  0.07499999999999996 -0.6749999999999998 0  0.225 -0.6749999999999998 0  0.375 -0.6749999999999998 0  0.5249999999999999 -0.6749999999999998 0  0.675 -0.6749999999999998 0  -0.675 -0.5249999999999999 0  -0.525 -0.5249999999999999 0  -0.375 -0.5249999999999999 0  -0.225 -0.5249999999999999 0  -0.07499999999999996 -0.5249999999999999 0  0.07499999999999996 -0.5249999999999999 0  0.225 -0.5249999999999999 0  0.375 -0.5249999999999999 0  0.5249999999999999 -0.5249999999999999 0  0.675 -0.5249999999999999 0  -0.675 -0.375 0  -0.525 -0.375 0  -0.375 -0.375 0  -0.225 -0.375 0  -0.07499999999999996 -0.375 0  0.07499999999999996 -0.375 0  0.225 -0.375 0  0.375 -0.375 0  0.5249999999999999 -0.375 0  0.675 -0.375 0  -0.675 -0.2250000000000001 0  -0.525 -0.2250000000000001 0  -0.375 -0.2250000000000001 0  -0.225 -0.2250000000000001 0  -0.07499999999999996 -0.2250000000000001 0  0.07499999999999996 -0.2250000000000001 0  0.225 -0.2250000000000001 0  0.375 -0.2250000000000001 0  0.5249999999999999 -0.2250000000000001 0  0.675 -0.2250000000000001 0  -0.675 -0.07500000000000018 0  -0.525 -0.07500000000000018 0  -0.375 -0.07500000000000018 0  -0.225 -0.07500000000000018 0  -0.07499999999999996 -0.07500000000000018 0  0.07499999999999996 -0.07500000000000018 0  0.225 -0.07500000000000018 0  0.375 -0.07500000000000018 0  0.5249999999999999 -0.07500000000000018 0  0.675 -0.07500000000000018 0  </DataArray>
</Points>
<Cells>
[...]
<PointData  Vectors="flow"> 
<DataArray  type="Float64"  Name="flow"  NumberOfComponents="3" format="ascii">-6.5666264988760078e-314 -3.0855607824802445e-310 0.0000000000000000e+00  -2.9630142461380322e-314 -1.3944914325540041e-310 0.0000000000000000e+00  2.7327297891303765e-315 1.2864076215825190e-311 0.0000000000000000e+00  -3.5697889632827652e-316 -1.6803871652090710e-312 0.0000000000000000e+00  5.1307072082012802e-317 2.4137175353390902e-313 0.0000000000000000e+00  -7.7219150205159699e-318 -3.6448279337083549e-314 0.0000000000000000e+00  1.2068393311270377e-318 5.5038069724877108e-315 0.0000000000000000e+00  -1.9433084047873750e-319 -9.9711670054174471e-316 0.0000000000000000e+00  2.4044692786155946e-319 2.7779666027052642e-317 0.0000000000000000e+00  4.7799220818509327e-318 -1.3645632174887660e-316 0.0000000000000000e+00  1.1490781164717376e-316 -1.0586311491042118e-316 0.0000000000000000e+00  1.3170424520682528e-314 6.2928875377001304e-311 0.0000000000000000e+00  4.7192182122090021e-315 2.2252832942993318e-311 0.0000000000000000e+00  -1.6439616039985145e-315 -7.7366636026993293e-312 0.0000000000000000e+00  2.6411366042864685e-316 1.2431879903577710e-312 0.0000000000000000e+00  -4.1439919086597682e-317 -1.9512169959410990e-313 0.0000000000000000e+00  6.5493342012715642e-318 3.0748879349433639e-314 0.0000000000000000e+00  -1.0461000139090465e-318 -4.9700662100468115e-315 0.0000000000000000e+00  1.8708783811070483e-319 7.3032026365617990e-316 0.0000000000000000e+00  3.0928509429662034e-319 -1.8691524615864311e-316 0.0000000000000000e+00  8.3062316378830369e-318 -3.7700173171562159e-317 0.0000000000000000e+00  1.9860846084043102e-316 -6.5858293483329195e-317 0.0000000000000000e+00  -1.2102052373304910e-315 -3.0055326489343372e-312 0.0000000000000000e+00  8.4531998633544950e-317 5.1015084225977084e-313 0.0000000000000000e+00  2.9581356937313019e-316 1.3969379710299279e-312 0.0000000000000000e+00  -1.0436478178890427e-316 -4.9124131101463742e-313 0.0000000000000000e+00  2.1699032141364835e-317 1.0194016714662116e-313 0.0000000000000000e+00  -3.9739330311642736e-318 -1.8943491672389950e-314 0.0000000000000000e+00  7.0388050366064871e-319 3.0755533736813186e-315 0.0000000000000000e+00  -9.0908078834789364e-320 -7.6614199924225363e-316 0.0000000000000000e+00  1.0312780445338091e-318 -1.0879655063210025e-316 0.0000000000000000e+00  2.3890707346316604e-317 -2.2068858557705904e-316 0.0000000000000000e+00  5.7170114516615666e-316 -1.9874679922126656e-316 0.0000000000000000e+00  -1.7204149722152461e-315 2.6915209182126399e-313 0.0000000000000000e+00  -9.7288111561200508e-317 -1.0869436402270220e-313 0.0000000000000000e+00  -2.4124568379119100e-317 -9.9519621960021183e-314 0.0000000000000000e+00  2.1022493230545040e-317 9.8922475119879585e-314 0.0000000000000000e+00  -7.2940541712174503e-318 -3.4941650522348977e-314 0.0000000000000000e+00  1.7440517298196003e-318 7.5020574533552158e-315 0.0000000000000000e+00  -3.5539624102298388e-319 -2.3179129299893749e-315 0.0000000000000000e+00  2.0223589081219745e-319 -3.2784285706172653e-316 0.0000000000000000e+00  3.0895555251084423e-318 -7.0522205493077083e-316 0.0000000000000000e+00  7.4322626127881431e-317 -6.3593231249541105e-316 0.0000000000000000e+00  1.7778431866252492e-315 -6.5039921665360817e-316 0.0000000000000000e+00  -5.5804629076192373e-315 -3.1687558291468608e-314 0.0000000000000000e+00  -2.2969441416945328e-316 1.3716619032816484e-314 0.0000000000000000e+00  -8.3398281018002417e-318 4.5346833743320221e-315 0.0000000000000000e+00  -3.1880425709504363e-318 -1.5079294573692184e-314 0.0000000000000000e+00  1.6014297998346077e-318 5.5480854666919860e-315 0.0000000000000000e+00  -5.5005810548443502e-319 -4.5814424091024031e-315 0.0000000000000000e+00  1.6765129560331019e-319 -1.3799190890228688e-315 0.0000000000000000e+00  3.7647802213102987e-319 -2.1759629292827263e-315 0.0000000000000000e+00  9.7462699538471430e-318 -2.0019335772155884e-315 0.0000000000000000e+00  2.3304681261814926e-316 -2.0374206623771080e-315 0.0000000000000000e+00  5.5740887987399198e-315 -2.0293258908356450e-315 0.0000000000000000e+00  -1.7491066799660622e-314 -2.7588513659093295e-315 0.0000000000000000e+00  -7.3164501669434340e-316 -8.6009157731897740e-315 0.0000000000000000e+00  -3.0709475306891234e-317 -6.6964000886992357e-315 0.0000000000000000e+00  -8.8273226745517996e-319 -4.8050120545020256e-315 0.0000000000000000e+00  -3.5276287113065003e-319 -7.6540086618889656e-315 0.0000000000000000e+00  1.3207856910274044e-319 -5.7776507617455551e-315 0.0000000000000000e+00  2.9974962733188428e-320 -6.5734604148892839e-315 0.0000000000000000e+00  1.2641509460446223e-318 -6.3234223536866715e-315 0.0000000000000000e+00  3.0613952654924287e-317 -6.3884084582634278e-315 0.0000000000000000e+00  7.3115819899152665e-316 -6.3732923518465952e-315 0.0000000000000000e+00  1.7491893539468434e-314 -6.3771556191137475e-315 0.0000000000000000e+00  -5.4894077271612521e-314 -2.0480559871564802e-314 0.0000000000000000e+00  -2.2950396668495085e-315 -1.9693271205573234e-314 0.0000000000000000e+00  -9.5604997888138967e-317 -2.0021486588131924e-314 0.0000000000000000e+00  -4.2598339984432277e-318 -2.0194743221528967e-314 0.0000000000000000e+00  9.8813129168249309e-322 -1.9816468776709658e-314 0.0000000000000000e+00  -2.9643938750474793e-320 -2.0125677127789510e-314 0.0000000000000000e+00  6.5873772560013402e-320 -1.9961842326258660e-314 0.0000000000000000e+00  4.2311781909844354e-318 -2.0025841282734369e-314 0.0000000000000000e+00  9.5621134072132143e-317 -2.0005835907626948e-314 0.0000000000000000e+00  2.2950930259392594e-315 -2.0011251524212677e-314 0.0000000000000000e+00  5.4893776879699849e-314 -2.0009683690876760e-314 0.0000000000000000e+00  -1.7227667889179844e-313 -6.2733870757462445e-314 0.0000000000000000e+00  -7.1991886265594726e-315 -6.2843567821784594e-314 0.0000000000000000e+00  -3.0296698281760248e-316 -6.2790212027451597e-314 0.0000000000000000e+00  -1.1241969705471724e-317 -6.2776358095718226e-314 0.0000000000000000e+00  -1.2111179396200229e-318 -6.2825809126210476e-314 0.0000000000000000e+00  2.4372258309348692e-320 -6.2777724681294623e-314 0.0000000000000000e+00  1.2140823334950704e-318 -6.2807920985437148e-314 0.0000000000000000e+00  1.1237029049013311e-317 -6.2793839788447346e-314 0.0000000000000000e+00  3.0294557495316817e-316 -6.2799078198507881e-314 0.0000000000000000e+00  7.1991682068263300e-315 -6.2797437243456380e-314 0.0000000000000000e+00  1.7227682381607433e-313 -6.2797974786879055e-314 0.0000000000000000e+00  -5.4063264980977186e-313 -1.9708686117952015e-313 0.0000000000000000e+00  -2.2614417207353663e-314 -1.9707118777199546e-313 0.0000000000000000e+00  -9.3327287573817341e-316 -1.9707969064176039e-313 0.0000000000000000e+00  -4.7434254525926398e-317 -1.9708036289712206e-313 0.0000000000000000e+00  2.3547168680793810e-318 -1.9707396178261454e-313 0.0000000000000000e+00  3.6215011840163372e-321 -1.9708120116348139e-313 0.0000000000000000e+00  -2.3507643429126511e-318 -1.9707601314317607e-313 0.0000000000000000e+00  4.7409882267617050e-317 -1.9707882141230703e-313 0.0000000000000000e+00  9.3324817245588134e-316 -1.9707762643549206e-313 0.0000000000000000e+00  2.2614457389712639e-314 -1.9707807240878794e-313 0.0000000000000000e+00  5.4063249829960091e-313 -1.9707787643270886e-313 0.0000000000000000e+00  -1.6968024396376388e-312 -6.1848711705265624e-313 0.0000000000000000e+00  -7.0840993282964150e-314 -6.1848937888518290e-313 0.0000000000000000e+00  -3.0339553535880517e-315 -6.1848803305036362e-313 0.0000000000000000e+00  -7.7166136961360933e-317 -6.1848809464552769e-313 0.0000000000000000e+00  -2.8326428714679316e-317 -6.1848889272458739e-313 0.0000000000000000e+00  8.2360743161735799e-321 -6.1848784991999134e-313 0.0000000000000000e+00  2.8306008981536697e-317 -6.1848871453487156e-313 0.0000000000000000e+00  7.7172065749111028e-317 -6.1848820333996978e-313 0.0000000000000000e+00  3.0339211000168256e-315 -6.1848844806550613e-313 0.0000000000000000e+00  7.0840981425388650e-314 -6.1848832982077511e-313 0.0000000000000000e+00  1.6968026846941991e-312 -6.1848843061016686e-313 0.0000000000000000e+00  -5.3242134979140408e-312 -1.9409983033662704e-312 0.0000000000000000e+00  -2.2311043608509533e-313 -1.9409980135127779e-312 0.0000000000000000e+00  -8.8910209130315109e-315 -1.9409982117961436e-312 0.0000000000000000e+00  -6.6256410098551134e-316 -1.9409981788617276e-312 0.0000000000000000e+00  1.1628394751250476e-316 -1.9409980461211106e-312 0.0000000000000000e+00  -1.6798231958602383e-320 -1.9409982035650099e-312 0.0000000000000000e+00  -1.1629350274209533e-316 -1.9409980546832682e-312 0.0000000000000000e+00  6.6256640333142096e-316 -1.9409981478986336e-312 0.0000000000000000e+00  8.8910360610842124e-315 -1.9409980688481303e-312 0.0000000000000000e+00  2.2311040512200130e-313 -1.9409981235263753e-312 0.0000000000000000e+00  5.3242135730120190e-312 -1.9409980556713995e-312 0.0000000000000000e+00  -1.6714183990484304e-311 -6.0914219131495605e-312 0.0000000000000000e+00  -6.9535620033987298e-313 -6.0914219203925628e-312 0.0000000000000000e+00  -3.1674243879420495e-314 -6.0914218508972891e-312 0.0000000000000000e+00  3.6278614392949453e-316 -6.0914218317917706e-312 0.0000000000000000e+00  -7.9411994863495174e-316 -6.0914218818554425e-312 0.0000000000000000e+00  -3.6215011840163372e-321 -6.0914218456256087e-312 0.0000000000000000e+00  7.9408404488446846e-316 -6.0914218838317050e-312 0.0000000000000000e+00  -3.6274991409568499e-316 -6.0914218703288909e-312 0.0000000000000000e+00  3.1674277806908395e-314 -6.0914219029372236e-312 0.0000000000000000e+00  6.9535619770650308e-313 -6.0914218584713154e-312 0.0000000000000000e+00  1.6714183906162121e-311 -6.0914218815293591e-312 0.0000000000000000e+00  -5.2421587364560065e-311 -1.9116670229250088e-311 0.0000000000000000e+00  -2.2118445561634963e-312 -1.9116670262846552e-311 0.0000000000000000e+00  -7.6907978768227256e-314 -1.9116670250988976e-311 0.0000000000000000e+00  -1.2846967647400597e-314 -1.9116670282283094e-311 0.0000000000000000e+00  3.8836553800935776e-315 -1.9116670271413650e-311 0.0000000000000000e+00  -2.0419733142618720e-320 -1.9116670286892727e-311 0.0000000000000000e+00  -3.8836066306363025e-315 -1.9116670265153838e-311 0.0000000000000000e+00  1.2846925814862364e-314 -1.9116670268775339e-311 0.0000000000000000e+00  7.6907988649540173e-314 -1.9116670242426818e-311 0.0000000000000000e+00  2.2118446138061352e-312 -1.9116670288868989e-311 0.0000000000000000e+00  5.2421587158371649e-311 -1.9116670259556074e-311 0.0000000000000000e+00  -1.6471663411069258e-310 -5.9993723675745307e-311 0.0000000000000000e+00  -6.7590068953228767e-312 -5.9993723615469299e-311 0.0000000000000000e+00  -3.7487252715906128e-313 -5.9993723701436721e-311 0.0000000000000000e+00  3.8099536645432538e-314 -5.9993723709010747e-311 0.0000000000000000e+00  -2.1498758022190610e-314 -5.9993723681674095e-311 0.0000000000000000e+00  1.7455339267571240e-320 -5.9993723666190078e-311 0.0000000000000000e+00  2.1498729366383151e-314 -5.9993723646101369e-311 0.0000000000000000e+00  -3.8099512599257555e-314 -5.9993723650711001e-311 0.0000000000000000e+00  3.7487253737139818e-313 -5.9993723646101369e-311 0.0000000000000000e+00  6.7590069048781063e-312 -5.9993723659273159e-311 0.0000000000000000e+00  1.6471663396444915e-310 -5.9993723640172581e-311 0.0000000000000000e+00  -5.1565402002615576e-310 -1.8827791803289461e-310 0.0000000000000000e+00  -2.2341993139775318e-311 -1.8827791810238988e-310 0.0000000000000000e+00  -3.9036654636466035e-313 -1.8827791806352668e-310 0.0000000000000000e+00  -3.0610979235952087e-313 -1.8827791804442116e-310 0.0000000000000000e+00  9.9520962528100670e-314 -1.8827791808065099e-310 0.0000000000000000e+00  7.9050503334599447e-321 -1.8827791808526557e-310 0.0000000000000000e+00  -9.9520935517531812e-314 -1.8827791809086333e-310 0.0000000000000000e+00  3.0610982529887748e-313 -1.8827791805298332e-310 0.0000000000000000e+00  3.9036650552025341e-313 -1.8827791804409013e-310 0.0000000000000000e+00  2.2341993104859699e-311 -1.8827791806023126e-310 0.0000000000000000e+00  5.1565402016976088e-310 -1.8827791805858602e-310 0.0000000000000000e+00  -1.6264259467180044e-309 -5.9087138239522932e-310 0.0000000000000000e+00  -6.3061279288331831e-311 -5.9087138232507199e-310 0.0000000000000000e+00  -5.7876987348622978e-312 -5.9087138234714191e-310 0.0000000000000000e+00  1.2305747687938598e-312 -5.9087138234779901e-310 0.0000000000000000e+00  -4.3134771825115141e-313 -5.9087138228455861e-310 0.0000000000000000e+00  1.9105518524681004e-320 -5.9087138228323946e-310 0.0000000000000000e+00  4.3134774789509016e-313 -5.9087138227368917e-310 0.0000000000000000e+00  -1.2305747836158291e-312 -5.9087138234022499e-310 0.0000000000000000e+00  5.7876987678016544e-312 -5.9087138234351547e-310 0.0000000000000000e+00  6.3061279218174510e-311 -5.9087138238270969e-310 0.0000000000000000e+00  1.6264259468062791e-309 -5.9087138239588642e-310 0.0000000000000000e+00  -5.0510031051965321e-309 -1.8543278685454127e-309 0.0000000000000000e+00  -2.4232291701712725e-310 -1.8543278686010741e-309 0.0000000000000000e+00  7.5745614669875084e-312 -1.8543278685724183e-309 0.0000000000000000e+00  -6.3775644086980926e-312 -1.8543278685720922e-309 0.0000000000000000e+00  1.3669355280344938e-312 -1.8543278685836188e-309 0.0000000000000000e+00  -1.0869444208507424e-320 -1.8543278685697849e-309 0.0000000000000000e+00  -1.3669355006978416e-312 -1.8543278686096412e-309 0.0000000000000000e+00  6.3775644917011211e-312 -1.8543278685536438e-309 0.0000000000000000e+00  -7.5745615852371801e-312 -1.8543278686662908e-309 0.0000000000000000e+00  2.4232291696112985e-310 -1.8543278685282834e-309 0.0000000000000000e+00  5.0510031053862533e-309 -1.8543278686481783e-309 0.0000000000000000e+00  -1.6209971047366275e-308 -5.8194252536007829e-309 0.0000000000000000e+00  -4.7817764914858893e-310 -5.8194252535968304e-309 0.0000000000000000e+00  -1.1219192715436438e-310 -5.8194252535665294e-309 0.0000000000000000e+00  1.8735860960215057e-311 -5.8194252536024331e-309 0.0000000000000000e+00  -2.3449668738586955e-312 -5.8194252535579672e-309 0.0000000000000000e+00  2.2727019708697341e-320 -5.8194252536208766e-309 0.0000000000000000e+00  2.3449668471791507e-312 -5.8194252536169241e-309 0.0000000000000000e+00  -1.8735860962522344e-311 -5.8194252536623781e-309 0.0000000000000000e+00  1.1219192715963606e-310 -5.8194252535912326e-309 0.0000000000000000e+00  4.7817764915879633e-310 -5.8194252536528229e-309 0.0000000000000000e+00  1.6209971047196983e-308 -5.8194252535961782e-309 0.0000000000000000e+00  -4.8316514689490586e-308 -1.8263064939293765e-308 0.0000000000000000e+00  -3.3014713531347045e-309 -1.8263064939308908e-308 0.0000000000000000e+00  2.3905456825919321e-310 -1.8263064939329333e-308 0.0000000000000000e+00  -1.6827443787870029e-311 -1.8263064939273997e-308 0.0000000000000000e+00  1.1242357276898021e-312 -1.8263064939368858e-308 0.0000000000000000e+00  -6.5710730896885790e-322 -1.8263064939332964e-308 0.0000000000000000e+00  -1.1242357405355089e-312 -1.8263064939310558e-308 0.0000000000000000e+00  1.6827443800384711e-311 -1.8263064939305617e-308 0.0000000000000000e+00  -2.3905456829344678e-310 -1.8263064939301670e-308 0.0000000000000000e+00  3.3014713530329269e-309 -1.8263064939379722e-308 0.0000000000000000e+00  4.8316514690020244e-308 -1.8263064939263474e-308 0.0000000000000000e+00  -1.7225115570528464e-307 -5.7314859533843939e-308 0.0000000000000000e+00  5.4877214537243067e-310 -5.7314859533824839e-308 0.0000000000000000e+00  1.1838954377359444e-310 -5.7314859533836034e-308 0.0000000000000000e+00  -2.0004808124271769e-311 -5.7314859533885767e-308 0.0000000000000000e+00  2.7986370669152043e-312 -5.7314859533876538e-308 0.0000000000000000e+00  -3.6215011840163372e-321 -5.7314859533864048e-308 0.0000000000000000e+00  -2.7986370580220227e-312 -5.7314859533895302e-308 0.0000000000000000e+00  2.0004808032706583e-311 -5.7314859533849542e-308 0.0000000000000000e+00  -1.1838954369652020e-310 -5.7314859533868317e-308 0.0000000000000000e+00  -5.4877214542447061e-310 -5.7314859533791529e-308 0.0000000000000000e+00  1.7225115570548831e-307 -5.7314859533927634e-308 0.0000000000000000e+00  -2.7265870543944179e-307 3.0632873246379928e-307 0.0000000000000000e+00  7.1371927740086168e-309 3.0632873246377359e-307 0.0000000000000000e+00  -4.9230384888473944e-310 3.0632873246379201e-307 0.0000000000000000e+00  4.7049359641635176e-311 3.0632873246380189e-307 0.0000000000000000e+00  -5.1893886952199378e-312 3.0632873246380189e-307 0.0000000000000000e+00  6.5710730896885790e-322 3.0632873246376707e-307 0.0000000000000000e+00  5.1893886840194697e-312 3.0632873246382233e-307 0.0000000000000000e+00  -4.7049359611334130e-311 3.0632873246379671e-307 0.0000000000000000e+00  4.9230384875496816e-310 3.0632873246391924e-307 0.0000000000000000e+00  -7.1371927740402320e-309 3.0632873246389663e-307 0.0000000000000000e+00  2.7265870543972522e-307 3.0632873246405244e-307 0.0000000000000000e+00  -2.0635268292485672e-314 -9.7516160183084763e-311 0.0000000000000000e+00  5.9555470025810294e-315 2.8017247862962287e-311 0.0000000000000000e+00  -2.4897351277748769e-316 -1.1725299397070896e-312 0.0000000000000000e+00  2.0734289917356466e-317 9.7760715983517703e-314 0.0000000000000000e+00  -2.1626883735102637e-318 -1.0114222710217519e-314 0.0000000000000000e+00  2.4044692786155946e-319 1.3148318689710347e-315 0.0000000000000000e+00  -3.8206096392903595e-320 -4.3316380409502736e-317 0.0000000000000000e+00  -1.3504296297778792e-319 1.2992938354333102e-316 0.0000000000000000e+00  -3.4057575384468400e-318 1.0674519007056739e-316 0.0000000000000000e+00  -8.1645336106557674e-317 1.0990259563081922e-316 0.0000000000000000e+00  -4.1909895721964340e-315 -2.0671477207555765e-311 0.0000000000000000e+00  -8.6389749690441996e-316 -4.1057101233861843e-312 0.0000000000000000e+00  2.9709484957511613e-316 1.3970491502911875e-312 0.0000000000000000e+00  -3.4988409883202684e-317 -1.6458686661171063e-313 0.0000000000000000e+00  4.2726797052351001e-318 2.0448453509635454e-314 0.0000000000000000e+00  -5.6125857367565607e-319 -2.3732983459954876e-315 0.0000000000000000e+00  7.9707610643568305e-320 5.8701454681734297e-316 0.0000000000000000e+00  -3.7219447298158626e-319 1.8729303839539207e-316 0.0000000000000000e+00  -8.3786962461585725e-318 2.4294525479091551e-316 0.0000000000000000e+00  -2.0062952035590443e-316 2.3515548479459971e-316 0.0000000000000000e+00  7.3586269207122700e-316 5.8406855227797060e-313 0.0000000000000000e+00  -6.4752243543953772e-317 -4.2438118250384869e-313 0.0000000000000000e+00  -4.7073917628445002e-317 -2.2593735092250704e-313 0.0000000000000000e+00  1.7234328882217076e-317 8.1667612538397364e-314 0.0000000000000000e+00  -3.0441014856910476e-318 -1.3551735823985159e-314 0.0000000000000000e+00  4.5981207461507292e-319 3.0084882458075188e-315 0.0000000000000000e+00  -1.0144649906058315e-319 4.2160532111486036e-316 0.0000000000000000e+00  -1.0421474887423166e-318 8.1454429141004616e-316 0.0000000000000000e+00  -2.5602481767493396e-317 7.5518724471867880e-316 0.0000000000000000e+00  -6.1192665089527656e-316 7.6398161321465299e-316 0.0000000000000000e+00  1.9069649358792929e-315 -3.4559308929133103e-314 0.0000000000000000e+00  8.9882398554022936e-317 4.8553087919822318e-314 0.0000000000000000e+00  3.6653099848330805e-318 3.8478833820960707e-315 0.0000000000000000e+00  -3.0276342777151588e-318 -1.2549959753379149e-314 0.0000000000000000e+00  1.1139549897088833e-318 7.6806845852632089e-315 0.0000000000000000e+00  -2.5954750572978205e-319 1.2567330444379618e-315 0.0000000000000000e+00  -9.5517711310488194e-320 2.6128589200884079e-315 0.0000000000000000e+00  -3.3563509738627154e-318 2.3651370435741556e-315 0.0000000000000000e+00  -8.0053787619639891e-317 2.4075502719830606e-315 0.0000000000000000e+00  -1.9148383660114190e-315 2.4006768307181171e-315 0.0000000000000000e+00  6.0082354822088143e-315 1.06678