<?xml version="1.0"?>
<VTKFile type="UnstructuredGrid"  version="0.1"  >
<UnstructuredGrid>
<Piece  NumberOfPoints="1876" NumberOfCells="3600">
<Points>
<DataArray  type="Float64"  NumberOfComponents="3"  format="ascii">-0.75 -3 0  -0.65 -3 0  -0.55 -3 0  -0.45 -3 0  -0.35 -3 0  -0.25 -3 0  -0.15 -3 0  -0.05000000000000004 -3 0  0.05000000000000004 -3 0  0.15 -3 0  0.25 -3 0  0.3500000000000001 -3 0  0.45 -3 0  0.55 -3 0  0.6499999999999999 -3 0  0.75 -3 0  -0.75 -2.95 0  -0.65 -2.95 0  -0.55 -2.95 0  -0.45 -2.95 0  -0.35 -2.95 0  -0.25 -2.95 0  -0.15 -2.95 0  -0.05000000000000004 -2.95 0  0.05000000000000004 -2.95 0  0.15 -2.95 0  0.25 -2.95 0  0.3500000000000001 -2.95 0  0.45 -2.95 0  0.55 -2.95 0  0.6499999999999999 -2.95 0  0.75 -2.95 0  -0.75 -2.9 0  -0.65 -2.9 0  -0.55 -2.9 0  -0.45 -2.9 0  -0.35 -2.9 0  -0.25 -2.9 0  -0.15 -2.9 0  -0.05000000000000004 -2.9 0  0.05000000000000004 -2.9 0  0.15 -2.9 0  0.25 -2.9 0  0.3500000000000001 -2.9 0  0.45 -2.9 0  0.55 -2.9 0  0.6499999999999999 -2.9 0  0.75 -2.9 0  -0.75 -2.85 0  -0.65 -2.85 0  -0.55 -2.85 0  -0.45 -2.85 0  -0.35 -2.85 0  -0.25 -2.85 0  -0.15 -2.85 0  -0.05000000000000004 -2.85 0  0.05000000000000004 -2.85 0  0.15 -2.85 0  0.25 -2.85 0  0.3500000000000001 -2.85 0  0.45 -2.85 0  0.55 -2.85 0  0.6499999999999999 -2.85 0  0.75 -2.85 0  -0.75 -2.8 0  -0.65 -2.8 0  -0.55 -2.8 0  -0.45 -2.8 0  -0.35 -2.8 0  -0.25 -2.8 0  -0.15 -2.8 0  -0.05000000000000004 -2.8 0  0.05000000000000004 -2.8 0  0.15 -2.8 0  0.25 -2.8 0  0.3500000000000001 -2.8 0  0.45 -2.8 0  0.55 -2.8 0  0.6499999999999999 -2.8 0  0.75 -2.8 0  -0.75 -2.75 0  -0.65 -2.75 0  -0.55 -2.75 0  -0.45 -2.75 0  -0.35 -2.75 0  -0.25 -2.75 0  -0.15 -2.75 0  -0.05000000000000004 -2.75 0  0.05000000000000004 -2.75 0  0.15 -2.75 0  0.25 -2.75 0  0.3500000000000001 -2.75 0  0.45 -2.75 0  0.55 -2.75 0  0.6499999999999999 -2.75 0  0.75 -2.75 0  -0.75 -2.7 0  -0.65 -2.7 0  -0.55 -2.7 0  -0.45 -2.7 0  -0.35 -2.7 0  -0.25 -2.7 0  -0.15 -2.7 0  -0.05000000000000004 -2.7 0  0.05000000000000004 -2.7 0  0.15 -2.7 0  0.25 -2.7 0  0.3500000000000001 -2.7 0  0.45 -2.7 0  0.55 -2.7 0  0.6499999999999999 -2.7 0  0.75 -2.7 0  -0.75 -2.65 0  -0.65 -2.65 0  -0.55 -2.65 0  -0.45 -2.65 0  -0.35 -2.65 0  -0.25 -2.65 0  -0.15 -2.65 0  -0.05000000000000004 -2.65 0  0.05000000000000004 -2.65 0  0.15 -2.65 0  0.25 -2.65 0  0.3500000000000001 -2.65 0  0.45 -2.65 0  0.55 -2.65 0  0.6499999999999999 -2.65 0  0.75 -2.65 0  -0.75 -2.6 0  -0.65 -2.6 0  -0.55 -2.6 0  -0.45 -2.6 0  -0.35 -2.6 0  -0.25 -2.6 0  -0.15 -2.6 0  -0.05000000000000004 -2.6 0  0.05000000000000004 -2.6 0  0.15 -2.6 0  0.25 -2.6 0  0.3500000000000001 -2.6 0  0.45 -2.6 0  0.55 -2.6 0  0.6499999999999999 -2.6 0  0.75 -2.6 0  -0.75 -2.55 0  -0.65 -2.55 0  -0.55 -2.55 0  -0.45 -2.55 0  -0.35 -2.55 0  -0.25 -2.55 0  -0.15 -2.55 0  -0.05000000000000004 -2.55 0  0.05000000000000004 -2.55 0  0.15 -2.55 0  0.25 -2.55 0  0.3500000000000001 -2.55 0  0.45 -2.55 0  0.55 -2.55 0  0.6499999999999999 -2.55 0  0.75 -2.55 0  -0.75 -2.5 0  -0.65 -2.5 0  -0.55 -2.5 0  -0.45 -2.5 0  -0.35 -2.5 0  -0.25 -2.5 0  -0.15 -2.5 0  -0.05000000000000004 -2.5 0  0.05000000000000004 -2.5 0  0.15 -2.5 0  0.25 -2.5 0  0.3500000000000001 -2.5 0  0.45 -2.5 0  0.55 -2.5 0  0.6499999999999999 -2.5 0  0.75 -2.5 0  -0.75 -2.45 0  -0.65 -2.45 0  -0.55 -2.45 0  -0.45 -2.45 0  -0.35 -2.45 0  -0.25 -2.45 0  -0.15 -2.45 0  -0.05000000000000004 -2.45 0  0.05000000000000004 -2.45 0  0.15 -2.45 0  0.25 -2.45 0  0.3500000000000001 -2.45 0  0.45 -2.45 0  0.55 -2.45 0  0.6499999999999999 -2.45 0  0.75 -2.45 0  -0.75 -2.4 0  -0.65 -2.4 0  -0.55 -2.4 0  -0.45 -2.4 0  -0.35 -2.4 0  -0.25 -2.4 0  -0.15 -2.4 0  -0.05000000000000004 -2.4 0  0.05000000000000004 -2.4 0  0.15 -2.4 0  0.25 -2.4 0  0.3500000000000001 -2.4 0  0.45 -2.4 0  0.55 -2.4 0  0.6499999999999999 -2.4 0  0.75 -2.4 0  -0.75 -2.35 0  -0.65 -2.35 0  -0.55 -2.35 0  -0.45 -2.35 0  -0.35 -2.35 0  -0.25 -2.35 0  -0.15 -2.35 0  -0.05000000000000004 -2.35 0  0.05000000000000004 -2.35 0  0.15 -2.35 0  0.25 -2.35 0  0.3500000000000001 -2.35 0  0.45 -2.35 0  0.55 -2.35 0  0.6499999999999999 -2.35 0  0.75 -2.35 0  -0.75 -2.3 0  -0.65 -2.3 0  -0.55 -2.3 0  -0.45 -2.3 0  -0.35 -2.3 0  -0.25 -2.3 0  -0.15 -2.3 0  -0.05000000000000004 -2.3 0  0.05000000000000004 -2.3 0  0.15 -2.3 0  0.25 -2.3 0  0.3500000000000001 -2.3 0  0.45 -2.3 0  0.55 -2.3 0  0.6499999999999999 -2.3 0  0.75 -2.3 0  -0.75 -2.25 0  -0.65 -2.25 0  -0.55 -2.25 0  -0.45 -2.25 0  -0.35 -2.25 0  -0.25 -2.25 0  -0.15 -2.25 0  -0.05000000000000004 -2.25 0  0.05000000000000004 -2.25 0  0.15 -2.25 0  0.25 -2.25 0  0.3500000000000001 -2.25 0  0.45 -2.25 0  0.55 -2.25 0  0.6499999999999999 -2.25 0  0.75 -2.25 0  -0.75 -2.2 0  -0.65 -2.2 0  -0.55 -2.2 0  -0.45 -2.2 0  -0.35 -2.2 0  -0.25 -2.2 0  -0.15 -2.2 0  -0.05000000000000004 -2.2 0  0.05000000000000004 -2.2 0  0.15 -2.2 0  0.25 -2.2 0  0.3500000000000001 -2.2 0  0.45 -2.2 0  0.55 -2.2 0  0.6499999999999999 -2.2 0  0.75 -2.2 0  -0.75 -2.15 0  -0.65 -2.15 0  -0.55 -2.15 0  -0.45 -2.15 0  -0.35 -2.15 0  -0.25 -2.15 0  -0.15 -2.15 0  -0.05000000000000004 -2.15 0  0.05000000000000004 -2.15 0  0.15 -2.15 0  0.25 -2.15 0  0.3500000000000001 -2.15 0  0.45 -2.15 0  0.55 -2.15 0  0.6499999999999999 -2.15 0  0.75 -2.15 0  -0.75 -2.1 0  -0.65 -2.1 0  -0.55 -2.1 0  -0.45 -2.1 0  -0.35 -2.1 0  -0.25 -2.1 0  -0.15 -2.1 0  -0.05000000000000004 -2.1 0  0.05000000000000004 -2.1 0  0.15 -2.1 0  0.25 -2.1 0  0.3500000000000001 -2.1 0  0.45 -2.1 0  0.55 -2.1 0  0.6499999999999999 -2.1 0  0.75 -2.1 0  -0.75 -2.05 0  -0.65 -2.05 0  -0.55 -2.05 0  -0.45 -2.05 0  -0.35 -2.05 0  -0.25 -2.05 0  -0.15 -2.05 0  -0.05000000000000004 -2.05 0  0.05000000000000004 -2.05 0  0.15 -2.05 0  0.25 -2.05 0  0.3500000000000001 -2.05 0  0.45 -2.05 0  0.55 -2.05 0  0.6499999999999999 -2.05 0  0.75 -2.05 0  -0.75 -2 0  -0.65 -2 0  -0.55 -2 0  -0.45 -2 0  -0.35 -2 0  -0.25 -2 0  -0.15 -2 0  -0.05000000000000004 -2 0  0.05000000000000004 -2 0  0.15 -2 0  0.25 -2 0  0.3500000000000001 -2 0  0.45 -2 0  0.55 -2 0  0.6499999999999999 -2 0  0.75 -2 0  -0.75 -1.95 0  -0.65 -1.95 0  -0.55 -1.95 0  -0.45 -1.95 0  -0.35 -1.95 0  -0.25 -1.95 0  -0.15 -1.95 0  -0.05000000000000004 -1.95 0  0.05000000000000004 -1.95 0  0.15 -1.95 0  0.25 -1.95 0  0.3500000000000001 -1.95 0  0.45 -1.95 0  0.55 -1.95 0  0.6499999999999999 -1.95 0  0.75 -1.95 0  -0.75 -1.9 0  -0.65 -1.9 0  -0.55 -1.9 0  -0.45 -1.9 0  -0.35 -1.9 0  -0.25 -1.9 0  -0.15 -1.9 0  -0.05000000000000004 -1.9 0  0.05000000000000004 -1.9 0  0.15 -1.9 0  0.25 -1.9 0  0.3500000000000001 -1.9 0  0.45 -1.9 0  0.55 -1.9 0  0.6499999999999999 -1.9 0  0.75 -1.9 0  -0.75 -1.85 0  -0.65 -1.85 0  -0.55 -1.85 0  -0.45 -1.85 0  -0.35 -1.85 0  -0.25 -1.85 0  -0.15 -1.85 0  -0.05000000000000004 -1.85 0  0.05000000000000004 -1.85 0  0.15 -1.85 0  0.25 -1.85 0  0.3500000000000001 -1.85 0  0.45 -1.85 0  0.55 -1.85 0  0.6499999999999999 -1.85 0  0.75 -1.85 0  -0.75 -1.8 0  -0.65 -1.8 0  -0.55 -1.8 0  -0.45 -1.8 0  -0.35 -1.8 0  -0.25 -1.8 0  -0.15 -1.8 0  -0.05000000000000004 -1.8 0  0.05000000000000004 -1.8 0  0.15 -1.8 0  0.25 -1.8 0  0.3500000000000001 -1.8 0  0.45 -1.8 0  0.55 -1.8 0  0.6499999999999999 -1.8 0  0.75 -1.8 0  -0.75 -1.75 0  -0.65 -1.75 0  -0.55 -1.75 0  -0.45 -1.75 0  -0.35 -1.75 0  -0.25 -1.75 0  -0.15 -1.75 0  -0.05000000000000004 -1.75 0  0.05000000000000004 -1.75 0  0.15 -1.75 0  0.25 -1.75 0  0.3500000000000001 -1.75 0  0.45 -1.75 0  0.55 -1.75 0  0.6499999999999999 -1.75 0  0.75 -1.75 0  -0.75 -1.7 0  -0.65 -1.7 0  -0.55 -1.7 0  -0.45 -1.7 0  -0.35 -1.7 0  -0.25 -1.7 0  -0.15 -1.7 0  -0.05000000000000004 -1.7 0  0.05000000000000004 -1.7 0  0.15 -1.7 0  0.25 -1.7 0  0.3500000000000001 -1.7 0  0.45 -1.7 0  0.55 -1.7 0  0.6499999999999999 -1.7 0  0.75 -1.7 0  -0.75 -1.65 0  -0.65 -1.65 0  -0.55 -1.65 0  -0.45 -1.65 0  -0.35 -1.65 0  -0.25 -1.65 0  -0.15 -1.65 0  -0.05000000000000004 -1.65 0  0.05000000000000004 -1.65 0  0.15 -1.65 0  0.25 -1.65 0  0.3500000000000001 -1.65 0  0.45 -1.65 0  0.55 -1.65 0  0.6499999999999999 -1.65 0  0.75 -1.65 0  -0.75 -1.6 0  -0.65 -1.6 0  -0.55 -1.6 0  -0.45 -1.6 0  -0.35 -1.6 0  -0.25 -1.6 0  -0.15 -1.6 0  -0.05000000000000004 -1.6 0  0.05000000000000004 -1.6 0  0.15 -1.6 0  0.25 -1.6 0  0.3500000000000001 -1.6 0  0.45 -1.6 0  0.55 -1.6 0  0.6499999999999999 -1.6 0  0.75 -1.6 0  -0.75 -1.55 0  -0.65 -1.55 0  -0.55 -1.55 0  -0.45 -1.55 0  -0.35 -1.55 0  -0.25 -1.55 0  -0.15 -1.55 0  -0.05000000000000004 -1.55 0  0.05000000000000004 -1.55 0  0.15 -1.55 0  0.25 -1.55 0  0.3500000000000001 -1.55 0  0.45 -1.55 0  0.55 -1.55 0  0.6499999999999999 -1.55 0  0.75 -1.55 0  -0.75 -1.5 0  -0.65 -1.5 0  -0.55 -1.5 0  -0.45 -1.5 0  -0.35 -1.5 0  -0.25 -1.5 0  -0.15 -1.5 0  -0.05000000000000004 -1.5 0  0.05000000000000004 -1.5 0  0.15 -1.5 0  0.25 -1.5 0  0.3500000000000001 -1.5 0  0.45 -1.5 0  0.55 -1.5 0  0.6499999999999999 -1.5 0  0.75 -1.5 0  -0.75 -1.45 0  -0.65 -1.45 0  -0.55 -1.45 0  -0.45 -1.45 0  -0.35 -1.45 0  -0.25 -1.45 0  -0.15 -1.45 0  -0.05000000000000004 -1.45 0  0.05000000000000004 -1.45 0  0.15 -1.45 0  0.25 -1.45 0  0.3500000000000001 -1.45 0  0.45 -1.45 0  0.55 -1.45 0  0.6499999999999999 -1.45 0  0.75 -1.45 0  -0.75 -1.4 0  -0.65 -1.4 0  -0.55 -1.4 0  -0.45 -1.4 0  -0.35 -1.4 0  -0.25 -1.4 0  -0.15 -1.4 0  -0.05000000000000004 -1.4 0  0.05000000000000004 -1.4 0  0.15 -1.4 0  0.25 -1.4 0  0.3500000000000001 -1.4 0  0.45 -1.4 0  0.55 -1.4 0  0.6499999999999999 -1.4 0  0.75 -1.4 0  -0.75 -1.35 0  -0.65 -1.35 0  -0.55 -1.35 0  -0.45 -1.35 0  -0.35 -1.35 0  -0.25 -1.35 0  -0.15 -1.35 0  -0.05000000000000004 -1.35 0  0.05000000000000004 -1.35 0  0.15 -1.35 0  0.25 -1.35 0  0.3500000000000001 -1.35 0  0.45 -1.35 0  0.55 -1.35 0  0.6499999999999999 -1.35 0  0.75 -1.35 0  -0.75 -1.3 0  -0.65 -1.3 0  -0.55 -1.3 0  -0.45 -1.3 0  -0.35 -1.3 0  -0.25 -1.3 0  -0.15 -1.3 0  -0.05000000000000004 -1.3 0  0.05000000000000004 -1.3 0  0.15 -1.3 0  0.25 -1.3 0  0.3500000000000001 -1.3 0  0.45 -1.3 0  0.55 -1.3 0  0.6499999999999999 -1.
[...]
<PointData  Vectors="flow"> 
<DataArray  type="Float64"  Name="flow"  NumberOfComponents="3" format="ascii">-4.3855142100937532e-16 7.1934861988012065e-16 0.0000000000000000e+00  -1.9044935546203934e-17 7.1231664655843891e-16 0.0000000000000000e+00  -2.9022826617265316e-18 7.1403157737792545e-16 0.0000000000000000e+00  -1.2436087010236857e-18 7.1422584628951111e-16 0.0000000000000000e+00  -1.9184515556260141e-18 7.1672699340250535e-16 0.0000000000000000e+00  -7.5625987575843662e-19 7.1432498570380625e-16 0.0000000000000000e+00  -1.5368278650325778e-18 7.1401881039030849e-16 0.0000000000000000e+00  -7.5173454700164547e-19 7.1650673009479503e-16 0.0000000000000000e+00  2.2024130972094787e-18 7.1542575229472315e-16 0.0000000000000000e+00  1.3199527494219805e-18 7.1482449646800292e-16 0.0000000000000000e+00  1.7320790044781030e-18 7.1096856388194089e-16 0.0000000000000000e+00  2.3977572370427899e-18 7.1153238621330792e-16 0.0000000000000000e+00  1.9741890873577566e-18 7.1534542612942864e-16 0.0000000000000000e+00  3.9352615148693545e-18 7.1401845920290674e-16 0.0000000000000000e+00  2.0209026280485840e-17 7.1368881376147189e-16 0.0000000000000000e+00  4.4268019851952353e-16 7.1365771185748932e-16 0.0000000000000000e+00  -7.5013035255136131e-16 3.8429579145363107e-15 0.0000000000000000e+00  -2.9929315591019447e-17 3.8446979047108027e-15 0.0000000000000000e+00  -2.7759956599494968e-18 3.8451980640688039e-15 0.0000000000000000e+00  -1.2434141277169701e-18 3.8446335374336545e-15 0.0000000000000000e+00  -1.6774098032919540e-18 3.8460179715986413e-15 0.0000000000000000e+00  -1.5531265739456284e-18 3.8455525256122041e-15 0.0000000000000000e+00  -4.3667673719167940e-19 3.8431816307032095e-15 0.0000000000000000e+00  -1.1803465907783403e-19 3.8464713321926761e-15 0.0000000000000000e+00  8.0109806357926331e-19 3.8444137992806857e-15 0.0000000000000000e+00  1.0909658215242978e-18 3.8433729861509759e-15 0.0000000000000000e+00  1.5688873984886177e-18 3.8443757858151145e-15 0.0000000000000000e+00  3.2119530317404365e-18 3.8443902552910282e-15 0.0000000000000000e+00  2.9079290614691232e-18 3.8473448186465110e-15 0.0000000000000000e+00  3.2369059042547708e-18 3.8444111543235710e-15 0.0000000000000000e+00  3.1161611238709863e-17 3.8453356938677640e-15 0.0000000000000000e+00  7.5071358415419928e-16 3.8441453322685029e-15 0.0000000000000000e+00  -2.0607497048760024e-15 1.2988649987559755e-14 0.0000000000000000e+00  -7.5813806542560417e-17 1.2990379035827872e-14 0.0000000000000000e+00  -4.5459366087166789e-18 1.2991540021790611e-14 0.0000000000000000e+00  -1.3418857800150121e-18 1.2991300529290091e-14 0.0000000000000000e+00  -9.5846494150561729e-19 1.2990791641718128e-14 0.0000000000000000e+00  -2.6766891810236776e-18 1.2990783448548932e-14 0.0000000000000000e+00  -4.8672281849948018e-19 1.2990189931618169e-14 0.0000000000000000e+00  2.5709473489242030e-19 1.2992946213537164e-14 0.0000000000000000e+00  1.7792606209868377e-19 1.2991922573990463e-14 0.0000000000000000e+00  1.5103014935396377e-18 1.2991404984472513e-14 0.0000000000000000e+00  1.5353411363888043e-18 1.2988716183630604e-14 0.0000000000000000e+00  4.1603655815973389e-18 1.2991748254005876e-14 0.0000000000000000e+00  2.8247628307134320e-18 1.2992995422056441e-14 0.0000000000000000e+00  4.5211439974579796e-18 1.2992755385272266e-14 0.0000000000000000e+00  7.7462955252869256e-17 1.2991565135378114e-14 0.0000000000000000e+00  2.0625320187302097e-15 1.2988151526207654e-14 0.0000000000000000e+00  -5.9696842259992742e-15 3.9311701324519752e-14 0.0000000000000000e+00  -2.0855612369804522e-16 3.9309039801848062e-14 0.0000000000000000e+00  -7.1044712117567059e-18 3.9307293319711940e-14 0.0000000000000000e+00  -2.1430521780033156e-18 3.9310395884568669e-14 0.0000000000000000e+00  -1.3062052788572485e-18 3.9309932256391859e-14 0.0000000000000000e+00  -2.5631404070215593e-18 3.9308031039116772e-14 0.0000000000000000e+00  3.6989851495637936e-19 3.9310157975574836e-14 0.0000000000000000e+00  1.3221009909250383e-18 3.9309391311586774e-14 0.0000000000000000e+00  -1.5506178669349615e-18 3.9308314344800309e-14 0.0000000000000000e+00  1.4675521722569958e-19 3.9305141368469775e-14 0.0000000000000000e+00  2.2657978323905533e-18 3.9308305669515181e-14 0.0000000000000000e+00  4.6009376915912837e-18 3.9308107268946612e-14 0.0000000000000000e+00  3.3537479933688955e-18 3.9308110725494635e-14 0.0000000000000000e+00  8.3731294849891888e-18 3.9309275383864907e-14 0.0000000000000000e+00  2.0890171752479569e-16 3.9309629003839382e-14 0.0000000000000000e+00  5.9711909624349081e-15 3.9311117563229716e-14 0.0000000000000000e+00  -1.6980243767183062e-14 1.1499638743980464e-13 0.0000000000000000e+00  -5.6306377711634828e-16 1.1499622560844451e-13 0.0000000000000000e+00  -1.8173924131287605e-17 1.1499113625252427e-13 0.0000000000000000e+00  -1.3569229970542328e-18 1.1499145791264743e-13 0.0000000000000000e+00  -2.3279645845851474e-18 1.1499353018958797e-13 0.0000000000000000e+00  -2.0782412061049429e-18 1.1499254109325304e-13 0.0000000000000000e+00  3.7406330764349055e-19 1.1499588731591994e-13 0.0000000000000000e+00  -2.7269080396867997e-19 1.1498978966022132e-13 0.0000000000000000e+00  -1.3925320768921405e-18 1.1498815916682697e-13 0.0000000000000000e+00  2.0091461878991394e-18 1.1499574186440078e-13 0.0000000000000000e+00  2.4521765010001230e-18 1.1499330147997963e-13 0.0000000000000000e+00  4.5945188618851369e-18 1.1499466326934240e-13 0.0000000000000000e+00  4.9878877663509762e-18 1.1500026891349456e-13 0.0000000000000000e+00  1.8264159533733565e-17 1.1499616123028841e-13 0.0000000000000000e+00  5.6303541657509610e-16 1.1499813163317256e-13 0.0000000000000000e+00  1.6981176219837003e-14 1.1499782048907698e-13 0.0000000000000000e+00  -4.7065971513087068e-14 3.2750269571483114e-13 0.0000000000000000e+00  -1.4753262638663415e-15 3.2749937631473609e-13 0.0000000000000000e+00  -4.3827852485190671e-17 3.2749886386994410e-13 0.0000000000000000e+00  -6.0083888548552327e-19 3.2750147071274410e-13 0.0000000000000000e+00  -2.1560797234067224e-19 3.2750289562504358e-13 0.0000000000000000e+00  -1.1515035322227312e-18 3.2750278814219852e-13 0.0000000000000000e+00  -1.6985991433119334e-18 3.2750628019452376e-13 0.0000000000000000e+00  -3.6447401511270634e-18 3.2749783717337067e-13 0.0000000000000000e+00  9.8204714636107003e-19 3.2749453088470852e-13 0.0000000000000000e+00  2.7816161800093924e-18 3.2749730006027172e-13 0.0000000000000000e+00  2.3945606373334059e-18 3.2749923840133811e-13 0.0000000000000000e+00  6.5231605840925325e-18 3.2750667044779728e-13 0.0000000000000000e+00  4.1414072844485551e-18 3.2749904452674559e-13 0.0000000000000000e+00  4.2287041861352505e-17 3.2750004987457404e-13 0.0000000000000000e+00  1.4748410056304033e-15 3.2750331360016896e-13 0.0000000000000000e+00  4.7064401482507549e-14 3.2750484960241945e-13 0.0000000000000000e+00  -1.2697610337387969e-13 9.0848505333682091e-13 0.0000000000000000e+00  -3.7550380369722760e-15 9.0848628712142278e-13 0.0000000000000000e+00  -9.8898778019272314e-17 9.0849355135483231e-13 0.0000000000000000e+00  -1.5491386217235262e-18 9.0848727092085892e-13 0.0000000000000000e+00  -2.4347545983858364e-18 9.0848578241498765e-13 0.0000000000000000e+00  -3.5515794713943168e-19 9.0848126855172203e-13 0.0000000000000000e+00  -1.2488924519320276e-18 9.0848230883880481e-13 0.0000000000000000e+00  -5.8619843097313680e-18 9.0848530403317839e-13 0.0000000000000000e+00  2.5586390871506680e-19 9.0848479357373189e-13 0.0000000000000000e+00  2.7826907033244412e-18 9.0848192914332748e-13 0.0000000000000000e+00  6.6183242266445270e-18 9.0848184492840919e-13 0.0000000000000000e+00  5.5087899771899588e-18 9.0848525132993697e-13 0.0000000000000000e+00  4.4514676785801857e-18 9.0848708941819401e-13 0.0000000000000000e+00  1.0080655930257664e-16 9.0848770118318825e-13 0.0000000000000000e+00  3.7553727182481226e-15 9.0848549096520965e-13 0.0000000000000000e+00  1.2697685610908787e-13 9.0848723051661726e-13 0.0000000000000000e+00  -3.3339686798476406e-13 2.4544849147832926e-12 0.0000000000000000e+00  -9.2850751399569446e-15 2.4544863378812066e-12 0.0000000000000000e+00  -2.2676087830354925e-16 2.4544937759214276e-12 0.0000000000000000e+00  -8.2583112934099707e-18 2.4544818862365444e-12 0.0000000000000000e+00  -2.1086986769005536e-18 2.4544828569476567e-12 0.0000000000000000e+00  -2.5571484245256176e-18 2.4544860677058839e-12 0.0000000000000000e+00  2.1226340014919442e-19 2.4544793826461889e-12 0.0000000000000000e+00  -5.1079921659421717e-18 2.4544861234968773e-12 0.0000000000000000e+00  -7.4068438078648296e-19 2.4544839330440088e-12 0.0000000000000000e+00  2.2298493637438634e-18 2.4544826817933207e-12 0.0000000000000000e+00  6.2254206486731928e-18 2.4544863265614725e-12 0.0000000000000000e+00  8.8767838139153705e-18 2.4544872687331206e-12 0.0000000000000000e+00  6.1588001296464216e-18 2.4544898958908902e-12 0.0000000000000000e+00  2.2697089863603790e-16 2.4544881848463183e-12 0.0000000000000000e+00  9.2884000123042107e-15 2.4544865900700421e-12 0.0000000000000000e+00  3.3339856806510688e-13 2.4544829027393014e-12 0.0000000000000000e+00  -8.5184584131278106e-13 6.4581091804830186e-12 0.0000000000000000e+00  -2.2322107106485193e-14 6.4581050645147751e-12 0.0000000000000000e+00  -5.0726002071033935e-16 6.4580965788030842e-12 0.0000000000000000e+00  -1.4684067760327072e-17 6.4581023650130327e-12 0.0000000000000000e+00  -1.7158457397464032e-18 6.4580991537499813e-12 0.0000000000000000e+00  -2.4414918289160317e-18 6.4580954325668377e-12 0.0000000000000000e+00  -4.1141175816352985e-19 6.4580983393545849e-12 0.0000000000000000e+00  -1.4340830431010753e-18 6.4580945457455385e-12 0.0000000000000000e+00  -1.0341802705154448e-18 6.4581023098603534e-12 0.0000000000000000e+00  2.6092683336015826e-18 6.4581028115016376e-12 0.0000000000000000e+00  5.1348414355432458e-18 6.4580980120532802e-12 0.0000000000000000e+00  8.4449365416218239e-18 6.4580931963641840e-12 0.0000000000000000e+00  1.4389690846243765e-17 6.4581048926508106e-12 0.0000000000000000e+00  5.0561606396944536e-16 6.4581106488931671e-12 0.0000000000000000e+00  2.2324101217927173e-14 6.4581002086304526e-12 0.0000000000000000e+00  8.5184246077415494e-13 6.4581067897241562e-12 0.0000000000000000e+00  -2.1177875451555612e-12 1.6547117970522428e-11 0.0000000000000000e+00  -5.2107002352227002e-14 1.6547119296006571e-11 0.0000000000000000e+00  -1.0968752156473707e-15 1.6547111168194298e-11 0.0000000000000000e+00  -1.9861121417373354e-17 1.6547110850272855e-11 0.0000000000000000e+00  -5.3266641946080366e-18 1.6547118874760847e-11 0.0000000000000000e+00  -2.4264114497623029e-18 1.6547117602235227e-11 0.0000000000000000e+00  -8.3858435302285762e-19 1.6547116343575836e-11 0.0000000000000000e+00  -5.2021743004040655e-18 1.6547100611987069e-11 0.0000000000000000e+00  2.4173955152290752e-18 1.6547098095940403e-11 0.0000000000000000e+00  2.4769439300042159e-18 1.6547108396819857e-11 0.0000000000000000e+00  3.6746731252568863e-18 1.6547110925935899e-11 0.0000000000000000e+00  1.1944247749321109e-17 1.6547114083103752e-11 0.0000000000000000e+00  2.8497841797242697e-17 1.6547112715796992e-11 0.0000000000000000e+00  1.0904372677800998e-15 1.6547116682076466e-11 0.0000000000000000e+00  5.2102847132375466e-14 1.6547112637685632e-11 0.0000000000000000e+00  2.1177865172893136e-12 1.6547107077679052e-11 0.0000000000000000e+00  -5.1227879837073016e-12 4.1285516310379883e-11 0.0000000000000000e+00  -1.1808013778295460e-13 4.1285522303183111e-11 0.0000000000000000e+00  -2.3014936754132361e-15 4.1285523248795476e-11 0.0000000000000000e+00  -3.8032655025074444e-17 4.1285516810680948e-11 0.0000000000000000e+00  8.5378856568566602e-20 4.1285517149785210e-11 0.0000000000000000e+00  -4.5475257989267180e-18 4.1285529406942124e-11 0.0000000000000000e+00  -7.8789624039845499e-18 4.1285509963816024e-11 0.0000000000000000e+00  -9.6343199757565347e-18 4.1285502260378726e-11 0.0000000000000000e+00  4.8408229574351987e-18 4.1285508053322982e-11 0.0000000000000000e+00  7.0558081963186287e-18 4.1285511918471697e-11 0.0000000000000000e+00  6.9463250536337685e-18 4.1285516639700990e-11 0.0000000000000000e+00  1.0967883301918917e-17 4.1285520530804028e-11 0.0000000000000000e+00  4.1798635120520069e-17 4.1285512806971848e-11 0.0000000000000000e+00  2.2958856769040687e-15 4.1285511493509066e-11 0.0000000000000000e+00  1.1807451922461051e-13 4.1285510720828056e-11 0.0000000000000000e+00  5.1227849460928279e-12 4.1285507269316809e-11 0.0000000000000000e+00  -1.2056587745307840e-11 1.0030634604338765e-10 0.0000000000000000e+00  -2.5978851876687536e-13 1.0030635516598433e-10 0.0000000000000000e+00  -4.6671675251524964e-15 1.0030634838795996e-10 0.0000000000000000e+00  -6.7301862220034486e-17 1.0030635495102878e-10 0.0000000000000000e+00  1.8342260288634994e-18 1.0030636135712682e-10 0.0000000000000000e+00  -5.3948294794419260e-18 1.0030635669753262e-10 0.0000000000000000e+00  -1.5645093584768120e-17 1.0030634902601833e-10 0.0000000000000000e+00  -8.0925520340589124e-18 1.0030634702573259e-10 0.0000000000000000e+00  8.4190814455590025e-18 1.0030634802831549e-10 0.0000000000000000e+00  6.6426188000519472e-18 1.0030634353341609e-10 0.0000000000000000e+00  7.8367276632402233e-18 1.0030635394976949e-10 0.0000000000000000e+00  8.9383092250985749e-18 1.0030634339306933e-10 0.0000000000000000e+00  7.0345075258426197e-17 1.0030634674719730e-10 0.0000000000000000e+00  4.6579826351672822e-15 1.0030633784446812e-10 0.0000000000000000e+00  2.5978512905792565e-13 1.0030634555128188e-10 0.0000000000000000e+00  1.2056595116306227e-11 1.0030635312594539e-10 0.0000000000000000e+00  -2.7608116860827157e-11 2.3731394628094287e-10 0.0000000000000000e+00  -5.5483048138554962e-13 2.3731393298186153e-10 0.0000000000000000e+00  -9.1568386140925474e-15 2.3731393633168384e-10 0.0000000000000000e+00  -1.1128527820937303e-16 2.3731394145264605e-10 0.0000000000000000e+00  -5.9695361373979962e-19 2.3731394332185824e-10 0.0000000000000000e+00  -9.1774740650449723e-18 2.3731393694037136e-10 0.0000000000000000e+00  -1.1432117739475335e-17 2.3731393882634321e-10 0.0000000000000000e+00  -7.6756176888256129e-18 2.3731395981574515e-10 0.0000000000000000e+00  -3.6707187496031844e-19 2.3731394449480443e-10 0.0000000000000000e+00  9.5135990466050815e-18 2.3731393644363493e-10 0.0000000000000000e+00  7.5067261183034361e-18 2.3731393314354385e-10 0.0000000000000000e+00  9.4365958654118631e-18 2.3731394289269920e-10 0.0000000000000000e+00  1.1794722172752598e-16 2.3731394245362398e-10 0.0000000000000000e+00  9.1517788155690637e-15 2.3731393611277339e-10 0.0000000000000000e+00  5.5483082571761123e-13 2.3731395229834046e-10 0.0000000000000000e+00  2.7608128684840346e-11 2.3731394980705893e-10 0.0000000000000000e+00  -6.1510921220821601e-11 5.4676590511585990e-10 0.0000000000000000e+00  -1.1501229453379039e-12 5.4676589330015375e-10 0.0000000000000000e+00  -1.7373150510461855e-14 5.4676591114960315e-10 0.0000000000000000e+00  -1.9319511815995214e-16 5.4676591142117916e-10 0.0000000000000000e+00  -3.5795820875983067e-18 5.4676590324271840e-10 0.0000000000000000e+00  -1.0274192408870010e-17 5.4676589896608824e-10 0.0000000000000000e+00  -6.0399124573153818e-18 5.4676589847986651e-10 0.0000000000000000e+00  -2.7664056267498448e-18 5.4676590844661390e-10 0.0000000000000000e+00  -4.4452185334474415e-18 5.4676590142382496e-10 0.0000000000000000e+00  6.2157141189814630e-18 5.4676589855473980e-10 0.0000000000000000e+00  8.8995554004281163e-18 5.4676589915391976e-10 0.0000000000000000e+00  1.3973701977186590e-17 5.4676590370243830e-10 0.0000000000000000e+00  1.9409193644528031e-16 5.4676589963828488e-10 0.0000000000000000e+00  1.7372916412756220e-14 5.4676590634424658e-10 0.0000000000000000e+00  1.1501236312784069e-12 5.4676590056133169e-10 0.0000000000000000e+00  6.1510916190426982e-11 5.4676590442869760e-10 0.0000000000000000e+00  -1.3334792862500033e-10 1.2268500378010691e-09 0.0000000000000000e+00  -2.3137602106088799e-12 1.2268500373973969e-09 0.0000000000000000e+00  -3.1849461639303316e-14 1.2268500273611277e-09 0.0000000000000000e+00  -3.0809862578917307e-16 1.2268500272954431e-09 0.0000000000000000e+00  -5.2532836717163206e-18 1.2268500338695766e-09 0.0000000000000000e+00  -8.5936016548179358e-18 1.2268500438702231e-09 0.0000000000000000e+00  -5.5172071572991702e-18 1.2268500527476487e-09 0.0000000000000000e+00  -6.2335073368896244e-18 1.2268500382801219e-09 0.0000000000000000e+00  -9.5691764579490035e-18 1.2268500323046307e-09 0.0000000000000000e+00  5.5397823562664343e-18 1.2268500310560730e-09 0.0000000000000000e+00  1.2184466226246981e-17 1.2268500288524533e-09 0.0000000000000000e+00  8.9866996593352423e-18 1.2268500179205182e-09 0.0000000000000000e+00  3.1796291146729042e-16 1.2268500307974489e-09 0.0000000000000000e+00  3.1854408163210563e-14 1.2268500320497667e-09 0.0000000000000000e+00  2.3137593352600414e-12 1.2268500279674151e-09 0.0000000000000000e+00  1.3334792126108117e-10 1.2268500235705880e-09 0.0000000000000000e+00  -2.8129380355385540e-10 2.6812051132714580e-09 0.0000000000000000e+00  -4.5167418310726518e-12 2.6812051394868692e-09 0.0000000000000000e+00  -5.6390678150489087e-14 2.6812051120427333e-09 0.0000000000000000e+00  -4.7621107471689774e-16 2.6812050956221257e-09 0.0000000000000000e+00  4.1550813929179008e-18 2.6812051076335273e-09 0.0000000000000000e+00  -2.8975145292602562e-18 2.6812051161055851e-09 0.0000000000000000e+00  -1.0448213582871977e-17 2.6812051143730239e-09 0.0000000000000000e+00  -1.2908754846467975e-17 2.6812050961535148e-09 0.0000000000000000e+00  -3.9830699704345063e-18 2.6812051040480103e-09 0.0000000000000000e+00  6.3302833905897091e-18 2.6812051247363794e-09 0.0000000000000000e+00  3.8905031780580785e-18 2.6812051102010264e-09 0.0000000000000000e+00  1.3666007579816544e-17 2.6812051111753670e-09 0.0000000000000000e+00  4.8315125904891068e-16 2.6812051117239925e-09 0.0000000000000000e+00  5.6377766230780217e-14 2.6812051081166582e-09 0.0000000000000000e+00  4.5167406011659175e-12 2.6812051069743032e-09 0.0000000000000000e+00  2.8129380894765817e-10 2.6812051198359414e-09 0.0000000000000000e+00  -5.7742936876129086e-10 5.7076924458557814e-09 0.0000000000000000e+00  -8.5544382980590000e-12 5.7076924390941176e-09 0.0000000000000000e+00  -9.6238634229052588e-14 5.7076924477138888e-09 0.0000000000000000e+00  -6.8642972555964627e-16 5.7076924720160110e-09 0.0000000000000000e+00  7.1417089220367455e-18 5.7076924600525871e-09 0.0000000000000000e+00  -7.5527170976541539e-18 5.7076924439091177e-09 0.0000000000000000e+00  -1.3866438755456477e-17 5.7076924453493252e-09 0.0000000000000000e+00  -1.3046626624492520e-17 5.7076924617324404e-09 0.0000000000000000e+00  6.0321271736827193e-18 5.7076924680549987e-09 0.0000000000000000e+00  6.1862212846590872e-18 5.7076924600413176e-09 0.0000000000000000e+00  3.3349116176932294e-19 5.7076924589511581e-09 0.0000000000000000e+00  9.4360327573457868e-18 5.7076924527392112e-09 0.0000000000000000e+00  6.9571731681805290e-16 5.7076924421687347e-09 0.0000000000000000e+00  9.6227682739731795e-14 5.7076924544651062e-09 0.0000000000000000e+00  8.5544409662031856e-12 5.7076924648191203e-09 0.0000000000000000e+00  5.7742938396219397e-10 5.7076924560406611e-09 0.0000000000000000e+00  -1.1535315769813012e-09 1.1836741291702532e-08 0.0000000000000000e+00  -1.5715549933418334e-11 1.1836741278671938e-08 0.0000000000000000e+00  -1.5817851799402787e-13 1.1836741269472890e-08 0.0000000000000000e+00  -9.3359799050024292e-16 1.1836741274517329e-08 0.0000000000000000e+00  -5.5791521182882405e-18 1.1836741253325488e-08 0.0000000000000000e+00  -8.2407546992940951e-18 1.1836741238215429e-08 0.0000000000000000e+00  3.9241538806993115e-18 1.1836741264830068e-08 0.0000000000000000e+00  -4.0147006626831857e-18 1.1836741307042424e-08 0.0000000000000000e+00  -3.5962703367639577e-18 1.1836741298385311e-08 0.0000000000000000e+00  9.1609896492476220e-19 1.1836741278602362e-08 0.0000000000000000e+00  4.0950429