<?xml version="1.0"?>
<VTKFile type="UnstructuredGrid"  version="0.1"  >
<UnstructuredGrid>
<Piece  NumberOfPoints="1411" NumberOfCells="2700">
<Points>
<DataArray  type="Float64"  NumberOfComponents="3"  format="ascii">-0.75 -4.5 0  -0.65 -4.5 0  -0.55 -4.5 0  -0.45 -4.5 0  -0.35 -4.5 0  -0.25 -4.5 0  -0.15 -4.5 0  -0.05000000000000004 -4.5 0  0.05000000000000004 -4.5 0  0.15 -4.5 0  0.25 -4.5 0  0.3500000000000001 -4.5 0  0.45 -4.5 0  0.55 -4.5 0  0.6499999999999999 -4.5 0  0.75 -4.5 0  -0.75 -4.4 0  -0.65 -4.4 0  -0.55 -4.4 0  -0.45 -4.4 0  -0.35 -4.4 0  -0.25 -4.4 0  -0.15 -4.4 0  -0.05000000000000004 -4.4 0  0.05000000000000004 -4.4 0  0.15 -4.4 0  0.25 -4.4 0  0.3500000000000001 -4.4 0  0.45 -4.4 0  0.55 -4.4 0  0.6499999999999999 -4.4 0  0.75 -4.4 0  -0.75 -4.3 0  -0.65 -4.3 0  -0.55 -4.3 0  -0.45 -4.3 0  -0.35 -4.3 0  -0.25 -4.3 0  -0.15 -4.3 0  -0.05000000000000004 -4.3 0  0.05000000000000004 -4.3 0  0.15 -4.3 0  0.25 -4.3 0  0.3500000000000001 -4.3 0  0.45 -4.3 0  0.55 -4.3 0  0.6499999999999999 -4.3 0  0.75 -4.3 0  -0.75 -4.2 0  -0.65 -4.2 0  -0.55 -4.2 0  -0.45 -4.2 0  -0.35 -4.2 0  -0.25 -4.2 0  -0.15 -4.2 0  -0.05000000000000004 -4.2 0  0.05000000000000004 -4.2 0  0.15 -4.2 0  0.25 -4.2 0  0.3500000000000001 -4.2 0  0.45 -4.2 0  0.55 -4.2 0  0.6499999999999999 -4.2 0  0.75 -4.2 0  -0.75 -4.1 0  -0.65 -4.1 0  -0.55 -4.1 0  -0.45 -4.1 0  -0.35 -4.1 0  -0.25 -4.1 0  -0.15 -4.1 0  -0.05000000000000004 -4.1 0  0.05000000000000004 -4.1 0  0.15 -4.1 0  0.25 -4.1 0  0.3500000000000001 -4.1 0  0.45 -4.1 0  0.55 -4.1 0  0.6499999999999999 -4.1 0  0.75 -4.1 0  -0.75 -4 0  -0.65 -4 0  -0.55 -4 0  -0.45 -4 0  -0.35 -4 0  -0.25 -4 0  -0.15 -4 0  -0.05000000000000004 -4 0  0.05000000000000004 -4 0  0.15 -4 0  0.25 -4 0  0.3500000000000001 -4 0  0.45 -4 0  0.55 -4 0  0.6499999999999999 -4 0  0.75 -4 0  -0.75 -3.9 0  -0.65 -3.9 0  -0.55 -3.9 0  -0.45 -3.9 0  -0.35 -3.9 0  -0.25 -3.9 0  -0.15 -3.9 0  -0.05000000000000004 -3.9 0  0.05000000000000004 -3.9 0  0.15 -3.9 0  0.25 -3.9 0  0.3500000000000001 -3.9 0  0.45 -3.9 0  0.55 -3.9 0  0.6499999999999999 -3.9 0  0.75 -3.9 0  -0.75 -3.8 0  -0.65 -3.8 0  -0.55 -3.8 0  -0.45 -3.8 0  -0.35 -3.8 0  -0.25 -3.8 0  -0.15 -3.8 0  -0.05000000000000004 -3.8 0  0.05000000000000004 -3.8 0  0.15 -3.8 0  0.25 -3.8 0  0.3500000000000001 -3.8 0  0.45 -3.8 0  0.55 -3.8 0  0.6499999999999999 -3.8 0  0.75 -3.8 0  -0.75 -3.7 0  -0.65 -3.7 0  -0.55 -3.7 0  -0.45 -3.7 0  -0.35 -3.7 0  -0.25 -3.7 0  -0.15 -3.7 0  -0.05000000000000004 -3.7 0  0.05000000000000004 -3.7 0  0.15 -3.7 0  0.25 -3.7 0  0.3500000000000001 -3.7 0  0.45 -3.7 0  0.55 -3.7 0  0.6499999999999999 -3.7 0  0.75 -3.7 0  -0.75 -3.6 0  -0.65 -3.6 0  -0.55 -3.6 0  -0.45 -3.6 0  -0.35 -3.6 0  -0.25 -3.6 0  -0.15 -3.6 0  -0.05000000000000004 -3.6 0  0.05000000000000004 -3.6 0  0.15 -3.6 0  0.25 -3.6 0  0.3500000000000001 -3.6 0  0.45 -3.6 0  0.55 -3.6 0  0.6499999999999999 -3.6 0  0.75 -3.6 0  -0.75 -3.5 0  -0.65 -3.5 0  -0.55 -3.5 0  -0.45 -3.5 0  -0.35 -3.5 0  -0.25 -3.5 0  -0.15 -3.5 0  -0.05000000000000004 -3.5 0  0.05000000000000004 -3.5 0  0.15 -3.5 0  0.25 -3.5 0  0.3500000000000001 -3.5 0  0.45 -3.5 0  0.55 -3.5 0  0.6499999999999999 -3.5 0  0.75 -3.5 0  -0.75 -3.4 0  -0.65 -3.4 0  -0.55 -3.4 0  -0.45 -3.4 0  -0.35 -3.4 0  -0.25 -3.4 0  -0.15 -3.4 0  -0.05000000000000004 -3.4 0  0.05000000000000004 -3.4 0  0.15 -3.4 0  0.25 -3.4 0  0.3500000000000001 -3.4 0  0.45 -3.4 0  0.55 -3.4 0  0.6499999999999999 -3.4 0  0.75 -3.4 0  -0.75 -3.3 0  -0.65 -3.3 0  -0.55 -3.3 0  -0.45 -3.3 0  -0.35 -3.3 0  -0.25 -3.3 0  -0.15 -3.3 0  -0.05000000000000004 -3.3 0  0.05000000000000004 -3.3 0  0.15 -3.3 0  0.25 -3.3 0  0.3500000000000001 -3.3 0  0.45 -3.3 0  0.55 -3.3 0  0.6499999999999999 -3.3 0  0.75 -3.3 0  -0.75 -3.2 0  -0.65 -3.2 0  -0.55 -3.2 0  -0.45 -3.2 0  -0.35 -3.2 0  -0.25 -3.2 0  -0.15 -3.2 0  -0.05000000000000004 -3.2 0  0.05000000000000004 -3.2 0  0.15 -3.2 0  0.25 -3.2 0  0.3500000000000001 -3.2 0  0.45 -3.2 0  0.55 -3.2 0  0.6499999999999999 -3.2 0  0.75 -3.2 0  -0.75 -3.1 0  -0.65 -3.1 0  -0.55 -3.1 0  -0.45 -3.1 0  -0.35 -3.1 0  -0.25 -3.1 0  -0.15 -3.1 0  -0.05000000000000004 -3.1 0  0.05000000000000004 -3.1 0  0.15 -3.1 0  0.25 -3.1 0  0.3500000000000001 -3.1 0  0.45 -3.1 0  0.55 -3.1 0  0.6499999999999999 -3.1 0  0.75 -3.1 0  -0.75 -3 0  -0.65 -3 0  -0.55 -3 0  -0.45 -3 0  -0.35 -3 0  -0.25 -3 0  -0.15 -3 0  -0.05000000000000004 -3 0  0.05000000000000004 -3 0  0.15 -3 0  0.25 -3 0  0.3500000000000001 -3 0  0.45 -3 0  0.55 -3 0  0.6499999999999999 -3 0  0.75 -3 0  -0.75 -2.9 0  -0.65 -2.9 0  -0.55 -2.9 0  -0.45 -2.9 0  -0.35 -2.9 0  -0.25 -2.9 0  -0.15 -2.9 0  -0.05000000000000004 -2.9 0  0.05000000000000004 -2.9 0  0.15 -2.9 0  0.25 -2.9 0  0.3500000000000001 -2.9 0  0.45 -2.9 0  0.55 -2.9 0  0.6499999999999999 -2.9 0  0.75 -2.9 0  -0.75 -2.8 0  -0.65 -2.8 0  -0.55 -2.8 0  -0.45 -2.8 0  -0.35 -2.8 0  -0.25 -2.8 0  -0.15 -2.8 0  -0.05000000000000004 -2.8 0  0.05000000000000004 -2.8 0  0.15 -2.8 0  0.25 -2.8 0  0.3500000000000001 -2.8 0  0.45 -2.8 0  0.55 -2.8 0  0.6499999999999999 -2.8 0  0.75 -2.8 0  -0.75 -2.7 0  -0.65 -2.7 0  -0.55 -2.7 0  -0.45 -2.7 0  -0.35 -2.7 0  -0.25 -2.7 0  -0.15 -2.7 0  -0.05000000000000004 -2.7 0  0.05000000000000004 -2.7 0  0.15 -2.7 0  0.25 -2.7 0  0.3500000000000001 -2.7 0  0.45 -2.7 0  0.55 -2.7 0  0.6499999999999999 -2.7 0  0.75 -2.7 0  -0.75 -2.6 0  -0.65 -2.6 0  -0.55 -2.6 0  -0.45 -2.6 0  -0.35 -2.6 0  -0.25 -2.6 0  -0.15 -2.6 0  -0.05000000000000004 -2.6 0  0.05000000000000004 -2.6 0  0.15 -2.6 0  0.25 -2.6 0  0.3500000000000001 -2.6 0  0.45 -2.6 0  0.55 -2.6 0  0.6499999999999999 -2.6 0  0.75 -2.6 0  -0.75 -2.5 0  -0.65 -2.5 0  -0.55 -2.5 0  -0.45 -2.5 0  -0.35 -2.5 0  -0.25 -2.5 0  -0.15 -2.5 0  -0.05000000000000004 -2.5 0  0.05000000000000004 -2.5 0  0.15 -2.5 0  0.25 -2.5 0  0.3500000000000001 -2.5 0  0.45 -2.5 0  0.55 -2.5 0  0.6499999999999999 -2.5 0  0.75 -2.5 0  -0.75 -2.4 0  -0.65 -2.4 0  -0.55 -2.4 0  -0.45 -2.4 0  -0.35 -2.4 0  -0.25 -2.4 0  -0.15 -2.4 0  -0.05000000000000004 -2.4 0  0.05000000000000004 -2.4 0  0.15 -2.4 0  0.25 -2.4 0  0.3500000000000001 -2.4 0  0.45 -2.4 0  0.55 -2.4 0  0.6499999999999999 -2.4 0  0.75 -2.4 0  -0.75 -2.3 0  -0.65 -2.3 0  -0.55 -2.3 0  -0.45 -2.3 0  -0.35 -2.3 0  -0.25 -2.3 0  -0.15 -2.3 0  -0.05000000000000004 -2.3 0  0.05000000000000004 -2.3 0  0.15 -2.3 0  0.25 -2.3 0  0.3500000000000001 -2.3 0  0.45 -2.3 0  0.55 -2.3 0  0.6499999999999999 -2.3 0  0.75 -2.3 0  -0.75 -2.2 0  -0.65 -2.2 0  -0.55 -2.2 0  -0.45 -2.2 0  -0.35 -2.2 0  -0.25 -2.2 0  -0.15 -2.2 0  -0.05000000000000004 -2.2 0  0.05000000000000004 -2.2 0  0.15 -2.2 0  0.25 -2.2 0  0.3500000000000001 -2.2 0  0.45 -2.2 0  0.55 -2.2 0  0.6499999999999999 -2.2 0  0.75 -2.2 0  -0.75 -2.1 0  -0.65 -2.1 0  -0.55 -2.1 0  -0.45 -2.1 0  -0.35 -2.1 0  -0.25 -2.1 0  -0.15 -2.1 0  -0.05000000000000004 -2.1 0  0.05000000000000004 -2.1 0  0.15 -2.1 0  0.25 -2.1 0  0.3500000000000001 -2.1 0  0.45 -2.1 0  0.55 -2.1 0  0.6499999999999999 -2.1 0  0.75 -2.1 0  -0.75 -2 0  -0.65 -2 0  -0.55 -2 0  -0.45 -2 0  -0.35 -2 0  -0.25 -2 0  -0.15 -2 0  -0.05000000000000004 -2 0  0.05000000000000004 -2 0  0.15 -2 0  0.25 -2 0  0.3500000000000001 -2 0  0.45 -2 0  0.55 -2 0  0.6499999999999999 -2 0  0.75 -2 0  -0.75 -1.9 0  -0.65 -1.9 0  -0.55 -1.9 0  -0.45 -1.9 0  -0.35 -1.9 0  -0.25 -1.9 0  -0.15 -1.9 0  -0.05000000000000004 -1.9 0  0.05000000000000004 -1.9 0  0.15 -1.9 0  0.25 -1.9 0  0.3500000000000001 -1.9 0  0.45 -1.9 0  0.55 -1.9 0  0.6499999999999999 -1.9 0  0.75 -1.9 0  -0.75 -1.8 0  -0.65 -1.8 0  -0.55 -1.8 0  -0.45 -1.8 0  -0.35 -1.8 0  -0.25 -1.8 0  -0.15 -1.8 0  -0.05000000000000004 -1.8 0  0.05000000000000004 -1.8 0  0.15 -1.8 0  0.25 -1.8 0  0.3500000000000001 -1.8 0  0.45 -1.8 0  0.55 -1.8 0  0.6499999999999999 -1.8 0  0.75 -1.8 0  -0.75 -1.7 0  -0.65 -1.7 0  -0.55 -1.7 0  -0.45 -1.7 0  -0.35 -1.7 0  -0.25 -1.7 0  -0.15 -1.7 0  -0.05000000000000004 -1.7 0  0.05000000000000004 -1.7 0  0.15 -1.7 0  0.25 -1.7 0  0.3500000000000001 -1.7 0  0.45 -1.7 0  0.55 -1.7 0  0.6499999999999999 -1.7 0  0.75 -1.7 0  -0.75 -1.6 0  -0.65 -1.6 0  -0.55 -1.6 0  -0.45 -1.6 0  -0.35 -1.6 0  -0.25 -1.6 0  -0.15 -1.6 0  -0.05000000000000004 -1.6 0  0.05000000000000004 -1.6 0  0.15 -1.6 0  0.25 -1.6 0  0.3500000000000001 -1.6 0  0.45 -1.6 0  0.55 -1.6 0  0.6499999999999999 -1.6 0  0.75 -1.6 0  -0.75 -1.5 0  -0.65 -1.5 0  -0.55 -1.5 0  -0.45 -1.5 0  -0.35 -1.5 0  -0.25 -1.5 0  -0.15 -1.5 0  -0.05000000000000004 -1.5 0  0.05000000000000004 -1.5 0  0.15 -1.5 0  0.25 -1.5 0  0.3500000000000001 -1.5 0  0.45 -1.5 0  0.55 -1.5 0  0.6499999999999999 -1.5 0  0.75 -1.5 0  -0.75 -1.4 0  -0.65 -1.4 0  -0.55 -1.4 0  -0.45 -1.4 0  -0.35 -1.4 0  -0.25 -1.4 0  -0.15 -1.4 0  -0.05000000000000004 -1.4 0  0.05000000000000004 -1.4 0  0.15 -1.4 0  0.25 -1.4 0  0.3500000000000001 -1.4 0  0.45 -1.4 0  0.55 -1.4 0  0.6499999999999999 -1.4 0  0.75 -1.4 0  -0.75 -1.3 0  -0.65 -1.3 0  -0.55 -1.3 0  -0.45 -1.3 0  -0.35 -1.3 0  -0.25 -1.3 0  -0.15 -1.3 0  -0.05000000000000004 -1.3 0  0.05000000000000004 -1.3 0  0.15 -1.3 0  0.25 -1.3 0  0.3500000000000001 -1.3 0  0.45 -1.3 0  0.55 -1.3 0  0.6499999999999999 -1.3 0  0.75 -1.3 0  -0.75 -1.2 0  -0.65 -1.2 0  -0.55 -1.2 0  -0.45 -1.2 0  -0.35 -1.2 0  -0.25 -1.2 0  -0.15 -1.2 0  -0.05000000000000004 -1.2 0  0.05000000000000004 -1.2 0  0.15 -1.2 0  0.25 -1.2 0  0.3500000000000001 -1.2 0  0.45 -1.2 0  0.55 -1.2 0  0.6499999999999999 -1.2 0  0.75 -1.2 0  -0.75 -1.1 0  -0.65 -1.1 0  -0.55 -1.1 0  -0.45 -1.1 0  -0.35 -1.1 0  -0.25 -1.1 0  -0.15 -1.1 0  -0.05000000000000004 -1.1 0  0.05000000000000004 -1.1 0  0.15 -1.1 0  0.25 -1.1 0  0.3500000000000001 -1.1 0  0.45 -1.1 0  0.55 -1.1 0  0.6499999999999999 -1.1 0  0.75 -1.1 0  -0.75 -1 0  -0.65 -1 0  -0.55 -1 0  -0.45 -1 0  -0.35 -1 0  -0.25 -1 0  -0.15 -1 0  -0.05000000000000004 -1 0  0.05000000000000004 -1 0  0.15 -1 0  0.25 -1 0  0.3500000000000001 -1 0  0.45 -1 0  0.55 -1 0  0.6499999999999999 -1 0  0.75 -1 0  -0.75 -0.8999999999999999 0  -0.65 -0.899999
[...]
<PointData  Vectors="flow"> 
<DataArray  type="Float64"  Name="flow"  NumberOfComponents="3" format="ascii">-3.4557894924536177e-10 6.9116970811507268e-10 0.0000000000000000e+00  2.6809165508009608e-14 6.9116970811222955e-10 0.0000000000000000e+00  -2.0831908584342717e-18 6.9116970811459260e-10 0.0000000000000000e+00  -2.8328963476500036e-21 6.9116970811189175e-10 0.0000000000000000e+00  -1.1749796815382206e-21 6.9116970811286969e-10 0.0000000000000000e+00  6.9169150196094678e-23 6.9116970811279514e-10 0.0000000000000000e+00  2.5364753104216119e-21 6.9116970811459736e-10 0.0000000000000000e+00  -4.9230387193542751e-21 6.9116970810206733e-10 0.0000000000000000e+00  -1.3496846169861154e-20 6.9116970810997735e-10 0.0000000000000000e+00  -4.4136003618427981e-21 6.9116970811333932e-10 0.0000000000000000e+00  -5.7806209674339351e-21 6.9116970811043250e-10 0.0000000000000000e+00  1.3057825931272579e-21 6.9116970812355118e-10 0.0000000000000000e+00  4.8226004665068090e-21 6.9116970811264480e-10 0.0000000000000000e+00  2.0781077920447711e-18 6.9116970811366213e-10 0.0000000000000000e+00  -2.6809167520949706e-14 6.9116970811533241e-10 0.0000000000000000e+00  3.4557894924520202e-10 6.9116970811406838e-10 0.0000000000000000e+00  -3.4515006911635665e-10 2.0725323114470088e-09 0.0000000000000000e+00  2.6775894538239125e-14 2.0725323114475440e-09 0.0000000000000000e+00  -2.0800685441407999e-18 2.0725323114480188e-09 0.0000000000000000e+00  -3.5390497039944940e-21 2.0725323114504528e-09 0.0000000000000000e+00  -4.1352056121194649e-22 2.0725323114479787e-09 0.0000000000000000e+00  2.3235896408617061e-22 2.0725323114460819e-09 0.0000000000000000e+00  -2.6480967915604533e-21 2.0725323114481660e-09 0.0000000000000000e+00  -8.3406682303217990e-21 2.0725323114409183e-09 0.0000000000000000e+00  -7.3139674449175823e-21 2.0725323114431314e-09 0.0000000000000000e+00  -6.2733533129413802e-21 2.0725323114430061e-09 0.0000000000000000e+00  1.1383005356171178e-21 2.0725323114444975e-09 0.0000000000000000e+00  1.9109494490079111e-21 2.0725323114459814e-09 0.0000000000000000e+00  -2.5853769201577237e-21 2.0725323114445186e-09 0.0000000000000000e+00  2.0787667521706846e-18 2.0725323114454777e-09 0.0000000000000000e+00  -2.6775896101105517e-14 2.0725323114475911e-09 0.0000000000000000e+00  3.4515006911332157e-10 2.0725323114480610e-09 0.0000000000000000e+00  -3.4386449323215022e-10 4.1399203978966100e-09 0.0000000000000000e+00  2.6676164364160035e-14 4.1399203978989104e-09 0.0000000000000000e+00  -2.0701078149943408e-18 4.1399203978980038e-09 0.0000000000000000e+00  -3.1874839837734961e-21 4.1399203978974389e-09 0.0000000000000000e+00  -5.0826173717061082e-21 4.1399203978995498e-09 0.0000000000000000e+00  1.1820725662561681e-21 4.1399203978964711e-09 0.0000000000000000e+00  -3.0154349955296091e-21 4.1399203978962775e-09 0.0000000000000000e+00  -1.0666738385492043e-20 4.1399203978953593e-09 0.0000000000000000e+00  -8.7654914790909806e-21 4.1399203978972486e-09 0.0000000000000000e+00  -4.5948668383174559e-21 4.1399203978934072e-09 0.0000000000000000e+00  -1.4306735420472006e-21 4.1399203978973636e-09 0.0000000000000000e+00  1.1326250676238141e-22 4.1399203978958060e-09 0.0000000000000000e+00  1.8687365234448711e-21 4.1399203978942178e-09 0.0000000000000000e+00  2.0730257531165751e-18 4.1399203978938216e-09 0.0000000000000000e+00  -2.6676162276276090e-14 4.1399203978980468e-09 0.0000000000000000e+00  3.4386449323323559e-10 4.1399203978997086e-09 0.0000000000000000e+00  -3.4172541249774707e-10 6.1970328027306784e-09 0.0000000000000000e+00  2.6510221005600777e-14 6.1970328027307793e-09 0.0000000000000000e+00  -2.0603190836576129e-18 6.1970328027282275e-09 0.0000000000000000e+00  -3.9329700683919781e-22 6.1970328027295948e-09 0.0000000000000000e+00  -3.3581627686119906e-21 6.1970328027333221e-09 0.0000000000000000e+00  -3.7425488751162271e-21 6.1970328027276518e-09 0.0000000000000000e+00  -4.6142619140090415e-21 6.1970328027196554e-09 0.0000000000000000e+00  -7.3385312933361762e-21 6.1970328027226324e-09 0.0000000000000000e+00  -9.3360512358909964e-21 6.1970328027230717e-09 0.0000000000000000e+00  -7.4199492882363661e-21 6.1970328027213966e-09 0.0000000000000000e+00  3.9111355402707506e-21 6.1970328027194246e-09 0.0000000000000000e+00  -3.6420656559273828e-22 6.1970328027250941e-09 0.0000000000000000e+00  -2.8566391524561455e-21 6.1970328027225224e-09 0.0000000000000000e+00  2.0613855292061812e-18 6.1970328027257856e-09 0.0000000000000000e+00  -2.6510216410253331e-14 6.1970328027218772e-09 0.0000000000000000e+00  3.4172541249699403e-10 6.1970328027243588e-09 0.0000000000000000e+00  -3.3873813627554748e-10 8.2387635743395282e-09 0.0000000000000000e+00  2.6278474993950560e-14 8.2387635743396870e-09 0.0000000000000000e+00  -2.0421612394682665e-18 8.2387635743395332e-09 0.0000000000000000e+00  1.1972249072133544e-21 8.2387635743390418e-09 0.0000000000000000e+00  -6.5870512969975146e-21 8.2387635743363204e-09 0.0000000000000000e+00  -1.0203439884985725e-20 8.2387635743345718e-09 0.0000000000000000e+00  -6.9465525300682707e-21 8.2387635743306542e-09 0.0000000000000000e+00  -8.0944069150364588e-21 8.2387635743304474e-09 0.0000000000000000e+00  -1.0352256434918723e-20 8.2387635743244917e-09 0.0000000000000000e+00  -7.5152887738779987e-21 8.2387635743283729e-09 0.0000000000000000e+00  4.4707698336929887e-21 8.2387635743273356e-09 0.0000000000000000e+00  2.4099142355213991e-21 8.2387635743270179e-09 0.0000000000000000e+00  2.0863979568572302e-21 8.2387635743360888e-09 0.0000000000000000e+00  2.0392664008152625e-18 8.2387635743329786e-09 0.0000000000000000e+00  -2.6278475732665486e-14 8.2387635743294664e-09 0.0000000000000000e+00  3.3873813628260312e-10 8.2387635743266987e-09 0.0000000000000000e+00  -3.3491007921999317e-10 1.0260044939536413e-08 0.0000000000000000e+00  2.5981507245671001e-14 1.0260044939531990e-08 0.0000000000000000e+00  -2.0181891539313411e-18 1.0260044939537900e-08 0.0000000000000000e+00  -2.1392682616474244e-21 1.0260044939532091e-08 0.0000000000000000e+00  -8.0917202109236981e-21 1.0260044939528803e-08 0.0000000000000000e+00  -1.3243166383711677e-20 1.0260044939531006e-08 0.0000000000000000e+00  -8.5197679853012191e-21 1.0260044939526445e-08 0.0000000000000000e+00  -1.2561169146712277e-20 1.0260044939520782e-08 0.0000000000000000e+00  -9.5585537673437110e-21 1.0260044939521209e-08 0.0000000000000000e+00  -3.5539473908292221e-21 1.0260044939529802e-08 0.0000000000000000e+00  -3.2383331606276784e-21 1.0260044939524025e-08 0.0000000000000000e+00  8.4208803233817080e-21 1.0260044939518031e-08 0.0000000000000000e+00  2.6613035500423647e-21 1.0260044939522554e-08 0.0000000000000000e+00  2.0154597799045365e-18 1.0260044939525952e-08 0.0000000000000000e+00  -2.5981506824352837e-14 1.0260044939523360e-08 0.0000000000000000e+00  3.3491007921464493e-10 1.0260044939525441e-08 0.0000000000000000e+00  -3.3025074286451045e-10 1.2255859882144432e-08 0.0000000000000000e+00  2.5620051703107897e-14 1.2255859882150720e-08 0.0000000000000000e+00  -1.9918553463687085e-18 1.2255859882146404e-08 0.0000000000000000e+00  -1.0087382075480338e-20 1.2255859882143782e-08 0.0000000000000000e+00  -5.5466221671099872e-21 1.2255859882129630e-08 0.0000000000000000e+00  -1.0227030886693366e-20 1.2255859882143031e-08 0.0000000000000000e+00  -1.7068504872954455e-20 1.2255859882145071e-08 0.0000000000000000e+00  -1.5140947631412733e-20 1.2255859882138991e-08 0.0000000000000000e+00  -5.8765523168127563e-21 1.2255859882138496e-08 0.0000000000000000e+00  -3.6924129823357312e-21 1.2255859882131265e-08 0.0000000000000000e+00  -4.8070550176303721e-21 1.2255859882137821e-08 0.0000000000000000e+00  5.8362594166902724e-21 1.2255859882140455e-08 0.0000000000000000e+00  1.0483652844989786e-20 1.2255859882137796e-08 0.0000000000000000e+00  1.9869458967969813e-18 1.2255859882137767e-08 0.0000000000000000e+00  -2.5620052335589891e-14 1.2255859882138028e-08 0.0000000000000000e+00  3.3025074286568540e-10 1.2255859882138839e-08 0.0000000000000000e+00  -3.2477169204315306e-10 1.4221254595673187e-08 0.0000000000000000e+00  2.5195000923902668e-14 1.4221254595670104e-08 0.0000000000000000e+00  -1.9623584413182411e-18 1.4221254595667410e-08 0.0000000000000000e+00  -1.8632283509941598e-20 1.4221254595669124e-08 0.0000000000000000e+00  -1.1359061050419792e-20 1.4221254595668521e-08 0.0000000000000000e+00  2.5094369718446259e-21 1.4221254595667142e-08 0.0000000000000000e+00  -1.2982757147228341e-20 1.4221254595674749e-08 0.0000000000000000e+00  -1.7047129091623862e-20 1.4221254595678515e-08 0.0000000000000000e+00  -1.2700592846059375e-20 1.4221254595678860e-08 0.0000000000000000e+00  -5.6230007432352984e-21 1.4221254595669621e-08 0.0000000000000000e+00  5.3980323968131176e-21 1.4221254595670886e-08 0.0000000000000000e+00  2.7803143442262414e-21 1.4221254595672941e-08 0.0000000000000000e+00  -3.4393536884633661e-21 1.4221254595664520e-08 0.0000000000000000e+00  1.9571932079338818e-18 1.4221254595652619e-08 0.0000000000000000e+00  -2.5194997145695431e-14 1.4221254595665672e-08 0.0000000000000000e+00  3.2477169204503882e-10 1.4221254595662823e-08 0.0000000000000000e+00  -3.1848652622308056e-10 1.6151350779037532e-08 0.0000000000000000e+00  2.4707413957130400e-14 1.6151350779034892e-08 0.0000000000000000e+00  -1.9229327481504622e-18 1.6151350779033922e-08 0.0000000000000000e+00  -9.7321589292636061e-21 1.6151350779035640e-08 0.0000000000000000e+00  -7.7496664156151555e-21 1.6151350779050413e-08 0.0000000000000000e+00  -5.0438006131019689e-21 1.6151350779039157e-08 0.0000000000000000e+00  -4.1083294779580880e-21 1.6151350779040414e-08 0.0000000000000000e+00  -1.3784884494991189e-20 1.6151350779043226e-08 0.0000000000000000e+00  -1.4358071254229160e-20 1.6151350779043399e-08 0.0000000000000000e+00  -1.2607477530745582e-20 1.6151350779047730e-08 0.0000000000000000e+00  -5.4130764427221027e-22 1.6151350779039742e-08 0.0000000000000000e+00  2.9780319774755545e-21 1.6151350779036649e-08 0.0000000000000000e+00  -5.7171959417404154e-21 1.6151350779040851e-08 0.0000000000000000e+00  1.9160656694618409e-18 1.6151350779042006e-08 0.0000000000000000e+00  -2.4707413101619404e-14 1.6151350779027335e-08 0.0000000000000000e+00  3.1848652622121800e-10 1.6151350779032529e-08 0.0000000000000000e+00  -3.1141084566226184e-10 1.8041357744955727e-08 0.0000000000000000e+00  2.4158501664213397e-14 1.8041357744955459e-08 0.0000000000000000e+00  -1.8784963898764465e-18 1.8041357744960991e-08 0.0000000000000000e+00  -1.8551037209787499e-21 1.8041357744967810e-08 0.0000000000000000e+00  -2.1562585610335290e-21 1.8041357744962238e-08 0.0000000000000000e+00  -7.0886917892031000e-21 1.8041357744968942e-08 0.0000000000000000e+00  -1.1210894118372400e-20 1.8041357744961745e-08 0.0000000000000000e+00  -1.5863483961541093e-20 1.8041357744958599e-08 0.0000000000000000e+00  -9.6127515948662943e-21 1.8041357744960756e-08 0.0000000000000000e+00  -1.1584471211831725e-20 1.8041357744958003e-08 0.0000000000000000e+00  -2.4469323218542783e-21 1.8041357744958526e-08 0.0000000000000000e+00  5.1617030591759688e-21 1.8041357744956276e-08 0.0000000000000000e+00  -5.6393820493691532e-21 1.8041357744949000e-08 0.0000000000000000e+00  1.8645709701519466e-18 1.8041357744955154e-08 0.0000000000000000e+00  -2.4158508342417756e-14 1.8041357744960710e-08 0.0000000000000000e+00  3.1141084566803639e-10 1.8041357744953083e-08 0.0000000000000000e+00  -3.0356221279388018e-10 1.9886584310833951e-08 0.0000000000000000e+00  2.3549631372218504e-14 1.9886584310834289e-08 0.0000000000000000e+00  -1.8194515826094081e-18 1.9886584310832380e-08 0.0000000000000000e+00  -1.4894213292697251e-20 1.9886584310825835e-08 0.0000000000000000e+00  -1.5305501941215697e-20 1.9886584310817891e-08 0.0000000000000000e+00  -4.3248716616310655e-21 1.9886584310812590e-08 0.0000000000000000e+00  -1.0967549564881151e-20 1.9886584310813874e-08 0.0000000000000000e+00  -1.0363945130359919e-20 1.9886584310817418e-08 0.0000000000000000e+00  -1.2276712034574394e-20 1.9886584310820812e-08 0.0000000000000000e+00  -1.3813973693212389e-20 1.9886584310829352e-08 0.0000000000000000e+00  -9.7482265007817882e-21 1.9886584310822354e-08 0.0000000000000000e+00  -8.6289237031462272e-21 1.9886584310796649e-08 0.0000000000000000e+00  2.1112830797015296e-21 1.9886584310808183e-08 0.0000000000000000e+00  1.8396499267255147e-18 1.9886584310822070e-08 0.0000000000000000e+00  -2.3549631613168469e-14 1.9886584310828187e-08 0.0000000000000000e+00  3.0356221278367184e-10 1.9886584310824045e-08 0.0000000000000000e+00  -2.9496010856813925e-10 2.1682450442671498e-08 0.0000000000000000e+00  2.2882300159232178e-14 2.1682450442679915e-08 0.0000000000000000e+00  -1.7880046280466705e-18 2.1682450442670012e-08 0.0000000000000000e+00  -7.8253624872242032e-21 2.1682450442663074e-08 0.0000000000000000e+00  -8.4280513634652592e-21 2.1682450442683330e-08 0.0000000000000000e+00  -9.9206536916317305e-21 2.1682450442694533e-08 0.0000000000000000e+00  -1.5603755030423386e-20 2.1682450442674747e-08 0.0000000000000000e+00  -9.5671509656130462e-21 2.1682450442673281e-08 0.0000000000000000e+00  1.5638907103871416e-21 2.1682450442672878e-08 0.0000000000000000e+00  -8.0346207583758124e-21 2.1682450442672421e-08 0.0000000000000000e+00  -2.7405533885956636e-20 2.1682450442683191e-08 0.0000000000000000e+00  -9.5650676103846298e-21 2.1682450442693379e-08 0.0000000000000000e+00  1.2872864178749278e-20 2.1682450442691506e-08 0.0000000000000000e+00  1.7800684175858341e-18 2.1682450442678748e-08 0.0000000000000000e+00  -2.2882303571418981e-14 2.1682450442677179e-08 0.0000000000000000e+00  2.9496010857141732e-10 2.1682450442681706e-08 0.0000000000000000e+00  -2.8562588414617393e-10 2.3424498623291740e-08 0.0000000000000000e+00  2.2158179271360206e-14 2.3424498623279912e-08 0.0000000000000000e+00  -1.7329080986284482e-18 2.3424498623277678e-08 0.0000000000000000e+00  -2.5618220286504199e-21 2.3424498623289206e-08 0.0000000000000000e+00  8.6144934722907678e-21 2.3424498623286923e-08 0.0000000000000000e+00  -1.0404073119726534e-20 2.3424498623294477e-08 0.0000000000000000e+00  -2.3007506236435783e-20 2.3424498623301183e-08 0.0000000000000000e+00  -1.2508300735834025e-20 2.3424498623296528e-08 0.0000000000000000e+00  -2.0159042842258957e-20 2.3424498623288276e-08 0.0000000000000000e+00  -6.2198111240045983e-21 2.3424498623270541e-08 0.0000000000000000e+00  9.1103273460050888e-21 2.3424498623284673e-08 0.0000000000000000e+00  9.0722272594260869e-22 2.3424498623300863e-08 0.0000000000000000e+00  -5.9010681255809316e-21 2.3424498623308301e-08 0.0000000000000000e+00  1.7201387065024720e-18 2.3424498623296359e-08 0.0000000000000000e+00  -2.2158181975420476e-14 2.3424498623292713e-08 0.0000000000000000e+00  2.8562588414783837e-10 2.3424498623291764e-08 0.0000000000000000e+00  -2.7558270786821362e-10 2.5108404916125258e-08 0.0000000000000000e+00  2.1379046140510971e-14 2.5108404916123666e-08 0.0000000000000000e+00  -1.6630428520491214e-18 2.5108404916130396e-08 0.0000000000000000e+00  -1.0863590808552921e-21 2.5108404916127366e-08 0.0000000000000000e+00  3.7517265486996294e-21 2.5108404916123154e-08 0.0000000000000000e+00  -2.4392042000306531e-21 2.5108404916113965e-08 0.0000000000000000e+00  -1.9526774434599332e-20 2.5108404916125334e-08 0.0000000000000000e+00  -2.1281700901269458e-20 2.5108404916116225e-08 0.0000000000000000e+00  -1.3269872117827820e-20 2.5108404916129781e-08 0.0000000000000000e+00  -7.8426332080744949e-21 2.5108404916148264e-08 0.0000000000000000e+00  -2.1603700512334535e-22 2.5108404916138235e-08 0.0000000000000000e+00  1.0083979331721864e-20 2.5108404916133576e-08 0.0000000000000000e+00  4.4993628869419182e-21 2.5108404916134731e-08 0.0000000000000000e+00  1.6494226831794603e-18 2.5108404916128997e-08 0.0000000000000000e+00  -2.1379061673201487e-14 2.5108404916132018e-08 0.0000000000000000e+00  2.7558270785989306e-10 2.5108404916125218e-08 0.0000000000000000e+00  -2.6485550774258550e-10 2.6729989697832261e-08 0.0000000000000000e+00  2.0546869784124058e-14 2.6729989697829687e-08 0.0000000000000000e+00  -1.5993775121227097e-18 2.6729989697843865e-08 0.0000000000000000e+00  -5.8340342575670180e-21 2.6729989697849483e-08 0.0000000000000000e+00  -6.5605279036392463e-21 2.6729989697847815e-08 0.0000000000000000e+00  -1.0884582021028763e-20 2.6729989697826097e-08 0.0000000000000000e+00  -1.2693621578586380e-20 2.6729989697834306e-08 0.0000000000000000e+00  -9.6794107692720487e-21 2.6729989697853721e-08 0.0000000000000000e+00  -6.8301206103962830e-22 2.6729989697850833e-08 0.0000000000000000e+00  -1.2927588865426520e-21 2.6729989697841515e-08 0.0000000000000000e+00  7.3894366346465614e-22 2.6729989697851518e-08 0.0000000000000000e+00  -7.8118128866698403e-22 2.6729989697851107e-08 0.0000000000000000e+00  -7.2918939910311358e-21 2.6729989697829111e-08 0.0000000000000000e+00  1.5916549823151502e-18 2.6729989697838382e-08 0.0000000000000000e+00  -2.0546875792367353e-14 2.6729989697845181e-08 0.0000000000000000e+00  2.6485550772747560e-10 2.6729989697848235e-08 0.0000000000000000e+00  -2.5347090966472537e-10 2.8285228032514357e-08 0.0000000000000000e+00  1.9663686949391522e-14 2.8285228032520197e-08 0.0000000000000000e+00  -1.5142623201816325e-18 2.8285228032517745e-08 0.0000000000000000e+00  5.3746274755150344e-22 2.8285228032522394e-08 0.0000000000000000e+00  -1.9109736546504488e-20 2.8285228032524465e-08 0.0000000000000000e+00  -9.3536576618016999e-21 2.8285228032545208e-08 0.0000000000000000e+00  2.7600578129713570e-21 2.8285228032544304e-08 0.0000000000000000e+00  -4.9933696142624696e-21 2.8285228032544208e-08 0.0000000000000000e+00  -1.6966270893245095e-20 2.8285228032542954e-08 0.0000000000000000e+00  -3.0022192470581583e-21 2.8285228032537700e-08 0.0000000000000000e+00  4.0501124787870394e-21 2.8285228032527929e-08 0.0000000000000000e+00  -1.3515732800440249e-20 2.8285228032516266e-08 0.0000000000000000e+00  -7.5151637770897465e-21 2.8285228032526331e-08 0.0000000000000000e+00  1.5272104741254784e-18 2.8285228032524836e-08 0.0000000000000000e+00  -1.9663678123117473e-14 2.8285228032523542e-08 0.0000000000000000e+00  2.5347090965770416e-10 2.8285228032541723e-08 0.0000000000000000e+00  -2.4145717116846139e-10 2.9770259662022556e-08 0.0000000000000000e+00  1.8731688357724274e-14 2.9770259662027539e-08 0.0000000000000000e+00  -1.4586052425665550e-18 2.9770259662017577e-08 0.0000000000000000e+00  6.5446982363349302e-21 2.9770259662006257e-08 0.0000000000000000e+00  1.3850193064746678e-20 2.9770259662021590e-08 0.0000000000000000e+00  5.4330486809287084e-21 2.9770259662045955e-08 0.0000000000000000e+00  -1.2638592426402751e-20 2.9770259662040268e-08 0.0000000000000000e+00  -1.2043025849975516e-20 2.9770259662043649e-08 0.0000000000000000e+00  -1.2863419175704054e-20 2.9770259662040513e-08 0.0000000000000000e+00  -1.8610821777649089e-20 2.9770259662029011e-08 0.0000000000000000e+00  -1.8082242297609283e-20 2.9770259662019797e-08 0.0000000000000000e+00  -9.8905909154318279e-22 2.9770259662028065e-08 0.0000000000000000e+00  2.5884344051853115e-21 2.9770259662020051e-08 0.0000000000000000e+00  1.4515552653179423e-18 2.9770259662031860e-08 0.0000000000000000e+00  -1.8731679299028133e-14 2.9770259662027476e-08 0.0000000000000000e+00  2.4145717118150381e-10 2.9770259662015469e-08 0.0000000000000000e+00  -2.2884411151175494e-10 3.1181398587586836e-08 0.0000000000000000e+00  1.7753204709538446e-14 3.1181398587578941e-08 0.0000000000000000e+00  -1.3797047920787012e-18 3.1181398587592659e-08 0.0000000000000000e+00  -4.5018356133360897e-21 3.1181398587598846e-08 0.0000000000000000e+00  1.5644168533976695e-20 3.1181398587576122e-08 0.0000000000000000e+00  1.2328239677919052e-20 3.1181398587571861e-08 0.0000000000000000e+00  3.8979547015645081e-21 3.1181398587566613e-08 0.0000000000000000e+00  3.8508237489124831e-21 3.1181398587584235e-08 0.0000000000000000e+00  -2.9168331207993700e-20 3.1181398587583104e-08 0.0000000000000000e+00  -1.9706059220581472e-20 3.118139858760