<?xml version="1.0"?>
<VTKFile type="UnstructuredGrid"  version="0.1"  >
<UnstructuredGrid>
<Piece  NumberOfPoints="1411" NumberOfCells="2700">
<Points>
<DataArray  type="Float64"  NumberOfComponents="3"  format="ascii">-0.75 -4.5 0  -0.65 -4.5 0  -0.55 -4.5 0  -0.45 -4.5 0  -0.35 -4.5 0  -0.25 -4.5 0  -0.15 -4.5 0  -0.05000000000000004 -4.5 0  0.05000000000000004 -4.5 0  0.15 -4.5 0  0.25 -4.5 0  0.3500000000000001 -4.5 0  0.45 -4.5 0  0.55 -4.5 0  0.6499999999999999 -4.5 0  0.75 -4.5 0  -0.75 -4.4 0  -0.65 -4.4 0  -0.55 -4.4 0  -0.45 -4.4 0  -0.35 -4.4 0  -0.25 -4.4 0  -0.15 -4.4 0  -0.05000000000000004 -4.4 0  0.05000000000000004 -4.4 0  0.15 -4.4 0  0.25 -4.4 0  0.3500000000000001 -4.4 0  0.45 -4.4 0  0.55 -4.4 0  0.6499999999999999 -4.4 0  0.75 -4.4 0  -0.75 -4.3 0  -0.65 -4.3 0  -0.55 -4.3 0  -0.45 -4.3 0  -0.35 -4.3 0  -0.25 -4.3 0  -0.15 -4.3 0  -0.05000000000000004 -4.3 0  0.05000000000000004 -4.3 0  0.15 -4.3 0  0.25 -4.3 0  0.3500000000000001 -4.3 0  0.45 -4.3 0  0.55 -4.3 0  0.6499999999999999 -4.3 0  0.75 -4.3 0  -0.75 -4.2 0  -0.65 -4.2 0  -0.55 -4.2 0  -0.45 -4.2 0  -0.35 -4.2 0  -0.25 -4.2 0  -0.15 -4.2 0  -0.05000000000000004 -4.2 0  0.05000000000000004 -4.2 0  0.15 -4.2 0  0.25 -4.2 0  0.3500000000000001 -4.2 0  0.45 -4.2 0  0.55 -4.2 0  0.6499999999999999 -4.2 0  0.75 -4.2 0  -0.75 -4.1 0  -0.65 -4.1 0  -0.55 -4.1 0  -0.45 -4.1 0  -0.35 -4.1 0  -0.25 -4.1 0  -0.15 -4.1 0  -0.05000000000000004 -4.1 0  0.05000000000000004 -4.1 0  0.15 -4.1 0  0.25 -4.1 0  0.3500000000000001 -4.1 0  0.45 -4.1 0  0.55 -4.1 0  0.6499999999999999 -4.1 0  0.75 -4.1 0  -0.75 -4 0  -0.65 -4 0  -0.55 -4 0  -0.45 -4 0  -0.35 -4 0  -0.25 -4 0  -0.15 -4 0  -0.05000000000000004 -4 0  0.05000000000000004 -4 0  0.15 -4 0  0.25 -4 0  0.3500000000000001 -4 0  0.45 -4 0  0.55 -4 0  0.6499999999999999 -4 0  0.75 -4 0  -0.75 -3.9 0  -0.65 -3.9 0  -0.55 -3.9 0  -0.45 -3.9 0  -0.35 -3.9 0  -0.25 -3.9 0  -0.15 -3.9 0  -0.05000000000000004 -3.9 0  0.05000000000000004 -3.9 0  0.15 -3.9 0  0.25 -3.9 0  0.3500000000000001 -3.9 0  0.45 -3.9 0  0.55 -3.9 0  0.6499999999999999 -3.9 0  0.75 -3.9 0  -0.75 -3.8 0  -0.65 -3.8 0  -0.55 -3.8 0  -0.45 -3.8 0  -0.35 -3.8 0  -0.25 -3.8 0  -0.15 -3.8 0  -0.05000000000000004 -3.8 0  0.05000000000000004 -3.8 0  0.15 -3.8 0  0.25 -3.8 0  0.3500000000000001 -3.8 0  0.45 -3.8 0  0.55 -3.8 0  0.6499999999999999 -3.8 0  0.75 -3.8 0  -0.75 -3.7 0  -0.65 -3.7 0  -0.55 -3.7 0  -0.45 -3.7 0  -0.35 -3.7 0  -0.25 -3.7 0  -0.15 -3.7 0  -0.05000000000000004 -3.7 0  0.05000000000000004 -3.7 0  0.15 -3.7 0  0.25 -3.7 0  0.3500000000000001 -3.7 0  0.45 -3.7 0  0.55 -3.7 0  0.6499999999999999 -3.7 0  0.75 -3.7 0  -0.75 -3.6 0  -0.65 -3.6 0  -0.55 -3.6 0  -0.45 -3.6 0  -0.35 -3.6 0  -0.25 -3.6 0  -0.15 -3.6 0  -0.05000000000000004 -3.6 0  0.05000000000000004 -3.6 0  0.15 -3.6 0  0.25 -3.6 0  0.3500000000000001 -3.6 0  0.45 -3.6 0  0.55 -3.6 0  0.6499999999999999 -3.6 0  0.75 -3.6 0  -0.75 -3.5 0  -0.65 -3.5 0  -0.55 -3.5 0  -0.45 -3.5 0  -0.35 -3.5 0  -0.25 -3.5 0  -0.15 -3.5 0  -0.05000000000000004 -3.5 0  0.05000000000000004 -3.5 0  0.15 -3.5 0  0.25 -3.5 0  0.3500000000000001 -3.5 0  0.45 -3.5 0  0.55 -3.5 0  0.6499999999999999 -3.5 0  0.75 -3.5 0  -0.75 -3.4 0  -0.65 -3.4 0  -0.55 -3.4 0  -0.45 -3.4 0  -0.35 -3.4 0  -0.25 -3.4 0  -0.15 -3.4 0  -0.05000000000000004 -3.4 0  0.05000000000000004 -3.4 0  0.15 -3.4 0  0.25 -3.4 0  0.3500000000000001 -3.4 0  0.45 -3.4 0  0.55 -3.4 0  0.6499999999999999 -3.4 0  0.75 -3.4 0  -0.75 -3.3 0  -0.65 -3.3 0  -0.55 -3.3 0  -0.45 -3.3 0  -0.35 -3.3 0  -0.25 -3.3 0  -0.15 -3.3 0  -0.05000000000000004 -3.3 0  0.05000000000000004 -3.3 0  0.15 -3.3 0  0.25 -3.3 0  0.3500000000000001 -3.3 0  0.45 -3.3 0  0.55 -3.3 0  0.6499999999999999 -3.3 0  0.75 -3.3 0  -0.75 -3.2 0  -0.65 -3.2 0  -0.55 -3.2 0  -0.45 -3.2 0  -0.35 -3.2 0  -0.25 -3.2 0  -0.15 -3.2 0  -0.05000000000000004 -3.2 0  0.05000000000000004 -3.2 0  0.15 -3.2 0  0.25 -3.2 0  0.3500000000000001 -3.2 0  0.45 -3.2 0  0.55 -3.2 0  0.6499999999999999 -3.2 0  0.75 -3.2 0  -0.75 -3.1 0  -0.65 -3.1 0  -0.55 -3.1 0  -0.45 -3.1 0  -0.35 -3.1 0  -0.25 -3.1 0  -0.15 -3.1 0  -0.05000000000000004 -3.1 0  0.05000000000000004 -3.1 0  0.15 -3.1 0  0.25 -3.1 0  0.3500000000000001 -3.1 0  0.45 -3.1 0  0.55 -3.1 0  0.6499999999999999 -3.1 0  0.75 -3.1 0  -0.75 -3 0  -0.65 -3 0  -0.55 -3 0  -0.45 -3 0  -0.35 -3 0  -0.25 -3 0  -0.15 -3 0  -0.05000000000000004 -3 0  0.05000000000000004 -3 0  0.15 -3 0  0.25 -3 0  0.3500000000000001 -3 0  0.45 -3 0  0.55 -3 0  0.6499999999999999 -3 0  0.75 -3 0  -0.75 -2.9 0  -0.65 -2.9 0  -0.55 -2.9 0  -0.45 -2.9 0  -0.35 -2.9 0  -0.25 -2.9 0  -0.15 -2.9 0  -0.05000000000000004 -2.9 0  0.05000000000000004 -2.9 0  0.15 -2.9 0  0.25 -2.9 0  0.3500000000000001 -2.9 0  0.45 -2.9 0  0.55 -2.9 0  0.6499999999999999 -2.9 0  0.75 -2.9 0  -0.75 -2.8 0  -0.65 -2.8 0  -0.55 -2.8 0  -0.45 -2.8 0  -0.35 -2.8 0  -0.25 -2.8 0  -0.15 -2.8 0  -0.05000000000000004 -2.8 0  0.05000000000000004 -2.8 0  0.15 -2.8 0  0.25 -2.8 0  0.3500000000000001 -2.8 0  0.45 -2.8 0  0.55 -2.8 0  0.6499999999999999 -2.8 0  0.75 -2.8 0  -0.75 -2.7 0  -0.65 -2.7 0  -0.55 -2.7 0  -0.45 -2.7 0  -0.35 -2.7 0  -0.25 -2.7 0  -0.15 -2.7 0  -0.05000000000000004 -2.7 0  0.05000000000000004 -2.7 0  0.15 -2.7 0  0.25 -2.7 0  0.3500000000000001 -2.7 0  0.45 -2.7 0  0.55 -2.7 0  0.6499999999999999 -2.7 0  0.75 -2.7 0  -0.75 -2.6 0  -0.65 -2.6 0  -0.55 -2.6 0  -0.45 -2.6 0  -0.35 -2.6 0  -0.25 -2.6 0  -0.15 -2.6 0  -0.05000000000000004 -2.6 0  0.05000000000000004 -2.6 0  0.15 -2.6 0  0.25 -2.6 0  0.3500000000000001 -2.6 0  0.45 -2.6 0  0.55 -2.6 0  0.6499999999999999 -2.6 0  0.75 -2.6 0  -0.75 -2.5 0  -0.65 -2.5 0  -0.55 -2.5 0  -0.45 -2.5 0  -0.35 -2.5 0  -0.25 -2.5 0  -0.15 -2.5 0  -0.05000000000000004 -2.5 0  0.05000000000000004 -2.5 0  0.15 -2.5 0  0.25 -2.5 0  0.3500000000000001 -2.5 0  0.45 -2.5 0  0.55 -2.5 0  0.6499999999999999 -2.5 0  0.75 -2.5 0  -0.75 -2.4 0  -0.65 -2.4 0  -0.55 -2.4 0  -0.45 -2.4 0  -0.35 -2.4 0  -0.25 -2.4 0  -0.15 -2.4 0  -0.05000000000000004 -2.4 0  0.05000000000000004 -2.4 0  0.15 -2.4 0  0.25 -2.4 0  0.3500000000000001 -2.4 0  0.45 -2.4 0  0.55 -2.4 0  0.6499999999999999 -2.4 0  0.75 -2.4 0  -0.75 -2.3 0  -0.65 -2.3 0  -0.55 -2.3 0  -0.45 -2.3 0  -0.35 -2.3 0  -0.25 -2.3 0  -0.15 -2.3 0  -0.05000000000000004 -2.3 0  0.05000000000000004 -2.3 0  0.15 -2.3 0  0.25 -2.3 0  0.3500000000000001 -2.3 0  0.45 -2.3 0  0.55 -2.3 0  0.6499999999999999 -2.3 0  0.75 -2.3 0  -0.75 -2.2 0  -0.65 -2.2 0  -0.55 -2.2 0  -0.45 -2.2 0  -0.35 -2.2 0  -0.25 -2.2 0  -0.15 -2.2 0  -0.05000000000000004 -2.2 0  0.05000000000000004 -2.2 0  0.15 -2.2 0  0.25 -2.2 0  0.3500000000000001 -2.2 0  0.45 -2.2 0  0.55 -2.2 0  0.6499999999999999 -2.2 0  0.75 -2.2 0  -0.75 -2.1 0  -0.65 -2.1 0  -0.55 -2.1 0  -0.45 -2.1 0  -0.35 -2.1 0  -0.25 -2.1 0  -0.15 -2.1 0  -0.05000000000000004 -2.1 0  0.05000000000000004 -2.1 0  0.15 -2.1 0  0.25 -2.1 0  0.3500000000000001 -2.1 0  0.45 -2.1 0  0.55 -2.1 0  0.6499999999999999 -2.1 0  0.75 -2.1 0  -0.75 -2 0  -0.65 -2 0  -0.55 -2 0  -0.45 -2 0  -0.35 -2 0  -0.25 -2 0  -0.15 -2 0  -0.05000000000000004 -2 0  0.05000000000000004 -2 0  0.15 -2 0  0.25 -2 0  0.3500000000000001 -2 0  0.45 -2 0  0.55 -2 0  0.6499999999999999 -2 0  0.75 -2 0  -0.75 -1.9 0  -0.65 -1.9 0  -0.55 -1.9 0  -0.45 -1.9 0  -0.35 -1.9 0  -0.25 -1.9 0  -0.15 -1.9 0  -0.05000000000000004 -1.9 0  0.05000000000000004 -1.9 0  0.15 -1.9 0  0.25 -1.9 0  0.3500000000000001 -1.9 0  0.45 -1.9 0  0.55 -1.9 0  0.6499999999999999 -1.9 0  0.75 -1.9 0  -0.75 -1.8 0  -0.65 -1.8 0  -0.55 -1.8 0  -0.45 -1.8 0  -0.35 -1.8 0  -0.25 -1.8 0  -0.15 -1.8 0  -0.05000000000000004 -1.8 0  0.05000000000000004 -1.8 0  0.15 -1.8 0  0.25 -1.8 0  0.3500000000000001 -1.8 0  0.45 -1.8 0  0.55 -1.8 0  0.6499999999999999 -1.8 0  0.75 -1.8 0  -0.75 -1.7 0  -0.65 -1.7 0  -0.55 -1.7 0  -0.45 -1.7 0  -0.35 -1.7 0  -0.25 -1.7 0  -0.15 -1.7 0  -0.05000000000000004 -1.7 0  0.05000000000000004 -1.7 0  0.15 -1.7 0  0.25 -1.7 0  0.3500000000000001 -1.7 0  0.45 -1.7 0  0.55 -1.7 0  0.6499999999999999 -1.7 0  0.75 -1.7 0  -0.75 -1.6 0  -0.65 -1.6 0  -0.55 -1.6 0  -0.45 -1.6 0  -0.35 -1.6 0  -0.25 -1.6 0  -0.15 -1.6 0  -0.05000000000000004 -1.6 0  0.05000000000000004 -1.6 0  0.15 -1.6 0  0.25 -1.6 0  0.3500000000000001 -1.6 0  0.45 -1.6 0  0.55 -1.6 0  0.6499999999999999 -1.6 0  0.75 -1.6 0  -0.75 -1.5 0  -0.65 -1.5 0  -0.55 -1.5 0  -0.45 -1.5 0  -0.35 -1.5 0  -0.25 -1.5 0  -0.15 -1.5 0  -0.05000000000000004 -1.5 0  0.05000000000000004 -1.5 0  0.15 -1.5 0  0.25 -1.5 0  0.3500000000000001 -1.5 0  0.45 -1.5 0  0.55 -1.5 0  0.6499999999999999 -1.5 0  0.75 -1.5 0  -0.75 -1.4 0  -0.65 -1.4 0  -0.55 -1.4 0  -0.45 -1.4 0  -0.35 -1.4 0  -0.25 -1.4 0  -0.15 -1.4 0  -0.05000000000000004 -1.4 0  0.05000000000000004 -1.4 0  0.15 -1.4 0  0.25 -1.4 0  0.3500000000000001 -1.4 0  0.45 -1.4 0  0.55 -1.4 0  0.6499999999999999 -1.4 0  0.75 -1.4 0  -0.75 -1.3 0  -0.65 -1.3 0  -0.55 -1.3 0  -0.45 -1.3 0  -0.35 -1.3 0  -0.25 -1.3 0  -0.15 -1.3 0  -0.05000000000000004 -1.3 0  0.05000000000000004 -1.3 0  0.15 -1.3 0  0.25 -1.3 0  0.3500000000000001 -1.3 0  0.45 -1.3 0  0.55 -1.3 0  0.6499999999999999 -1.3 0  0.75 -1.3 0  -0.75 -1.2 0  -0.65 -1.2 0  -0.55 -1.2 0  -0.45 -1.2 0  -0.35 -1.2 0  -0.25 -1.2 0  -0.15 -1.2 0  -0.05000000000000004 -1.2 0  0.05000000000000004 -1.2 0  0.15 -1.2 0  0.25 -1.2 0  0.3500000000000001 -1.2 0  0.45 -1.2 0  0.55 -1.2 0  0.6499999999999999 -1.2 0  0.75 -1.2 0  -0.75 -1.1 0  -0.65 -1.1 0  -0.55 -1.1 0  -0.45 -1.1 0  -0.35 -1.1 0  -0.25 -1.1 0  -0.15 -1.1 0  -0.05000000000000004 -1.1 0  0.05000000000000004 -1.1 0  0.15 -1.1 0  0.25 -1.1 0  0.3500000000000001 -1.1 0  0.45 -1.1 0  0.55 -1.1 0  0.6499999999999999 -1.1 0  0.75 -1.1 0  -0.75 -1 0  -0.65 -1 0  -0.55 -1 0  -0.45 -1 0  -0.35 -1 0  -0.25 -1 0  -0.15 -1 0  -0.05000000000000004 -1 0  0.05000000000000004 -1 0  0.15 -1 0  0.25 -1 0  0.3500000000000001 -1 0  0.45 -1 0  0.55 -1 0  0.6499999999999999 -1 0  0.75 -1 0  -0.75 -0.8999999999999999 0  -0.65 -0.899999
[...]
<PointData  Vectors="flow"> 
<DataArray  type="Float64"  Name="flow"  NumberOfComponents="3" format="ascii">-1.6809808160179005e-09 3.3619952746821049e-09 0.0000000000000000e+00  7.7833045600525686e-14 3.3619952746836550e-09 0.0000000000000000e+00  2.9959022488416990e-17 3.3619952746747215e-09 0.0000000000000000e+00  -2.6510284993506801e-20 3.3619952746672574e-09 0.0000000000000000e+00  5.4887946098549143e-21 3.3619952746750292e-09 0.0000000000000000e+00  -4.1358922846819213e-21 3.3619952746811706e-09 0.0000000000000000e+00  -4.9236505366048253e-22 3.3619952746791949e-09 0.0000000000000000e+00  8.2068350053418507e-22 3.3619952746776869e-09 0.0000000000000000e+00  -3.3173385262246631e-21 3.3619952746836368e-09 0.0000000000000000e+00  1.3725695568881523e-21 3.3619952746729261e-09 0.0000000000000000e+00  -1.1768615763633871e-21 3.3619952746866664e-09 0.0000000000000000e+00  1.0458007397238868e-21 3.3619952746849698e-09 0.0000000000000000e+00  2.8211097244532818e-20 3.3619952746814808e-09 0.0000000000000000e+00  -2.9962767913854321e-17 3.3619952746772274e-09 0.0000000000000000e+00  -7.7833046564605574e-14 3.3619952746882976e-09 0.0000000000000000e+00  1.6809808160079722e-09 3.3619952746917155e-09 0.0000000000000000e+00  -1.6797345296582032e-09 1.0083148374532377e-08 0.0000000000000000e+00  7.8311625869241894e-14 1.0083148374536053e-08 0.0000000000000000e+00  2.9532984209314676e-17 1.0083148374541514e-08 0.0000000000000000e+00  -2.7477475300774325e-20 1.0083148374541622e-08 0.0000000000000000e+00  2.0820468546710848e-21 1.0083148374541205e-08 0.0000000000000000e+00  -2.4917260347045009e-21 1.0083148374537287e-08 0.0000000000000000e+00  2.7839433689695978e-22 1.0083148374541307e-08 0.0000000000000000e+00  -4.6813311426513629e-22 1.0083148374536904e-08 0.0000000000000000e+00  -3.5789905452646064e-21 1.0083148374537150e-08 0.0000000000000000e+00  -7.3601621691261480e-22 1.0083148374539450e-08 0.0000000000000000e+00  3.4423261960626352e-21 1.0083148374537387e-08 0.0000000000000000e+00  2.5881537936331035e-22 1.0083148374536854e-08 0.0000000000000000e+00  2.5363898650765255e-20 1.0083148374537744e-08 0.0000000000000000e+00  -2.9533032415781960e-17 1.0083148374535446e-08 0.0000000000000000e+00  -7.8311625350615970e-14 1.0083148374538250e-08 0.0000000000000000e+00  1.6797345296522029e-09 1.0083148374532966e-08 0.0000000000000000e+00  -1.6759803834919236e-09 2.0151307778451010e-08 0.0000000000000000e+00  7.9733660950594798e-14 2.0151307778447265e-08 0.0000000000000000e+00  2.8257865497866441e-17 2.0151307778448625e-08 0.0000000000000000e+00  -2.5535425215859204e-20 2.0151307778449852e-08 0.0000000000000000e+00  1.0698531359723290e-21 2.0151307778450130e-08 0.0000000000000000e+00  -2.6428963966451592e-21 2.0151307778450461e-08 0.0000000000000000e+00  -9.7225344881533422e-22 2.0151307778448711e-08 0.0000000000000000e+00  -5.1362808143447661e-21 2.0151307778445058e-08 0.0000000000000000e+00  -1.3430053627796602e-22 2.0151307778445207e-08 0.0000000000000000e+00  5.2569957681994300e-22 2.0151307778445597e-08 0.0000000000000000e+00  9.3266742793450158e-22 2.0151307778445726e-08 0.0000000000000000e+00  1.6213714237297783e-21 2.0151307778447900e-08 0.0000000000000000e+00  2.5488371164965117e-20 2.0151307778448390e-08 0.0000000000000000e+00  -2.8254386237841825e-17 2.0151307778448502e-08 0.0000000000000000e+00  -7.9733660040046368e-14 2.0151307778448823e-08 0.0000000000000000e+00  1.6759803834910362e-09 2.0151307778448479e-08 0.0000000000000000e+00  -1.6696729541118060e-09 3.0189306756730981e-08 0.0000000000000000e+00  8.2058344943508453e-14 3.0189306756734277e-08 0.0000000000000000e+00  2.6163620155507227e-17 3.0189306756728453e-08 0.0000000000000000e+00  -2.2253871430026855e-20 3.0189306756730075e-08 0.0000000000000000e+00  -1.9642783930687761e-21 3.0189306756728447e-08 0.0000000000000000e+00  -7.3950247035558347e-22 3.0189306756731100e-08 0.0000000000000000e+00  -3.6545982196517121e-21 3.0189306756728467e-08 0.0000000000000000e+00  -5.6778355206508698e-21 3.0189306756732450e-08 0.0000000000000000e+00  -7.5475238686399676e-22 3.0189306756728281e-08 0.0000000000000000e+00  -1.3782871796932640e-21 3.0189306756725879e-08 0.0000000000000000e+00  2.9386974181325618e-21 3.0189306756726303e-08 0.0000000000000000e+00  1.5194491731194692e-21 3.0189306756725899e-08 0.0000000000000000e+00  2.6527990422827189e-20 3.0189306756726627e-08 0.0000000000000000e+00  -2.6160161891557110e-17 3.0189306756731299e-08 0.0000000000000000e+00  -8.2058345421297560e-14 3.0189306756726521e-08 0.0000000000000000e+00  1.6696729541083517e-09 3.0189306756730637e-08 0.0000000000000000e+00  -1.6607379855804608e-09 4.0181614118354291e-08 0.0000000000000000e+00  8.5218684780068538e-14 4.0181614118356408e-08 0.0000000000000000e+00  2.3288129906841369e-17 4.0181614118356660e-08 0.0000000000000000e+00  -2.1543829008421366e-20 4.0181614118354191e-08 0.0000000000000000e+00  2.0866339595105499e-21 4.0181614118357394e-08 0.0000000000000000e+00  -4.7846979835562827e-21 4.0181614118351994e-08 0.0000000000000000e+00  1.2111161781728489e-21 4.0181614118355502e-08 0.0000000000000000e+00  -5.0640497147444995e-21 4.0181614118354152e-08 0.0000000000000000e+00  -7.5687475197278582e-21 4.0181614118355813e-08 0.0000000000000000e+00  -8.0993757905140797e-22 4.0181614118351922e-08 0.0000000000000000e+00  2.1039825874235275e-21 4.0181614118351531e-08 0.0000000000000000e+00  3.6277024255260617e-21 4.0181614118351683e-08 0.0000000000000000e+00  2.6523848937140306e-20 4.0181614118354171e-08 0.0000000000000000e+00  -2.3291618152951678e-17 4.0181614118352775e-08 0.0000000000000000e+00  -8.5218686638613800e-14 4.0181614118352252e-08 0.0000000000000000e+00  1.6607379855862049e-09 4.0181614118351286e-08 0.0000000000000000e+00  -1.6490745305678683e-09 5.0112172034708890e-08 0.0000000000000000e+00  8.9122953858085224e-14 5.0112172034705985e-08 0.0000000000000000e+00  1.9712839009625828e-17 5.0112172034704933e-08 0.0000000000000000e+00  -1.9093597892668208e-20 5.0112172034708982e-08 0.0000000000000000e+00  -3.4091690987742310e-21 5.0112172034706865e-08 0.0000000000000000e+00  -2.9856917882724048e-21 5.0112172034706971e-08 0.0000000000000000e+00  -2.0392794302766278e-21 5.0112172034705356e-08 0.0000000000000000e+00  -4.5348674701091016e-21 5.0112172034701141e-08 0.0000000000000000e+00  -4.5355620673124052e-21 5.0112172034702762e-08 0.0000000000000000e+00  -1.7134613194680883e-21 5.0112172034705879e-08 0.0000000000000000e+00  -3.9360145075110630e-21 5.0112172034703530e-08 0.0000000000000000e+00  3.8645733988207380e-21 5.0112172034700472e-08 0.0000000000000000e+00  2.3586123647621705e-20 5.0112172034697475e-08 0.0000000000000000e+00  -1.9708833654467020e-17 5.0112172034694676e-08 0.0000000000000000e+00  -8.9122954993601399e-14 5.0112172034700545e-08 0.0000000000000000e+00  1.6490745305666223e-09 5.0112172034700082e-08 0.0000000000000000e+00  -1.6345578813259118e-09 5.9964244377150597e-08 0.0000000000000000e+00  9.3656732750516974e-14 5.9964244377154316e-08 0.0000000000000000e+00  1.5498127446890864e-17 5.9964244377153667e-08 0.0000000000000000e+00  -1.4536833878770355e-20 5.9964244377149035e-08 0.0000000000000000e+00  3.0756062216632946e-22 5.9964244377147831e-08 0.0000000000000000e+00  -3.5537025610137488e-21 5.9964244377153469e-08 0.0000000000000000e+00  -7.7207274753428876e-21 5.9964244377147738e-08 0.0000000000000000e+00  -4.8328747378170085e-21 5.9964244377150094e-08 0.0000000000000000e+00  -5.2886355752213592e-21 5.9964244377143807e-08 0.0000000000000000e+00  -5.2665533578194301e-22 5.9964244377146348e-08 0.0000000000000000e+00  7.4483743222299295e-23 5.9964244377144006e-08 0.0000000000000000e+00  -9.3492393529273365e-23 5.9964244377146878e-08 0.0000000000000000e+00  1.5395397678726669e-20 5.9964244377143781e-08 0.0000000000000000e+00  -1.5498090874888046e-17 5.9964244377142179e-08 0.0000000000000000e+00  -9.3656735232775097e-14 5.9964244377141954e-08 0.0000000000000000e+00  1.6345578813321868e-09 5.9964244377141928e-08 0.0000000000000000e+00  -1.6170432260789748e-09 6.9720284846233682e-08 0.0000000000000000e+00  9.8685455263828949e-14 6.9720284846232358e-08 0.0000000000000000e+00  1.0747600328629267e-17 6.9720284846236091e-08 0.0000000000000000e+00  -1.4809998193997566e-20 6.9720284846236991e-08 0.0000000000000000e+00  -1.9404952724608204e-21 6.9720284846236104e-08 0.0000000000000000e+00  -4.6830665253722615e-21 6.9720284846232451e-08 0.0000000000000000e+00  -5.2025543017277006e-21 6.9720284846232597e-08 0.0000000000000000e+00  -7.6083209529675713e-21 6.9720284846230955e-08 0.0000000000000000e+00  -6.4567212949038641e-21 6.9720284846232689e-08 0.0000000000000000e+00  -2.9755684285050618e-21 6.9720284846226786e-08 0.0000000000000000e+00  -2.9167341230536411e-21 6.9720284846227528e-08 0.0000000000000000e+00  1.3655037139629672e-21 6.9720284846224867e-08 0.0000000000000000e+00  1.5328506420226733e-20 6.9720284846228163e-08 0.0000000000000000e+00  -1.0750387968061893e-17 6.9720284846233047e-08 0.0000000000000000e+00  -9.8685452184002657e-14 6.9720284846229235e-08 0.0000000000000000e+00  1.6170432260796144e-09 6.9720284846226720e-08 0.0000000000000000e+00  -1.5963699495445524e-09 7.9361829007190246e-08 0.0000000000000000e+00  1.0405734470419741e-13 7.9361829007187188e-08 0.0000000000000000e+00  5.5717431017524641e-18 7.9361829007187691e-08 0.0000000000000000e+00  -8.9972523627504669e-21 7.9361829007189663e-08 0.0000000000000000e+00  -4.4028545118945938e-22 7.9361829007188154e-08 0.0000000000000000e+00  -6.2098970835694987e-21 7.9361829007189253e-08 0.0000000000000000e+00  -9.8911920686902478e-21 7.9361829007193369e-08 0.0000000000000000e+00  -6.7717628198357889e-21 7.9361829007186950e-08 0.0000000000000000e+00  -9.0216340994344677e-21 7.9361829007188949e-08 0.0000000000000000e+00  -4.2854223280333108e-21 7.9361829007187427e-08 0.0000000000000000e+00  -3.7663193929802721e-21 7.9361829007184687e-08 0.0000000000000000e+00  -3.3521624310533321e-22 7.9361829007179949e-08 0.0000000000000000e+00  1.3659459730690202e-20 7.9361829007179764e-08 0.0000000000000000e+00  -5.5691073795180305e-18 7.9361829007180928e-08 0.0000000000000000e+00  -1.0405734961419864e-13 7.9361829007178480e-08 0.0000000000000000e+00  1.5963699495392154e-09 7.9361829007178811e-08 0.0000000000000000e+00  -1.5723664822854304e-09 8.8869413816399646e-08 0.0000000000000000e+00  1.0960687397429208e-13 8.8869413816402968e-08 0.0000000000000000e+00  7.5120026653269404e-20 8.8869413816406713e-08 0.0000000000000000e+00  -8.8101274248095107e-21 8.8869413816404185e-08 0.0000000000000000e+00  -4.1132829105943341e-21 8.8869413816405721e-08 0.0000000000000000e+00  -3.1341795419792040e-21 8.8869413816407084e-08 0.0000000000000000e+00  -4.7838014788908191e-21 8.8869413816402730e-08 0.0000000000000000e+00  -9.5579386763834162e-21 8.8869413816410948e-08 0.0000000000000000e+00  -7.6509784350880043e-21 8.8869413816406144e-08 0.0000000000000000e+00  -1.1734992476724604e-20 8.8869413816400519e-08 0.0000000000000000e+00  -7.3811795932960402e-21 8.8869413816394855e-08 0.0000000000000000e+00  1.9046880899592136e-21 8.8869413816395768e-08 0.0000000000000000e+00  8.4746133238403856e-21 8.8869413816396721e-08 0.0000000000000000e+00  -7.2116852020218104e-20 8.8869413816396536e-08 0.0000000000000000e+00  -1.0960687378043003e-13 8.8869413816399236e-08 0.0000000000000000e+00  1.5723664822755406e-09 8.8869413816400189e-08 0.0000000000000000e+00  -1.5448555909384974e-09 9.8222527612432849e-08 0.0000000000000000e+00  1.1515838061296787e-13 9.8222527612435073e-08 0.0000000000000000e+00  -5.6140977051747609e-18 9.8222527612431208e-08 0.0000000000000000e+00  -7.3147159445916393e-22 9.8222527612434332e-08 0.0000000000000000e+00  4.0195952446843018e-21 9.8222527612437521e-08 0.0000000000000000e+00  -7.2708417744749898e-21 9.8222527612433815e-08 0.0000000000000000e+00  -8.9879913177381680e-21 9.8222527612432439e-08 0.0000000000000000e+00  -6.0705162198576742e-21 9.8222527612431738e-08 0.0000000000000000e+00  -1.2371197090125890e-20 9.8222527612432121e-08 0.0000000000000000e+00  -1.4824924942668675e-20 9.8222527612434861e-08 0.0000000000000000e+00  -1.1976422535264602e-20 9.8222527612430864e-08 0.0000000000000000e+00  -7.0554942022992409e-22 9.8222527612427211e-08 0.0000000000000000e+00  1.9490589055612256e-21 9.8222527612430216e-08 0.0000000000000000e+00  5.6212568629297783e-18 9.8222527612426470e-08 0.0000000000000000e+00  -1.1515837685299393e-13 9.8222527612428694e-08 0.0000000000000000e+00  1.5448555909251610e-09 9.8222527612431698e-08 0.0000000000000000e+00  -1.5136599910903273e-09 1.0739959286574570e-07 0.0000000000000000e+00  1.2053005491480596e-13 1.0739959286574353e-07 0.0000000000000000e+00  -1.1369847609916925e-17 1.0739959286573780e-07 0.0000000000000000e+00  3.6958161999185785e-21 1.0739959286573861e-07 0.0000000000000000e+00  -5.5756234597814039e-21 1.0739959286574040e-07 0.0000000000000000e+00  -8.3833665133512814e-21 1.0739959286573621e-07 0.0000000000000000e+00  -2.7796724585289997e-21 1.0739959286573903e-07 0.0000000000000000e+00  -9.5975234621244352e-21 1.0739959286573879e-07 0.0000000000000000e+00  -9.7682274907195114e-21 1.0739959286573620e-07 0.0000000000000000e+00  -1.4032421552675975e-20 1.0739959286573191e-07 0.0000000000000000e+00  -1.1981489305774061e-20 1.0739959286574018e-07 0.0000000000000000e+00  5.3425023849721560e-21 1.0739959286574431e-07 0.0000000000000000e+00  7.4041121921958221e-22 1.0739959286574561e-07 0.0000000000000000e+00  1.1370572181802211e-17 1.0739959286574519e-07 0.0000000000000000e+00  -1.2053005375833618e-13 1.0739959286574110e-07 0.0000000000000000e+00  1.5136599910899962e-09 1.0739959286573866e-07 0.0000000000000000e+00  -1.4786081569191300e-09 1.1637798324800236e-07 0.0000000000000000e+00  1.2553803682129338e-13 1.1637798324799915e-07 0.0000000000000000e+00  -1.7057698855724718e-17 1.1637798324800372e-07 0.0000000000000000e+00  7.9174186615055805e-21 1.1637798324800195e-07 0.0000000000000000e+00  1.3131521019561816e-21 1.1637798324799917e-07 0.0000000000000000e+00  -5.8248040938015233e-21 1.1637798324800720e-07 0.0000000000000000e+00  -7.8858074621172003e-21 1.1637798324800386e-07 0.0000000000000000e+00  -7.8574663226257509e-21 1.1637798324799874e-07 0.0000000000000000e+00  -1.6276573986497679e-20 1.1637798324800151e-07 0.0000000000000000e+00  -1.1311823137181522e-20 1.1637798324800532e-07 0.0000000000000000e+00  -2.9392609040256141e-21 1.1637798324800593e-07 0.0000000000000000e+00  6.1464067135042324e-22 1.1637798324800470e-07 0.0000000000000000e+00  -5.6523671409356047e-21 1.1637798324800093e-07 0.0000000000000000e+00  1.7058628874670774e-17 1.1637798324800012e-07 0.0000000000000000e+00  -1.2553804489636759e-13 1.1637798324799898e-07 0.0000000000000000e+00  1.4786081569221217e-09 1.1637798324800019e-07 0.0000000000000000e+00  -1.4395401965537464e-09 1.2513407580995932e-07 0.0000000000000000e+00  1.3000057275831126e-13 1.2513407580995921e-07 0.0000000000000000e+00  -2.2547942114811375e-17 1.2513407580996022e-07 0.0000000000000000e+00  6.9943993287819032e-21 1.2513407580995879e-07 0.0000000000000000e+00  3.4570595224988487e-21 1.2513407580995871e-07 0.0000000000000000e+00  -5.7733418591211317e-21 1.2513407580995545e-07 0.0000000000000000e+00  -1.5558776936545954e-20 1.2513407580995622e-07 0.0000000000000000e+00  -1.3393013873603350e-20 1.2513407580995566e-07 0.0000000000000000e+00  -5.0266620135184440e-21 1.2513407580995370e-07 0.0000000000000000e+00  -8.0807464461010151e-21 1.2513407580995709e-07 0.0000000000000000e+00  -7.8272311695631057e-21 1.2513407580996302e-07 0.0000000000000000e+00  6.5433845151871302e-22 1.2513407580996088e-07 0.0000000000000000e+00  -7.3576106380844338e-21 1.2513407580995722e-07 0.0000000000000000e+00  2.2550318583826135e-17 1.2513407580995826e-07 0.0000000000000000e+00  -1.3000057740057392e-13 1.2513407580996138e-07 0.0000000000000000e+00  1.4395401965566692e-09 1.2513407580995587e-07 0.0000000000000000e+00  -1.3963136600152041e-09 1.3364333826309850e-07 0.0000000000000000e+00  1.3374215983922175e-13 1.3364333826309821e-07 0.0000000000000000e+00  -2.7717179403835383e-17 1.3364333826309678e-07 0.0000000000000000e+00  1.0988466317531754e-20 1.3364333826309818e-07 0.0000000000000000e+00  -3.0960526652560949e-21 1.3364333826309069e-07 0.0000000000000000e+00  -9.3411771597970353e-21 1.3364333826308672e-07 0.0000000000000000e+00  -5.8587903157815605e-21 1.3364333826308850e-07 0.0000000000000000e+00  -6.5029809740094084e-21 1.3364333826309824e-07 0.0000000000000000e+00  -1.4879353330003890e-20 1.3364333826310009e-07 0.0000000000000000e+00  -4.4899495500173823e-21 1.3364333826309667e-07 0.0000000000000000e+00  1.5200693569174822e-21 1.3364333826309948e-07 0.0000000000000000e+00  -7.4447432492323552e-21 1.3364333826310258e-07 0.0000000000000000e+00  -1.8586473841950608e-20 1.3364333826309490e-07 0.0000000000000000e+00  2.7723681333492286e-17 1.3364333826309069e-07 0.0000000000000000e+00  -1.3374216363864792e-13 1.3364333826309493e-07 0.0000000000000000e+00  1.3963136600105543e-09 1.3364333826309440e-07 0.0000000000000000e+00  -1.3488091471361634e-09 1.4188045056179811e-07 0.0000000000000000e+00  1.3659759004455402e-13 1.4188045056179726e-07 0.0000000000000000e+00  -3.2454315193170381e-17 1.4188045056179210e-07 0.0000000000000000e+00  1.0966913186275673e-20 1.4188045056178744e-07 0.0000000000000000e+00  -6.1119794743891858e-21 1.4188045056178959e-07 0.0000000000000000e+00  -3.7280582874623769e-21 1.4188045056179292e-07 0.0000000000000000e+00  -5.9136517477745779e-21 1.4188045056180078e-07 0.0000000000000000e+00  -1.6380137527167119e-21 1.4188045056179806e-07 0.0000000000000000e+00  -9.6579433513154491e-21 1.4188045056179970e-07 0.0000000000000000e+00  -6.3251815293127336e-21 1.4188045056180346e-07 0.0000000000000000e+00  -4.7158857840669692e-21 1.4188045056179586e-07 0.0000000000000000e+00  -2.7078985667538712e-21 1.4188045056179295e-07 0.0000000000000000e+00  -2.4245151287403696e-20 1.4188045056179589e-07 0.0000000000000000e+00  3.2447829068194724e-17 1.4188045056179843e-07 0.0000000000000000e+00  -1.3659759144579341e-13 1.4188045056179581e-07 0.0000000000000000e+00  1.3488091471262213e-09 1.4188045056180666e-07 0.0000000000000000e+00  -1.2969355861973741e-09 1.4981945919632326e-07 0.0000000000000000e+00  1.3841581526074388e-13 1.4981945919632929e-07 0.0000000000000000e+00  -3.6627511353381203e-17 1.4981945919633030e-07 0.0000000000000000e+00  1.6493413662936163e-20 1.4981945919633117e-07 0.0000000000000000e+00  -1.8446968161621571e-21 1.4981945919633363e-07 0.0000000000000000e+00  2.7301283953358697e-21 1.4981945919634051e-07 0.0000000000000000e+00  -2.7633839668949643e-22 1.4981945919633850e-07 0.0000000000000000e+00  -8.1854550033752174e-21 1.4981945919634094e-07 0.0000000000000000e+00  -6.8061310297894378e-21 1.4981945919634274e-07 0.0000000000000000e+00  -7.5549922364272825e-21 1.4981945919634223e-07 0.0000000000000000e+00  -7.2291273458622899e-21 1.4981945919634348e-07 0.0000000000000000e+00  -6.5158854490365681e-21 1.4981945919634295e-07 0.0000000000000000e+00  -2.3519071695736718e-20 1.4981945919633927e-07 0.0000000000000000e+00  3.6619919050757978e-17 1.4981945919634001e-07 0.0000000000000000e+00  -1.3841581259309302e-13 1.4981945919633908e-07 0.0000000000000000e+00  1.2969355861955855e-09 1.4981945919633861e-07 0.0000000000000000e+00  -1.2406350608860824e-09 1.5743396185047600e-07 0.0000000000000000e+00  1.3906346488775026e-13 1.5743396185046721e-07 0.0000000000000000e+00  -4.0142390790940884e-17 1.5743396185047521e-07 0.0000000000000000e+00  1.9581725255030637e-20 1.5743396185047521e-07 0.0000000000000000e+00  4.2440900160386288e-21 1.5743396185047719e-07 0.0000000000000000e+00  -1.8200536147365317e-21 1.5743396185047949e-07 0.0000000000000000e+00  -4.8600630397447590e-21 1.5743396185046854e-07 0.0000000000000000e+00  -1.2742326525784093e-21 1.5743396185047378e-07 0.0000000000000000e+00  -4.5956289426255651e-21 1.5743396185047370e-07 0.0000000000000000e+00  -6.9434603677901079e-21 1.5743396185048328e-