<?xml version="1.0"?>
<VTKFile type="UnstructuredGrid"  version="0.1"  >
<UnstructuredGrid>
<Piece  NumberOfPoints="1411" NumberOfCells="2700">
<Points>
<DataArray  type="Float64"  NumberOfComponents="3"  format="ascii">-0.75 -4.5 0  -0.65 -4.5 0  -0.55 -4.5 0  -0.45 -4.5 0  -0.35 -4.5 0  -0.25 -4.5 0  -0.15 -4.5 0  -0.05000000000000004 -4.5 0  0.05000000000000004 -4.5 0  0.15 -4.5 0  0.25 -4.5 0  0.3500000000000001 -4.5 0  0.45 -4.5 0  0.55 -4.5 0  0.6499999999999999 -4.5 0  0.75 -4.5 0  -0.75 -4.4 0  -0.65 -4.4 0  -0.55 -4.4 0  -0.45 -4.4 0  -0.35 -4.4 0  -0.25 -4.4 0  -0.15 -4.4 0  -0.05000000000000004 -4.4 0  0.05000000000000004 -4.4 0  0.15 -4.4 0  0.25 -4.4 0  0.3500000000000001 -4.4 0  0.45 -4.4 0  0.55 -4.4 0  0.6499999999999999 -4.4 0  0.75 -4.4 0  -0.75 -4.3 0  -0.65 -4.3 0  -0.55 -4.3 0  -0.45 -4.3 0  -0.35 -4.3 0  -0.25 -4.3 0  -0.15 -4.3 0  -0.05000000000000004 -4.3 0  0.05000000000000004 -4.3 0  0.15 -4.3 0  0.25 -4.3 0  0.3500000000000001 -4.3 0  0.45 -4.3 0  0.55 -4.3 0  0.6499999999999999 -4.3 0  0.75 -4.3 0  -0.75 -4.2 0  -0.65 -4.2 0  -0.55 -4.2 0  -0.45 -4.2 0  -0.35 -4.2 0  -0.25 -4.2 0  -0.15 -4.2 0  -0.05000000000000004 -4.2 0  0.05000000000000004 -4.2 0  0.15 -4.2 0  0.25 -4.2 0  0.3500000000000001 -4.2 0  0.45 -4.2 0  0.55 -4.2 0  0.6499999999999999 -4.2 0  0.75 -4.2 0  -0.75 -4.1 0  -0.65 -4.1 0  -0.55 -4.1 0  -0.45 -4.1 0  -0.35 -4.1 0  -0.25 -4.1 0  -0.15 -4.1 0  -0.05000000000000004 -4.1 0  0.05000000000000004 -4.1 0  0.15 -4.1 0  0.25 -4.1 0  0.3500000000000001 -4.1 0  0.45 -4.1 0  0.55 -4.1 0  0.6499999999999999 -4.1 0  0.75 -4.1 0  -0.75 -4 0  -0.65 -4 0  -0.55 -4 0  -0.45 -4 0  -0.35 -4 0  -0.25 -4 0  -0.15 -4 0  -0.05000000000000004 -4 0  0.05000000000000004 -4 0  0.15 -4 0  0.25 -4 0  0.3500000000000001 -4 0  0.45 -4 0  0.55 -4 0  0.6499999999999999 -4 0  0.75 -4 0  -0.75 -3.9 0  -0.65 -3.9 0  -0.55 -3.9 0  -0.45 -3.9 0  -0.35 -3.9 0  -0.25 -3.9 0  -0.15 -3.9 0  -0.05000000000000004 -3.9 0  0.05000000000000004 -3.9 0  0.15 -3.9 0  0.25 -3.9 0  0.3500000000000001 -3.9 0  0.45 -3.9 0  0.55 -3.9 0  0.6499999999999999 -3.9 0  0.75 -3.9 0  -0.75 -3.8 0  -0.65 -3.8 0  -0.55 -3.8 0  -0.45 -3.8 0  -0.35 -3.8 0  -0.25 -3.8 0  -0.15 -3.8 0  -0.05000000000000004 -3.8 0  0.05000000000000004 -3.8 0  0.15 -3.8 0  0.25 -3.8 0  0.3500000000000001 -3.8 0  0.45 -3.8 0  0.55 -3.8 0  0.6499999999999999 -3.8 0  0.75 -3.8 0  -0.75 -3.7 0  -0.65 -3.7 0  -0.55 -3.7 0  -0.45 -3.7 0  -0.35 -3.7 0  -0.25 -3.7 0  -0.15 -3.7 0  -0.05000000000000004 -3.7 0  0.05000000000000004 -3.7 0  0.15 -3.7 0  0.25 -3.7 0  0.3500000000000001 -3.7 0  0.45 -3.7 0  0.55 -3.7 0  0.6499999999999999 -3.7 0  0.75 -3.7 0  -0.75 -3.6 0  -0.65 -3.6 0  -0.55 -3.6 0  -0.45 -3.6 0  -0.35 -3.6 0  -0.25 -3.6 0  -0.15 -3.6 0  -0.05000000000000004 -3.6 0  0.05000000000000004 -3.6 0  0.15 -3.6 0  0.25 -3.6 0  0.3500000000000001 -3.6 0  0.45 -3.6 0  0.55 -3.6 0  0.6499999999999999 -3.6 0  0.75 -3.6 0  -0.75 -3.5 0  -0.65 -3.5 0  -0.55 -3.5 0  -0.45 -3.5 0  -0.35 -3.5 0  -0.25 -3.5 0  -0.15 -3.5 0  -0.05000000000000004 -3.5 0  0.05000000000000004 -3.5 0  0.15 -3.5 0  0.25 -3.5 0  0.3500000000000001 -3.5 0  0.45 -3.5 0  0.55 -3.5 0  0.6499999999999999 -3.5 0  0.75 -3.5 0  -0.75 -3.4 0  -0.65 -3.4 0  -0.55 -3.4 0  -0.45 -3.4 0  -0.35 -3.4 0  -0.25 -3.4 0  -0.15 -3.4 0  -0.05000000000000004 -3.4 0  0.05000000000000004 -3.4 0  0.15 -3.4 0  0.25 -3.4 0  0.3500000000000001 -3.4 0  0.45 -3.4 0  0.55 -3.4 0  0.6499999999999999 -3.4 0  0.75 -3.4 0  -0.75 -3.3 0  -0.65 -3.3 0  -0.55 -3.3 0  -0.45 -3.3 0  -0.35 -3.3 0  -0.25 -3.3 0  -0.15 -3.3 0  -0.05000000000000004 -3.3 0  0.05000000000000004 -3.3 0  0.15 -3.3 0  0.25 -3.3 0  0.3500000000000001 -3.3 0  0.45 -3.3 0  0.55 -3.3 0  0.6499999999999999 -3.3 0  0.75 -3.3 0  -0.75 -3.2 0  -0.65 -3.2 0  -0.55 -3.2 0  -0.45 -3.2 0  -0.35 -3.2 0  -0.25 -3.2 0  -0.15 -3.2 0  -0.05000000000000004 -3.2 0  0.05000000000000004 -3.2 0  0.15 -3.2 0  0.25 -3.2 0  0.3500000000000001 -3.2 0  0.45 -3.2 0  0.55 -3.2 0  0.6499999999999999 -3.2 0  0.75 -3.2 0  -0.75 -3.1 0  -0.65 -3.1 0  -0.55 -3.1 0  -0.45 -3.1 0  -0.35 -3.1 0  -0.25 -3.1 0  -0.15 -3.1 0  -0.05000000000000004 -3.1 0  0.05000000000000004 -3.1 0  0.15 -3.1 0  0.25 -3.1 0  0.3500000000000001 -3.1 0  0.45 -3.1 0  0.55 -3.1 0  0.6499999999999999 -3.1 0  0.75 -3.1 0  -0.75 -3 0  -0.65 -3 0  -0.55 -3 0  -0.45 -3 0  -0.35 -3 0  -0.25 -3 0  -0.15 -3 0  -0.05000000000000004 -3 0  0.05000000000000004 -3 0  0.15 -3 0  0.25 -3 0  0.3500000000000001 -3 0  0.45 -3 0  0.55 -3 0  0.6499999999999999 -3 0  0.75 -3 0  -0.75 -2.9 0  -0.65 -2.9 0  -0.55 -2.9 0  -0.45 -2.9 0  -0.35 -2.9 0  -0.25 -2.9 0  -0.15 -2.9 0  -0.05000000000000004 -2.9 0  0.05000000000000004 -2.9 0  0.15 -2.9 0  0.25 -2.9 0  0.3500000000000001 -2.9 0  0.45 -2.9 0  0.55 -2.9 0  0.6499999999999999 -2.9 0  0.75 -2.9 0  -0.75 -2.8 0  -0.65 -2.8 0  -0.55 -2.8 0  -0.45 -2.8 0  -0.35 -2.8 0  -0.25 -2.8 0  -0.15 -2.8 0  -0.05000000000000004 -2.8 0  0.05000000000000004 -2.8 0  0.15 -2.8 0  0.25 -2.8 0  0.3500000000000001 -2.8 0  0.45 -2.8 0  0.55 -2.8 0  0.6499999999999999 -2.8 0  0.75 -2.8 0  -0.75 -2.7 0  -0.65 -2.7 0  -0.55 -2.7 0  -0.45 -2.7 0  -0.35 -2.7 0  -0.25 -2.7 0  -0.15 -2.7 0  -0.05000000000000004 -2.7 0  0.05000000000000004 -2.7 0  0.15 -2.7 0  0.25 -2.7 0  0.3500000000000001 -2.7 0  0.45 -2.7 0  0.55 -2.7 0  0.6499999999999999 -2.7 0  0.75 -2.7 0  -0.75 -2.6 0  -0.65 -2.6 0  -0.55 -2.6 0  -0.45 -2.6 0  -0.35 -2.6 0  -0.25 -2.6 0  -0.15 -2.6 0  -0.05000000000000004 -2.6 0  0.05000000000000004 -2.6 0  0.15 -2.6 0  0.25 -2.6 0  0.3500000000000001 -2.6 0  0.45 -2.6 0  0.55 -2.6 0  0.6499999999999999 -2.6 0  0.75 -2.6 0  -0.75 -2.5 0  -0.65 -2.5 0  -0.55 -2.5 0  -0.45 -2.5 0  -0.35 -2.5 0  -0.25 -2.5 0  -0.15 -2.5 0  -0.05000000000000004 -2.5 0  0.05000000000000004 -2.5 0  0.15 -2.5 0  0.25 -2.5 0  0.3500000000000001 -2.5 0  0.45 -2.5 0  0.55 -2.5 0  0.6499999999999999 -2.5 0  0.75 -2.5 0  -0.75 -2.4 0  -0.65 -2.4 0  -0.55 -2.4 0  -0.45 -2.4 0  -0.35 -2.4 0  -0.25 -2.4 0  -0.15 -2.4 0  -0.05000000000000004 -2.4 0  0.05000000000000004 -2.4 0  0.15 -2.4 0  0.25 -2.4 0  0.3500000000000001 -2.4 0  0.45 -2.4 0  0.55 -2.4 0  0.6499999999999999 -2.4 0  0.75 -2.4 0  -0.75 -2.3 0  -0.65 -2.3 0  -0.55 -2.3 0  -0.45 -2.3 0  -0.35 -2.3 0  -0.25 -2.3 0  -0.15 -2.3 0  -0.05000000000000004 -2.3 0  0.05000000000000004 -2.3 0  0.15 -2.3 0  0.25 -2.3 0  0.3500000000000001 -2.3 0  0.45 -2.3 0  0.55 -2.3 0  0.6499999999999999 -2.3 0  0.75 -2.3 0  -0.75 -2.2 0  -0.65 -2.2 0  -0.55 -2.2 0  -0.45 -2.2 0  -0.35 -2.2 0  -0.25 -2.2 0  -0.15 -2.2 0  -0.05000000000000004 -2.2 0  0.05000000000000004 -2.2 0  0.15 -2.2 0  0.25 -2.2 0  0.3500000000000001 -2.2 0  0.45 -2.2 0  0.55 -2.2 0  0.6499999999999999 -2.2 0  0.75 -2.2 0  -0.75 -2.1 0  -0.65 -2.1 0  -0.55 -2.1 0  -0.45 -2.1 0  -0.35 -2.1 0  -0.25 -2.1 0  -0.15 -2.1 0  -0.05000000000000004 -2.1 0  0.05000000000000004 -2.1 0  0.15 -2.1 0  0.25 -2.1 0  0.3500000000000001 -2.1 0  0.45 -2.1 0  0.55 -2.1 0  0.6499999999999999 -2.1 0  0.75 -2.1 0  -0.75 -2 0  -0.65 -2 0  -0.55 -2 0  -0.45 -2 0  -0.35 -2 0  -0.25 -2 0  -0.15 -2 0  -0.05000000000000004 -2 0  0.05000000000000004 -2 0  0.15 -2 0  0.25 -2 0  0.3500000000000001 -2 0  0.45 -2 0  0.55 -2 0  0.6499999999999999 -2 0  0.75 -2 0  -0.75 -1.9 0  -0.65 -1.9 0  -0.55 -1.9 0  -0.45 -1.9 0  -0.35 -1.9 0  -0.25 -1.9 0  -0.15 -1.9 0  -0.05000000000000004 -1.9 0  0.05000000000000004 -1.9 0  0.15 -1.9 0  0.25 -1.9 0  0.3500000000000001 -1.9 0  0.45 -1.9 0  0.55 -1.9 0  0.6499999999999999 -1.9 0  0.75 -1.9 0  -0.75 -1.8 0  -0.65 -1.8 0  -0.55 -1.8 0  -0.45 -1.8 0  -0.35 -1.8 0  -0.25 -1.8 0  -0.15 -1.8 0  -0.05000000000000004 -1.8 0  0.05000000000000004 -1.8 0  0.15 -1.8 0  0.25 -1.8 0  0.3500000000000001 -1.8 0  0.45 -1.8 0  0.55 -1.8 0  0.6499999999999999 -1.8 0  0.75 -1.8 0  -0.75 -1.7 0  -0.65 -1.7 0  -0.55 -1.7 0  -0.45 -1.7 0  -0.35 -1.7 0  -0.25 -1.7 0  -0.15 -1.7 0  -0.05000000000000004 -1.7 0  0.05000000000000004 -1.7 0  0.15 -1.7 0  0.25 -1.7 0  0.3500000000000001 -1.7 0  0.45 -1.7 0  0.55 -1.7 0  0.6499999999999999 -1.7 0  0.75 -1.7 0  -0.75 -1.6 0  -0.65 -1.6 0  -0.55 -1.6 0  -0.45 -1.6 0  -0.35 -1.6 0  -0.25 -1.6 0  -0.15 -1.6 0  -0.05000000000000004 -1.6 0  0.05000000000000004 -1.6 0  0.15 -1.6 0  0.25 -1.6 0  0.3500000000000001 -1.6 0  0.45 -1.6 0  0.55 -1.6 0  0.6499999999999999 -1.6 0  0.75 -1.6 0  -0.75 -1.5 0  -0.65 -1.5 0  -0.55 -1.5 0  -0.45 -1.5 0  -0.35 -1.5 0  -0.25 -1.5 0  -0.15 -1.5 0  -0.05000000000000004 -1.5 0  0.05000000000000004 -1.5 0  0.15 -1.5 0  0.25 -1.5 0  0.3500000000000001 -1.5 0  0.45 -1.5 0  0.55 -1.5 0  0.6499999999999999 -1.5 0  0.75 -1.5 0  -0.75 -1.4 0  -0.65 -1.4 0  -0.55 -1.4 0  -0.45 -1.4 0  -0.35 -1.4 0  -0.25 -1.4 0  -0.15 -1.4 0  -0.05000000000000004 -1.4 0  0.05000000000000004 -1.4 0  0.15 -1.4 0  0.25 -1.4 0  0.3500000000000001 -1.4 0  0.45 -1.4 0  0.55 -1.4 0  0.6499999999999999 -1.4 0  0.75 -1.4 0  -0.75 -1.3 0  -0.65 -1.3 0  -0.55 -1.3 0  -0.45 -1.3 0  -0.35 -1.3 0  -0.25 -1.3 0  -0.15 -1.3 0  -0.05000000000000004 -1.3 0  0.05000000000000004 -1.3 0  0.15 -1.3 0  0.25 -1.3 0  0.3500000000000001 -1.3 0  0.45 -1.3 0  0.55 -1.3 0  0.6499999999999999 -1.3 0  0.75 -1.3 0  -0.75 -1.2 0  -0.65 -1.2 0  -0.55 -1.2 0  -0.45 -1.2 0  -0.35 -1.2 0  -0.25 -1.2 0  -0.15 -1.2 0  -0.05000000000000004 -1.2 0  0.05000000000000004 -1.2 0  0.15 -1.2 0  0.25 -1.2 0  0.3500000000000001 -1.2 0  0.45 -1.2 0  0.55 -1.2 0  0.6499999999999999 -1.2 0  0.75 -1.2 0  -0.75 -1.1 0  -0.65 -1.1 0  -0.55 -1.1 0  -0.45 -1.1 0  -0.35 -1.1 0  -0.25 -1.1 0  -0.15 -1.1 0  -0.05000000000000004 -1.1 0  0.05000000000000004 -1.1 0  0.15 -1.1 0  0.25 -1.1 0  0.3500000000000001 -1.1 0  0.45 -1.1 0  0.55 -1.1 0  0.6499999999999999 -1.1 0  0.75 -1.1 0  -0.75 -1 0  -0.65 -1 0  -0.55 -1 0  -0.45 -1 0  -0.35 -1 0  -0.25 -1 0  -0.15 -1 0  -0.05000000000000004 -1 0  0.05000000000000004 -1 0  0.15 -1 0  0.25 -1 0  0.3500000000000001 -1 0  0.45 -1 0  0.55 -1 0  0.6499999999999999 -1 0  0.75 -1 0  -0.75 -0.8999999999999999 0  -0.65 -0.899999
[...]
<PointData  Vectors="flow"> 
<DataArray  type="Float64"  Name="flow"  NumberOfComponents="3" format="ascii">-3.3026246227256521e-10 6.6053621075759161e-10 0.0000000000000000e+00  2.5620958351935390e-14 6.6053621075731233e-10 0.0000000000000000e+00  -1.9865475548744215e-18 6.6053621075965439e-10 0.0000000000000000e+00  -3.9204943836018671e-21 6.6053621074838137e-10 0.0000000000000000e+00  -7.7097760584940226e-21 6.6053621075468056e-10 0.0000000000000000e+00  -1.8177594448356008e-21 6.6053621075701982e-10 0.0000000000000000e+00  -4.3644996263678753e-21 6.6053621075501639e-10 0.0000000000000000e+00  -7.3631796605356310e-21 6.6053621076699728e-10 0.0000000000000000e+00  -5.3700980065374322e-21 6.6053621075489852e-10 0.0000000000000000e+00  -6.2805819542274390e-21 6.6053621075584998e-10 0.0000000000000000e+00  -1.6790602829103787e-21 6.6053621075354959e-10 0.0000000000000000e+00  5.1538202344431314e-22 6.6053621075515649e-10 0.0000000000000000e+00  2.7296258414102596e-21 6.6053621075514047e-10 0.0000000000000000e+00  1.9885191020451522e-18 6.6053621075505403e-10 0.0000000000000000e+00  -2.5620960568507820e-14 6.6053621075654481e-10 0.0000000000000000e+00  3.3026246227182591e-10 6.6053621075808037e-10 0.0000000000000000e+00  -3.2985259051802006e-10 1.9806751126499092e-09 0.0000000000000000e+00  2.5589163539324123e-14 1.9806751126515119e-09 0.0000000000000000e+00  -1.9895554838145960e-18 1.9806751126483359e-09 0.0000000000000000e+00  -5.7421322476029376e-21 1.9806751126457158e-09 0.0000000000000000e+00  -7.8716846664315024e-22 1.9806751126492628e-09 0.0000000000000000e+00  -3.6609919920236237e-21 1.9806751126466142e-09 0.0000000000000000e+00  -1.3837477279502086e-21 1.9806751126476175e-09 0.0000000000000000e+00  -6.2165657883650681e-21 1.9806751126498455e-09 0.0000000000000000e+00  -1.1327644905130508e-20 1.9806751126529706e-09 0.0000000000000000e+00  -6.5292660626630087e-21 1.9806751126440425e-09 0.0000000000000000e+00  -9.0129108023573569e-22 1.9806751126458213e-09 0.0000000000000000e+00  3.0670736569390940e-21 1.9806751126441488e-09 0.0000000000000000e+00  1.0768047769599931e-21 1.9806751126483219e-09 0.0000000000000000e+00  1.9844986557082209e-18 1.9806751126496024e-09 0.0000000000000000e+00  -2.5589161528523807e-14 1.9806751126507674e-09 0.0000000000000000e+00  3.2985259051612582e-10 1.9806751126486060e-09 0.0000000000000000e+00  -3.2862399258216519e-10 3.9564339972580925e-09 0.0000000000000000e+00  2.5493848229798257e-14 3.9564339972564787e-09 0.0000000000000000e+00  -1.9832844868802790e-18 3.9564339972569270e-09 0.0000000000000000e+00  -3.3370306263145787e-21 3.9564339972571429e-09 0.0000000000000000e+00  -5.6516074720734133e-21 3.9564339972562024e-09 0.0000000000000000e+00  -3.6871905617192637e-21 3.9564339972548227e-09 0.0000000000000000e+00  -9.8075208318770353e-22 3.9564339972561114e-09 0.0000000000000000e+00  -6.8000433440273356e-22 3.9564339972538946e-09 0.0000000000000000e+00  -1.2409703927093292e-20 3.9564339972552263e-09 0.0000000000000000e+00  -1.4145692488521861e-20 3.9564339972527282e-09 0.0000000000000000e+00  -6.5920753484345714e-22 3.9564339972513766e-09 0.0000000000000000e+00  3.1539841934817219e-21 3.9564339972554745e-09 0.0000000000000000e+00  7.4104044132660266e-21 3.9564339972536348e-09 0.0000000000000000e+00  1.9810772898917093e-18 3.9564339972557963e-09 0.0000000000000000e+00  -2.5493853187374317e-14 3.9564339972582712e-09 0.0000000000000000e+00  3.2862399257814205e-10 3.9564339972566342e-09 0.0000000000000000e+00  -3.2657971795681794e-10 5.9223726282674694e-09 0.0000000000000000e+00  2.5335262738465644e-14 5.9223726282673313e-09 0.0000000000000000e+00  -1.9685444707040901e-18 5.9223726282718146e-09 0.0000000000000000e+00  -6.1287675805803902e-21 5.9223726282694472e-09 0.0000000000000000e+00  -3.5402079989148608e-21 5.9223726282688740e-09 0.0000000000000000e+00  -3.5057500280503332e-21 5.9223726282747494e-09 0.0000000000000000e+00  -2.9685421031545839e-21 5.9223726282698153e-09 0.0000000000000000e+00  -6.8332219103795972e-21 5.9223726282690766e-09 0.0000000000000000e+00  -1.1893475328882799e-20 5.9223726282590570e-09 0.0000000000000000e+00  -1.1139077116968089e-20 5.9223726282668143e-09 0.0000000000000000e+00  2.5078322377156442e-21 5.9223726282685216e-09 0.0000000000000000e+00  4.5665703853465149e-21 5.9223726282701429e-09 0.0000000000000000e+00  1.4409151869650506e-21 5.9223726282673354e-09 0.0000000000000000e+00  1.9708861184128243e-18 5.9223726282671476e-09 0.0000000000000000e+00  -2.5335259966358349e-14 5.9223726282700709e-09 0.0000000000000000e+00  3.2657971795568579e-10 5.9223726282747105e-09 0.0000000000000000e+00  -3.2372484069685753e-10 7.8736113548201709e-09 0.0000000000000000e+00  2.5113790266116473e-14 7.8736113548216847e-09 0.0000000000000000e+00  -1.9534978765028737e-18 7.8736113548148968e-09 0.0000000000000000e+00  -5.9818373083688603e-21 7.8736113548175389e-09 0.0000000000000000e+00  5.1891782202815975e-23 7.8736113548218418e-09 0.0000000000000000e+00  -2.3662866425536825e-21 7.8736113548206854e-09 0.0000000000000000e+00  -6.2626698141419058e-21 7.8736113548243135e-09 0.0000000000000000e+00  -1.1567968755457124e-20 7.8736113548142467e-09 0.0000000000000000e+00  -1.5886583053932358e-20 7.8736113548136676e-09 0.0000000000000000e+00  -5.4657893445413397e-21 7.8736113548140118e-09 0.0000000000000000e+00  5.0635757019417207e-21 7.8736113548209816e-09 0.0000000000000000e+00  2.8479572807524232e-21 7.8736113548210527e-09 0.0000000000000000e+00  3.3388192394319439e-21 7.8736113548257147e-09 0.0000000000000000e+00  1.9524525210171137e-18 7.8736113548204207e-09 0.0000000000000000e+00  -2.5113785064408814e-14 7.8736113548176282e-09 0.0000000000000000e+00  3.2372484069594696e-10 7.8736113548192925e-09 0.0000000000000000e+00  -3.2006644684917818e-10 9.8053070124536138e-09 0.0000000000000000e+00  2.4829976426503058e-14 9.8053070124508940e-09 0.0000000000000000e+00  -1.9329461612307254e-18 9.8053070124475903e-09 0.0000000000000000e+00  3.6249161289008270e-21 9.8053070124535410e-09 0.0000000000000000e+00  -2.4112946214196810e-21 9.8053070124524144e-09 0.0000000000000000e+00  -1.8884320644884896e-21 9.8053070124487764e-09 0.0000000000000000e+00  -1.1098586872623747e-20 9.8053070124426255e-09 0.0000000000000000e+00  -1.9154424999519105e-20 9.8053070124352603e-09 0.0000000000000000e+00  -8.4886053559667534e-21 9.8053070124398148e-09 0.0000000000000000e+00  -1.8178570652563093e-21 9.8053070124458813e-09 0.0000000000000000e+00  5.9608262752910127e-21 9.8053070124453569e-09 0.0000000000000000e+00  8.3291173972558015e-21 9.8053070124442203e-09 0.0000000000000000e+00  7.3130002254189499e-22 9.8053070124432740e-09 0.0000000000000000e+00  1.9242399749395225e-18 9.8053070124398032e-09 0.0000000000000000e+00  -2.4829977262956062e-14 9.8053070124403044e-09 0.0000000000000000e+00  3.2006644685040344e-10 9.8053070124396824e-09 0.0000000000000000e+00  -3.1561361685712225e-10 1.1712664944234876e-08 0.0000000000000000e+00  2.4484539319331538e-14 1.1712664944238975e-08 0.0000000000000000e+00  -1.9036962021298854e-18 1.1712664944248802e-08 0.0000000000000000e+00  -3.3281149201184585e-21 1.1712664944243632e-08 0.0000000000000000e+00  -5.1638511782258357e-21 1.1712664944230384e-08 0.0000000000000000e+00  -8.6179063813445191e-21 1.1712664944227487e-08 0.0000000000000000e+00  -1.6861959257396860e-20 1.1712664944216640e-08 0.0000000000000000e+00  -1.4236366667632794e-20 1.1712664944226538e-08 0.0000000000000000e+00  -9.4920955867060605e-21 1.1712664944223123e-08 0.0000000000000000e+00  -1.2355658412569228e-21 1.1712664944222403e-08 0.0000000000000000e+00  4.9268951217132203e-21 1.1712664944221925e-08 0.0000000000000000e+00  3.7809844672569541e-21 1.1712664944220099e-08 0.0000000000000000e+00  -1.1387968326336966e-21 1.1712664944217493e-08 0.0000000000000000e+00  1.9012268708987758e-18 1.1712664944223497e-08 0.0000000000000000e+00  -2.4484540608233559e-14 1.1712664944220906e-08 0.0000000000000000e+00  3.1561361685566807e-10 1.1712664944219917e-08 0.0000000000000000e+00  -3.1037740301372003e-10 1.3590950901546189e-08 0.0000000000000000e+00  2.4078337062039514e-14 1.3590950901541671e-08 0.0000000000000000e+00  -1.8660868601127985e-18 1.3590950901543575e-08 0.0000000000000000e+00  -1.1974822234941552e-20 1.3590950901546575e-08 0.0000000000000000e+00  -1.9478066726049778e-20 1.3590950901544045e-08 0.0000000000000000e+00  -1.9189609380484478e-20 1.3590950901533563e-08 0.0000000000000000e+00  -1.5475550114224935e-20 1.3590950901529646e-08 0.0000000000000000e+00  -1.0308932268231222e-20 1.3590950901529518e-08 0.0000000000000000e+00  -8.2919561650906036e-21 1.3590950901536248e-08 0.0000000000000000e+00  -1.1253331897053988e-21 1.3590950901539056e-08 0.0000000000000000e+00  -7.2162131367478043e-22 1.3590950901530994e-08 0.0000000000000000e+00  3.3808010994235621e-21 1.3590950901530584e-08 0.0000000000000000e+00  3.7248832796749658e-21 1.3590950901531546e-08 0.0000000000000000e+00  1.8699140756713480e-18 1.3590950901530322e-08 0.0000000000000000e+00  -2.4078332786428655e-14 1.3590950901530077e-08 0.0000000000000000e+00  3.1037740302297479e-10 1.3590950901527634e-08 0.0000000000000000e+00  -3.0437080207907318e-10 1.5435502794879183e-08 0.0000000000000000e+00  2.3612352419230620e-14 1.5435502794875080e-08 0.0000000000000000e+00  -1.8315442129985160e-18 1.5435502794868738e-08 0.0000000000000000e+00  -1.0601268301508078e-20 1.5435502794866997e-08 0.0000000000000000e+00  -1.1491543196686401e-20 1.5435502794869406e-08 0.0000000000000000e+00  -2.1889995867330633e-20 1.5435502794874720e-08 0.0000000000000000e+00  -1.7619570081873892e-20 1.5435502794885586e-08 0.0000000000000000e+00  -1.0300670473135202e-20 1.5435502794878220e-08 0.0000000000000000e+00  -8.2568945555236071e-21 1.5435502794872430e-08 0.0000000000000000e+00  -4.1335777639013119e-21 1.5435502794870693e-08 0.0000000000000000e+00  6.5374189082674328e-22 1.5435502794871358e-08 0.0000000000000000e+00  4.5891754528791250e-21 1.5435502794866005e-08 0.0000000000000000e+00  -3.7420006189511998e-21 1.5435502794868923e-08 0.0000000000000000e+00  1.8327882904471584e-18 1.5435502794860003e-08 0.0000000000000000e+00  -2.3612358126684572e-14 1.5435502794862650e-08 0.0000000000000000e+00  3.0437080206720304e-10 1.5435502794856092e-08 0.0000000000000000e+00  -2.9760872291551135e-10 1.7241742265580262e-08 0.0000000000000000e+00  2.3087765384627219e-14 1.7241742265580213e-08 0.0000000000000000e+00  -1.7968209886391743e-18 1.7241742265577258e-08 0.0000000000000000e+00  -6.6873178502294282e-21 1.7241742265573972e-08 0.0000000000000000e+00  -1.4028599927917511e-20 1.7241742265579663e-08 0.0000000000000000e+00  -8.8236853819480527e-21 1.7241742265576401e-08 0.0000000000000000e+00  -9.2299034436962985e-21 1.7241742265595463e-08 0.0000000000000000e+00  -2.1598454541079372e-20 1.7241742265598867e-08 0.0000000000000000e+00  -9.1092876585246427e-21 1.7241742265595274e-08 0.0000000000000000e+00  -4.1094851261142148e-21 1.7241742265586109e-08 0.0000000000000000e+00  -9.9110131628156255e-21 1.7241742265588580e-08 0.0000000000000000e+00  1.8943110920413421e-21 1.7241742265587618e-08 0.0000000000000000e+00  4.7707011624501867e-22 1.7241742265579223e-08 0.0000000000000000e+00  1.7851879849020027e-18 1.7241742265583621e-08 0.0000000000000000e+00  -2.3087776493392377e-14 1.7241742265571640e-08 0.0000000000000000e+00  2.9760872290883491e-10 1.7241742265577341e-08 0.0000000000000000e+00  -2.9010794961595344e-10 1.9005186049727309e-08 0.0000000000000000e+00  2.2505883519782445e-14 1.9005186049730320e-08 0.0000000000000000e+00  -1.7515427126846056e-18 1.9005186049743201e-08 0.0000000000000000e+00  -8.5576694868154574e-21 1.9005186049744597e-08 0.0000000000000000e+00  -1.0029702007665729e-20 1.9005186049745590e-08 0.0000000000000000e+00  -1.9978119452070916e-21 1.9005186049758210e-08 0.0000000000000000e+00  2.5214610748977634e-22 1.9005186049745636e-08 0.0000000000000000e+00  -1.2751291566433533e-20 1.9005186049750725e-08 0.0000000000000000e+00  -2.2238073319484189e-20 1.9005186049756277e-08 0.0000000000000000e+00  -1.2272989277380313e-20 1.9005186049754431e-08 0.0000000000000000e+00  4.1624038990933885e-21 1.9005186049751949e-08 0.0000000000000000e+00  -7.3799399770391158e-21 1.9005186049743423e-08 0.0000000000000000e+00  -6.3706129048413059e-21 1.9005186049734062e-08 0.0000000000000000e+00  1.7423198681615791e-18 1.9005186049746669e-08 0.0000000000000000e+00  -2.2505891006685121e-14 1.9005186049753954e-08 0.0000000000000000e+00  2.9010794961610017e-10 1.9005186049756760e-08 0.0000000000000000e+00  -2.8188709975108011e-10 2.0721457106072239e-08 0.0000000000000000e+00  2.1868131842123012e-14 2.0721457106077570e-08 0.0000000000000000e+00  -1.6929506877278709e-18 2.0721457106061807e-08 0.0000000000000000e+00  -2.2604836907823763e-21 2.0721457106079826e-08 0.0000000000000000e+00  -3.6616220025419859e-21 2.0721457106079992e-08 0.0000000000000000e+00  -7.8718339641988104e-21 2.0721457106080931e-08 0.0000000000000000e+00  -1.2937524893181042e-20 2.0721457106067329e-08 0.0000000000000000e+00  -1.0055640025569035e-20 2.0721457106072759e-08 0.0000000000000000e+00  -4.1892599072400619e-21 2.0721457106075277e-08 0.0000000000000000e+00  -3.8066269511122380e-21 2.0721457106085686e-08 0.0000000000000000e+00  -2.3096712955647949e-20 2.0721457106083893e-08 0.0000000000000000e+00  -1.3703347809880562e-20 2.0721457106075379e-08 0.0000000000000000e+00  1.9904435085569397e-21 2.0721457106086596e-08 0.0000000000000000e+00  1.7067320064459960e-18 2.0721457106078748e-08 0.0000000000000000e+00  -2.1868128941243237e-14 2.0721457106090047e-08 0.0000000000000000e+00  2.8188709974364913e-10 2.0721457106085967e-08 0.0000000000000000e+00  -2.7296657819399688e-10 2.2386295480173403e-08 0.0000000000000000e+00  2.1176101793832164e-14 2.2386295480172688e-08 0.0000000000000000e+00  -1.6438451522957236e-18 2.2386295480174518e-08 0.0000000000000000e+00  5.3663049236636263e-21 2.2386295480169287e-08 0.0000000000000000e+00  -8.1157790952956059e-21 2.2386295480168503e-08 0.0000000000000000e+00  -9.9621730326876167e-21 2.2386295480169519e-08 0.0000000000000000e+00  -1.0731576416438666e-20 2.2386295480176821e-08 0.0000000000000000e+00  -4.8377614274456296e-21 2.2386295480170809e-08 0.0000000000000000e+00  -1.3677640569975337e-20 2.2386295480166984e-08 0.0000000000000000e+00  -8.3741694271389909e-21 2.2386295480155864e-08 0.0000000000000000e+00  -8.8057402266532708e-21 2.2386295480157217e-08 0.0000000000000000e+00  -1.1218756330185175e-21 2.2386295480184150e-08 0.0000000000000000e+00  -1.4105582700088813e-21 2.2386295480180434e-08 0.0000000000000000e+00  1.6438834742685474e-18 2.2386295480172354e-08 0.0000000000000000e+00  -2.1176098368951025e-14 2.2386295480170280e-08 0.0000000000000000e+00  2.7296657818803931e-10 2.2386295480175478e-08 0.0000000000000000e+00  -2.6336852648787690e-10 2.3995568878121601e-08 0.0000000000000000e+00  2.0431502895877998e-14 2.3995568878113431e-08 0.0000000000000000e+00  -1.5851606125664657e-18 2.3995568878111052e-08 0.0000000000000000e+00  1.7336625527273741e-21 2.3995568878112780e-08 0.0000000000000000e+00  -5.1503974107592154e-21 2.3995568878122190e-08 0.0000000000000000e+00  -4.6683517326540851e-21 2.3995568878114507e-08 0.0000000000000000e+00  -1.5831545834692460e-20 2.3995568878119179e-08 0.0000000000000000e+00  -2.1541602756468518e-20 2.3995568878106566e-08 0.0000000000000000e+00  -1.2015340694135909e-20 2.3995568878108108e-08 0.0000000000000000e+00  -4.7773377373787149e-21 2.3995568878117035e-08 0.0000000000000000e+00  7.0933453209924176e-21 2.3995568878123642e-08 0.0000000000000000e+00  3.7808521091296510e-21 2.3995568878127384e-08 0.0000000000000000e+00  -9.1290940577238604e-21 2.3995568878128440e-08 0.0000000000000000e+00  1.5801184314574695e-18 2.3995568878121862e-08 0.0000000000000000e+00  -2.0431504546634549e-14 2.3995568878127341e-08 0.0000000000000000e+00  2.6336852648651350e-10 2.3995568878118874e-08 0.0000000000000000e+00  -2.5311676783789938e-10 2.5545282923235034e-08 0.0000000000000000e+00  1.9636201155754405e-14 2.5545282923236133e-08 0.0000000000000000e+00  -1.5252131036398204e-18 2.5545282923236837e-08 0.0000000000000000e+00  4.2739216106941662e-21 2.5545282923226805e-08 0.0000000000000000e+00  -2.1454569831170655e-21 2.5545282923225826e-08 0.0000000000000000e+00  -8.3761712824178656e-21 2.5545282923231596e-08 0.0000000000000000e+00  -1.0551865926134533e-20 2.5545282923239074e-08 0.0000000000000000e+00  -9.7008034823897892e-21 2.5545282923254800e-08 0.0000000000000000e+00  -9.5178732527653333e-21 2.5545282923265564e-08 0.0000000000000000e+00  -7.9919462527410721e-21 2.5545282923245248e-08 0.0000000000000000e+00  4.5938951214105627e-21 2.5545282923255214e-08 0.0000000000000000e+00  4.8707734935123448e-21 2.5545282923242217e-08 0.0000000000000000e+00  -6.4122927192947660e-21 2.5545282923251068e-08 0.0000000000000000e+00  1.5300480434849467e-18 2.5545282923247776e-08 0.0000000000000000e+00  -1.9636199449437514e-14 2.5545282923257891e-08 0.0000000000000000e+00  2.5311676782284924e-10 2.5545282923262741e-08 0.0000000000000000e+00  -2.4223674810561364e-10 2.7031591070631671e-08 0.0000000000000000e+00  1.8792151805481014e-14 2.7031591070630288e-08 0.0000000000000000e+00  -1.4664880508848962e-18 2.7031591070622089e-08 0.0000000000000000e+00  -4.6302518396224388e-21 2.7031591070629305e-08 0.0000000000000000e+00  7.0092637367091759e-23 2.7031591070620044e-08 0.0000000000000000e+00  -1.7181747296281270e-22 2.7031591070629487e-08 0.0000000000000000e+00  1.4901320248513258e-21 2.7031591070634566e-08 0.0000000000000000e+00  -2.9738587966590890e-21 2.7031591070631833e-08 0.0000000000000000e+00  -1.7724726350703392e-20 2.7031591070623842e-08 0.0000000000000000e+00  -2.8255848179155824e-21 2.7031591070632280e-08 0.0000000000000000e+00  4.3348842553118538e-21 2.7031591070635032e-08 0.0000000000000000e+00  1.3831888772577396e-21 2.7031591070630069e-08 0.0000000000000000e+00  -8.5961521443115466e-21 2.7031591070628395e-08 0.0000000000000000e+00  1.4528097855343007e-18 2.7031591070639059e-08 0.0000000000000000e+00  -1.8792149600872732e-14 2.7031591070607428e-08 0.0000000000000000e+00  2.4223674809685348e-10 2.7031591070620107e-08 0.0000000000000000e+00  -2.3075547241716733e-10 2.8450804154598821e-08 0.0000000000000000e+00  1.7901461819420427e-14 2.8450804154603291e-08 0.0000000000000000e+00  -1.3933090634812382e-18 2.8450804154608528e-08 0.0000000000000000e+00  3.6723050751305290e-21 2.8450804154615245e-08 0.0000000000000000e+00  2.5152818518994895e-21 2.8450804154614908e-08 0.0000000000000000e+00  8.1368335582403590e-21 2.8450804154628556e-08 0.0000000000000000e+00  -6.1677562429811345e-21 2.8450804154615189e-08 0.0000000000000000e+00  -1.2745678702892428e-20 2.8450804154619384e-08 0.0000000000000000e+00  -1.2222617761667879e-20 2.8450804154613412e-08 0.0000000000000000e+00  -5.9296854785218730e-21 2.8450804154618266e-08 0.0000000000000000e+00  -1.9640906145272720e-21 2.8450804154601004e-08 0.0000000000000000e+00  -2.7467868513179520e-21 2.8450804154612787e-08 0.0000000000000000e+00  8.9069812232229559e-21 2.8450804154597236e-08 0.0000000000000000e+00  1.3848525807305849e-18 2.8450804154619907e-08 0.0000000000000000e+00  -1.7901480447847752e-14 2.8450804154622273e-08 0.0000000000000000e+00  2.3075547242433519e-10 2.8450804154609531e-08 0.0000000000000000e+00  -2.1870143845551572e-10 2.9799399545689765e-08 0.0000000000000000e+00  1.6966355289045504e-14 2.9799399545690943e-08 0.0000000000000000e+00  -1.3118297181639901e-18 2.9799399545708672e-08 0.0000000000000000e+00  -1.0243920032502981e-20 2.9799399545696098e-08 0.0000000000000000e+00  6.5633134177436025e-21 2.9799399545691493e-08 0.0000000000000000e+00  7.2735253425165474e-21 2.9799399545678489e-08 0.0000000000000000e+00  -1.0983392426742703e-20 2.9799399545682781e-08 0.0000000000000000e+00  -7.9740892600430288e-21 2.9799399545676524e-08 0.0000000000000000e+00  -1.5147690562556192e-20 2.9799399545686506e-08 0.0000000000000000e+00  -5.6632151010728416e-21 2.979939954570