<?xml version="1.0"?>
<VTKFile type="UnstructuredGrid"  version="0.1"  >
<UnstructuredGrid>
<Piece  NumberOfPoints="1411" NumberOfCells="2700">
<Points>
<DataArray  type="Float64"  NumberOfComponents="3"  format="ascii">-0.75 -4.5 0  -0.65 -4.5 0  -0.55 -4.5 0  -0.45 -4.5 0  -0.35 -4.5 0  -0.25 -4.5 0  -0.15 -4.5 0  -0.05000000000000004 -4.5 0  0.05000000000000004 -4.5 0  0.15 -4.5 0  0.25 -4.5 0  0.3500000000000001 -4.5 0  0.45 -4.5 0  0.55 -4.5 0  0.6499999999999999 -4.5 0  0.75 -4.5 0  -0.75 -4.4 0  -0.65 -4.4 0  -0.55 -4.4 0  -0.45 -4.4 0  -0.35 -4.4 0  -0.25 -4.4 0  -0.15 -4.4 0  -0.05000000000000004 -4.4 0  0.05000000000000004 -4.4 0  0.15 -4.4 0  0.25 -4.4 0  0.3500000000000001 -4.4 0  0.45 -4.4 0  0.55 -4.4 0  0.6499999999999999 -4.4 0  0.75 -4.4 0  -0.75 -4.3 0  -0.65 -4.3 0  -0.55 -4.3 0  -0.45 -4.3 0  -0.35 -4.3 0  -0.25 -4.3 0  -0.15 -4.3 0  -0.05000000000000004 -4.3 0  0.05000000000000004 -4.3 0  0.15 -4.3 0  0.25 -4.3 0  0.3500000000000001 -4.3 0  0.45 -4.3 0  0.55 -4.3 0  0.6499999999999999 -4.3 0  0.75 -4.3 0  -0.75 -4.2 0  -0.65 -4.2 0  -0.55 -4.2 0  -0.45 -4.2 0  -0.35 -4.2 0  -0.25 -4.2 0  -0.15 -4.2 0  -0.05000000000000004 -4.2 0  0.05000000000000004 -4.2 0  0.15 -4.2 0  0.25 -4.2 0  0.3500000000000001 -4.2 0  0.45 -4.2 0  0.55 -4.2 0  0.6499999999999999 -4.2 0  0.75 -4.2 0  -0.75 -4.1 0  -0.65 -4.1 0  -0.55 -4.1 0  -0.45 -4.1 0  -0.35 -4.1 0  -0.25 -4.1 0  -0.15 -4.1 0  -0.05000000000000004 -4.1 0  0.05000000000000004 -4.1 0  0.15 -4.1 0  0.25 -4.1 0  0.3500000000000001 -4.1 0  0.45 -4.1 0  0.55 -4.1 0  0.6499999999999999 -4.1 0  0.75 -4.1 0  -0.75 -4 0  -0.65 -4 0  -0.55 -4 0  -0.45 -4 0  -0.35 -4 0  -0.25 -4 0  -0.15 -4 0  -0.05000000000000004 -4 0  0.05000000000000004 -4 0  0.15 -4 0  0.25 -4 0  0.3500000000000001 -4 0  0.45 -4 0  0.55 -4 0  0.6499999999999999 -4 0  0.75 -4 0  -0.75 -3.9 0  -0.65 -3.9 0  -0.55 -3.9 0  -0.45 -3.9 0  -0.35 -3.9 0  -0.25 -3.9 0  -0.15 -3.9 0  -0.05000000000000004 -3.9 0  0.05000000000000004 -3.9 0  0.15 -3.9 0  0.25 -3.9 0  0.3500000000000001 -3.9 0  0.45 -3.9 0  0.55 -3.9 0  0.6499999999999999 -3.9 0  0.75 -3.9 0  -0.75 -3.8 0  -0.65 -3.8 0  -0.55 -3.8 0  -0.45 -3.8 0  -0.35 -3.8 0  -0.25 -3.8 0  -0.15 -3.8 0  -0.05000000000000004 -3.8 0  0.05000000000000004 -3.8 0  0.15 -3.8 0  0.25 -3.8 0  0.3500000000000001 -3.8 0  0.45 -3.8 0  0.55 -3.8 0  0.6499999999999999 -3.8 0  0.75 -3.8 0  -0.75 -3.7 0  -0.65 -3.7 0  -0.55 -3.7 0  -0.45 -3.7 0  -0.35 -3.7 0  -0.25 -3.7 0  -0.15 -3.7 0  -0.05000000000000004 -3.7 0  0.05000000000000004 -3.7 0  0.15 -3.7 0  0.25 -3.7 0  0.3500000000000001 -3.7 0  0.45 -3.7 0  0.55 -3.7 0  0.6499999999999999 -3.7 0  0.75 -3.7 0  -0.75 -3.6 0  -0.65 -3.6 0  -0.55 -3.6 0  -0.45 -3.6 0  -0.35 -3.6 0  -0.25 -3.6 0  -0.15 -3.6 0  -0.05000000000000004 -3.6 0  0.05000000000000004 -3.6 0  0.15 -3.6 0  0.25 -3.6 0  0.3500000000000001 -3.6 0  0.45 -3.6 0  0.55 -3.6 0  0.6499999999999999 -3.6 0  0.75 -3.6 0  -0.75 -3.5 0  -0.65 -3.5 0  -0.55 -3.5 0  -0.45 -3.5 0  -0.35 -3.5 0  -0.25 -3.5 0  -0.15 -3.5 0  -0.05000000000000004 -3.5 0  0.05000000000000004 -3.5 0  0.15 -3.5 0  0.25 -3.5 0  0.3500000000000001 -3.5 0  0.45 -3.5 0  0.55 -3.5 0  0.6499999999999999 -3.5 0  0.75 -3.5 0  -0.75 -3.4 0  -0.65 -3.4 0  -0.55 -3.4 0  -0.45 -3.4 0  -0.35 -3.4 0  -0.25 -3.4 0  -0.15 -3.4 0  -0.05000000000000004 -3.4 0  0.05000000000000004 -3.4 0  0.15 -3.4 0  0.25 -3.4 0  0.3500000000000001 -3.4 0  0.45 -3.4 0  0.55 -3.4 0  0.6499999999999999 -3.4 0  0.75 -3.4 0  -0.75 -3.3 0  -0.65 -3.3 0  -0.55 -3.3 0  -0.45 -3.3 0  -0.35 -3.3 0  -0.25 -3.3 0  -0.15 -3.3 0  -0.05000000000000004 -3.3 0  0.05000000000000004 -3.3 0  0.15 -3.3 0  0.25 -3.3 0  0.3500000000000001 -3.3 0  0.45 -3.3 0  0.55 -3.3 0  0.6499999999999999 -3.3 0  0.75 -3.3 0  -0.75 -3.2 0  -0.65 -3.2 0  -0.55 -3.2 0  -0.45 -3.2 0  -0.35 -3.2 0  -0.25 -3.2 0  -0.15 -3.2 0  -0.05000000000000004 -3.2 0  0.05000000000000004 -3.2 0  0.15 -3.2 0  0.25 -3.2 0  0.3500000000000001 -3.2 0  0.45 -3.2 0  0.55 -3.2 0  0.6499999999999999 -3.2 0  0.75 -3.2 0  -0.75 -3.1 0  -0.65 -3.1 0  -0.55 -3.1 0  -0.45 -3.1 0  -0.35 -3.1 0  -0.25 -3.1 0  -0.15 -3.1 0  -0.05000000000000004 -3.1 0  0.05000000000000004 -3.1 0  0.15 -3.1 0  0.25 -3.1 0  0.3500000000000001 -3.1 0  0.45 -3.1 0  0.55 -3.1 0  0.6499999999999999 -3.1 0  0.75 -3.1 0  -0.75 -3 0  -0.65 -3 0  -0.55 -3 0  -0.45 -3 0  -0.35 -3 0  -0.25 -3 0  -0.15 -3 0  -0.05000000000000004 -3 0  0.05000000000000004 -3 0  0.15 -3 0  0.25 -3 0  0.3500000000000001 -3 0  0.45 -3 0  0.55 -3 0  0.6499999999999999 -3 0  0.75 -3 0  -0.75 -2.9 0  -0.65 -2.9 0  -0.55 -2.9 0  -0.45 -2.9 0  -0.35 -2.9 0  -0.25 -2.9 0  -0.15 -2.9 0  -0.05000000000000004 -2.9 0  0.05000000000000004 -2.9 0  0.15 -2.9 0  0.25 -2.9 0  0.3500000000000001 -2.9 0  0.45 -2.9 0  0.55 -2.9 0  0.6499999999999999 -2.9 0  0.75 -2.9 0  -0.75 -2.8 0  -0.65 -2.8 0  -0.55 -2.8 0  -0.45 -2.8 0  -0.35 -2.8 0  -0.25 -2.8 0  -0.15 -2.8 0  -0.05000000000000004 -2.8 0  0.05000000000000004 -2.8 0  0.15 -2.8 0  0.25 -2.8 0  0.3500000000000001 -2.8 0  0.45 -2.8 0  0.55 -2.8 0  0.6499999999999999 -2.8 0  0.75 -2.8 0  -0.75 -2.7 0  -0.65 -2.7 0  -0.55 -2.7 0  -0.45 -2.7 0  -0.35 -2.7 0  -0.25 -2.7 0  -0.15 -2.7 0  -0.05000000000000004 -2.7 0  0.05000000000000004 -2.7 0  0.15 -2.7 0  0.25 -2.7 0  0.3500000000000001 -2.7 0  0.45 -2.7 0  0.55 -2.7 0  0.6499999999999999 -2.7 0  0.75 -2.7 0  -0.75 -2.6 0  -0.65 -2.6 0  -0.55 -2.6 0  -0.45 -2.6 0  -0.35 -2.6 0  -0.25 -2.6 0  -0.15 -2.6 0  -0.05000000000000004 -2.6 0  0.05000000000000004 -2.6 0  0.15 -2.6 0  0.25 -2.6 0  0.3500000000000001 -2.6 0  0.45 -2.6 0  0.55 -2.6 0  0.6499999999999999 -2.6 0  0.75 -2.6 0  -0.75 -2.5 0  -0.65 -2.5 0  -0.55 -2.5 0  -0.45 -2.5 0  -0.35 -2.5 0  -0.25 -2.5 0  -0.15 -2.5 0  -0.05000000000000004 -2.5 0  0.05000000000000004 -2.5 0  0.15 -2.5 0  0.25 -2.5 0  0.3500000000000001 -2.5 0  0.45 -2.5 0  0.55 -2.5 0  0.6499999999999999 -2.5 0  0.75 -2.5 0  -0.75 -2.4 0  -0.65 -2.4 0  -0.55 -2.4 0  -0.45 -2.4 0  -0.35 -2.4 0  -0.25 -2.4 0  -0.15 -2.4 0  -0.05000000000000004 -2.4 0  0.05000000000000004 -2.4 0  0.15 -2.4 0  0.25 -2.4 0  0.3500000000000001 -2.4 0  0.45 -2.4 0  0.55 -2.4 0  0.6499999999999999 -2.4 0  0.75 -2.4 0  -0.75 -2.3 0  -0.65 -2.3 0  -0.55 -2.3 0  -0.45 -2.3 0  -0.35 -2.3 0  -0.25 -2.3 0  -0.15 -2.3 0  -0.05000000000000004 -2.3 0  0.05000000000000004 -2.3 0  0.15 -2.3 0  0.25 -2.3 0  0.3500000000000001 -2.3 0  0.45 -2.3 0  0.55 -2.3 0  0.6499999999999999 -2.3 0  0.75 -2.3 0  -0.75 -2.2 0  -0.65 -2.2 0  -0.55 -2.2 0  -0.45 -2.2 0  -0.35 -2.2 0  -0.25 -2.2 0  -0.15 -2.2 0  -0.05000000000000004 -2.2 0  0.05000000000000004 -2.2 0  0.15 -2.2 0  0.25 -2.2 0  0.3500000000000001 -2.2 0  0.45 -2.2 0  0.55 -2.2 0  0.6499999999999999 -2.2 0  0.75 -2.2 0  -0.75 -2.1 0  -0.65 -2.1 0  -0.55 -2.1 0  -0.45 -2.1 0  -0.35 -2.1 0  -0.25 -2.1 0  -0.15 -2.1 0  -0.05000000000000004 -2.1 0  0.05000000000000004 -2.1 0  0.15 -2.1 0  0.25 -2.1 0  0.3500000000000001 -2.1 0  0.45 -2.1 0  0.55 -2.1 0  0.6499999999999999 -2.1 0  0.75 -2.1 0  -0.75 -2 0  -0.65 -2 0  -0.55 -2 0  -0.45 -2 0  -0.35 -2 0  -0.25 -2 0  -0.15 -2 0  -0.05000000000000004 -2 0  0.05000000000000004 -2 0  0.15 -2 0  0.25 -2 0  0.3500000000000001 -2 0  0.45 -2 0  0.55 -2 0  0.6499999999999999 -2 0  0.75 -2 0  -0.75 -1.9 0  -0.65 -1.9 0  -0.55 -1.9 0  -0.45 -1.9 0  -0.35 -1.9 0  -0.25 -1.9 0  -0.15 -1.9 0  -0.05000000000000004 -1.9 0  0.05000000000000004 -1.9 0  0.15 -1.9 0  0.25 -1.9 0  0.3500000000000001 -1.9 0  0.45 -1.9 0  0.55 -1.9 0  0.6499999999999999 -1.9 0  0.75 -1.9 0  -0.75 -1.8 0  -0.65 -1.8 0  -0.55 -1.8 0  -0.45 -1.8 0  -0.35 -1.8 0  -0.25 -1.8 0  -0.15 -1.8 0  -0.05000000000000004 -1.8 0  0.05000000000000004 -1.8 0  0.15 -1.8 0  0.25 -1.8 0  0.3500000000000001 -1.8 0  0.45 -1.8 0  0.55 -1.8 0  0.6499999999999999 -1.8 0  0.75 -1.8 0  -0.75 -1.7 0  -0.65 -1.7 0  -0.55 -1.7 0  -0.45 -1.7 0  -0.35 -1.7 0  -0.25 -1.7 0  -0.15 -1.7 0  -0.05000000000000004 -1.7 0  0.05000000000000004 -1.7 0  0.15 -1.7 0  0.25 -1.7 0  0.3500000000000001 -1.7 0  0.45 -1.7 0  0.55 -1.7 0  0.6499999999999999 -1.7 0  0.75 -1.7 0  -0.75 -1.6 0  -0.65 -1.6 0  -0.55 -1.6 0  -0.45 -1.6 0  -0.35 -1.6 0  -0.25 -1.6 0  -0.15 -1.6 0  -0.05000000000000004 -1.6 0  0.05000000000000004 -1.6 0  0.15 -1.6 0  0.25 -1.6 0  0.3500000000000001 -1.6 0  0.45 -1.6 0  0.55 -1.6 0  0.6499999999999999 -1.6 0  0.75 -1.6 0  -0.75 -1.5 0  -0.65 -1.5 0  -0.55 -1.5 0  -0.45 -1.5 0  -0.35 -1.5 0  -0.25 -1.5 0  -0.15 -1.5 0  -0.05000000000000004 -1.5 0  0.05000000000000004 -1.5 0  0.15 -1.5 0  0.25 -1.5 0  0.3500000000000001 -1.5 0  0.45 -1.5 0  0.55 -1.5 0  0.6499999999999999 -1.5 0  0.75 -1.5 0  -0.75 -1.4 0  -0.65 -1.4 0  -0.55 -1.4 0  -0.45 -1.4 0  -0.35 -1.4 0  -0.25 -1.4 0  -0.15 -1.4 0  -0.05000000000000004 -1.4 0  0.05000000000000004 -1.4 0  0.15 -1.4 0  0.25 -1.4 0  0.3500000000000001 -1.4 0  0.45 -1.4 0  0.55 -1.4 0  0.6499999999999999 -1.4 0  0.75 -1.4 0  -0.75 -1.3 0  -0.65 -1.3 0  -0.55 -1.3 0  -0.45 -1.3 0  -0.35 -1.3 0  -0.25 -1.3 0  -0.15 -1.3 0  -0.05000000000000004 -1.3 0  0.05000000000000004 -1.3 0  0.15 -1.3 0  0.25 -1.3 0  0.3500000000000001 -1.3 0  0.45 -1.3 0  0.55 -1.3 0  0.6499999999999999 -1.3 0  0.75 -1.3 0  -0.75 -1.2 0  -0.65 -1.2 0  -0.55 -1.2 0  -0.45 -1.2 0  -0.35 -1.2 0  -0.25 -1.2 0  -0.15 -1.2 0  -0.05000000000000004 -1.2 0  0.05000000000000004 -1.2 0  0.15 -1.2 0  0.25 -1.2 0  0.3500000000000001 -1.2 0  0.45 -1.2 0  0.55 -1.2 0  0.6499999999999999 -1.2 0  0.75 -1.2 0  -0.75 -1.1 0  -0.65 -1.1 0  -0.55 -1.1 0  -0.45 -1.1 0  -0.35 -1.1 0  -0.25 -1.1 0  -0.15 -1.1 0  -0.05000000000000004 -1.1 0  0.05000000000000004 -1.1 0  0.15 -1.1 0  0.25 -1.1 0  0.3500000000000001 -1.1 0  0.45 -1.1 0  0.55 -1.1 0  0.6499999999999999 -1.1 0  0.75 -1.1 0  -0.75 -1 0  -0.65 -1 0  -0.55 -1 0  -0.45 -1 0  -0.35 -1 0  -0.25 -1 0  -0.15 -1 0  -0.05000000000000004 -1 0  0.05000000000000004 -1 0  0.15 -1 0  0.25 -1 0  0.3500000000000001 -1 0  0.45 -1 0  0.55 -1 0  0.6499999999999999 -1 0  0.75 -1 0  -0.75 -0.8999999999999999 0  -0.65 -0.899999
[...]
<PointData  Vectors="flow"> 
<DataArray  type="Float64"  Name="flow"  NumberOfComponents="3" format="ascii">-1.2816081282292938e-09 2.5632586278778669e-09 0.0000000000000000e+00  9.6275607679945048e-14 2.5632586278717668e-09 0.0000000000000000e+00  -5.3072510588232818e-18 2.5632586278769330e-09 0.0000000000000000e+00  -1.7188097634244398e-21 2.5632586278739415e-09 0.0000000000000000e+00  -1.5988132254424655e-22 2.5632586278730581e-09 0.0000000000000000e+00  -2.7727573901281693e-21 2.5632586278769152e-09 0.0000000000000000e+00  -5.7133929427115142e-22 2.5632586278715216e-09 0.0000000000000000e+00  -3.4883297452473310e-21 2.5632586278703015e-09 0.0000000000000000e+00  -2.6703842517577280e-21 2.5632586278725849e-09 0.0000000000000000e+00  -1.3272225288944783e-21 2.5632586278708276e-09 0.0000000000000000e+00  1.6282037926268915e-21 2.5632586278711973e-09 0.0000000000000000e+00  1.5674307342221409e-21 2.5632586278795531e-09 0.0000000000000000e+00  5.9234396437594389e-22 2.5632586278720427e-09 0.0000000000000000e+00  5.3036678163356252e-18 2.5632586278638842e-09 0.0000000000000000e+00  -9.6275605850480039e-14 2.5632586278704434e-09 0.0000000000000000e+00  1.2816081282322330e-09 2.5632586278760496e-09 0.0000000000000000e+00  -1.2800678882865756e-09 7.6862679141059535e-09 0.0000000000000000e+00  9.6190695063122453e-14 7.6862679141087411e-09 0.0000000000000000e+00  -5.3238691062431708e-18 7.6862679141115601e-09 0.0000000000000000e+00  -4.8823573674006777e-21 7.6862679141124088e-09 0.0000000000000000e+00  2.7135542630674414e-21 7.6862679141104848e-09 0.0000000000000000e+00  -1.4427515676009545e-21 7.6862679141093747e-09 0.0000000000000000e+00  -1.6365963171755204e-21 7.6862679141116263e-09 0.0000000000000000e+00  -2.7008670283120509e-21 7.6862679141079222e-09 0.0000000000000000e+00  -3.9623084801699871e-21 7.6862679141065507e-09 0.0000000000000000e+00  -2.2441301492266412e-21 7.6862679141096891e-09 0.0000000000000000e+00  4.9493191880578544e-21 7.6862679141087940e-09 0.0000000000000000e+00  3.3816586704016958e-21 7.6862679141089595e-09 0.0000000000000000e+00  -2.4716909405260364e-21 7.6862679141095848e-09 0.0000000000000000e+00  5.3219407601972381e-18 7.6862679141111102e-09 0.0000000000000000e+00  -9.6190692492964033e-14 7.6862679141105444e-09 0.0000000000000000e+00  1.2800678882818009e-09 7.6862679141100944e-09 0.0000000000000000e+00  -1.2754498868082770e-09 1.5354058916832993e-08 0.0000000000000000e+00  9.5935403838277759e-14 1.5354058916835260e-08 0.0000000000000000e+00  -5.3745308869398454e-18 1.5354058916829509e-08 0.0000000000000000e+00  -2.7590321233998366e-21 1.5354058916832643e-08 0.0000000000000000e+00  -2.2763866297541901e-21 1.5354058916834846e-08 0.0000000000000000e+00  -1.2334961233319206e-21 1.5354058916832715e-08 0.0000000000000000e+00  -1.4073418153559191e-21 1.5354058916834975e-08 0.0000000000000000e+00  -7.0601586200031707e-21 1.5354058916833146e-08 0.0000000000000000e+00  -1.1841917140621994e-21 1.5354058916834939e-08 0.0000000000000000e+00  4.6941838489806798e-22 1.5354058916833116e-08 0.0000000000000000e+00  -1.0775629996752586e-22 1.5354058916834568e-08 0.0000000000000000e+00  4.2911190401249468e-21 1.5354058916830115e-08 0.0000000000000000e+00  4.7820351688796490e-22 1.5354058916834267e-08 0.0000000000000000e+00  5.3744557903045459e-18 1.5354058916834469e-08 0.0000000000000000e+00  -9.5935401171759159e-14 1.5354058916834651e-08 0.0000000000000000e+00  1.2754498868146326e-09 1.5354058916831663e-08 0.0000000000000000e+00  -1.2677622964614294e-09 2.2984928755780106e-08 0.0000000000000000e+00  9.5508100453500246e-14 2.2984928755779706e-08 0.0000000000000000e+00  -5.4604859882552388e-18 2.2984928755776232e-08 0.0000000000000000e+00  4.4820789879475643e-21 2.2984928755778584e-08 0.0000000000000000e+00  1.7739784316174263e-22 2.2984928755782969e-08 0.0000000000000000e+00  -2.1750373493365453e-21 2.2984928755784348e-08 0.0000000000000000e+00  -3.5453704577804445e-21 2.2984928755777641e-08 0.0000000000000000e+00  -4.8110063848338507e-21 2.2984928755779170e-08 0.0000000000000000e+00  -4.5810110591012272e-21 2.2984928755776050e-08 0.0000000000000000e+00  -1.2258816088882694e-22 2.2984928755775746e-08 0.0000000000000000e+00  2.7271890920348905e-21 2.2984928755775719e-08 0.0000000000000000e+00  7.5761537237000248e-22 2.2984928755775481e-08 0.0000000000000000e+00  1.8199028054641081e-21 2.2984928755774091e-08 0.0000000000000000e+00  5.4585551194502666e-18 2.2984928755778627e-08 0.0000000000000000e+00  -9.5508102644265897e-14 2.2984928755777929e-08 0.0000000000000000e+00  1.2677622964643175e-09 2.2984928755777638e-08 0.0000000000000000e+00  -1.2570187961345020e-09 3.0560498705398461e-08 0.0000000000000000e+00  9.4906141433697718e-14 3.0560498705394391e-08 0.0000000000000000e+00  -5.5713942747888211e-18 3.0560498705401961e-08 0.0000000000000000e+00  2.3740469249806734e-21 3.0560498705396343e-08 0.0000000000000000e+00  3.3728225109569661e-21 3.0560498705393061e-08 0.0000000000000000e+00  -5.0176253076962115e-21 3.0560498705391996e-08 0.0000000000000000e+00  -4.5126203094142083e-21 3.0560498705391294e-08 0.0000000000000000e+00  -4.6759864260109764e-21 3.0560498705393471e-08 0.0000000000000000e+00  -6.6872594395084840e-21 3.0560498705390407e-08 0.0000000000000000e+00  -2.0258220966139316e-21 3.0560498705387793e-08 0.0000000000000000e+00  -5.8950048819364296e-22 3.0560498705385775e-08 0.0000000000000000e+00  4.8808680924817922e-21 3.0560498705388793e-08 0.0000000000000000e+00  3.7288292150326459e-21 3.0560498705389547e-08 0.0000000000000000e+00  5.5709289039497767e-18 3.0560498705388310e-08 0.0000000000000000e+00  -9.4906144645591001e-14 3.0560498705390553e-08 0.0000000000000000e+00  1.2570187961400792e-09 3.0560498705391896e-08 0.0000000000000000e+00  -1.2432386556456679e-09 3.8062488845690430e-08 0.0000000000000000e+00  9.4125942672982865e-14 3.8062488845696181e-08 0.0000000000000000e+00  -5.7057763980663960e-18 3.8062488845693745e-08 0.0000000000000000e+00  -6.2135070089087988e-21 3.8062488845692793e-08 0.0000000000000000e+00  -6.6221624278944088e-22 3.8062488845690000e-08 0.0000000000000000e+00  -6.6664848274810765e-21 3.8062488845687234e-08 0.0000000000000000e+00  -2.4468486525604948e-21 3.8062488845690450e-08 0.0000000000000000e+00  -6.8484608301021860e-21 3.8062488845685765e-08 0.0000000000000000e+00  -1.0436602043453758e-20 3.8062488845687644e-08 0.0000000000000000e+00  -1.3469488952060319e-21 3.8062488845684494e-08 0.0000000000000000e+00  -8.1876568170749771e-24 3.8062488845685269e-08 0.0000000000000000e+00  5.3947190707000099e-21 3.8062488845682284e-08 0.0000000000000000e+00  1.7965874404177720e-21 3.8062488845682946e-08 0.0000000000000000e+00  5.7115295859804964e-18 3.8062488845686334e-08 0.0000000000000000e+00  -9.4125938619126713e-14 3.8062488845686638e-08 0.0000000000000000e+00  1.2432386556399291e-09 3.8062488845684441e-08 0.0000000000000000e+00  -1.2264468503009404e-09 4.5472751940186285e-08 0.0000000000000000e+00  9.3163084486884728e-14 4.5472751940182930e-08 0.0000000000000000e+00  -5.8711087776281101e-18 4.5472751940181514e-08 0.0000000000000000e+00  -2.1148732037616413e-21 4.5472751940183440e-08 0.0000000000000000e+00  -3.2841952537169464e-21 4.5472751940180310e-08 0.0000000000000000e+00  -4.2026990379603905e-21 4.5472751940180627e-08 0.0000000000000000e+00  -6.0987555977346587e-21 4.5472751940178516e-08 0.0000000000000000e+00  -7.4766542707428062e-21 4.5472751940177676e-08 0.0000000000000000e+00  -6.9826788334220260e-21 4.5472751940177769e-08 0.0000000000000000e+00  -5.4922864231643197e-21 4.5472751940175115e-08 0.0000000000000000e+00  -8.1190324020170775e-22 4.5472751940172759e-08 0.0000000000000000e+00  2.6804623039490107e-21 4.5472751940175115e-08 0.0000000000000000e+00  5.0966088348680129e-21 4.5472751940176386e-08 0.0000000000000000e+00  5.8697657373886189e-18 4.5472751940173864e-08 0.0000000000000000e+00  -9.3163085896096698e-14 4.5472751940170774e-08 0.0000000000000000e+00  1.2264468503094308e-09 4.5472751940173600e-08 0.0000000000000000e+00  -1.2066742016620350e-09 5.2773308081397826e-08 0.0000000000000000e+00  9.2012505046552172e-14 5.2773308081391394e-08 0.0000000000000000e+00  -6.0377487605985523e-18 5.2773308081397349e-08 0.0000000000000000e+00  -5.9112950947610260e-21 5.2773308081396509e-08 0.0000000000000000e+00  -6.0668036591592186e-21 5.2773308081393498e-08 0.0000000000000000e+00  -3.8545484222655909e-21 5.2773308081393756e-08 0.0000000000000000e+00  -6.0808234157193689e-21 5.2773308081397038e-08 0.0000000000000000e+00  -6.3761212388146928e-21 5.2773308081399096e-08 0.0000000000000000e+00  -1.5401547743329547e-20 5.2773308081393908e-08 0.0000000000000000e+00  -7.5416869577730133e-21 5.2773308081389554e-08 0.0000000000000000e+00  2.6927074016640653e-21 5.2773308081391711e-08 0.0000000000000000e+00  5.6103891279160040e-21 5.2773308081395444e-08 0.0000000000000000e+00  5.7902586571791870e-21 5.2773308081394504e-08 0.0000000000000000e+00  6.0379820185640681e-18 5.2773308081391989e-08 0.0000000000000000e+00  -9.2012506944390671e-14 5.2773308081389183e-08 0.0000000000000000e+00  1.2066742016593125e-09 5.2773308081388462e-08 0.0000000000000000e+00  -1.1839575393414463e-09 5.9946380246305377e-08 0.0000000000000000e+00  9.0668641206670771e-14 5.9946380246311412e-08 0.0000000000000000e+00  -6.2230762290331519e-18 5.9946380246303114e-08 0.0000000000000000e+00  -5.7569423748012278e-21 5.9946380246307243e-08 0.0000000000000000e+00  -5.7451233231715087e-21 5.9946380246309758e-08 0.0000000000000000e+00  -1.2774701100269182e-21 5.9946380246308514e-08 0.0000000000000000e+00  -4.2074099514502981e-21 5.9946380246310631e-08 0.0000000000000000e+00  -1.0928377452883361e-20 5.9946380246301698e-08 0.0000000000000000e+00  -1.1723833865767068e-20 5.9946380246307429e-08 0.0000000000000000e+00  -7.3999731935222216e-21 5.9946380246316322e-08 0.0000000000000000e+00  3.1305117335987019e-21 5.9946380246314086e-08 0.0000000000000000e+00  2.7177688054690122e-21 5.9946380246307693e-08 0.0000000000000000e+00  1.7228449410054264e-21 5.9946380246304133e-08 0.0000000000000000e+00  6.2221177790552729e-18 5.9946380246305086e-08 0.0000000000000000e+00  -9.0668645844471893e-14 5.9946380246301526e-08 0.0000000000000000e+00  1.1839575393387002e-09 5.9946380246301354e-08 0.0000000000000000e+00  -1.1583398786924907e-09 6.6974430872692010e-08 0.0000000000000000e+00  8.9125639229881152e-14 6.6974430872691110e-08 0.0000000000000000e+00  -6.4107835071243517e-18 6.6974430872691441e-08 0.0000000000000000e+00  -6.6248636713933362e-22 6.6974430872691507e-08 0.0000000000000000e+00  -3.3466091615736135e-21 6.6974430872692142e-08 0.0000000000000000e+00  -5.9577018728935432e-21 6.6974430872697939e-08 0.0000000000000000e+00  -7.8951535806264859e-21 6.6974430872687232e-08 0.0000000000000000e+00  -1.1756196400633635e-20 6.6974430872693903e-08 0.0000000000000000e+00  -5.0629297782487744e-21 6.6974430872691017e-08 0.0000000000000000e+00  -3.6158285086833345e-21 6.6974430872690686e-08 0.0000000000000000e+00  -1.3203212073681930e-21 6.6974430872694432e-08 0.0000000000000000e+00  -4.5008961668448065e-22 6.6974430872689270e-08 0.0000000000000000e+00  1.9404346047869362e-21 6.6974430872687444e-08 0.0000000000000000e+00  6.4032906861429877e-18 6.6974430872686213e-08 0.0000000000000000e+00  -8.9125648699669674e-14 6.6974430872684360e-08 0.0000000000000000e+00  1.1583398786947341e-09 6.6974430872682970e-08 0.0000000000000000e+00  -1.1298706075898705e-09 7.3840199531358179e-08 0.0000000000000000e+00  8.7377577625291420e-14 7.3840199531362666e-08 0.0000000000000000e+00  -6.5922376348664295e-18 7.3840199531362282e-08 0.0000000000000000e+00  -4.9579638445676782e-21 7.3840199531360919e-08 0.0000000000000000e+00  1.3505093177707526e-21 7.3840199531356618e-08 0.0000000000000000e+00  -5.0255113072564277e-21 7.3840199531356340e-08 0.0000000000000000e+00  -7.5181899524301663e-21 7.3840199531362560e-08 0.0000000000000000e+00  -8.3632100818775591e-21 7.3840199531360019e-08 0.0000000000000000e+00  -8.7875604017861814e-21 7.3840199531360813e-08 0.0000000000000000e+00  -1.0518887089736303e-21 7.3840199531367867e-08 0.0000000000000000e+00  -6.4060359367458618e-21 7.3840199531358312e-08 0.0000000000000000e+00  -5.7655534839107715e-21 7.3840199531352502e-08 0.0000000000000000e+00  -2.5145174218527732e-21 7.3840199531352991e-08 0.0000000000000000e+00  6.5891528383172970e-18 7.3840199531354182e-08 0.0000000000000000e+00  -8.7377581592650147e-14 7.3840199531363553e-08 0.0000000000000000e+00  1.1298706075849134e-09 7.3840199531363579e-08 0.0000000000000000e+00  -1.0986056756302716e-09 8.0526741729489779e-08 0.0000000000000000e+00  8.5418679317797155e-14 8.0526741729492135e-08 0.0000000000000000e+00  -6.7631789086983780e-18 8.0526741729489183e-08 0.0000000000000000e+00  -1.0632418812688666e-21 8.0526741729490692e-08 0.0000000000000000e+00  -7.8403368026277442e-21 8.0526741729498368e-08 0.0000000000000000e+00  -3.4866147522492059e-21 8.0526741729494901e-08 0.0000000000000000e+00  -5.6448175537109855e-21 8.0526741729490215e-08 0.0000000000000000e+00  -1.2247192319427144e-20 8.0526741729488985e-08 0.0000000000000000e+00  -1.5834083350948467e-23 8.0526741729492823e-08 0.0000000000000000e+00  -6.4097701893432222e-21 8.0526741729479575e-08 0.0000000000000000e+00  -1.4897128132993584e-20 8.0526741729482420e-08 0.0000000000000000e+00  9.0892373647637126e-22 8.0526741729490268e-08 0.0000000000000000e+00  -1.4034914448352405e-22 8.0526741729493101e-08 0.0000000000000000e+00  6.7581583960576975e-18 8.0526741729490163e-08 0.0000000000000000e+00  -8.5418677054373742e-14 8.0526741729487291e-08 0.0000000000000000e+00  1.0986056756345477e-09 8.0526741729488151e-08 0.0000000000000000e+00  -1.0646077784627921e-09 8.7017468837356371e-08 0.0000000000000000e+00  8.3243551432584100e-14 8.7017468837341561e-08 0.0000000000000000e+00  -6.9115727558227396e-18 8.7017468837343798e-08 0.0000000000000000e+00  2.9861778227387662e-21 8.7017468837348682e-08 0.0000000000000000e+00  5.3609093229756729e-21 8.7017468837351858e-08 0.0000000000000000e+00  -7.2810185268303855e-21 8.7017468837353738e-08 0.0000000000000000e+00  -1.2967280008191349e-20 8.7017468837354413e-08 0.0000000000000000e+00  -7.3992816753749024e-21 8.7017468837352573e-08 0.0000000000000000e+00  -2.0222248048577740e-20 8.7017468837341958e-08 0.0000000000000000e+00  -8.5794102766831364e-21 8.7017468837336056e-08 0.0000000000000000e+00  4.3842010060571716e-21 8.7017468837355154e-08 0.0000000000000000e+00  -1.0440607968314596e-22 8.7017468837352599e-08 0.0000000000000000e+00  -1.7790792845480936e-21 8.7017468837350349e-08 0.0000000000000000e+00  6.9055958903221254e-18 8.7017468837352149e-08 0.0000000000000000e+00  -8.3243557262814101e-14 8.7017468837352639e-08 0.0000000000000000e+00  1.0646077784671627e-09 8.7017468837349727e-08 0.0000000000000000e+00  -1.0279465294871666e-09 9.3296189086240753e-08 0.0000000000000000e+00  8.0847452384731952e-14 9.3296189086244525e-08 0.0000000000000000e+00  -7.0240463809012366e-18 9.3296189086251407e-08 0.0000000000000000e+00  5.2011650856209171e-21 9.3296189086247106e-08 0.0000000000000000e+00  -4.1228080415620922e-21 9.3296189086244353e-08 0.0000000000000000e+00  -5.1768154955688616e-21 9.3296189086239020e-08 0.0000000000000000e+00  -9.6719285043935084e-21 9.3296189086244234e-08 0.0000000000000000e+00  -1.8964840271485922e-20 9.3296189086238556e-08 0.0000000000000000e+00  -1.6114480228876041e-20 9.3296189086243374e-08 0.0000000000000000e+00  4.6444677637222052e-21 9.3296189086252916e-08 0.0000000000000000e+00  1.6187121235774228e-21 9.3296189086245730e-08 0.0000000000000000e+00  -3.9967253800694581e-21 9.3296189086238080e-08 0.0000000000000000e+00  2.9060460868963250e-21 9.3296189086241375e-08 0.0000000000000000e+00  7.0266669446386142e-18 9.3296189086236875e-08 0.0000000000000000e+00  -8.0847465558837294e-14 9.3296189086244393e-08 0.0000000000000000e+00  1.0279465294659412e-09 9.3296189086238543e-08 0.0000000000000000e+00  -9.8869861146247571e-10 9.9347149539717146e-08 0.0000000000000000e+00  7.8226503231280591e-14 9.9347149539719409e-08 0.0000000000000000e+00  -7.1183678835213601e-18 9.9347149539716974e-08 0.0000000000000000e+00  -4.6196194572538757e-21 9.9347149539710767e-08 0.0000000000000000e+00  1.5796723223313162e-22 9.9347149539707286e-08 0.0000000000000000e+00  -3.4104300035955415e-21 9.9347149539716603e-08 0.0000000000000000e+00  -1.4056475190800306e-20 9.9347149539712050e-08 0.0000000000000000e+00  -1.2055205196523009e-20 9.9347149539719224e-08 0.0000000000000000e+00  -7.0388910053564022e-21 9.9347149539726278e-08 0.0000000000000000e+00  -4.1965997943526627e-21 9.9347149539721302e-08 0.0000000000000000e+00  -8.6591131805100528e-21 9.9347149539719766e-08 0.0000000000000000e+00  -7.6530948861140668e-21 9.9347149539725590e-08 0.0000000000000000e+00  -6.7594512907537652e-21 9.9347149539711402e-08 0.0000000000000000e+00  7.1247303817095462e-18 9.9347149539703646e-08 0.0000000000000000e+00  -7.8226498583427261e-14 9.9347149539717119e-08 0.0000000000000000e+00  9.8869861146242257e-10 9.9347149539724703e-08 0.0000000000000000e+00  -9.4694790074197013e-10 1.0515507889481017e-07 0.0000000000000000e+00  7.5377874006027712e-14 1.0515507889481117e-07 0.0000000000000000e+00  -7.1670709671693745e-18 1.0515507889480554e-07 0.0000000000000000e+00  -4.3152668413184847e-21 1.0515507889480170e-07 0.0000000000000000e+00  -3.0819091482035432e-21 1.0515507889480270e-07 0.0000000000000000e+00  1.1350090669206665e-22 1.0515507889480007e-07 0.0000000000000000e+00  -6.1639527343996901e-21 1.0515507889480076e-07 0.0000000000000000e+00  -2.2233363069138824e-21 1.0515507889481767e-07 0.0000000000000000e+00  -1.2181873888016120e-20 1.0515507889481078e-07 0.0000000000000000e+00  -3.3387946705014444e-21 1.0515507889481477e-07 0.0000000000000000e+00  2.7020102775072596e-21 1.0515507889481180e-07 0.0000000000000000e+00  -2.2024192561999965e-21 1.0515507889481742e-07 0.0000000000000000e+00  -2.0220488192256154e-20 1.0515507889482610e-07 0.0000000000000000e+00  7.1620955485410625e-18 1.0515507889482322e-07 0.0000000000000000e+00  -7.5377868626576864e-14 1.0515507889480527e-07 0.0000000000000000e+00  9.4694790074509790e-10 1.0515507889480894e-07 0.0000000000000000e+00  -9.0278555623431218e-10 1.1070523092588315e-07 0.0000000000000000e+00  7.2300089347173843e-14 1.1070523092588519e-07 0.0000000000000000e+00  -7.1783092365296903e-18 1.1070523092588674e-07 0.0000000000000000e+00  -1.1639996146096306e-21 1.1070523092588749e-07 0.0000000000000000e+00  1.2063345186515500e-21 1.1070523092589944e-07 0.0000000000000000e+00  -7.3541821265363206e-21 1.1070523092589885e-07 0.0000000000000000e+00  8.3125483420258493e-22 1.1070523092590016e-07 0.0000000000000000e+00  -4.7937646662777246e-21 1.1070523092589239e-07 0.0000000000000000e+00  -7.0539432846018128e-21 1.1070523092589625e-07 0.0000000000000000e+00  -2.8084065617103788e-21 1.1070523092589991e-07 0.0000000000000000e+00  -8.2492944066478602e-21 1.1070523092588899e-07 0.0000000000000000e+00  -1.4774735174649157e-21 1.1070523092588098e-07 0.0000000000000000e+00  -4.2019675019159915e-21 1.1070523092588086e-07 0.0000000000000000e+00  7.1582701554873247e-18 1.1070523092588942e-07 0.0000000000000000e+00  -7.2300098182340301e-14 1.1070523092588895e-07 0.0000000000000000e+00  9.0278555623416866e-10 1.1070523092588019e-07 0.0000000000000000e+00  -8.5631006716430297e-10 1.1598342834146487e-07 0.0000000000000000e+00  6.8993130049330826e-14 1.1598342834146209e-07 0.0000000000000000e+00  -7.1182105796948346e-18 1.1598342834146530e-07 0.0000000000000000e+00  8.3630196979312229e-21 1.1598342834147481e-07 0.0000000000000000e+00  6.7224217410996565e-21 1.1598342834146872e-07 0.0000000000000000e+00  3.1147933288773242e-21 1.1598342834148079e-07 0.0000000000000000e+00  -8.7749434441842068e-21 1.1598342834147488e-07 0.0000000000000000e+00  -5.1107938622107164e-21 1.1598342834147066e-07 0.0000000000000000e+00  -5.3361032300579577e-21 1.1598342834147828e-07 0.0000000000000000e+00  -1.6203377324119491e-20 1.1598342834147