<?xml version="1.0"?>
<VTKFile type="UnstructuredGrid"  version="0.1"  >
<UnstructuredGrid>
<Piece  NumberOfPoints="1411" NumberOfCells="2700">
<Points>
<DataArray  type="Float64"  NumberOfComponents="3"  format="ascii">-0.75 -4.5 0  -0.65 -4.5 0  -0.55 -4.5 0  -0.45 -4.5 0  -0.35 -4.5 0  -0.25 -4.5 0  -0.15 -4.5 0  -0.05000000000000004 -4.5 0  0.05000000000000004 -4.5 0  0.15 -4.5 0  0.25 -4.5 0  0.3500000000000001 -4.5 0  0.45 -4.5 0  0.55 -4.5 0  0.6499999999999999 -4.5 0  0.75 -4.5 0  -0.75 -4.4 0  -0.65 -4.4 0  -0.55 -4.4 0  -0.45 -4.4 0  -0.35 -4.4 0  -0.25 -4.4 0  -0.15 -4.4 0  -0.05000000000000004 -4.4 0  0.05000000000000004 -4.4 0  0.15 -4.4 0  0.25 -4.4 0  0.3500000000000001 -4.4 0  0.45 -4.4 0  0.55 -4.4 0  0.6499999999999999 -4.4 0  0.75 -4.4 0  -0.75 -4.3 0  -0.65 -4.3 0  -0.55 -4.3 0  -0.45 -4.3 0  -0.35 -4.3 0  -0.25 -4.3 0  -0.15 -4.3 0  -0.05000000000000004 -4.3 0  0.05000000000000004 -4.3 0  0.15 -4.3 0  0.25 -4.3 0  0.3500000000000001 -4.3 0  0.45 -4.3 0  0.55 -4.3 0  0.6499999999999999 -4.3 0  0.75 -4.3 0  -0.75 -4.2 0  -0.65 -4.2 0  -0.55 -4.2 0  -0.45 -4.2 0  -0.35 -4.2 0  -0.25 -4.2 0  -0.15 -4.2 0  -0.05000000000000004 -4.2 0  0.05000000000000004 -4.2 0  0.15 -4.2 0  0.25 -4.2 0  0.3500000000000001 -4.2 0  0.45 -4.2 0  0.55 -4.2 0  0.6499999999999999 -4.2 0  0.75 -4.2 0  -0.75 -4.1 0  -0.65 -4.1 0  -0.55 -4.1 0  -0.45 -4.1 0  -0.35 -4.1 0  -0.25 -4.1 0  -0.15 -4.1 0  -0.05000000000000004 -4.1 0  0.05000000000000004 -4.1 0  0.15 -4.1 0  0.25 -4.1 0  0.3500000000000001 -4.1 0  0.45 -4.1 0  0.55 -4.1 0  0.6499999999999999 -4.1 0  0.75 -4.1 0  -0.75 -4 0  -0.65 -4 0  -0.55 -4 0  -0.45 -4 0  -0.35 -4 0  -0.25 -4 0  -0.15 -4 0  -0.05000000000000004 -4 0  0.05000000000000004 -4 0  0.15 -4 0  0.25 -4 0  0.3500000000000001 -4 0  0.45 -4 0  0.55 -4 0  0.6499999999999999 -4 0  0.75 -4 0  -0.75 -3.9 0  -0.65 -3.9 0  -0.55 -3.9 0  -0.45 -3.9 0  -0.35 -3.9 0  -0.25 -3.9 0  -0.15 -3.9 0  -0.05000000000000004 -3.9 0  0.05000000000000004 -3.9 0  0.15 -3.9 0  0.25 -3.9 0  0.3500000000000001 -3.9 0  0.45 -3.9 0  0.55 -3.9 0  0.6499999999999999 -3.9 0  0.75 -3.9 0  -0.75 -3.8 0  -0.65 -3.8 0  -0.55 -3.8 0  -0.45 -3.8 0  -0.35 -3.8 0  -0.25 -3.8 0  -0.15 -3.8 0  -0.05000000000000004 -3.8 0  0.05000000000000004 -3.8 0  0.15 -3.8 0  0.25 -3.8 0  0.3500000000000001 -3.8 0  0.45 -3.8 0  0.55 -3.8 0  0.6499999999999999 -3.8 0  0.75 -3.8 0  -0.75 -3.7 0  -0.65 -3.7 0  -0.55 -3.7 0  -0.45 -3.7 0  -0.35 -3.7 0  -0.25 -3.7 0  -0.15 -3.7 0  -0.05000000000000004 -3.7 0  0.05000000000000004 -3.7 0  0.15 -3.7 0  0.25 -3.7 0  0.3500000000000001 -3.7 0  0.45 -3.7 0  0.55 -3.7 0  0.6499999999999999 -3.7 0  0.75 -3.7 0  -0.75 -3.6 0  -0.65 -3.6 0  -0.55 -3.6 0  -0.45 -3.6 0  -0.35 -3.6 0  -0.25 -3.6 0  -0.15 -3.6 0  -0.05000000000000004 -3.6 0  0.05000000000000004 -3.6 0  0.15 -3.6 0  0.25 -3.6 0  0.3500000000000001 -3.6 0  0.45 -3.6 0  0.55 -3.6 0  0.6499999999999999 -3.6 0  0.75 -3.6 0  -0.75 -3.5 0  -0.65 -3.5 0  -0.55 -3.5 0  -0.45 -3.5 0  -0.35 -3.5 0  -0.25 -3.5 0  -0.15 -3.5 0  -0.05000000000000004 -3.5 0  0.05000000000000004 -3.5 0  0.15 -3.5 0  0.25 -3.5 0  0.3500000000000001 -3.5 0  0.45 -3.5 0  0.55 -3.5 0  0.6499999999999999 -3.5 0  0.75 -3.5 0  -0.75 -3.4 0  -0.65 -3.4 0  -0.55 -3.4 0  -0.45 -3.4 0  -0.35 -3.4 0  -0.25 -3.4 0  -0.15 -3.4 0  -0.05000000000000004 -3.4 0  0.05000000000000004 -3.4 0  0.15 -3.4 0  0.25 -3.4 0  0.3500000000000001 -3.4 0  0.45 -3.4 0  0.55 -3.4 0  0.6499999999999999 -3.4 0  0.75 -3.4 0  -0.75 -3.3 0  -0.65 -3.3 0  -0.55 -3.3 0  -0.45 -3.3 0  -0.35 -3.3 0  -0.25 -3.3 0  -0.15 -3.3 0  -0.05000000000000004 -3.3 0  0.05000000000000004 -3.3 0  0.15 -3.3 0  0.25 -3.3 0  0.3500000000000001 -3.3 0  0.45 -3.3 0  0.55 -3.3 0  0.6499999999999999 -3.3 0  0.75 -3.3 0  -0.75 -3.2 0  -0.65 -3.2 0  -0.55 -3.2 0  -0.45 -3.2 0  -0.35 -3.2 0  -0.25 -3.2 0  -0.15 -3.2 0  -0.05000000000000004 -3.2 0  0.05000000000000004 -3.2 0  0.15 -3.2 0  0.25 -3.2 0  0.3500000000000001 -3.2 0  0.45 -3.2 0  0.55 -3.2 0  0.6499999999999999 -3.2 0  0.75 -3.2 0  -0.75 -3.1 0  -0.65 -3.1 0  -0.55 -3.1 0  -0.45 -3.1 0  -0.35 -3.1 0  -0.25 -3.1 0  -0.15 -3.1 0  -0.05000000000000004 -3.1 0  0.05000000000000004 -3.1 0  0.15 -3.1 0  0.25 -3.1 0  0.3500000000000001 -3.1 0  0.45 -3.1 0  0.55 -3.1 0  0.6499999999999999 -3.1 0  0.75 -3.1 0  -0.75 -3 0  -0.65 -3 0  -0.55 -3 0  -0.45 -3 0  -0.35 -3 0  -0.25 -3 0  -0.15 -3 0  -0.05000000000000004 -3 0  0.05000000000000004 -3 0  0.15 -3 0  0.25 -3 0  0.3500000000000001 -3 0  0.45 -3 0  0.55 -3 0  0.6499999999999999 -3 0  0.75 -3 0  -0.75 -2.9 0  -0.65 -2.9 0  -0.55 -2.9 0  -0.45 -2.9 0  -0.35 -2.9 0  -0.25 -2.9 0  -0.15 -2.9 0  -0.05000000000000004 -2.9 0  0.05000000000000004 -2.9 0  0.15 -2.9 0  0.25 -2.9 0  0.3500000000000001 -2.9 0  0.45 -2.9 0  0.55 -2.9 0  0.6499999999999999 -2.9 0  0.75 -2.9 0  -0.75 -2.8 0  -0.65 -2.8 0  -0.55 -2.8 0  -0.45 -2.8 0  -0.35 -2.8 0  -0.25 -2.8 0  -0.15 -2.8 0  -0.05000000000000004 -2.8 0  0.05000000000000004 -2.8 0  0.15 -2.8 0  0.25 -2.8 0  0.3500000000000001 -2.8 0  0.45 -2.8 0  0.55 -2.8 0  0.6499999999999999 -2.8 0  0.75 -2.8 0  -0.75 -2.7 0  -0.65 -2.7 0  -0.55 -2.7 0  -0.45 -2.7 0  -0.35 -2.7 0  -0.25 -2.7 0  -0.15 -2.7 0  -0.05000000000000004 -2.7 0  0.05000000000000004 -2.7 0  0.15 -2.7 0  0.25 -2.7 0  0.3500000000000001 -2.7 0  0.45 -2.7 0  0.55 -2.7 0  0.6499999999999999 -2.7 0  0.75 -2.7 0  -0.75 -2.6 0  -0.65 -2.6 0  -0.55 -2.6 0  -0.45 -2.6 0  -0.35 -2.6 0  -0.25 -2.6 0  -0.15 -2.6 0  -0.05000000000000004 -2.6 0  0.05000000000000004 -2.6 0  0.15 -2.6 0  0.25 -2.6 0  0.3500000000000001 -2.6 0  0.45 -2.6 0  0.55 -2.6 0  0.6499999999999999 -2.6 0  0.75 -2.6 0  -0.75 -2.5 0  -0.65 -2.5 0  -0.55 -2.5 0  -0.45 -2.5 0  -0.35 -2.5 0  -0.25 -2.5 0  -0.15 -2.5 0  -0.05000000000000004 -2.5 0  0.05000000000000004 -2.5 0  0.15 -2.5 0  0.25 -2.5 0  0.3500000000000001 -2.5 0  0.45 -2.5 0  0.55 -2.5 0  0.6499999999999999 -2.5 0  0.75 -2.5 0  -0.75 -2.4 0  -0.65 -2.4 0  -0.55 -2.4 0  -0.45 -2.4 0  -0.35 -2.4 0  -0.25 -2.4 0  -0.15 -2.4 0  -0.05000000000000004 -2.4 0  0.05000000000000004 -2.4 0  0.15 -2.4 0  0.25 -2.4 0  0.3500000000000001 -2.4 0  0.45 -2.4 0  0.55 -2.4 0  0.6499999999999999 -2.4 0  0.75 -2.4 0  -0.75 -2.3 0  -0.65 -2.3 0  -0.55 -2.3 0  -0.45 -2.3 0  -0.35 -2.3 0  -0.25 -2.3 0  -0.15 -2.3 0  -0.05000000000000004 -2.3 0  0.05000000000000004 -2.3 0  0.15 -2.3 0  0.25 -2.3 0  0.3500000000000001 -2.3 0  0.45 -2.3 0  0.55 -2.3 0  0.6499999999999999 -2.3 0  0.75 -2.3 0  -0.75 -2.2 0  -0.65 -2.2 0  -0.55 -2.2 0  -0.45 -2.2 0  -0.35 -2.2 0  -0.25 -2.2 0  -0.15 -2.2 0  -0.05000000000000004 -2.2 0  0.05000000000000004 -2.2 0  0.15 -2.2 0  0.25 -2.2 0  0.3500000000000001 -2.2 0  0.45 -2.2 0  0.55 -2.2 0  0.6499999999999999 -2.2 0  0.75 -2.2 0  -0.75 -2.1 0  -0.65 -2.1 0  -0.55 -2.1 0  -0.45 -2.1 0  -0.35 -2.1 0  -0.25 -2.1 0  -0.15 -2.1 0  -0.05000000000000004 -2.1 0  0.05000000000000004 -2.1 0  0.15 -2.1 0  0.25 -2.1 0  0.3500000000000001 -2.1 0  0.45 -2.1 0  0.55 -2.1 0  0.6499999999999999 -2.1 0  0.75 -2.1 0  -0.75 -2 0  -0.65 -2 0  -0.55 -2 0  -0.45 -2 0  -0.35 -2 0  -0.25 -2 0  -0.15 -2 0  -0.05000000000000004 -2 0  0.05000000000000004 -2 0  0.15 -2 0  0.25 -2 0  0.3500000000000001 -2 0  0.45 -2 0  0.55 -2 0  0.6499999999999999 -2 0  0.75 -2 0  -0.75 -1.9 0  -0.65 -1.9 0  -0.55 -1.9 0  -0.45 -1.9 0  -0.35 -1.9 0  -0.25 -1.9 0  -0.15 -1.9 0  -0.05000000000000004 -1.9 0  0.05000000000000004 -1.9 0  0.15 -1.9 0  0.25 -1.9 0  0.3500000000000001 -1.9 0  0.45 -1.9 0  0.55 -1.9 0  0.6499999999999999 -1.9 0  0.75 -1.9 0  -0.75 -1.8 0  -0.65 -1.8 0  -0.55 -1.8 0  -0.45 -1.8 0  -0.35 -1.8 0  -0.25 -1.8 0  -0.15 -1.8 0  -0.05000000000000004 -1.8 0  0.05000000000000004 -1.8 0  0.15 -1.8 0  0.25 -1.8 0  0.3500000000000001 -1.8 0  0.45 -1.8 0  0.55 -1.8 0  0.6499999999999999 -1.8 0  0.75 -1.8 0  -0.75 -1.7 0  -0.65 -1.7 0  -0.55 -1.7 0  -0.45 -1.7 0  -0.35 -1.7 0  -0.25 -1.7 0  -0.15 -1.7 0  -0.05000000000000004 -1.7 0  0.05000000000000004 -1.7 0  0.15 -1.7 0  0.25 -1.7 0  0.3500000000000001 -1.7 0  0.45 -1.7 0  0.55 -1.7 0  0.6499999999999999 -1.7 0  0.75 -1.7 0  -0.75 -1.6 0  -0.65 -1.6 0  -0.55 -1.6 0  -0.45 -1.6 0  -0.35 -1.6 0  -0.25 -1.6 0  -0.15 -1.6 0  -0.05000000000000004 -1.6 0  0.05000000000000004 -1.6 0  0.15 -1.6 0  0.25 -1.6 0  0.3500000000000001 -1.6 0  0.45 -1.6 0  0.55 -1.6 0  0.6499999999999999 -1.6 0  0.75 -1.6 0  -0.75 -1.5 0  -0.65 -1.5 0  -0.55 -1.5 0  -0.45 -1.5 0  -0.35 -1.5 0  -0.25 -1.5 0  -0.15 -1.5 0  -0.05000000000000004 -1.5 0  0.05000000000000004 -1.5 0  0.15 -1.5 0  0.25 -1.5 0  0.3500000000000001 -1.5 0  0.45 -1.5 0  0.55 -1.5 0  0.6499999999999999 -1.5 0  0.75 -1.5 0  -0.75 -1.4 0  -0.65 -1.4 0  -0.55 -1.4 0  -0.45 -1.4 0  -0.35 -1.4 0  -0.25 -1.4 0  -0.15 -1.4 0  -0.05000000000000004 -1.4 0  0.05000000000000004 -1.4 0  0.15 -1.4 0  0.25 -1.4 0  0.3500000000000001 -1.4 0  0.45 -1.4 0  0.55 -1.4 0  0.6499999999999999 -1.4 0  0.75 -1.4 0  -0.75 -1.3 0  -0.65 -1.3 0  -0.55 -1.3 0  -0.45 -1.3 0  -0.35 -1.3 0  -0.25 -1.3 0  -0.15 -1.3 0  -0.05000000000000004 -1.3 0  0.05000000000000004 -1.3 0  0.15 -1.3 0  0.25 -1.3 0  0.3500000000000001 -1.3 0  0.45 -1.3 0  0.55 -1.3 0  0.6499999999999999 -1.3 0  0.75 -1.3 0  -0.75 -1.2 0  -0.65 -1.2 0  -0.55 -1.2 0  -0.45 -1.2 0  -0.35 -1.2 0  -0.25 -1.2 0  -0.15 -1.2 0  -0.05000000000000004 -1.2 0  0.05000000000000004 -1.2 0  0.15 -1.2 0  0.25 -1.2 0  0.3500000000000001 -1.2 0  0.45 -1.2 0  0.55 -1.2 0  0.6499999999999999 -1.2 0  0.75 -1.2 0  -0.75 -1.1 0  -0.65 -1.1 0  -0.55 -1.1 0  -0.45 -1.1 0  -0.35 -1.1 0  -0.25 -1.1 0  -0.15 -1.1 0  -0.05000000000000004 -1.1 0  0.05000000000000004 -1.1 0  0.15 -1.1 0  0.25 -1.1 0  0.3500000000000001 -1.1 0  0.45 -1.1 0  0.55 -1.1 0  0.6499999999999999 -1.1 0  0.75 -1.1 0  -0.75 -1 0  -0.65 -1 0  -0.55 -1 0  -0.45 -1 0  -0.35 -1 0  -0.25 -1 0  -0.15 -1 0  -0.05000000000000004 -1 0  0.05000000000000004 -1 0  0.15 -1 0  0.25 -1 0  0.3500000000000001 -1 0  0.45 -1 0  0.55 -1 0  0.6499999999999999 -1 0  0.75 -1 0  -0.75 -0.8999999999999999 0  -0.65 -0.899999
[...]
<PointData  Vectors="flow"> 
<DataArray  type="Float64"  Name="flow"  NumberOfComponents="3" format="ascii">-2.2440528881263531e-14 4.4843583427154833e-14 0.0000000000000000e+00  -5.7332605893463251e-16 4.4843577195891241e-14 0.0000000000000000e+00  -1.3038403224553435e-17 4.4843582595188908e-14 0.0000000000000000e+00  -2.4666954743882376e-19 4.4843571508720761e-14 0.0000000000000000e+00  2.6339080552556597e-21 4.4843590819965607e-14 0.0000000000000000e+00  -4.0326473123547960e-22 4.4843583578808937e-14 0.0000000000000000e+00  -1.0314425189252226e-20 4.4843588332374854e-14 0.0000000000000000e+00  4.9323979389258609e-21 4.4843581861395290e-14 0.0000000000000000e+00  3.1207161297957059e-21 4.4843580883524284e-14 0.0000000000000000e+00  -5.7358943836036642e-21 4.4843579221542795e-14 0.0000000000000000e+00  -8.5493228031949942e-23 4.4843583566685899e-14 0.0000000000000000e+00  4.6607704191736695e-21 4.4843579241577350e-14 0.0000000000000000e+00  2.6169352530639973e-19 4.4843588659772394e-14 0.0000000000000000e+00  1.3031402396192408e-17 4.4843576105546290e-14 0.0000000000000000e+00  5.7332282679692072e-16 4.4843581102515353e-14 0.0000000000000000e+00  2.2440530049161183e-14 4.4843586422021228e-14 0.0000000000000000e+00  -3.2043128468760367e-14 1.5609430179476678e-13 0.0000000000000000e+00  -7.9012264793599595e-16 1.5609430072433799e-13 0.0000000000000000e+00  -1.7202079517501503e-17 1.5609430892637506e-13 0.0000000000000000e+00  -3.1155815276631798e-19 1.5609431104062289e-13 0.0000000000000000e+00  -5.4716226010923687e-22 1.5609430709774939e-13 0.0000000000000000e+00  -1.4248626928164035e-22 1.5609430480090120e-13 0.0000000000000000e+00  3.2372843023826015e-22 1.5609430716526743e-13 0.0000000000000000e+00  -5.2052562722151204e-21 1.5609430678370583e-13 0.0000000000000000e+00  9.2151357380375112e-22 1.5609430720559125e-13 0.0000000000000000e+00  -2.6929473735292415e-22 1.5609430668941123e-13 0.0000000000000000e+00  -1.7477699621881272e-21 1.5609431211022154e-13 0.0000000000000000e+00  7.8894876600953833e-21 1.5609430802718508e-13 0.0000000000000000e+00  3.1761003917287155e-19 1.5609430789705022e-13 0.0000000000000000e+00  1.7196572431995098e-17 1.5609430285841293e-13 0.0000000000000000e+00  7.9012646421773499e-16 1.5609430895511909e-13 0.0000000000000000e+00  3.2043123994955728e-14 1.5609430188956176e-13 0.0000000000000000e+00  -6.8061272092683319e-14 4.4348105248457328e-13 0.0000000000000000e+00  -1.5779203193765983e-15 4.4348105690856001e-13 0.0000000000000000e+00  -3.1731883512068981e-17 4.4348105139505560e-13 0.0000000000000000e+00  -5.2061323399487681e-19 4.4348105817229146e-13 0.0000000000000000e+00  -2.8964674314621020e-21 4.4348105121688547e-13 0.0000000000000000e+00  1.2553668460452557e-21 4.4348105703986741e-13 0.0000000000000000e+00  -5.5430561066211950e-21 4.4348105664580193e-13 0.0000000000000000e+00  1.0327344041390109e-21 4.4348105377281939e-13 0.0000000000000000e+00  -1.4467439737017625e-21 4.4348105671450695e-13 0.0000000000000000e+00  1.2372818423602902e-21 4.4348104819599052e-13 0.0000000000000000e+00  3.0317359128357983e-22 4.4348104888084977e-13 0.0000000000000000e+00  6.7393158333722117e-21 4.4348105537757144e-13 0.0000000000000000e+00  5.2315176587054318e-19 4.4348105197797478e-13 0.0000000000000000e+00  3.1741872583019414e-17 4.4348105585759524e-13 0.0000000000000000e+00  1.5779180749329547e-15 4.4348105230338175e-13 0.0000000000000000e+00  6.8061270244798055e-14 4.4348105443104619e-13 0.0000000000000000e+00  -1.5665486100928536e-13 1.0900298362834686e-12 0.0000000000000000e+00  -3.4152764308856798e-15 1.0900298400191404e-12 0.0000000000000000e+00  -6.3339984789173620e-17 1.0900298333604379e-12 0.0000000000000000e+00  -9.1878916378905664e-19 1.0900298335695565e-12 0.0000000000000000e+00  -8.3239016077566765e-21 1.0900298380935866e-12 0.0000000000000000e+00  2.5634596730782685e-21 1.0900298370254769e-12 0.0000000000000000e+00  -1.8088989950544662e-21 1.0900298384700256e-12 0.0000000000000000e+00  -3.5500450043935467e-21 1.0900298380066504e-12 0.0000000000000000e+00  -5.3569234910520048e-21 1.0900298337173381e-12 0.0000000000000000e+00  -2.3456172878690170e-21 1.0900298367237462e-12 0.0000000000000000e+00  3.1876424812179120e-21 1.0900298331304835e-12 0.0000000000000000e+00  1.2006403581983372e-20 1.0900298334292134e-12 0.0000000000000000e+00  9.2623012858039800e-19 1.0900298332948879e-12 0.0000000000000000e+00  6.3343052563163725e-17 1.0900298374386348e-12 0.0000000000000000e+00  3.4152734639332981e-15 1.0900298341709741e-12 0.0000000000000000e+00  1.5665487995699776e-13 1.0900298372657335e-12 0.0000000000000000e+00  -3.5868098495302729e-13 2.5758842966803212e-12 0.0000000000000000e+00  -7.3395599473268633e-15 2.5758842880343257e-12 0.0000000000000000e+00  -1.2505006525981878e-16 2.5758842944060903e-12 0.0000000000000000e+00  -1.5968686005030213e-18 2.5758842890541857e-12 0.0000000000000000e+00  -6.7100172058586368e-21 2.5758842895471619e-12 0.0000000000000000e+00  -1.9765600254106495e-21 2.5758842872267406e-12 0.0000000000000000e+00  1.6265546605159645e-21 2.5758842864653939e-12 0.0000000000000000e+00  -3.8688981234638377e-21 2.5758842874400001e-12 0.0000000000000000e+00  -6.9398918507846660e-21 2.5758842866215113e-12 0.0000000000000000e+00  4.2827504114429848e-22 2.5758842900252844e-12 0.0000000000000000e+00  1.6436595985194912e-21 2.5758842885039959e-12 0.0000000000000000e+00  1.0350021211846151e-20 2.5758842851624278e-12 0.0000000000000000e+00  1.6070336432490675e-18 2.5758842865772160e-12 0.0000000000000000e+00  1.2505225609791269e-16 2.5758842840436179e-12 0.0000000000000000e+00  7.3395515507935409e-15 2.5758842876996072e-12 0.0000000000000000e+00  3.5868099462192633e-13 2.5758842843916457e-12 0.0000000000000000e+00  -8.0373123451592419e-13 5.9346190175788335e-12 0.0000000000000000e+00  -1.5369026567346192e-14 5.9346190168603035e-12 0.0000000000000000e+00  -2.3872827258590380e-16 5.9346190179875180e-12 0.0000000000000000e+00  -2.6335334231472174e-18 5.9346190135404198e-12 0.0000000000000000e+00  -1.1241468828414885e-20 5.9346190172134256e-12 0.0000000000000000e+00  1.2207811410016184e-21 5.9346190172905941e-12 0.0000000000000000e+00  2.4849564853059892e-22 5.9346190137913310e-12 0.0000000000000000e+00  -6.3187317253269626e-21 5.9346190139023913e-12 0.0000000000000000e+00  -1.2453652406257104e-21 5.9346190168955500e-12 0.0000000000000000e+00  -1.3719734381132249e-21 5.9346190209168142e-12 0.0000000000000000e+00  -5.9682421459034129e-21 5.9346190133447754e-12 0.0000000000000000e+00  1.3565763258065073e-20 5.9346190115018340e-12 0.0000000000000000e+00  2.6415438847115535e-18 5.9346190129565838e-12 0.0000000000000000e+00  2.3873177134229994e-16 5.9346190107391751e-12 0.0000000000000000e+00  1.5369021810668401e-14 5.9346190126378785e-12 0.0000000000000000e+00  8.0373124323232616e-13 5.9346190118898940e-12 0.0000000000000000e+00  -1.7561235737606565e-12 1.3347506396928474e-11 0.0000000000000000e+00  -3.1207746278512835e-14 1.3347506401059535e-11 0.0000000000000000e+00  -4.3758611498822791e-16 1.3347506398184994e-11 0.0000000000000000e+00  -4.0576714138481635e-18 1.3347506406154436e-11 0.0000000000000000e+00  -4.6435797384469957e-21 1.3347506396236045e-11 0.0000000000000000e+00  -5.8219630015902914e-21 1.3347506404253669e-11 0.0000000000000000e+00  -3.7148963323562531e-21 1.3347506398220728e-11 0.0000000000000000e+00  -2.4411626341379089e-21 1.3347506397500294e-11 0.0000000000000000e+00  1.5716138911507706e-21 1.3347506397677910e-11 0.0000000000000000e+00  -1.5553612958247614e-21 1.3347506394444115e-11 0.0000000000000000e+00  -7.8617990123322487e-21 1.3347506396628578e-11 0.0000000000000000e+00  1.3005433425858398e-20 1.3347506400976434e-11 0.0000000000000000e+00  4.0600717151993634e-18 1.3347506397319000e-11 0.0000000000000000e+00  4.3758866534895545e-16 1.3347506393503922e-11 0.0000000000000000e+00  3.1207745615812145e-14 1.3347506394298520e-11 0.0000000000000000e+00  1.7561235797408118e-12 1.3347506399844168e-11 0.0000000000000000e+00  -3.7355602309478059e-12 2.9286550047249528e-11 0.0000000000000000e+00  -6.1309969463447810e-14 2.9286550047752344e-11 0.0000000000000000e+00  -7.6697036469003274e-16 2.9286550043881197e-11 0.0000000000000000e+00  -5.7634012693570815e-18 2.9286550040321037e-11 0.0000000000000000e+00  5.8966537619662636e-21 2.9286550043548050e-11 0.0000000000000000e+00  8.3355394395716931e-22 2.9286550040435569e-11 0.0000000000000000e+00  -6.5268522175593361e-21 2.9286550039473403e-11 0.0000000000000000e+00  -4.9988567708752809e-21 2.9286550039800023e-11 0.0000000000000000e+00  -4.0770602391749947e-21 2.9286550037036361e-11 0.0000000000000000e+00  -2.1064390694612609e-21 2.9286550033448187e-11 0.0000000000000000e+00  -4.9394784760546666e-21 2.9286550036161152e-11 0.0000000000000000e+00  1.8058785737135334e-21 2.9286550034347992e-11 0.0000000000000000e+00  5.7615769881574775e-18 2.9286550032091062e-11 0.0000000000000000e+00  7.6697457081995729e-16 2.9286550038773234e-11 0.0000000000000000e+00  6.1309967961633238e-14 2.9286550037813148e-11 0.0000000000000000e+00  3.7355602306374120e-12 2.9286550041601681e-11 0.0000000000000000e+00  -7.7265549211873626e-12 6.2631529092657029e-11 0.0000000000000000e+00  -1.1632390285832622e-13 6.2631529093091609e-11 0.0000000000000000e+00  -1.2806476693103646e-15 6.2631529104952707e-11 0.0000000000000000e+00  -7.3833133251433383e-18 6.2631529099639493e-11 0.0000000000000000e+00  2.5511259611558575e-20 6.2631529098625189e-11 0.0000000000000000e+00  -5.3646748807714884e-21 6.2631529096240349e-11 0.0000000000000000e+00  -4.0591827294245846e-21 6.2631529095403230e-11 0.0000000000000000e+00  -5.5741500178041542e-21 6.2631529091094847e-11 0.0000000000000000e+00  -3.6569295809771317e-21 6.2631529089424123e-11 0.0000000000000000e+00  -2.4783877618617799e-21 6.2631529091120606e-11 0.0000000000000000e+00  -4.8480110893858109e-21 6.2631529090539653e-11 0.0000000000000000e+00  -2.2685496048218715e-20 6.2631529089157926e-11 0.0000000000000000e+00  7.3833215866331708e-18 6.2631529090797708e-11 0.0000000000000000e+00  1.2806483022562644e-15 6.2631529091053410e-11 0.0000000000000000e+00  1.1632390480254448e-13 6.2631529088436883e-11 0.0000000000000000e+00  7.7265549271847807e-12 6.2631529080212601e-11 0.0000000000000000e+00  -1.5522581510377720e-11 1.3042680717997846e-10 0.0000000000000000e+00  -2.1278866839210225e-13 1.3042680717957838e-10 0.0000000000000000e+00  -2.0290353183982262e-15 1.3042680717861627e-10 0.0000000000000000e+00  -8.2234789604026712e-18 1.3042680718014792e-10 0.0000000000000000e+00  5.8977580053350875e-20 1.3042680718115039e-10 0.0000000000000000e+00  -4.1435896452911095e-21 1.3042680717773054e-10 0.0000000000000000e+00  -1.1621056862923723e-20 1.3042680718128750e-10 0.0000000000000000e+00  -9.5624435717861722e-21 1.3042680718263296e-10 0.0000000000000000e+00  -1.0182037039053573e-21 1.3042680718433289e-10 0.0000000000000000e+00  -4.9198442777588582e-21 1.3042680718232054e-10 0.0000000000000000e+00  -6.7490391282961281e-21 1.3042680717565225e-10 0.0000000000000000e+00  -6.0310278587746224e-20 1.3042680717960087e-10 0.0000000000000000e+00  8.2247334649850980e-18 1.3042680717359410e-10 0.0000000000000000e+00  2.0290474863371995e-15 1.3042680717517533e-10 0.0000000000000000e+00  2.1278866794130661e-13 1.3042680718270368e-10 0.0000000000000000e+00  1.5522581501209764e-11 1.3042680717491536e-10 0.0000000000000000e+00  -3.0258486018856635e-11 2.6424505398490183e-10 0.0000000000000000e+00  -3.7470337358264949e-13 2.6424505398519460e-10 0.0000000000000000e+00  -3.0368786417892825e-15 2.6424505397657553e-10 0.0000000000000000e+00  -7.2491985814368429e-18 2.6424505397970289e-10 0.0000000000000000e+00  9.2622306615699313e-20 2.6424505397925591e-10 0.0000000000000000e+00  -3.3618871820235643e-21 2.6424505397841725e-10 0.0000000000000000e+00  -5.5696246782906624e-21 2.6424505398134645e-10 0.0000000000000000e+00  -2.9828515576260726e-21 2.6424505398140952e-10 0.0000000000000000e+00  -5.6713405483927878e-21 2.6424505398386713e-10 0.0000000000000000e+00  -8.1975121395630872e-21 2.6424505398070466e-10 0.0000000000000000e+00  -6.5064079193341351e-21 2.6424505398156974e-10 0.0000000000000000e+00  -9.1229575400908497e-20 2.6424505397953193e-10 0.0000000000000000e+00  7.2478918768709405e-18 2.6424505398569551e-10 0.0000000000000000e+00  3.0368811328730893e-15 2.6424505398121214e-10 0.0000000000000000e+00  3.7470337341289641e-13 2.6424505397807081e-10 0.0000000000000000e+00  3.0258486010008891e-11 2.6424505397656995e-10 0.0000000000000000e+00  -5.7179942558045983e-11 5.2043890063392483e-10 0.0000000000000000e+00  -6.3425301968375562e-13 5.2043890063557309e-10 0.0000000000000000e+00  -4.2706582509695820e-15 5.2043890063400310e-10 0.0000000000000000e+00  -3.2829533164144780e-18 5.2043890063598720e-10 0.0000000000000000e+00  1.2567900693324686e-19 5.2043890063365713e-10 0.0000000000000000e+00  -1.6847064406774448e-21 5.2043890063300325e-10 0.0000000000000000e+00  -7.6585816592997364e-21 5.2043890063088649e-10 0.0000000000000000e+00  -4.3789395353843325e-21 5.2043890063328728e-10 0.0000000000000000e+00  -3.1377415659329435e-21 5.2043890063344568e-10 0.0000000000000000e+00  -6.6087308542962302e-21 5.2043890063779738e-10 0.0000000000000000e+00  -8.3234701535184625e-21 5.2043890063901923e-10 0.0000000000000000e+00  -1.2848259115017749e-19 5.2043890063565922e-10 0.0000000000000000e+00  3.2875451970646806e-18 5.2043890063540858e-10 0.0000000000000000e+00  4.2706598674018668e-15 5.2043890063299311e-10 0.0000000000000000e+00  6.3425301493991823e-13 5.2043890063106041e-10 0.0000000000000000e+00  5.7179942555696241e-11 5.2043890063796933e-10 0.0000000000000000e+00  -1.0467111677300368e-10 9.9578291333343549e-10 0.0000000000000000e+00  -1.0306617382158281e-12 9.9578291333234775e-10 0.0000000000000000e+00  -5.6014698951081780e-15 9.9578291333143868e-10 0.0000000000000000e+00  4.7046015478042818e-18 9.9578291333024175e-10 0.0000000000000000e+00  1.4541448636951974e-19 9.9578291332824700e-10 0.0000000000000000e+00  -2.8025044161151408e-21 9.9578291332998263e-10 0.0000000000000000e+00  -5.7231323746180290e-21 9.9578291333087475e-10 0.0000000000000000e+00  -5.7200280190058623e-21 9.9578291332527990e-10 0.0000000000000000e+00  2.6206268371180280e-21 9.9578291332439565e-10 0.0000000000000000e+00  -5.3187238328048539e-21 9.9578291332739418e-10 0.0000000000000000e+00  -1.1237985656817013e-20 9.9578291332874724e-10 0.0000000000000000e+00  -1.4279898588455358e-19 9.9578291332805902e-10 0.0000000000000000e+00  -4.7071514758099529e-18 9.9578291332919598e-10 0.0000000000000000e+00  5.6014647383352172e-15 9.9578291333243564e-10 0.0000000000000000e+00  1.0306617383566646e-12 9.9578291333077093e-10 0.0000000000000000e+00  1.0467111677734930e-10 9.9578291333232976e-10 0.0000000000000000e+00  -1.8550148990856495e-10 1.8499696031004221e-09 0.0000000000000000e+00  -1.6060020844940943e-12 1.8499696030975321e-09 0.0000000000000000e+00  -6.7723397431613735e-15 1.8499696031054327e-09 0.0000000000000000e+00  1.7334199001677679e-17 1.8499696031007186e-09 0.0000000000000000e+00  1.3836233508867967e-19 1.8499696030954631e-09 0.0000000000000000e+00  -2.7653599292147876e-21 1.8499696030958246e-09 0.0000000000000000e+00  -1.0818060940770060e-20 1.8499696030944358e-09 0.0000000000000000e+00  -7.9466597179636806e-21 1.8499696030925575e-09 0.0000000000000000e+00  -2.0549522519240635e-21 1.8499696030908832e-09 0.0000000000000000e+00  -3.9644989368897169e-22 1.8499696030932136e-09 0.0000000000000000e+00  -2.6538560659655748e-21 1.8499696030947061e-09 0.0000000000000000e+00  -1.4593662035430546e-19 1.8499696030991517e-09 0.0000000000000000e+00  -1.7334190466165260e-17 1.8499696030946366e-09 0.0000000000000000e+00  6.7723414704886438e-15 1.8499696030932275e-09 0.0000000000000000e+00  1.6060020826890887e-12 1.8499696030982634e-09 0.0000000000000000e+00  1.8550148990348976e-10 1.8499696030978487e-09 0.0000000000000000e+00  -3.1815567681326777e-10 3.3359127311982736e-09 0.0000000000000000e+00  -2.3969340342980605e-12 3.3359127311930015e-09 0.0000000000000000e+00  -7.3793144946148532e-15 3.3359127311991694e-09 0.0000000000000000e+00  3.4529245500325123e-17 3.3359127311956324e-09 0.0000000000000000e+00  1.0833686422385665e-19 3.3359127312000905e-09 0.0000000000000000e+00  -9.1418390324138783e-21 3.3359127311894240e-09 0.0000000000000000e+00  -3.8910820519437036e-21 3.3359127311917645e-09 0.0000000000000000e+00  -1.1280004144097052e-20 3.3359127312009913e-09 0.0000000000000000e+00  2.5391928838718889e-21 3.3359127311973843e-09 0.0000000000000000e+00  -4.7724353533181249e-21 3.3359127311960265e-09 0.0000000000000000e+00  -1.1544863475807341e-21 3.3359127311970539e-09 0.0000000000000000e+00  -1.0833766524402862e-19 3.3359127311993154e-09 0.0000000000000000e+00  -3.4545991581969071e-17 3.3359127311968773e-09 0.0000000000000000e+00  7.3793171936700688e-15 3.3359127311962846e-09 0.0000000000000000e+00  2.3969340431065812e-12 3.3359127311962370e-09 0.0000000000000000e+00  3.1815567680551450e-10 3.3359127311954578e-09 0.0000000000000000e+00  -5.2798069935177804e-10 5.8376173049943365e-09 0.0000000000000000e+00  -3.4217830452218257e-12 5.8376173050002625e-09 0.0000000000000000e+00  -6.8741262340152896e-15 5.8376173049871715e-09 0.0000000000000000e+00  5.5117897651607879e-17 5.8376173049928691e-09 0.0000000000000000e+00  -6.8573731493624019e-21 5.8376173049978711e-09 0.0000000000000000e+00  -1.2271279200883927e-20 5.8376173049987206e-09 0.0000000000000000e+00  -3.7398475695840840e-22 5.8376173050021526e-09 0.0000000000000000e+00  -5.2749604141188471e-21 5.8376173050027109e-09 0.0000000000000000e+00  -3.7371446875824044e-21 5.8376173050044869e-09 0.0000000000000000e+00  -2.4864237267788628e-21 5.8376173050021096e-09 0.0000000000000000e+00  -9.9729673481132799e-22 5.8376173050007389e-09 0.0000000000000000e+00  1.1575553274863276e-22 5.8376173049903702e-09 0.0000000000000000e+00  -5.5128402461631118e-17 5.8376173049998373e-09 0.0000000000000000e+00  6.8741296013490062e-15 5.8376173049923008e-09 0.0000000000000000e+00  3.4217830437411421e-12 5.8376173049964657e-09 0.0000000000000000e+00  5.2798069932400452e-10 5.8376173049933803e-09 0.0000000000000000e+00  -8.4773743197556284e-10 9.9133432199754980e-09 0.0000000000000000e+00  -4.6630765836871005e-12 9.9133432199830915e-09 0.0000000000000000e+00  -4.6053214075555971e-15 9.9133432199778339e-09 0.0000000000000000e+00  7.5484627055160942e-17 9.9133432199821104e-09 0.0000000000000000e+00  -2.3569743389667056e-19 9.9133432199776073e-09 0.0000000000000000e+00  -5.9214419984570256e-21 9.9133432199868816e-09 0.0000000000000000e+00  -2.5621803806444002e-21 9.9133432199821783e-09 0.0000000000000000e+00  -2.0082956580763422e-21 9.9133432199848583e-09 0.0000000000000000e+00  -4.5480649968808034e-21 9.9133432199838641e-09 0.0000000000000000e+00  -5.7076610655490770e-21 9.9133432199833264e-09 0.0000000000000000e+00  -9.8606395745239126e-21 9.9133432199777562e-09 0.0000000000000000e+00  2.3481461256075589e-19 9.9133432199812551e-09 0.0000000000000000e+00  -7.5485761030846262e-17 9.9133432199767272e-09 0.0000000000000000e+00  4.6053176417030238e-15 9.9133432199792550e-09 0.0000000000000000e+00  4.6630765873007844e-12 9.9133432199770911e-09 0.0000000000000000e+00  8.4773743196915850e-10 9.9133432199799333e-09 0.0000000000000000e+00  -1.3170001393517062e-09 1.6338874381182542e-08 0.0000000000000000e+00  -6.0469320044611392e-12 1.6338874381172629e-08 0.0000000000000000e+00  6.3783131955421264e-17 1.6338874381183290e-08 0.0000000000000000e+00  8.8198656616872772e-17 1.6338874381173632e-08 0.0000000000000000e+00  -5.6158360218655416e-19 1.6338874381179634e-08 0.0000000000000000e+00  3.8172089187706416e-22 1.6338874381176014e-08 0.0000000000000000e+00  -3.5568937658781206e-21 1.6338874381180130e-08 0.0000000000000000e+00  -4.6696801548708790e-21 1.6338874381176669e-08 0.0000000000000000e+00  -2.3474952079647422e-21 1.6338874381178112e-08 0.0000000000000000e+00  -1.1985758919765389e-20 1.6338874381169420e-08 0.0