<?xml version="1.0"?>
<VTKFile type="UnstructuredGrid"  version="0.1"  >
<UnstructuredGrid>
<Piece  NumberOfPoints="431" NumberOfCells="800">
<Points>
<DataArray  type="Float64"  NumberOfComponents="3"  format="ascii">-0.75 -3 0  -0.6 -3 0  -0.45 -3 0  -0.3 -3 0  -0.15 -3 0  0 -3 0  0.15 -3 0  0.3 -3 0  0.45 -3 0  0.6000000000000001 -3 0  0.75 -3 0  -0.75 -2.85 0  -0.6 -2.85 0  -0.45 -2.85 0  -0.3 -2.85 0  -0.15 -2.85 0  0 -2.85 0  0.15 -2.85 0  0.3 -2.85 0  0.45 -2.85 0  0.6000000000000001 -2.85 0  0.75 -2.85 0  -0.75 -2.7 0  -0.6 -2.7 0  -0.45 -2.7 0  -0.3 -2.7 0  -0.15 -2.7 0  0 -2.7 0  0.15 -2.7 0  0.3 -2.7 0  0.45 -2.7 0  0.6000000000000001 -2.7 0  0.75 -2.7 0  -0.75 -2.55 0  -0.6 -2.55 0  -0.45 -2.55 0  -0.3 -2.55 0  -0.15 -2.55 0  0 -2.55 0  0.15 -2.55 0  0.3 -2.55 0  0.45 -2.55 0  0.6000000000000001 -2.55 0  0.75 -2.55 0  -0.75 -2.4 0  -0.6 -2.4 0  -0.45 -2.4 0  -0.3 -2.4 0  -0.15 -2.4 0  0 -2.4 0  0.15 -2.4 0  0.3 -2.4 0  0.45 -2.4 0  0.6000000000000001 -2.4 0  0.75 -2.4 0  -0.75 -2.25 0  -0.6 -2.25 0  -0.45 -2.25 0  -0.3 -2.25 0  -0.15 -2.25 0  0 -2.25 0  0.15 -2.25 0  0.3 -2.25 0  0.45 -2.25 0  0.6000000000000001 -2.25 0  0.75 -2.25 0  -0.75 -2.1 0  -0.6 -2.1 0  -0.45 -2.1 0  -0.3 -2.1 0  -0.15 -2.1 0  0 -2.1 0  0.15 -2.1 0  0.3 -2.1 0  0.45 -2.1 0  0.6000000000000001 -2.1 0  0.75 -2.1 0  -0.75 -1.95 0  -0.6 -1.95 0  -0.45 -1.95 0  -0.3 -1.95 0  -0.15 -1.95 0  0 -1.95 0  0.15 -1.95 0  0.3 -1.95 0  0.45 -1.95 0  0.6000000000000001 -1.95 0  0.75 -1.95 0  -0.75 -1.8 0  -0.6 -1.8 0  -0.45 -1.8 0  -0.3 -1.8 0  -0.15 -1.8 0  0 -1.8 0  0.15 -1.8 0  0.3 -1.8 0  0.45 -1.8 0  0.6000000000000001 -1.8 0  0.75 -1.8 0  -0.75 -1.65 0  -0.6 -1.65 0  -0.45 -1.65 0  -0.3 -1.65 0  -0.15 -1.65 0  0 -1.65 0  0.15 -1.65 0  0.3 -1.65 0  0.45 -1.65 0  0.6000000000000001 -1.65 0  0.75 -1.65 0  -0.75 -1.5 0  -0.6 -1.5 0  -0.45 -1.5 0  -0.3 -1.5 0  -0.15 -1.5 0  0 -1.5 0  0.15 -1.5 0  0.3 -1.5 0  0.45 -1.5 0  0.6000000000000001 -1.5 0  0.75 -1.5 0  -0.75 -1.35 0  -0.6 -1.35 0  -0.45 -1.35 0  -0.3 -1.35 0  -0.15 -1.35 0  0 -1.35 0  0.15 -1.35 0  0.3 -1.35 0  0.45 -1.35 0  0.6000000000000001 -1.35 0  0.75 -1.35 0  -0.75 -1.2 0  -0.6 -1.2 0  -0.45 -1.2 0  -0.3 -1.2 0  -0.15 -1.2 0  0 -1.2 0  0.15 -1.2 0  0.3 -1.2 0  0.45 -1.2 0  0.6000000000000001 -1.2 0  0.75 -1.2 0  -0.75 -1.05 0  -0.6 -1.05 0  -0.45 -1.05 0  -0.3 -1.05 0  -0.15 -1.05 0  0 -1.05 0  0.15 -1.05 0  0.3 -1.05 0  0.45 -1.05 0  0.6000000000000001 -1.05 0  0.75 -1.05 0  -0.75 -0.8999999999999999 0  -0.6 -0.8999999999999999 0  -0.45 -0.8999999999999999 0  -0.3 -0.8999999999999999 0  -0.15 -0.8999999999999999 0  0 -0.8999999999999999 0  0.15 -0.8999999999999999 0  0.3 -0.8999999999999999 0  0.45 -0.8999999999999999 0  0.6000000000000001 -0.8999999999999999 0  0.75 -0.8999999999999999 0  -0.75 -0.75 0  -0.6 -0.75 0  -0.45 -0.75 0  -0.3 -0.75 0  -0.15 -0.75 0  0 -0.75 0  0.15 -0.75 0  0.3 -0.75 0  0.45 -0.75 0  0.6000000000000001 -0.75 0  0.75 -0.75 0  -0.75 -0.6000000000000001 0  -0.6 -0.6000000000000001 0  -0.45 -0.6000000000000001 0  -0.3 -0.6000000000000001 0  -0.15 -0.6000000000000001 0  0 -0.6000000000000001 0  0.15 -0.6000000000000001 0  0.3 -0.6000000000000001 0  0.45 -0.6000000000000001 0  0.6000000000000001 -0.6000000000000001 0  0.75 -0.6000000000000001 0  -0.75 -0.4500000000000002 0  -0.6 -0.4500000000000002 0  -0.45 -0.4500000000000002 0  -0.3 -0.4500000000000002 0  -0.15 -0.4500000000000002 0  0 -0.4500000000000002 0  0.15 -0.4500000000000002 0  0.3 -0.4500000000000002 0  0.45 -0.4500000000000002 0  0.6000000000000001 -0.4500000000000002 0  0.75 -0.4500000000000002 0  -0.75 -0.2999999999999998 0  -0.6 -0.2999999999999998 0  -0.45 -0.2999999999999998 0  -0.3 -0.2999999999999998 0  -0.15 -0.2999999999999998 0  0 -0.2999999999999998 0  0.15 -0.2999999999999998 0  0.3 -0.2999999999999998 0  0.45 -0.2999999999999998 0  0.6000000000000001 -0.2999999999999998 0  0.75 -0.2999999999999998 0  -0.75 -0.1499999999999999 0  -0.6 -0.1499999999999999 0  -0.45 -0.1499999999999999 0  -0.3 -0.1499999999999999 0  -0.15 -0.1499999999999999 0  0 -0.1499999999999999 0  0.15 -0.1499999999999999 0  0.3 -0.1499999999999999 0  0.45 -0.1499999999999999 0  0.6000000000000001 -0.1499999999999999 0  0.75 -0.1499999999999999 0  -0.75 0 0  -0.6 0 0  -0.45 0 0  -0.3 0 0  -0.15 0 0  0 0 0  0.15 0 0  0.3 0 0  0.45 0 0  0.6000000000000001 0 0  0.75 0 0  -0.675 -2.925 0  -0.525 -2.925 0  -0.375 -2.925 0  -0.225 -2.925 0  -0.07499999999999996 -2.925 0  0.07499999999999996 -2.925 0  0.225 -2.925 0  0.375 -2.925 0  0.5249999999999999 -2.925 0  0.675 -2.925 0  -0.675 -2.775 0  -0.525 -2.775 0  -0.375 -2.775 0  -0.225 -2.775 0  -0.07499999999999996 -2.775 0  0.07499999999999996 -2.775 0  0.225 -2.775 0  0.375 -2.775 0  0.5249999999999999 -2.775 0  0.675 -2.775 0  -0.675 -2.625 0  -0.525 -2.625 0  -0.375 -2.625 0  -0.225 -2.625 0  -0.07499999999999996 -2.625 0  0.07499999999999996 -2.625 0  0.225 -2.625 0  0.375 -2.625 0  0.5249999999999999 -2.625 0  0.675 -2.625 0  -0.675 -2.475 0  -0.525 -2.475 0  -0.375 -2.475 0  -0.225 -2.475 0  -0.07499999999999996 -2.475 0  0.07499999999999996 -2.475 0  0.225 -2.475 0  0.375 -2.475 0  0.5249999999999999 -2.475 0  0.675 -2.475 0  -0.675 -2.325 0  -0.525 -2.325 0  -0.375 -2.325 0  -0.225 -2.325 0  -0.07499999999999996 -2.325 0  0.07499999999999996 -2.325 0  0.225 -2.325 0  0.375 -2.325 0  0.5249999999999999 -2.325 0  0.675 -2.325 0  -0.675 -2.175 0  -0.525 -2.175 0  -0.375 -2.175 0  -0.225 -2.175 0  -0.07499999999999996 -2.175 0  0.07499999999999996 -2.175 0  0.225 -2.175 0  0.375 -2.175 0  0.5249999999999999 -2.175 0  0.675 -2.175 0  -0.675 -2.025 0  -0.525 -2.025 0  -0.375 -2.025 0  -0.225 -2.025 0  -0.07499999999999996 -2.025 0  0.07499999999999996 -2.025 0  0.225 -2.025 0  0.375 -2.025 0  0.5249999999999999 -2.025 0  0.675 -2.025 0  -0.675 -1.875 0  -0.525 -1.875 0  -0.375 -1.875 0  -0.225 -1.875 0  -0.07499999999999996 -1.875 0  0.07499999999999996 -1.875 0  0.225 -1.875 0  0.375 -1.875 0  0.5249999999999999 -1.875 0  0.675 -1.875 0  -0.675 -1.725 0  -0.525 -1.725 0  -0.375 -1.725 0  -0.225 -1.725 0  -0.07499999999999996 -1.725 0  0.07499999999999996 -1.725 0  0.225 -1.725 0  0.375 -1.725 0  0.5249999999999999 -1.725 0  0.675 -1.725 0  -0.675 -1.575 0  -0.525 -1.575 0  -0.375 -1.575 0  -0.225 -1.575 0  -0.07499999999999996 -1.575 0  0.07499999999999996 -1.575 0  0.225 -1.575 0  0.375 -1.575 0  0.5249999999999999 -1.575 0  0.675 -1.575 0  -0.675 -1.425 0  -0.525 -1.425 0  -0.375 -1.425 0  -0.225 -1.425 0  -0.07499999999999996 -1.425 0  0.07499999999999996 -1.425 0  0.225 -1.425 0  0.375 -1.425 0  0.5249999999999999 -1.425 0  0.675 -1.425 0  -0.675 -1.275 0  -0.525 -1.275 0  -0.375 -1.275 0  -0.225 -1.275 0  -0.07499999999999996 -1.275 0  0.07499999999999996 -1.275 0  0.225 -1.275 0  0.375 -1.275 0  0.5249999999999999 -1.275 0  0.675 -1.275 0  -0.675 -1.125 0  -0.525 -1.125 0  -0.375 -1.125 0  -0.225 -1.125 0  -0.07499999999999996 -1.125 0  0.07499999999999996 -1.125 0  0.225 -1.125 0  0.375 -1.125 0  0.5249999999999999 -1.125 0  0.675 -1.125 0  -0.675 -0.9750000000000001 0  -0.525 -0.9750000000000001 0  -0.375 -0.9750000000000001 0  -0.225 -0.9750000000000001 0  -0.07499999999999996 -0.9750000000000001 0  0.07499999999999996 -0.9750000000000001 0  0.225 -0.9750000000000001 0  0.375 -0.9750000000000001 0  0.5249999999999999 -0.9750000000000001 0  0.675 -0.9750000000000001 0  -0.675 -0.8250000000000002 0  -0.525 -0.8250000000000002 0  -0.375 -0.8250000000000002 0  -0.225 -0.8250000000000002 0  -0.07499999999999996 -0.8250000000000002 0  0.07499999999999996 -0.8250000000000002 0  0.225 -0.8250000000000002 0  0.375 -0.8250000000000002 0  0.5249999999999999 -0.8250000000000002 0  0.675 -0.8250000000000002 0  -0.675 -0.6749999999999998 0  -0.525 -0.6749999999999998 0  -0.375 -0.6749999999999998 0  -0.225 -0.6749999999999998 0  -0.07499999999999996 -0.6749999999999998 0  0.07499999999999996 -0.6749999999999998 0  0.225 -0.6749999999999998 0  0.375 -0.6749999999999998 0  0.5249999999999999 -0.6749999999999998 0  0.675 -0.6749999999999998 0  -0.675 -0.5249999999999999 0  -0.525 -0.5249999999999999 0  -0.375 -0.5249999999999999 0  -0.225 -0.5249999999999999 0  -0.07499999999999996 -0.5249999999999999 0  0.07499999999999996 -0.5249999999999999 0  0.225 -0.5249999999999999 0  0.375 -0.5249999999999999 0  0.5249999999999999 -0.5249999999999999 0  0.675 -0.5249999999999999 0  -0.675 -0.375 0  -0.525 -0.375 0  -0.375 -0.375 0  -0.225 -0.375 0  -0.07499999999999996 -0.375 0  0.07499999999999996 -0.375 0  0.225 -0.375 0  0.375 -0.375 0  0.5249999999999999 -0.375 0  0.675 -0.375 0  -0.675 -0.2250000000000001 0  -0.525 -0.2250000000000001 0  -0.375 -0.2250000000000001 0  -0.225 -0.2250000000000001 0  -0.07499999999999996 -0.2250000000000001 0  0.07499999999999996 -0.2250000000000001 0  0.225 -0.2250000000000001 0  0.375 -0.2250000000000001 0  0.5249999999999999 -0.2250000000000001 0  0.675 -0.2250000000000001 0  -0.675 -0.07500000000000018 0  -0.525 -0.07500000000000018 0  -0.375 -0.07500000000000018 0  -0.225 -0.07500000000000018 0  -0.07499999999999996 -0.07500000000000018 0  0.07499999999999996 -0.07500000000000018 0  0.225 -0.07500000000000018 0  0.375 -0.07500000000000018 0  0.5249999999999999 -0.07500000000000018 0  0.675 -0.07500000000000018 0  </DataArray>
</Points>
<Cells>
[...]
<PointData  Vectors="flow"> 
<DataArray  type="Float64"  Name="flow"  NumberOfComponents="3" format="ascii">-7.9711913094182157e-03 -2.4297299952802785e+01 0.0000000000000000e+00  -3.6025065882511380e-03 -1.0980941211794187e+01 0.0000000000000000e+00  3.3233165695299932e-04 1.0129931197684843e+00 0.0000000000000000e+00  -4.3407961156991189e-05 -1.3231350392065874e-01 0.0000000000000000e+00  6.2384883029983763e-06 1.9015780159599045e-02 0.0000000000000000e+00  -9.3867608843458781e-07 -2.8612152931609207e-03 0.0000000000000000e+00  1.4510960154499856e-07 4.4231425114646492e-04 0.0000000000000000e+00  -2.2836479837177852e-08 -6.9608767238399266e-05 0.0000000000000000e+00  3.6419912449143494e-09 1.1101295937862040e-05 0.0000000000000000e+00  -6.0099318779333788e-10 -1.8319108382397672e-06 0.0000000000000000e+00  1.8978146031438858e-10 5.7848029080563995e-07 0.0000000000000000e+00  1.6256972221942853e-03 4.9553512777220972e+00 0.0000000000000000e+00  5.7487807552907499e-04 1.7523083432856941e+00 0.0000000000000000e+00  -1.9986635160386114e-04 -6.0922044232630479e-01 0.0000000000000000e+00  3.2117869197065401e-05 9.7899733105632866e-02 0.0000000000000000e+00  -5.0392209438873020e-06 -1.5360246423569042e-02 0.0000000000000000e+00  7.9588791171156142e-07 2.4259770677962852e-03 0.0000000000000000e+00  -1.2687056623043646e-07 -3.8671913434578406e-04 0.0000000000000000e+00  2.0392809185781571e-08 6.2160119163338825e-05 0.0000000000000000e+00  -3.3029403285775560e-09 -1.0067821580801481e-05 0.0000000000000000e+00  5.5171456089305779e-10 1.6817027284878828e-06 0.0000000000000000e+00  -1.7576247351432467e-10 -5.3574846891183136e-07 0.0000000000000000e+00  -7.7639232560861769e-05 -2.3665518093986795e-01 0.0000000000000000e+00  1.3184438879060407e-05 4.0188003739845712e-02 0.0000000000000000e+00  3.6093573105713251e-05 1.1001823166403692e-01 0.0000000000000000e+00  -1.2685384809341116e-05 -3.8666817513853535e-02 0.0000000000000000e+00  2.6387821279587296e-06 8.0433749968281745e-03 0.0000000000000000e+00  -4.8410929460946021e-07 -1.4756324725474861e-03 0.0000000000000000e+00  8.4727709098048530e-08 2.5826184347586015e-04 0.0000000000000000e+00  -1.4517928490216220e-08 -4.4252665571248278e-05 0.0000000000000000e+00  2.4635255411065469e-09 7.5091685408344959e-06 0.0000000000000000e+00  -4.2684661959319518e-10 -1.3010878735079228e-06 0.0000000000000000e+00  1.3962423971350824e-10 4.2559410523654290e-07 0.0000000000000000e+00  6.9699437087839710e-06 2.1245357986375436e-02 0.0000000000000000e+00  -2.7912877199534663e-06 -8.5082332556931563e-03 0.0000000000000000e+00  -2.5542689775718068e-06 -7.7857671581502644e-03 0.0000000000000000e+00  2.5722569303578043e-06 7.8405969404767555e-03 0.0000000000000000e+00  -8.8597041404098973e-07 -2.7005610659260374e-03 0.0000000000000000e+00  2.1051461995202858e-07 6.4167784549108275e-04 0.0000000000000000e+00  -4.3173587465434643e-08 -1.3159910030597361e-04 0.0000000000000000e+00  8.2377603048935116e-09 2.5109839332396909e-05 0.0000000000000000e+00  -1.5112954419452824e-09 -4.6066387375324799e-06 0.0000000000000000e+00  2.7840933875074048e-10 8.4863039296217124e-07 0.0000000000000000e+00  -9.5159743644603264e-11 -2.9006013593387188e-07 0.0000000000000000e+00  -7.6613027772695225e-07 -2.3352716599414382e-03 0.0000000000000000e+00  4.0683476541952094e-07 1.2400889582146663e-03 0.0000000000000000e+00  1.6963032556267433e-07 5.1705682893573852e-04 0.0000000000000000e+00  -3.3707492378874777e-07 -1.0274512569014114e-03 0.0000000000000000e+00  1.9581024129840484e-07 5.9685685388540541e-04 0.0000000000000000e+00  -6.5874726274423307e-08 -2.0079532926368368e-04 0.0000000000000000e+00  1.6833235520996114e-08 5.1310043474501521e-05 0.0000000000000000e+00  -3.7318499061360887e-09 -1.1375197637157884e-05 0.0000000000000000e+00  7.6349576940256402e-10 2.3272413120924095e-06 0.0000000000000000e+00  -1.5326545021568825e-10 -4.6717441242339697e-07 0.0000000000000000e+00  5.5681424000572742e-11 1.6972472598200034e-07 0.0000000000000000e+00  9.3446856264235869e-08 2.8483901692535066e-04 0.0000000000000000e+00  -5.7476072336624626e-08 -1.7519506375689799e-04 0.0000000000000000e+00  -8.2756446385539090e-09 -2.5225316051337648e-05 0.0000000000000000e+00  4.0586416527997482e-08 1.2371304339728906e-04 0.0000000000000000e+00  -3.3015002339825643e-08 -1.0063431972149945e-04 0.0000000000000000e+00  1.5458656629536680e-08 4.7120135800962289e-05 0.0000000000000000e+00  -5.0998250356712960e-09 -1.5544976125728264e-05 0.0000000000000000e+00  1.3595803381017922e-09 4.1441899965142496e-06 0.0000000000000000e+00  -3.1894556197131573e-10 -9.7219044017624006e-07 0.0000000000000000e+00  7.1418840989017129e-11 2.1769456213419232e-07 0.0000000000000000e+00  -2.8021112192280957e-11 -8.5412247870975002e-08 0.0000000000000000e+00  -1.2152165775938659e-08 -3.7041491725998427e-05 0.0000000000000000e+00  8.1866341036437769e-09 2.4953999559018851e-05 0.0000000000000000e+00  -2.9268518758180890e-10 -8.9214516605752555e-07 0.0000000000000000e+00  -4.7685564809960495e-09 -1.4535223489586445e-05 0.0000000000000000e+00  5.0035266141871336e-09 1.5251445141342337e-05 0.0000000000000000e+00  -2.9841768306999376e-09 -9.0961860973090706e-06 0.0000000000000000e+00  1.2479212321989592e-09 3.8038375092546151e-06 0.0000000000000000e+00  -4.0556054586995432e-10 -1.2362049597758218e-06 0.0000000000000000e+00  1.1123484495523906e-10 3.3905928087406754e-07 0.0000000000000000e+00  -2.8340246077897336e-11 -8.6385012347818336e-08 0.0000000000000000e+00  1.2170768419740889e-11 3.7098195172049800e-08 0.0000000000000000e+00  1.6507556982777193e-09 5.0317329986124049e-06 0.0000000000000000e+00  -1.1833683567156407e-09 -3.6070713650797705e-06 0.0000000000000000e+00  1.9520426434476186e-10 5.9500975183557453e-07 0.0000000000000000e+00  5.5311340992928222e-10 1.6859666149387963e-06 0.0000000000000000e+00  -7.2339602479053965e-10 -2.2050117123940624e-06 0.0000000000000000e+00  5.1829527715205006e-10 1.5798361028175543e-06 0.0000000000000000e+00  -2.6192835316115693e-10 -7.9839405627874604e-07 0.0000000000000000e+00  1.0228072597568098e-10 3.1176588065139944e-07 0.0000000000000000e+00  -3.2962051091616124e-11 -1.0047291695111282e-07 0.0000000000000000e+00  9.6789436586388336e-12 2.9502766672073588e-08 0.0000000000000000e+00  -4.5913688806408853e-12 -1.3995131035819815e-08 0.0000000000000000e+00  -2.3145352087434552e-10 -7.0550252823209573e-07 0.0000000000000000e+00  1.7358966200000017e-10 5.2912543716473392e-07 0.0000000000000000e+00  -4.5642047110601734e-11 -1.3912330868234730e-07 0.0000000000000000e+00  -6.3112245951931481e-11 -1.9237490496274024e-07 0.0000000000000000e+00  1.0225512373765135e-10 3.1168784146845672e-07 0.0000000000000000e+00  -8.4862286474936637e-11 -2.5867205404115544e-07 0.0000000000000000e+00  4.9837799880507113e-11 1.5191254678001473e-07 0.0000000000000000e+00  -2.2724155053165904e-11 -6.9266385671663166e-08 0.0000000000000000e+00  8.5162399325739226e-12 2.5958683975794346e-08 0.0000000000000000e+00  -2.8909745199681549e-12 -8.8120924891844211e-09 0.0000000000000000e+00  1.5192879940883114e-12 4.6310011482775525e-09 0.0000000000000000e+00  3.3242552675096400e-11 1.0132792479705429e-07 0.0000000000000000e+00  -2.5803360572385757e-11 -7.8652232430655111e-08 0.0000000000000000e+00  8.7734501564847685e-12 2.6742696517797099e-08 0.0000000000000000e+00  6.9912493605252317e-12 2.1310300576630073e-08 0.0000000000000000e+00  -1.4289104531076657e-11 -4.3555178312972095e-08 0.0000000000000000e+00  1.3424204715414334e-11 4.0918843361953898e-08 0.0000000000000000e+00  -8.9057278442084843e-12 -2.7145897310618510e-08 0.0000000000000000e+00  4.6171437441192960e-12 1.4073696405143919e-08 0.0000000000000000e+00  -1.9763903259016325e-12 -6.0243126413879193e-09 0.0000000000000000e+00  7.7076275232724217e-13 2.3493920869288115e-09 0.0000000000000000e+00  -4.4700758569309504e-13 -1.3625413026946961e-09 0.0000000000000000e+00  -4.8656305392910868e-12 -1.4831118722867693e-08 0.0000000000000000e+00  3.8802028929414712e-12 1.1827398177752767e-08 0.0000000000000000e+00  -1.5611620535171245e-12 -4.7586391063555229e-09 0.0000000000000000e+00  -7.3165531139537042e-13 -2.2301871668831364e-09 0.0000000000000000e+00  1.9839562453365724e-12 6.0473746162915155e-09 0.0000000000000000e+00  -2.0796710140279641e-12 -6.3391265457753855e-09 0.0000000000000000e+00  1.5272724396067537e-12 4.6553388489032046e-09 0.0000000000000000e+00  -8.8142553641207752e-13 -2.6867076466927071e-09 0.0000000000000000e+00  4.2331506327627324e-13 1.2903231985927591e-09 0.0000000000000000e+00  -1.8745103110611938e-13 -5.7137681840181183e-10 0.0000000000000000e+00  1.1886714988625784e-13 3.6232360800433118e-10 0.0000000000000000e+00  7.2312450287906505e-13 2.2041840758375102e-09 0.0000000000000000e+00  -5.8938401383110794e-13 -1.7965244610954427e-09 0.0000000000000000e+00  2.6747930985085907e-13 8.1531414444113797e-10 0.0000000000000000e+00  6.7911822975597078e-14 2.0700468338153585e-10 0.0000000000000000e+00  -2.7426290368880376e-13 -8.3599148209879348e-10 0.0000000000000000e+00  3.1802145013129081e-13 9.6937361873820952e-10 0.0000000000000000e+00  -2.5478341283117451e-13 -7.7661528424785277e-10 0.0000000000000000e+00  1.6104278436481264e-13 4.9088080878490214e-10 0.0000000000000000e+00  -8.5465373862615848e-14 -2.6051034829196341e-10 0.0000000000000000e+00  4.2407956359417834e-14 1.2926535019084259e-10 0.0000000000000000e+00  -2.9059741815615931e-14 -8.8578135442663206e-11 0.0000000000000000e+00  -1.0883055938529522e-13 -3.3173068400597944e-10 0.0000000000000000e+00  9.0311021026855357e-14 2.7528055490786200e-10 0.0000000000000000e+00  -4.4893781681034524e-14 -1.3684249156470725e-10 0.0000000000000000e+00  -4.4939788562312666e-15 -1.3698272693869339e-11 0.0000000000000000e+00  3.7764864999216077e-14 1.1511256184240698e-10 0.0000000000000000e+00  -4.8232232121596656e-14 -1.4701855290651405e-10 0.0000000000000000e+00  4.1707928394531023e-14 1.2713156757567592e-10 0.0000000000000000e+00  -2.8517571716479399e-14 -8.6925525561302597e-11 0.0000000000000000e+00  1.6518741292506523e-14 5.0351421317985442e-11 0.0000000000000000e+00  -9.0672383325498033e-15 -2.7638203746184293e-11 0.0000000000000000e+00  6.6350533748607098e-15 2.0224565663273935e-11 0.0000000000000000e+00  1.6552754346350803e-14 5.0455097837527336e-11 0.0000000000000000e+00  -1.3944518283898846e-14 -4.2504831497509245e-11 0.0000000000000000e+00  7.4462753130001698e-15 2.2697282976679548e-11 0.0000000000000000e+00  -1.2392326058987250e-16 -3.7773533676486302e-13 0.0000000000000000e+00  -5.1761233831537424e-15 -1.5777544102423869e-11 0.0000000000000000e+00  7.2763940321805716e-15 2.2179461201211558e-11 0.0000000000000000e+00  -6.7387843871368225e-15 -2.0540752218312818e-11 0.0000000000000000e+00  4.9373644058092248e-15 1.5049773526636706e-11 0.0000000000000000e+00  -3.0908000651766954e-15 -9.4211885479413746e-12 0.0000000000000000e+00  1.8546831064992343e-15 5.6533321064272682e-12 0.0000000000000000e+00  -1.4338893014172389e-15 -4.3706940535331769e-12 0.0000000000000000e+00  -2.5403125615337061e-15 -7.7432260606428499e-12 0.0000000000000000e+00  2.1676313074294930e-15 6.6072417558805484e-12 0.0000000000000000e+00  -1.2264943340329855e-15 -3.7385253430314775e-12 0.0000000000000000e+00  1.3360016683886986e-16 4.0723189312906227e-13 0.0000000000000000e+00  7.0510620024308456e-16 2.1492617829464461e-12 0.0000000000000000e+00  -1.0939599752161307e-15 -3.3345421810139840e-12 0.0000000000000000e+00  1.0789335728592986e-15 3.2887396163654463e-12 0.0000000000000000e+00  -8.4095821577883743e-16 -2.5633576241496110e-12 0.0000000000000000e+00  5.6437133361805216e-16 1.7202823323885321e-12 0.0000000000000000e+00  -3.6631328327344916e-16 -1.1165738438462633e-12 0.0000000000000000e+00  2.9647901615891478e-16 9.0370928330545707e-13 0.0000000000000000e+00  3.9288016996904831e-16 1.1975534101116408e-12 0.0000000000000000e+00  -3.3896044639419239e-16 -1.0331985920905809e-12 0.0000000000000000e+00  2.0119552698630087e-16 6.1327195378843923e-13 0.0000000000000000e+00  -3.7034733530997464e-17 -1.1288701956149741e-13 0.0000000000000000e+00  -9.5235041165914639e-17 -2.9028965325318005e-13 0.0000000000000000e+00  1.6410110335281193e-16 5.0020299049129102e-13 0.0000000000000000e+00  -1.7166667732362080e-16 -5.2326391237214745e-13 0.0000000000000000e+00  1.4154198780690985e-16 4.3143966819577636e-13 0.0000000000000000e+00  -1.0115631198332124e-16 -3.0833851038979095e-13 0.0000000000000000e+00  7.0352088765477506e-17 2.1444295296505390e-13 0.0000000000000000e+00  -5.9155162995955549e-17 -1.8031316565836854e-13 0.0000000000000000e+00  -6.1172091153862061e-17 -1.8646104325076749e-13 0.0000000000000000e+00  5.3285526661241193e-17 1.6242169760767331e-13 0.0000000000000000e+00  -3.2928450224680887e-17 -1.0037049683460611e-13 0.0000000000000000e+00  8.1218263211151659e-18 2.4756456422710164e-14 0.0000000000000000e+00  1.2709003107394637e-17 3.8738809371771629e-14 0.0000000000000000e+00  -2.4580024244880129e-17 -7.4923333130817786e-14 0.0000000000000000e+00  2.7198681767869374e-17 8.2905365532242640e-14 0.0000000000000000e+00  -2.3618058247761613e-17 -7.1991126956218621e-14 0.0000000000000000e+00  1.7873543681177955e-17 5.4481047459993875e-14 0.0000000000000000e+00  -1.3209270489716224e-17 -4.0263693943354430e-14 0.0000000000000000e+00  1.1466534490343172e-17 3.4951592191978316e-14 0.0000000000000000e+00  9.5811337108235796e-18 2.9204628345167677e-14 0.0000000000000000e+00  -8.4164727575225257e-18 -2.5654579748010342e-14 0.0000000000000000e+00  5.3829947880649465e-18 1.6408116921676646e-14 0.0000000000000000e+00  -1.6132040949089485e-18 -4.9172704878854830e-15 0.0000000000000000e+00  -1.6671131036116146e-18 -5.0815926454858335e-15 0.0000000000000000e+00  3.6782168935620899e-18 1.1211716754150764e-14 0.0000000000000000e+00  -4.2978370202207322e-18 -1.3100405093173621e-14 0.0000000000000000e+00  3.9165877740922048e-18 1.1938304356860845e-14 0.0000000000000000e+00  -3.1232025500639422e-18 -9.5199558292624783e-15 0.0000000000000000e+00  2.4348721847774589e-18 7.4218291248854948e-15 0.0000000000000000e+00  -2.1708179391614513e-18 -6.6169550526796566e-15 0.0000000000000000e+00  -1.5094305514131511e-18 -4.6009542917727779e-15 0.0000000000000000e+00  1.3358780699688474e-18 4.0719421861138480e-15 0.0000000000000000e+00  -8.8019882047777522e-19 -2.6829684458812000e-15 0.0000000000000000e+00  3.0397121831314316e-19 9.2654655768288346e-16 0.0000000000000000e+00  2.1328972807671730e-19 6.5013676108974492e-16 0.0000000000000000e+00  -5.5032892742444116e-19 -1.6774791249254208e-15 0.0000000000000000e+00  6.7849182412407531e-19 2.0681374623124252e-15 0.0000000000000000e+00  -6.4706862681898702e-19 -1.9723551857666644e-15 0.0000000000000000e+00  5.4140751167989899e-19 1.6502854087122927e-15 0.0000000000000000e+00  -4.4245173403861024e-19 -1.3486544331048657e-15 0.0000000000000000e+00  4.0345006460741589e-19 1.2297719193066920e-15 0.0000000000000000e+00  2.4464812069971172e-19 7.4572150394972818e-16 0.0000000000000000e+00  -2.1801699080059681e-19 -6.6454611546340237e-16 0.0000000000000000e+00  1.4757109911134270e-19 4.4981723813811509e-16 0.0000000000000000e+00  -5.7042779229052835e-20 -1.7387432609128179e-16 0.0000000000000000e+00  -2.6570603874798974e-20 -8.0990896744672213e-17 0.0000000000000000e+00  8.4059533528563351e-20 2.5622515139274370e-16 0.0000000000000000e+00  -1.0957328159429828e-19 -3.3399460461624736e-16 0.0000000000000000e+00  1.0929116217430886e-19 3.3313466537957403e-16 0.0000000000000000e+00  -9.5752154911660299e-20 -2.9186588788391010e-16 0.0000000000000000e+00  8.1709074326785917e-20 2.4906062478240518e-16 0.0000000000000000e+00  -7.5998238160899126e-20 -2.3165320173637697e-16 0.0000000000000000e+00  -7.5799524789135310e-20 -2.3104749573698762e-16 0.0000000000000000e+00  6.7931562023639334e-20 2.0706485074578463e-16 0.0000000000000000e+00  -4.6989142129568179e-20 -1.4322944168935240e-16 0.0000000000000000e+00  1.9714459537981034e-20 6.0092415074236831e-17 0.0000000000000000e+00  6.0727622924828863e-21 1.8510624226042368e-17 0.0000000000000000e+00  -2.4575169583633047e-20 -7.4908535448023861e-17 0.0000000000000000e+00  3.3716659352156172e-20 1.0277306789988562e-16 0.0000000000000000e+00  -3.4960802455084969e-20 -1.0656538914556358e-16 0.0000000000000000e+00  3.1826814164457513e-20 9.7012556878700626e-17 0.0000000000000000e+00  -2.8110049522905199e-20 -8.5683341226447026e-17 0.0000000000000000e+00  2.6545337430084309e-20 8.0913881106461269e-17 0.0000000000000000e+00  -2.5192215673062943e-03 -7.6789377763508293e+00 0.0000000000000000e+00  7.2379080184323285e-04 2.2062150477665838e+00 0.0000000000000000e+00  -3.0293803347303305e-05 -9.2339726656789009e-02 0.0000000000000000e+00  2.5227061502037077e-06 7.6895592697490498e-03 0.0000000000000000e+00  -2.6411979559701620e-07 -8.0507387766635497e-04 0.0000000000000000e+00  3.1137285352116696e-08 9.4910777140990623e-05 0.0000000000000000e+00  -3.9488411657915423e-09 -1.2036617181405374e-05 0.0000000000000000e+00  5.2615493376488767e-10 1.6037934295000175e-06 0.0000000000000000e+00  -7.2443072359130893e-11 -2.2081656182717691e-07 0.0000000000000000e+00  8.8149100250543561e-12 2.6869071964519875e-08 0.0000000000000000e+00  -5.3403012601039093e-04 -1.6277981109519455e+00 0.0000000000000000e+00  -1.0607243397749706e-04 -3.2332353409081849e-01 0.0000000000000000e+00  3.6085073527605985e-05 1.0999232376762241e-01 0.0000000000000000e+00  -4.2580113929489441e-06 -1.2979011041259668e-02 0.0000000000000000e+00  5.2216504970662083e-07 1.5916317078730265e-03 0.0000000000000000e+00  -6.7408939992428742e-08 -2.0547182609472012e-04 0.0000000000000000e+00  9.0669941092057220e-09 2.7637459319458546e-05 0.0000000000000000e+00  -1.2588664770235982e-09 -3.8372001380309300e-06 0.0000000000000000e+00  1.7863671154278846e-10 5.4450954624676160e-07 0.0000000000000000e+00  -2.2182426874761831e-11 -6.7615122826168772e-08 0.0000000000000000e+00  1.5069034423242713e-05 4.5932513117334997e-02 0.0000000000000000e+00  -1.0983113821812106e-05 -3.3478058747509830e-02 0.0000000000000000e+00  -5.8565440622895384e-06 -1.7851560983127485e-02 0.0000000000000000e+00  2.0900790412663955e-06 6.3708516606186686e-03 0.0000000000000000e+00  -3.6980425981507755e-07 -1.1272148259614350e-03 0.0000000000000000e+00  5.8010138256204437e-08 1.7682297097162925e-04 0.0000000000000000e+00  -8.8184883618227958e-09 -2.6879979232758816e-05 0.0000000000000000e+00  1.3319845215403626e-09 4.0600741088873432e-06 0.0000000000000000e+00  -2.0094820457970245e-10 -6.1251808068906628e-07 0.0000000000000000e+00  2.5993196193387462e-11 7.9230877810770203e-08 0.0000000000000000e+00  -9.5484011913076696e-07 -2.9104855072388728e-03 0.0000000000000000e+00  1.1922729016357682e-06 3.6342136566732499e-03 0.0000000000000000e+00  3.7364161360019156e-08 1.1389116140979581e-04 0.0000000000000000e+00  -3.8625545845661784e-07 -1.1773603678836779e-03 0.0000000000000000e+00  1.3638006976624479e-07 4.1570542395330778e-04 0.0000000000000000e+00  -2.9574885433291616e-08 -9.0148364848981557e-05 0.0000000000000000e+00  5.4586103864202621e-09 1.6638603784058218e-05 0.0000000000000000e+00  -9.3952768155367346e-10 -2.8638110674497301e-06 0.0000000000000000e+00  1.5566394600191590e-10 4.7448536122532190e-07 0.0000000000000000e+00  -2.1416392222755348e-11 -6.5280142646725456e-08 0.0000000000000000e+00  8.0831182094954858e-08 2.4638468713957928e-04 0.0000000000000000e+00  -1.2767834350175401e-07 -3.8918135183554182e-04 0.0000000000000000e+00  3.3783456584157389e-08 1.0297667515493009e-04 0.0000000000000000e+00  3.3423317075542772e-08 1.0187891983505401e-04 0.0000000000000000e+00  -2.8094792328423130e-08 -8.5636835175296100e-05 0.0000000000000000e+00  9.6706647898904302e-09 2.9477531528486965e-05 0.0000000000000000e+00  -2.3402852293226239e-09 -7.1335149270323889e-06 0.0000000000000000e+00  4.8192984015076093e-10 1.4689891921818633e-06 0.0000000000000000e+00  -9.0675899551143936e-11 -2.7639275540674013e-07 0.0000000000000000e+00  1.35465743