<?xml version="1.0"?>
<VTKFile type="UnstructuredGrid"  version="0.1"  >
<UnstructuredGrid>
<Piece  NumberOfPoints="1411" NumberOfCells="2700">
<Points>
<DataArray  type="Float64"  NumberOfComponents="3"  format="ascii">-0.75 -4.5 0  -0.65 -4.5 0  -0.55 -4.5 0  -0.45 -4.5 0  -0.35 -4.5 0  -0.25 -4.5 0  -0.15 -4.5 0  -0.05000000000000004 -4.5 0  0.05000000000000004 -4.5 0  0.15 -4.5 0  0.25 -4.5 0  0.3500000000000001 -4.5 0  0.45 -4.5 0  0.55 -4.5 0  0.6499999999999999 -4.5 0  0.75 -4.5 0  -0.75 -4.4 0  -0.65 -4.4 0  -0.55 -4.4 0  -0.45 -4.4 0  -0.35 -4.4 0  -0.25 -4.4 0  -0.15 -4.4 0  -0.05000000000000004 -4.4 0  0.05000000000000004 -4.4 0  0.15 -4.4 0  0.25 -4.4 0  0.3500000000000001 -4.4 0  0.45 -4.4 0  0.55 -4.4 0  0.6499999999999999 -4.4 0  0.75 -4.4 0  -0.75 -4.3 0  -0.65 -4.3 0  -0.55 -4.3 0  -0.45 -4.3 0  -0.35 -4.3 0  -0.25 -4.3 0  -0.15 -4.3 0  -0.05000000000000004 -4.3 0  0.05000000000000004 -4.3 0  0.15 -4.3 0  0.25 -4.3 0  0.3500000000000001 -4.3 0  0.45 -4.3 0  0.55 -4.3 0  0.6499999999999999 -4.3 0  0.75 -4.3 0  -0.75 -4.2 0  -0.65 -4.2 0  -0.55 -4.2 0  -0.45 -4.2 0  -0.35 -4.2 0  -0.25 -4.2 0  -0.15 -4.2 0  -0.05000000000000004 -4.2 0  0.05000000000000004 -4.2 0  0.15 -4.2 0  0.25 -4.2 0  0.3500000000000001 -4.2 0  0.45 -4.2 0  0.55 -4.2 0  0.6499999999999999 -4.2 0  0.75 -4.2 0  -0.75 -4.1 0  -0.65 -4.1 0  -0.55 -4.1 0  -0.45 -4.1 0  -0.35 -4.1 0  -0.25 -4.1 0  -0.15 -4.1 0  -0.05000000000000004 -4.1 0  0.05000000000000004 -4.1 0  0.15 -4.1 0  0.25 -4.1 0  0.3500000000000001 -4.1 0  0.45 -4.1 0  0.55 -4.1 0  0.6499999999999999 -4.1 0  0.75 -4.1 0  -0.75 -4 0  -0.65 -4 0  -0.55 -4 0  -0.45 -4 0  -0.35 -4 0  -0.25 -4 0  -0.15 -4 0  -0.05000000000000004 -4 0  0.05000000000000004 -4 0  0.15 -4 0  0.25 -4 0  0.3500000000000001 -4 0  0.45 -4 0  0.55 -4 0  0.6499999999999999 -4 0  0.75 -4 0  -0.75 -3.9 0  -0.65 -3.9 0  -0.55 -3.9 0  -0.45 -3.9 0  -0.35 -3.9 0  -0.25 -3.9 0  -0.15 -3.9 0  -0.05000000000000004 -3.9 0  0.05000000000000004 -3.9 0  0.15 -3.9 0  0.25 -3.9 0  0.3500000000000001 -3.9 0  0.45 -3.9 0  0.55 -3.9 0  0.6499999999999999 -3.9 0  0.75 -3.9 0  -0.75 -3.8 0  -0.65 -3.8 0  -0.55 -3.8 0  -0.45 -3.8 0  -0.35 -3.8 0  -0.25 -3.8 0  -0.15 -3.8 0  -0.05000000000000004 -3.8 0  0.05000000000000004 -3.8 0  0.15 -3.8 0  0.25 -3.8 0  0.3500000000000001 -3.8 0  0.45 -3.8 0  0.55 -3.8 0  0.6499999999999999 -3.8 0  0.75 -3.8 0  -0.75 -3.7 0  -0.65 -3.7 0  -0.55 -3.7 0  -0.45 -3.7 0  -0.35 -3.7 0  -0.25 -3.7 0  -0.15 -3.7 0  -0.05000000000000004 -3.7 0  0.05000000000000004 -3.7 0  0.15 -3.7 0  0.25 -3.7 0  0.3500000000000001 -3.7 0  0.45 -3.7 0  0.55 -3.7 0  0.6499999999999999 -3.7 0  0.75 -3.7 0  -0.75 -3.6 0  -0.65 -3.6 0  -0.55 -3.6 0  -0.45 -3.6 0  -0.35 -3.6 0  -0.25 -3.6 0  -0.15 -3.6 0  -0.05000000000000004 -3.6 0  0.05000000000000004 -3.6 0  0.15 -3.6 0  0.25 -3.6 0  0.3500000000000001 -3.6 0  0.45 -3.6 0  0.55 -3.6 0  0.6499999999999999 -3.6 0  0.75 -3.6 0  -0.75 -3.5 0  -0.65 -3.5 0  -0.55 -3.5 0  -0.45 -3.5 0  -0.35 -3.5 0  -0.25 -3.5 0  -0.15 -3.5 0  -0.05000000000000004 -3.5 0  0.05000000000000004 -3.5 0  0.15 -3.5 0  0.25 -3.5 0  0.3500000000000001 -3.5 0  0.45 -3.5 0  0.55 -3.5 0  0.6499999999999999 -3.5 0  0.75 -3.5 0  -0.75 -3.4 0  -0.65 -3.4 0  -0.55 -3.4 0  -0.45 -3.4 0  -0.35 -3.4 0  -0.25 -3.4 0  -0.15 -3.4 0  -0.05000000000000004 -3.4 0  0.05000000000000004 -3.4 0  0.15 -3.4 0  0.25 -3.4 0  0.3500000000000001 -3.4 0  0.45 -3.4 0  0.55 -3.4 0  0.6499999999999999 -3.4 0  0.75 -3.4 0  -0.75 -3.3 0  -0.65 -3.3 0  -0.55 -3.3 0  -0.45 -3.3 0  -0.35 -3.3 0  -0.25 -3.3 0  -0.15 -3.3 0  -0.05000000000000004 -3.3 0  0.05000000000000004 -3.3 0  0.15 -3.3 0  0.25 -3.3 0  0.3500000000000001 -3.3 0  0.45 -3.3 0  0.55 -3.3 0  0.6499999999999999 -3.3 0  0.75 -3.3 0  -0.75 -3.2 0  -0.65 -3.2 0  -0.55 -3.2 0  -0.45 -3.2 0  -0.35 -3.2 0  -0.25 -3.2 0  -0.15 -3.2 0  -0.05000000000000004 -3.2 0  0.05000000000000004 -3.2 0  0.15 -3.2 0  0.25 -3.2 0  0.3500000000000001 -3.2 0  0.45 -3.2 0  0.55 -3.2 0  0.6499999999999999 -3.2 0  0.75 -3.2 0  -0.75 -3.1 0  -0.65 -3.1 0  -0.55 -3.1 0  -0.45 -3.1 0  -0.35 -3.1 0  -0.25 -3.1 0  -0.15 -3.1 0  -0.05000000000000004 -3.1 0  0.05000000000000004 -3.1 0  0.15 -3.1 0  0.25 -3.1 0  0.3500000000000001 -3.1 0  0.45 -3.1 0  0.55 -3.1 0  0.6499999999999999 -3.1 0  0.75 -3.1 0  -0.75 -3 0  -0.65 -3 0  -0.55 -3 0  -0.45 -3 0  -0.35 -3 0  -0.25 -3 0  -0.15 -3 0  -0.05000000000000004 -3 0  0.05000000000000004 -3 0  0.15 -3 0  0.25 -3 0  0.3500000000000001 -3 0  0.45 -3 0  0.55 -3 0  0.6499999999999999 -3 0  0.75 -3 0  -0.75 -2.9 0  -0.65 -2.9 0  -0.55 -2.9 0  -0.45 -2.9 0  -0.35 -2.9 0  -0.25 -2.9 0  -0.15 -2.9 0  -0.05000000000000004 -2.9 0  0.05000000000000004 -2.9 0  0.15 -2.9 0  0.25 -2.9 0  0.3500000000000001 -2.9 0  0.45 -2.9 0  0.55 -2.9 0  0.6499999999999999 -2.9 0  0.75 -2.9 0  -0.75 -2.8 0  -0.65 -2.8 0  -0.55 -2.8 0  -0.45 -2.8 0  -0.35 -2.8 0  -0.25 -2.8 0  -0.15 -2.8 0  -0.05000000000000004 -2.8 0  0.05000000000000004 -2.8 0  0.15 -2.8 0  0.25 -2.8 0  0.3500000000000001 -2.8 0  0.45 -2.8 0  0.55 -2.8 0  0.6499999999999999 -2.8 0  0.75 -2.8 0  -0.75 -2.7 0  -0.65 -2.7 0  -0.55 -2.7 0  -0.45 -2.7 0  -0.35 -2.7 0  -0.25 -2.7 0  -0.15 -2.7 0  -0.05000000000000004 -2.7 0  0.05000000000000004 -2.7 0  0.15 -2.7 0  0.25 -2.7 0  0.3500000000000001 -2.7 0  0.45 -2.7 0  0.55 -2.7 0  0.6499999999999999 -2.7 0  0.75 -2.7 0  -0.75 -2.6 0  -0.65 -2.6 0  -0.55 -2.6 0  -0.45 -2.6 0  -0.35 -2.6 0  -0.25 -2.6 0  -0.15 -2.6 0  -0.05000000000000004 -2.6 0  0.05000000000000004 -2.6 0  0.15 -2.6 0  0.25 -2.6 0  0.3500000000000001 -2.6 0  0.45 -2.6 0  0.55 -2.6 0  0.6499999999999999 -2.6 0  0.75 -2.6 0  -0.75 -2.5 0  -0.65 -2.5 0  -0.55 -2.5 0  -0.45 -2.5 0  -0.35 -2.5 0  -0.25 -2.5 0  -0.15 -2.5 0  -0.05000000000000004 -2.5 0  0.05000000000000004 -2.5 0  0.15 -2.5 0  0.25 -2.5 0  0.3500000000000001 -2.5 0  0.45 -2.5 0  0.55 -2.5 0  0.6499999999999999 -2.5 0  0.75 -2.5 0  -0.75 -2.4 0  -0.65 -2.4 0  -0.55 -2.4 0  -0.45 -2.4 0  -0.35 -2.4 0  -0.25 -2.4 0  -0.15 -2.4 0  -0.05000000000000004 -2.4 0  0.05000000000000004 -2.4 0  0.15 -2.4 0  0.25 -2.4 0  0.3500000000000001 -2.4 0  0.45 -2.4 0  0.55 -2.4 0  0.6499999999999999 -2.4 0  0.75 -2.4 0  -0.75 -2.3 0  -0.65 -2.3 0  -0.55 -2.3 0  -0.45 -2.3 0  -0.35 -2.3 0  -0.25 -2.3 0  -0.15 -2.3 0  -0.05000000000000004 -2.3 0  0.05000000000000004 -2.3 0  0.15 -2.3 0  0.25 -2.3 0  0.3500000000000001 -2.3 0  0.45 -2.3 0  0.55 -2.3 0  0.6499999999999999 -2.3 0  0.75 -2.3 0  -0.75 -2.2 0  -0.65 -2.2 0  -0.55 -2.2 0  -0.45 -2.2 0  -0.35 -2.2 0  -0.25 -2.2 0  -0.15 -2.2 0  -0.05000000000000004 -2.2 0  0.05000000000000004 -2.2 0  0.15 -2.2 0  0.25 -2.2 0  0.3500000000000001 -2.2 0  0.45 -2.2 0  0.55 -2.2 0  0.6499999999999999 -2.2 0  0.75 -2.2 0  -0.75 -2.1 0  -0.65 -2.1 0  -0.55 -2.1 0  -0.45 -2.1 0  -0.35 -2.1 0  -0.25 -2.1 0  -0.15 -2.1 0  -0.05000000000000004 -2.1 0  0.05000000000000004 -2.1 0  0.15 -2.1 0  0.25 -2.1 0  0.3500000000000001 -2.1 0  0.45 -2.1 0  0.55 -2.1 0  0.6499999999999999 -2.1 0  0.75 -2.1 0  -0.75 -2 0  -0.65 -2 0  -0.55 -2 0  -0.45 -2 0  -0.35 -2 0  -0.25 -2 0  -0.15 -2 0  -0.05000000000000004 -2 0  0.05000000000000004 -2 0  0.15 -2 0  0.25 -2 0  0.3500000000000001 -2 0  0.45 -2 0  0.55 -2 0  0.6499999999999999 -2 0  0.75 -2 0  -0.75 -1.9 0  -0.65 -1.9 0  -0.55 -1.9 0  -0.45 -1.9 0  -0.35 -1.9 0  -0.25 -1.9 0  -0.15 -1.9 0  -0.05000000000000004 -1.9 0  0.05000000000000004 -1.9 0  0.15 -1.9 0  0.25 -1.9 0  0.3500000000000001 -1.9 0  0.45 -1.9 0  0.55 -1.9 0  0.6499999999999999 -1.9 0  0.75 -1.9 0  -0.75 -1.8 0  -0.65 -1.8 0  -0.55 -1.8 0  -0.45 -1.8 0  -0.35 -1.8 0  -0.25 -1.8 0  -0.15 -1.8 0  -0.05000000000000004 -1.8 0  0.05000000000000004 -1.8 0  0.15 -1.8 0  0.25 -1.8 0  0.3500000000000001 -1.8 0  0.45 -1.8 0  0.55 -1.8 0  0.6499999999999999 -1.8 0  0.75 -1.8 0  -0.75 -1.7 0  -0.65 -1.7 0  -0.55 -1.7 0  -0.45 -1.7 0  -0.35 -1.7 0  -0.25 -1.7 0  -0.15 -1.7 0  -0.05000000000000004 -1.7 0  0.05000000000000004 -1.7 0  0.15 -1.7 0  0.25 -1.7 0  0.3500000000000001 -1.7 0  0.45 -1.7 0  0.55 -1.7 0  0.6499999999999999 -1.7 0  0.75 -1.7 0  -0.75 -1.6 0  -0.65 -1.6 0  -0.55 -1.6 0  -0.45 -1.6 0  -0.35 -1.6 0  -0.25 -1.6 0  -0.15 -1.6 0  -0.05000000000000004 -1.6 0  0.05000000000000004 -1.6 0  0.15 -1.6 0  0.25 -1.6 0  0.3500000000000001 -1.6 0  0.45 -1.6 0  0.55 -1.6 0  0.6499999999999999 -1.6 0  0.75 -1.6 0  -0.75 -1.5 0  -0.65 -1.5 0  -0.55 -1.5 0  -0.45 -1.5 0  -0.35 -1.5 0  -0.25 -1.5 0  -0.15 -1.5 0  -0.05000000000000004 -1.5 0  0.05000000000000004 -1.5 0  0.15 -1.5 0  0.25 -1.5 0  0.3500000000000001 -1.5 0  0.45 -1.5 0  0.55 -1.5 0  0.6499999999999999 -1.5 0  0.75 -1.5 0  -0.75 -1.4 0  -0.65 -1.4 0  -0.55 -1.4 0  -0.45 -1.4 0  -0.35 -1.4 0  -0.25 -1.4 0  -0.15 -1.4 0  -0.05000000000000004 -1.4 0  0.05000000000000004 -1.4 0  0.15 -1.4 0  0.25 -1.4 0  0.3500000000000001 -1.4 0  0.45 -1.4 0  0.55 -1.4 0  0.6499999999999999 -1.4 0  0.75 -1.4 0  -0.75 -1.3 0  -0.65 -1.3 0  -0.55 -1.3 0  -0.45 -1.3 0  -0.35 -1.3 0  -0.25 -1.3 0  -0.15 -1.3 0  -0.05000000000000004 -1.3 0  0.05000000000000004 -1.3 0  0.15 -1.3 0  0.25 -1.3 0  0.3500000000000001 -1.3 0  0.45 -1.3 0  0.55 -1.3 0  0.6499999999999999 -1.3 0  0.75 -1.3 0  -0.75 -1.2 0  -0.65 -1.2 0  -0.55 -1.2 0  -0.45 -1.2 0  -0.35 -1.2 0  -0.25 -1.2 0  -0.15 -1.2 0  -0.05000000000000004 -1.2 0  0.05000000000000004 -1.2 0  0.15 -1.2 0  0.25 -1.2 0  0.3500000000000001 -1.2 0  0.45 -1.2 0  0.55 -1.2 0  0.6499999999999999 -1.2 0  0.75 -1.2 0  -0.75 -1.1 0  -0.65 -1.1 0  -0.55 -1.1 0  -0.45 -1.1 0  -0.35 -1.1 0  -0.25 -1.1 0  -0.15 -1.1 0  -0.05000000000000004 -1.1 0  0.05000000000000004 -1.1 0  0.15 -1.1 0  0.25 -1.1 0  0.3500000000000001 -1.1 0  0.45 -1.1 0  0.55 -1.1 0  0.6499999999999999 -1.1 0  0.75 -1.1 0  -0.75 -1 0  -0.65 -1 0  -0.55 -1 0  -0.45 -1 0  -0.35 -1 0  -0.25 -1 0  -0.15 -1 0  -0.05000000000000004 -1 0  0.05000000000000004 -1 0  0.15 -1 0  0.25 -1 0  0.3500000000000001 -1 0  0.45 -1 0  0.55 -1 0  0.6499999999999999 -1 0  0.75 -1 0  -0.75 -0.8999999999999999 0  -0.65 -0.899999
[...]
<PointData  Vectors="flow"> 
<DataArray  type="Float64"  Name="flow"  NumberOfComponents="3" format="ascii">-3.6160575857209434e-10 7.2322387446224606e-10 0.0000000000000000e+00  2.8052473822249605e-14 7.2322387445817995e-10 0.0000000000000000e+00  -2.1754989782297392e-18 7.2322387446122119e-10 0.0000000000000000e+00  -1.3842907112781235e-21 7.2322387445463941e-10 0.0000000000000000e+00  -5.4677725520336874e-21 7.2322387446160138e-10 0.0000000000000000e+00  -2.9538107520952190e-21 7.2322387446013706e-10 0.0000000000000000e+00  -5.6641826931782498e-21 7.2322387446053949e-10 0.0000000000000000e+00  -6.0253974249398779e-21 7.2322387446528554e-10 0.0000000000000000e+00  -7.8517181944992813e-21 7.2322387445950768e-10 0.0000000000000000e+00  -4.4961507643383308e-21 7.2322387446185408e-10 0.0000000000000000e+00  -9.5429503555271282e-22 7.2322387445835108e-10 0.0000000000000000e+00  1.3132866577452435e-21 7.2322387446057175e-10 0.0000000000000000e+00  1.4314228295774682e-21 7.2322387446113588e-10 0.0000000000000000e+00  2.1794797621386732e-18 7.2322387446309010e-10 0.0000000000000000e+00  -2.8052471565534952e-14 7.2322387446045511e-10 0.0000000000000000e+00  3.6160575857519426e-10 7.2322387446486936e-10 0.0000000000000000e+00  -3.6115698859445145e-10 2.1686495095718571e-09 0.0000000000000000e+00  2.8017660915057324e-14 2.1686495095715722e-09 0.0000000000000000e+00  -2.1747886677786467e-18 2.1686495095715180e-09 0.0000000000000000e+00  -1.7340224488721920e-21 2.1686495095730888e-09 0.0000000000000000e+00  -1.8328612687416899e-21 2.1686495095715358e-09 0.0000000000000000e+00  -4.1659397020250328e-21 2.1686495095755340e-09 0.0000000000000000e+00  -1.6669125436550758e-21 2.1686495095706950e-09 0.0000000000000000e+00  -6.7001806469200153e-21 2.1686495095726347e-09 0.0000000000000000e+00  -9.1955393748378623e-21 2.1686495095717186e-09 0.0000000000000000e+00  -5.7905257713128607e-21 2.1686495095719651e-09 0.0000000000000000e+00  -1.7600277394686848e-21 2.1686495095714233e-09 0.0000000000000000e+00  3.2989638708647066e-21 2.1686495095720536e-09 0.0000000000000000e+00  2.9560607568080132e-21 2.1686495095718844e-09 0.0000000000000000e+00  2.1766710616275677e-18 2.1686495095746187e-09 0.0000000000000000e+00  -2.8017659746051679e-14 2.1686495095787637e-09 0.0000000000000000e+00  3.6115698859802017e-10 2.1686495095722207e-09 0.0000000000000000e+00  -3.5981179252530143e-10 4.3319162243027716e-09 0.0000000000000000e+00  2.7913305203443857e-14 4.3319162243060034e-09 0.0000000000000000e+00  -2.1642604662474123e-18 4.3319162243062640e-09 0.0000000000000000e+00  -1.5002207383418464e-21 4.3319162243058669e-09 0.0000000000000000e+00  -2.5112924100455819e-21 4.3319162243056817e-09 0.0000000000000000e+00  -5.4659044706470351e-21 4.3319162242999394e-09 0.0000000000000000e+00  -8.0251011314878293e-21 4.3319162243038784e-09 0.0000000000000000e+00  -4.7753753354619499e-21 4.3319162243014324e-09 0.0000000000000000e+00  -8.1518602947209861e-21 4.3319162243059513e-09 0.0000000000000000e+00  -5.4757289080810644e-21 4.3319162243022001e-09 0.0000000000000000e+00  -8.6102667884434566e-22 4.3319162243051663e-09 0.0000000000000000e+00  1.3870600759900754e-21 4.3319162243032630e-09 0.0000000000000000e+00  3.9047427050917766e-21 4.3319162243008104e-09 0.0000000000000000e+00  2.1762314793866528e-18 4.3319162243026740e-09 0.0000000000000000e+00  -2.7913302935036367e-14 4.3319162243060282e-09 0.0000000000000000e+00  3.5981179251793446e-10 4.3319162243072674e-09 0.0000000000000000e+00  -3.5757350923570890e-10 6.4844307098138490e-09 0.0000000000000000e+00  2.7739669045003767e-14 6.4844307098117132e-09 0.0000000000000000e+00  -2.1543249988197080e-18 6.4844307098086046e-09 0.0000000000000000e+00  -5.0625453524051730e-22 6.4844307098065177e-09 0.0000000000000000e+00  -6.4098233385477124e-21 6.4844307098121392e-09 0.0000000000000000e+00  -5.2186940996414382e-21 6.4844307098089008e-09 0.0000000000000000e+00  -1.4055274673508800e-21 6.4844307098157705e-09 0.0000000000000000e+00  -5.9754449178795128e-21 6.4844307098123509e-09 0.0000000000000000e+00  -8.0268172697058158e-21 6.4844307098080910e-09 0.0000000000000000e+00  -6.1891275864433125e-21 6.4844307098080777e-09 0.0000000000000000e+00  2.2252255624929756e-22 6.4844307098095121e-09 0.0000000000000000e+00  -1.1567974050377038e-21 6.4844307098106627e-09 0.0000000000000000e+00  3.4418975058652771e-21 6.4844307098093350e-09 0.0000000000000000e+00  2.1583994106754588e-18 6.4844307098079967e-09 0.0000000000000000e+00  -2.7739661815443680e-14 6.4844307098010376e-09 0.0000000000000000e+00  3.5757350924082357e-10 6.4844307098077386e-09 0.0000000000000000e+00  -3.5444769430478522e-10 8.6208502194746954e-09 0.0000000000000000e+00  2.7497172996421153e-14 8.6208502194735672e-09 0.0000000000000000e+00  -2.1366319715878106e-18 8.6208502194733802e-09 0.0000000000000000e+00  -9.9975614931674327e-22 8.6208502194700153e-09 0.0000000000000000e+00  -2.5153407834083017e-21 8.6208502194653433e-09 0.0000000000000000e+00  -1.8227561565814018e-21 8.6208502194753555e-09 0.0000000000000000e+00  -1.3673656036324314e-21 8.6208502194693072e-09 0.0000000000000000e+00  -1.0722967634339304e-20 8.6208502194711485e-09 0.0000000000000000e+00  -1.2609629294391549e-20 8.6208502194677935e-09 0.0000000000000000e+00  -5.6484526791035874e-21 8.6208502194647180e-09 0.0000000000000000e+00  8.2235386942048862e-22 8.6208502194667380e-09 0.0000000000000000e+00  7.8354604420122055e-22 8.6208502194635087e-09 0.0000000000000000e+00  2.1789086446570398e-21 8.6208502194685710e-09 0.0000000000000000e+00  2.1362704622939191e-18 8.6208502194692195e-09 0.0000000000000000e+00  -2.7497174334513599e-14 8.6208502194686339e-09 0.0000000000000000e+00  3.5444769431027806e-10 8.6208502194664766e-09 0.0000000000000000e+00  -3.5044210621192543e-10 1.0735871955503142e-08 0.0000000000000000e+00  2.7186435411875487e-14 1.0735871955505339e-08 0.0000000000000000e+00  -2.1146855047001216e-18 1.0735871955503652e-08 0.0000000000000000e+00  -6.5277901050850437e-21 1.0735871955498858e-08 0.0000000000000000e+00  1.0850702247434116e-21 1.0735871955496695e-08 0.0000000000000000e+00  -1.6721437233174685e-21 1.0735871955500770e-08 0.0000000000000000e+00  -8.5416964858284653e-21 1.0735871955493041e-08 0.0000000000000000e+00  -1.0578966740593104e-20 1.0735871955488771e-08 0.0000000000000000e+00  -1.3657157324675191e-20 1.0735871955489831e-08 0.0000000000000000e+00  -5.2237905629438694e-21 1.0735871955493160e-08 0.0000000000000000e+00  1.4819165759221137e-22 1.0735871955491879e-08 0.0000000000000000e+00  6.6886738134492853e-22 1.0735871955493206e-08 0.0000000000000000e+00  8.5062690831319516e-21 1.0735871955499556e-08 0.0000000000000000e+00  2.1157555922938440e-18 1.0735871955499911e-08 0.0000000000000000e+00  -2.7186433898234820e-14 1.0735871955496330e-08 0.0000000000000000e+00  3.5044210621119606e-10 1.0735871955496171e-08 0.0000000000000000e+00  -3.4556668709902364e-10 1.2824246230860709e-08 0.0000000000000000e+00  2.6808214965934494e-14 1.2824246230861722e-08 0.0000000000000000e+00  -2.0892592484472066e-18 1.2824246230861745e-08 0.0000000000000000e+00  -8.0859206656168015e-21 1.2824246230863475e-08 0.0000000000000000e+00  -4.7846806824319339e-21 1.2824246230860865e-08 0.0000000000000000e+00  -4.3497186644708057e-21 1.2824246230850166e-08 0.0000000000000000e+00  -1.0609353747980803e-20 1.2824246230845304e-08 0.0000000000000000e+00  -1.2594477516875882e-20 1.2824246230844634e-08 0.0000000000000000e+00  -7.0434255740904671e-21 1.2824246230850159e-08 0.0000000000000000e+00  -6.8169005117443126e-21 1.2824246230853189e-08 0.0000000000000000e+00  9.3875544934138103e-23 1.2824246230848399e-08 0.0000000000000000e+00  9.3907859738772798e-21 1.2824246230854130e-08 0.0000000000000000e+00  8.5294623031319542e-21 1.2824246230852745e-08 0.0000000000000000e+00  2.0790773527798345e-18 1.2824246230849683e-08 0.0000000000000000e+00  -2.6808219467346485e-14 1.2824246230846257e-08 0.0000000000000000e+00  3.4556668710449631e-10 1.2824246230844090e-08 0.0000000000000000e+00  -3.3983353811821747e-10 1.4880789499370441e-08 0.0000000000000000e+00  2.6363457768221540e-14 1.4880789499367794e-08 0.0000000000000000e+00  -2.0493423016817732e-18 1.4880789499370158e-08 0.0000000000000000e+00  -6.5102455566338023e-21 1.4880789499375011e-08 0.0000000000000000e+00  -9.8712513940628373e-21 1.4880789499377351e-08 0.0000000000000000e+00  -1.5295732667875793e-20 1.4880789499375466e-08 0.0000000000000000e+00  -1.6878912286918638e-20 1.4880789499369586e-08 0.0000000000000000e+00  -6.9927419243377987e-21 1.4880789499366770e-08 0.0000000000000000e+00  -4.5478280739344100e-21 1.4880789499372271e-08 0.0000000000000000e+00  -6.5915220896797270e-21 1.4880789499370496e-08 0.0000000000000000e+00  9.2152321295944365e-22 1.4880789499373355e-08 0.0000000000000000e+00  3.4930024135893135e-21 1.4880789499363170e-08 0.0000000000000000e+00  3.6404964379491876e-21 1.4880789499359632e-08 0.0000000000000000e+00  2.0482015543814196e-18 1.4880789499357319e-08 0.0000000000000000e+00  -2.6363460975544819e-14 1.4880789499365438e-08 0.0000000000000000e+00  3.3983353811908843e-10 1.4880789499364752e-08 0.0000000000000000e+00  -3.3325688934354600e-10 1.6900397221687359e-08 0.0000000000000000e+00  2.5853260584735650e-14 1.6900397221692259e-08 0.0000000000000000e+00  -2.0091631166223844e-18 1.6900397221686045e-08 0.0000000000000000e+00  -2.4019702150120232e-21 1.6900397221686816e-08 0.0000000000000000e+00  -5.9524680608983204e-21 1.6900397221692590e-08 0.0000000000000000e+00  -1.3724483681393456e-20 1.6900397221688021e-08 0.0000000000000000e+00  -1.8359075816875968e-20 1.6900397221701897e-08 0.0000000000000000e+00  -8.5302063603585776e-21 1.6900397221704399e-08 0.0000000000000000e+00  -5.1699254328681886e-21 1.6900397221696402e-08 0.0000000000000000e+00  -3.7205969683327790e-21 1.6900397221703810e-08 0.0000000000000000e+00  -5.3879248204301996e-21 1.6900397221698671e-08 0.0000000000000000e+00  -1.9700786001793428e-21 1.6900397221699601e-08 0.0000000000000000e+00  1.8067997395672337e-21 1.6900397221692325e-08 0.0000000000000000e+00  2.0085487867230434e-18 1.6900397221689162e-08 0.0000000000000000e+00  -2.5853256786795897e-14 1.6900397221688305e-08 0.0000000000000000e+00  3.3325688934246343e-10 1.6900397221692011e-08 0.0000000000000000e+00  -3.2585306448800733e-10 1.8878056535162493e-08 0.0000000000000000e+00  2.5278895878791156e-14 1.8878056535157742e-08 0.0000000000000000e+00  -1.9725572541838604e-18 1.8878056535162990e-08 0.0000000000000000e+00  1.9001649540179282e-21 1.8878056535162460e-08 0.0000000000000000e+00  -5.0682317721043555e-21 1.8878056535156402e-08 0.0000000000000000e+00  -6.8130280042385943e-21 1.8878056535159155e-08 0.0000000000000000e+00  1.4962495430092271e-21 1.8878056535171963e-08 0.0000000000000000e+00  -1.1333168168501343e-20 1.8878056535182283e-08 0.0000000000000000e+00  -5.1721880069541889e-21 1.8878056535181108e-08 0.0000000000000000e+00  -4.3772651337252215e-21 1.8878056535170352e-08 0.0000000000000000e+00  -7.8970278131813132e-21 1.8878056535170051e-08 0.0000000000000000e+00  -5.9748163193353777e-21 1.8878056535173012e-08 0.0000000000000000e+00  -4.1122651342978876e-21 1.8878056535167665e-08 0.0000000000000000e+00  1.9610189703514789e-18 1.8878056535157372e-08 0.0000000000000000e+00  -2.5278899895028090e-14 1.8878056535163817e-08 0.0000000000000000e+00  3.2585306449542093e-10 1.8878056535156174e-08 0.0000000000000000e+00  -3.1764044043185895e-10 2.0808858696176583e-08 0.0000000000000000e+00  2.4641788122422061e-14 2.0808858696173586e-08 0.0000000000000000e+00  -1.9055842180260782e-18 2.0808858696184554e-08 0.0000000000000000e+00  -8.9338029014380263e-21 2.0808858696190318e-08 0.0000000000000000e+00  -1.5732061775678827e-20 2.0808858696183634e-08 0.0000000000000000e+00  2.4201559301943493e-22 2.0808858696184634e-08 0.0000000000000000e+00  2.1618172102727425e-21 2.0808858696175382e-08 0.0000000000000000e+00  -4.3546369185777007e-21 2.0808858696165658e-08 0.0000000000000000e+00  -1.7390642196387960e-20 2.0808858696171816e-08 0.0000000000000000e+00  -1.4828646856127218e-20 2.0808858696160771e-08 0.0000000000000000e+00  1.9577872768544671e-21 2.0808858696159064e-08 0.0000000000000000e+00  6.8756814084714449e-22 2.0808858696161999e-08 0.0000000000000000e+00  -1.8215761575767648e-20 2.0808858696167915e-08 0.0000000000000000e+00  1.9096578212848211e-18 2.0808858696162068e-08 0.0000000000000000e+00  -2.4641775232386062e-14 2.0808858696163292e-08 0.0000000000000000e+00  3.1764044042290705e-10 2.0808858696172871e-08 0.0000000000000000e+00  -3.0863940148629740e-10 2.2688011264080793e-08 0.0000000000000000e+00  2.3943514115540659e-14 2.2688011264083129e-08 0.0000000000000000e+00  -1.8569143562915460e-18 2.2688011264074692e-08 0.0000000000000000e+00  2.4437032279698533e-22 2.2688011264071317e-08 0.0000000000000000e+00  -6.6962877626976969e-21 2.2688011264087735e-08 0.0000000000000000e+00  -8.1587593689012307e-21 2.2688011264098766e-08 0.0000000000000000e+00  -1.2863477182431576e-20 2.2688011264082567e-08 0.0000000000000000e+00  -1.3566203079938361e-20 2.2688011264077538e-08 0.0000000000000000e+00  -6.1592743091008069e-21 2.2688011264070182e-08 0.0000000000000000e+00  -1.8751245850252043e-20 2.2688011264080032e-08 0.0000000000000000e+00  -1.1223809607298639e-20 2.2688011264072958e-08 0.0000000000000000e+00  2.7576448800037504e-21 2.2688011264069415e-08 0.0000000000000000e+00  -1.9053622656456626e-21 2.2688011264072392e-08 0.0000000000000000e+00  1.8520581922789315e-18 2.2688011264091533e-08 0.0000000000000000e+00  -2.3943511195739475e-14 2.2688011264080085e-08 0.0000000000000000e+00  3.0863940149282841e-10 2.2688011264080148e-08 0.0000000000000000e+00  -2.9887228896219112e-10 2.4510849996512840e-08 0.0000000000000000e+00  2.3185808497750270e-14 2.4510849996509369e-08 0.0000000000000000e+00  -1.7995515094361884e-18 2.4510849996506186e-08 0.0000000000000000e+00  4.5554745641611887e-21 2.4510849996508592e-08 0.0000000000000000e+00  8.0482290698302914e-21 2.4510849996508294e-08 0.0000000000000000e+00  -9.1253793457806122e-21 2.4510849996513558e-08 0.0000000000000000e+00  -2.2118920644960978e-20 2.4510849996509346e-08 0.0000000000000000e+00  -1.7777330083739586e-20 2.4510849996510084e-08 0.0000000000000000e+00  -1.7301682213068968e-20 2.4510849996503811e-08 0.0000000000000000e+00  -1.0154945825279617e-20 2.4510849996498292e-08 0.0000000000000000e+00  -6.8147493659604552e-21 2.4510849996518144e-08 0.0000000000000000e+00  -7.3470249386741153e-22 2.4510849996508459e-08 0.0000000000000000e+00  1.1378244906049419e-21 2.4510849996516999e-08 0.0000000000000000e+00  1.8049741338063622e-18 2.4510849996513303e-08 0.0000000000000000e+00  -2.3185805590476879e-14 2.4510849996519808e-08 0.0000000000000000e+00  2.9887228896163753e-10 2.4510849996515543e-08 0.0000000000000000e+00  -2.8836334559424064e-10 2.6272850426474496e-08 0.0000000000000000e+00  2.2370550939428800e-14 2.6272850426470258e-08 0.0000000000000000e+00  -1.7368064452452214e-18 2.6272850426471601e-08 0.0000000000000000e+00  1.0079118633583026e-21 2.6272850426474761e-08 0.0000000000000000e+00  2.0203512444852843e-22 2.6272850426471760e-08 0.0000000000000000e+00  -9.9378480702354191e-21 2.6272850426460623e-08 0.0000000000000000e+00  -1.3908902704242501e-20 2.6272850426464974e-08 0.0000000000000000e+00  -1.3899179748548977e-20 2.6272850426464037e-08 0.0000000000000000e+00  -2.2907734220630503e-20 2.6272850426472289e-08 0.0000000000000000e+00  -8.4373685219926129e-22 2.6272850426471158e-08 0.0000000000000000e+00  -1.3958342774591640e-21 2.6272850426478652e-08 0.0000000000000000e+00  2.0034802216422240e-21 2.6272850426476290e-08 0.0000000000000000e+00  5.9120936945343758e-21 2.6272850426482199e-08 0.0000000000000000e+00  1.7304563572407558e-18 2.6272850426477699e-08 0.0000000000000000e+00  -2.2370555977773116e-14 2.6272850426470056e-08 0.0000000000000000e+00  2.8836334558795505e-10 2.6272850426467432e-08 0.0000000000000000e+00  -2.7713865544589155e-10 2.7969639092513305e-08 0.0000000000000000e+00  2.1499770908634897e-14 2.7969639092509199e-08 0.0000000000000000e+00  -1.6655928796931256e-18 2.7969639092520859e-08 0.0000000000000000e+00  2.9981481584466180e-21 2.7969639092508117e-08 0.0000000000000000e+00  1.2766562971861221e-21 2.7969639092504629e-08 0.0000000000000000e+00  -1.4160038354171086e-20 2.7969639092504421e-08 0.0000000000000000e+00  -2.1069700155291804e-20 2.7969639092515035e-08 0.0000000000000000e+00  -1.3023687815936145e-20 2.7969639092518559e-08 0.0000000000000000e+00  -1.1658076078662429e-20 2.7969639092519754e-08 0.0000000000000000e+00  -4.2616095885170798e-21 2.7969639092524548e-08 0.0000000000000000e+00  -3.3771405236825931e-21 2.7969639092516488e-08 0.0000000000000000e+00  -3.5045262600267840e-21 2.7969639092523568e-08 0.0000000000000000e+00  6.7020494775446292e-21 2.7969639092511316e-08 0.0000000000000000e+00  1.6671844908089908e-18 2.7969639092521980e-08 0.0000000000000000e+00  -2.1499784381832585e-14 2.7969639092524545e-08 0.0000000000000000e+00  2.7713865543522055e-10 2.7969639092520922e-08 0.0000000000000000e+00  -2.6522607912898025e-10 2.9597004394172772e-08 0.0000000000000000e+00  2.0575639124256768e-14 2.9597004394188168e-08 0.0000000000000000e+00  -1.5965304010789447e-18 2.9597004394179896e-08 0.0000000000000000e+00  -1.3862105214079056e-20 2.9597004394173126e-08 0.0000000000000000e+00  -1.1308841096336755e-20 2.9597004394174367e-08 0.0000000000000000e+00  -1.9312535716072290e-21 2.9597004394178516e-08 0.0000000000000000e+00  1.1820065546635055e-21 2.9597004394183876e-08 0.0000000000000000e+00  -5.1321302814180087e-21 2.9597004394190226e-08 0.0000000000000000e+00  -1.2466656879315116e-20 2.9597004394193531e-08 0.0000000000000000e+00  -6.9289510725149287e-21 2.9597004394192148e-08 0.0000000000000000e+00  3.1714308989815085e-21 2.9597004394188988e-08 0.0000000000000000e+00  4.2514289474888542e-21 2.9597004394201194e-08 0.0000000000000000e+00  -4.2504333793543864e-21 2.9597004394193674e-08 0.0000000000000000e+00  1.5996445449044994e-18 2.9597004394190332e-08 0.0000000000000000e+00  -2.0575628303021505e-14 2.9597004394190269e-08 0.0000000000000000e+00  2.6522607911574898e-10 2.9597004394202359e-08 0.0000000000000000e+00  -2.5265518464784547e-10 3.1150907045673690e-08 0.0000000000000000e+00  1.9600417628911756e-14 3.1150907045687633e-08 0.0000000000000000e+00  -1.5400168564452311e-18 3.1150907045673127e-08 0.0000000000000000e+00  1.0063304454700992e-21 3.1150907045686283e-08 0.0000000000000000e+00  1.2248739522071223e-20 3.1150907045690935e-08 0.0000000000000000e+00  -1.8890148132664278e-21 3.1150907045713619e-08 0.0000000000000000e+00  -1.4339502771401880e-20 3.1150907045697360e-08 0.0000000000000000e+00  -8.5259152274739608e-21 3.1150907045690438e-08 0.0000000000000000e+00  -7.8843873741643135e-21 3.1150907045684125e-08 0.0000000000000000e+00  -9.1328206356259839e-21 3.1150907045683669e-08 0.0000000000000000e+00  -1.8737088981725322e-21 3.1150907045686230e-08 0.0000000000000000e+00  -9.3075627093327818e-22 3.1150907045677157e-08 0.0000000000000000e+00  3.1279967834714362e-22 3.1150907045676290e-08 0.0000000000000000e+00  1.5233096549719234e-18 3.1150907045683960e-08 0.0000000000000000e+00  -1.9600418780059859e-14 3.1150907045677210e-08 0.0000000000000000e+00  2.5265518466316232e-10 3.1150907045667866e-08 0.0000000000000000e+00  -2.3945717412937700e-10 3.2627490101885936e-08 0.0000000000000000e+00  1.8576551485654158e-14 3.2627490101859830e-08 0.0000000000000000e+00  -1.4368197113511766e-18 3.2627490101869141e-08 0.0000000000000000e+00  -1.6130723905509129e-21 3.2627490101880510e-08 0.0000000000000000e+00  1.3543763310609484e-20 3.2627490101877036e-08 0.0000000000000000e+00  4.5634883146319384e-21 3.2627490101871563e-08 0.0000000000000000e+00  -1.7184293196121753e-20 3.2627490101871000e-08 0.0000000000000000e+00  -1.6754967760203440e-20 3.2627490101867897e-08 0.0000000000000000e+00  -1.9451968498169262e-20 3.2627490101860016e-08 0.0000000000000000e+00  -7.4245415767777457e-21 3.262749010186644