<?xml version="1.0"?>
<VTKFile type="UnstructuredGrid"  version="0.1"  >
<UnstructuredGrid>
<Piece  NumberOfPoints="431" NumberOfCells="800">
<Points>
<DataArray  type="Float64"  NumberOfComponents="3"  format="ascii">-0.25 -1 0  -0.2 -1 0  -0.15 -1 0  -0.1 -1 0  -0.04999999999999999 -1 0  0 -1 0  0.04999999999999999 -1 0  0.09999999999999998 -1 0  0.15 -1 0  0.2 -1 0  0.25 -1 0  -0.25 -0.95 0  -0.2 -0.95 0  -0.15 -0.95 0  -0.1 -0.95 0  -0.04999999999999999 -0.95 0  0 -0.95 0  0.04999999999999999 -0.95 0  0.09999999999999998 -0.95 0  0.15 -0.95 0  0.2 -0.95 0  0.25 -0.95 0  -0.25 -0.9 0  -0.2 -0.9 0  -0.15 -0.9 0  -0.1 -0.9 0  -0.04999999999999999 -0.9 0  0 -0.9 0  0.04999999999999999 -0.9 0  0.09999999999999998 -0.9 0  0.15 -0.9 0  0.2 -0.9 0  0.25 -0.9 0  -0.25 -0.85 0  -0.2 -0.85 0  -0.15 -0.85 0  -0.1 -0.85 0  -0.04999999999999999 -0.85 0  0 -0.85 0  0.04999999999999999 -0.85 0  0.09999999999999998 -0.85 0  0.15 -0.85 0  0.2 -0.85 0  0.25 -0.85 0  -0.25 -0.8 0  -0.2 -0.8 0  -0.15 -0.8 0  -0.1 -0.8 0  -0.04999999999999999 -0.8 0  0 -0.8 0  0.04999999999999999 -0.8 0  0.09999999999999998 -0.8 0  0.15 -0.8 0  0.2 -0.8 0  0.25 -0.8 0  -0.25 -0.75 0  -0.2 -0.75 0  -0.15 -0.75 0  -0.1 -0.75 0  -0.04999999999999999 -0.75 0  0 -0.75 0  0.04999999999999999 -0.75 0  0.09999999999999998 -0.75 0  0.15 -0.75 0  0.2 -0.75 0  0.25 -0.75 0  -0.25 -0.7 0  -0.2 -0.7 0  -0.15 -0.7 0  -0.1 -0.7 0  -0.04999999999999999 -0.7 0  0 -0.7 0  0.04999999999999999 -0.7 0  0.09999999999999998 -0.7 0  0.15 -0.7 0  0.2 -0.7 0  0.25 -0.7 0  -0.25 -0.65 0  -0.2 -0.65 0  -0.15 -0.65 0  -0.1 -0.65 0  -0.04999999999999999 -0.65 0  0 -0.65 0  0.04999999999999999 -0.65 0  0.09999999999999998 -0.65 0  0.15 -0.65 0  0.2 -0.65 0  0.25 -0.65 0  -0.25 -0.6 0  -0.2 -0.6 0  -0.15 -0.6 0  -0.1 -0.6 0  -0.04999999999999999 -0.6 0  0 -0.6 0  0.04999999999999999 -0.6 0  0.09999999999999998 -0.6 0  0.15 -0.6 0  0.2 -0.6 0  0.25 -0.6 0  -0.25 -0.55 0  -0.2 -0.55 0  -0.15 -0.55 0  -0.1 -0.55 0  -0.04999999999999999 -0.55 0  0 -0.55 0  0.04999999999999999 -0.55 0  0.09999999999999998 -0.55 0  0.15 -0.55 0  0.2 -0.55 0  0.25 -0.55 0  -0.25 -0.5 0  -0.2 -0.5 0  -0.15 -0.5 0  -0.1 -0.5 0  -0.04999999999999999 -0.5 0  0 -0.5 0  0.04999999999999999 -0.5 0  0.09999999999999998 -0.5 0  0.15 -0.5 0  0.2 -0.5 0  0.25 -0.5 0  -0.25 -0.45 0  -0.2 -0.45 0  -0.15 -0.45 0  -0.1 -0.45 0  -0.04999999999999999 -0.45 0  0 -0.45 0  0.04999999999999999 -0.45 0  0.09999999999999998 -0.45 0  0.15 -0.45 0  0.2 -0.45 0  0.25 -0.45 0  -0.25 -0.4 0  -0.2 -0.4 0  -0.15 -0.4 0  -0.1 -0.4 0  -0.04999999999999999 -0.4 0  0 -0.4 0  0.04999999999999999 -0.4 0  0.09999999999999998 -0.4 0  0.15 -0.4 0  0.2 -0.4 0  0.25 -0.4 0  -0.25 -0.35 0  -0.2 -0.35 0  -0.15 -0.35 0  -0.1 -0.35 0  -0.04999999999999999 -0.35 0  0 -0.35 0  0.04999999999999999 -0.35 0  0.09999999999999998 -0.35 0  0.15 -0.35 0  0.2 -0.35 0  0.25 -0.35 0  -0.25 -0.3 0  -0.2 -0.3 0  -0.15 -0.3 0  -0.1 -0.3 0  -0.04999999999999999 -0.3 0  0 -0.3 0  0.04999999999999999 -0.3 0  0.09999999999999998 -0.3 0  0.15 -0.3 0  0.2 -0.3 0  0.25 -0.3 0  -0.25 -0.25 0  -0.2 -0.25 0  -0.15 -0.25 0  -0.1 -0.25 0  -0.04999999999999999 -0.25 0  0 -0.25 0  0.04999999999999999 -0.25 0  0.09999999999999998 -0.25 0  0.15 -0.25 0  0.2 -0.25 0  0.25 -0.25 0  -0.25 -0.2 0  -0.2 -0.2 0  -0.15 -0.2 0  -0.1 -0.2 0  -0.04999999999999999 -0.2 0  0 -0.2 0  0.04999999999999999 -0.2 0  0.09999999999999998 -0.2 0  0.15 -0.2 0  0.2 -0.2 0  0.25 -0.2 0  -0.25 -0.15 0  -0.2 -0.15 0  -0.15 -0.15 0  -0.1 -0.15 0  -0.04999999999999999 -0.15 0  0 -0.15 0  0.04999999999999999 -0.15 0  0.09999999999999998 -0.15 0  0.15 -0.15 0  0.2 -0.15 0  0.25 -0.15 0  -0.25 -0.09999999999999998 0  -0.2 -0.09999999999999998 0  -0.15 -0.09999999999999998 0  -0.1 -0.09999999999999998 0  -0.04999999999999999 -0.09999999999999998 0  0 -0.09999999999999998 0  0.04999999999999999 -0.09999999999999998 0  0.09999999999999998 -0.09999999999999998 0  0.15 -0.09999999999999998 0  0.2 -0.09999999999999998 0  0.25 -0.09999999999999998 0  -0.25 -0.05000000000000004 0  -0.2 -0.05000000000000004 0  -0.15 -0.05000000000000004 0  -0.1 -0.05000000000000004 0  -0.04999999999999999 -0.05000000000000004 0  0 -0.05000000000000004 0  0.04999999999999999 -0.05000000000000004 0  0.09999999999999998 -0.05000000000000004 0  0.15 -0.05000000000000004 0  0.2 -0.05000000000000004 0  0.25 -0.05000000000000004 0  -0.25 0 0  -0.2 0 0  -0.15 0 0  -0.1 0 0  -0.04999999999999999 0 0  0 0 0  0.04999999999999999 0 0  0.09999999999999998 0 0  0.15 0 0  0.2 0 0  0.25 0 0  -0.225 -0.975 0  -0.175 -0.975 0  -0.125 -0.975 0  -0.07500000000000001 -0.975 0  -0.02499999999999999 -0.975 0  0.02500000000000002 -0.975 0  0.07500000000000001 -0.975 0  0.125 -0.975 0  0.175 -0.975 0  0.225 -0.975 0  -0.225 -0.925 0  -0.175 -0.925 0  -0.125 -0.925 0  -0.07500000000000001 -0.925 0  -0.02499999999999999 -0.925 0  0.02500000000000002 -0.925 0  0.07500000000000001 -0.925 0  0.125 -0.925 0  0.175 -0.925 0  0.225 -0.925 0  -0.225 -0.875 0  -0.175 -0.875 0  -0.125 -0.875 0  -0.07500000000000001 -0.875 0  -0.02499999999999999 -0.875 0  0.02500000000000002 -0.875 0  0.07500000000000001 -0.875 0  0.125 -0.875 0  0.175 -0.875 0  0.225 -0.875 0  -0.225 -0.825 0  -0.175 -0.825 0  -0.125 -0.825 0  -0.07500000000000001 -0.825 0  -0.02499999999999999 -0.825 0  0.02500000000000002 -0.825 0  0.07500000000000001 -0.825 0  0.125 -0.825 0  0.175 -0.825 0  0.225 -0.825 0  -0.225 -0.775 0  -0.175 -0.775 0  -0.125 -0.775 0  -0.07500000000000001 -0.775 0  -0.02499999999999999 -0.775 0  0.02500000000000002 -0.775 0  0.07500000000000001 -0.775 0  0.125 -0.775 0  0.175 -0.775 0  0.225 -0.775 0  -0.225 -0.725 0  -0.175 -0.725 0  -0.125 -0.725 0  -0.07500000000000001 -0.725 0  -0.02499999999999999 -0.725 0  0.02500000000000002 -0.725 0  0.07500000000000001 -0.725 0  0.125 -0.725 0  0.175 -0.725 0  0.225 -0.725 0  -0.225 -0.675 0  -0.175 -0.675 0  -0.125 -0.675 0  -0.07500000000000001 -0.675 0  -0.02499999999999999 -0.675 0  0.02500000000000002 -0.675 0  0.07500000000000001 -0.675 0  0.125 -0.675 0  0.175 -0.675 0  0.225 -0.675 0  -0.225 -0.625 0  -0.175 -0.625 0  -0.125 -0.625 0  -0.07500000000000001 -0.625 0  -0.02499999999999999 -0.625 0  0.02500000000000002 -0.625 0  0.07500000000000001 -0.625 0  0.125 -0.625 0  0.175 -0.625 0  0.225 -0.625 0  -0.225 -0.575 0  -0.175 -0.575 0  -0.125 -0.575 0  -0.07500000000000001 -0.575 0  -0.02499999999999999 -0.575 0  0.02500000000000002 -0.575 0  0.07500000000000001 -0.575 0  0.125 -0.575 0  0.175 -0.575 0  0.225 -0.575 0  -0.225 -0.525 0  -0.175 -0.525 0  -0.125 -0.525 0  -0.07500000000000001 -0.525 0  -0.02499999999999999 -0.525 0  0.02500000000000002 -0.525 0  0.07500000000000001 -0.525 0  0.125 -0.525 0  0.175 -0.525 0  0.225 -0.525 0  -0.225 -0.475 0  -0.175 -0.475 0  -0.125 -0.475 0  -0.07500000000000001 -0.475 0  -0.02499999999999999 -0.475 0  0.02500000000000002 -0.475 0  0.07500000000000001 -0.475 0  0.125 -0.475 0  0.175 -0.475 0  0.225 -0.475 0  -0.225 -0.425 0  -0.175 -0.425 0  -0.125 -0.425 0  -0.07500000000000001 -0.425 0  -0.02499999999999999 -0.425 0  0.02500000000000002 -0.425 0  0.07500000000000001 -0.425 0  0.125 -0.425 0  0.175 -0.425 0  0.225 -0.425 0  -0.225 -0.375 0  -0.175 -0.375 0  -0.125 -0.375 0  -0.07500000000000001 -0.375 0  -0.02499999999999999 -0.375 0  0.02500000000000002 -0.375 0  0.07500000000000001 -0.375 0  0.125 -0.375 0  0.175 -0.375 0  0.225 -0.375 0  -0.225 -0.325 0  -0.175 -0.325 0  -0.125 -0.325 0  -0.07500000000000001 -0.325 0  -0.02499999999999999 -0.325 0  0.02500000000000002 -0.325 0  0.07500000000000001 -0.325 0  0.125 -0.325 0  0.175 -0.325 0  0.225 -0.325 0  -0.225 -0.275 0  -0.175 -0.275 0  -0.125 -0.275 0  -0.07500000000000001 -0.275 0  -0.02499999999999999 -0.275 0  0.02500000000000002 -0.275 0  0.07500000000000001 -0.275 0  0.125 -0.275 0  0.175 -0.275 0  0.225 -0.275 0  -0.225 -0.225 0  -0.175 -0.225 0  -0.125 -0.225 0  -0.07500000000000001 -0.225 0  -0.02499999999999999 -0.225 0  0.02500000000000002 -0.225 0  0.07500000000000001 -0.225 0  0.125 -0.225 0  0.175 -0.225 0  0.225 -0.225 0  -0.225 -0.175 0  -0.175 -0.175 0  -0.125 -0.175 0  -0.07500000000000001 -0.175 0  -0.02499999999999999 -0.175 0  0.02500000000000002 -0.175 0  0.07500000000000001 -0.175 0  0.125 -0.175 0  0.175 -0.175 0  0.225 -0.175 0  -0.225 -0.125 0  -0.175 -0.125 0  -0.125 -0.125 0  -0.07500000000000001 -0.125 0  -0.02499999999999999 -0.125 0  0.02500000000000002 -0.125 0  0.07500000000000001 -0.125 0  0.125 -0.125 0  0.175 -0.125 0  0.225 -0.125 0  -0.225 -0.07499999999999996 0  -0.175 -0.07499999999999996 0  -0.125 -0.07499999999999996 0  -0.07500000000000001 -0.07499999999999996 0  -0.02499999999999999 -0.07499999999999996 0  0.02500000000000002 -0.07499999999999996 0  0.07500000000000001 -0.07499999999999996 0  0.125 -0.07499999999999996 0  0.175 -0.07499999999999996 0  0.225 -0.07499999999999996 0  -0.225 -0.02500000000000002 0  -0.175 -0.02500000000000002 0  -0.125 -0.02500000000000002 0  -0.07500000000000001 -0.02500000000000002 0  -0.02499999999999999 -0.02500000000000002 0  0.02500000000000002 -0.02500000000000002 0  0.07500000000000001 -0.02500000000000002 0  0.125 -0.02500000000000002 0  0.175 -0.02500000000000002 0  0.225 -0.02500000000000002 0  </DataArray>
</Points>
<Cells>
[...]
<PointData  Vectors="flow"> 
<DataArray  type="Float64"  Name="flow"  NumberOfComponents="3" format="ascii">-3.1796977335187973e+00 6.3596562440173132e+00 0.0000000000000000e+00  5.9079733887525555e-04 6.3596562440149160e+00 0.0000000000000000e+00  -7.5642332738056530e-08 6.3596562440126592e+00 0.0000000000000000e+00  -5.5157485147352496e-11 6.3596562440214317e+00 0.0000000000000000e+00  1.2330483953287400e-12 6.3596562440147038e+00 0.0000000000000000e+00  2.0670347057137689e-12 6.3596562440230811e+00 0.0000000000000000e+00  1.5680292626493793e-12 6.3596562440192272e+00 0.0000000000000000e+00  4.7431672074894956e-11 6.3596562440260076e+00 0.0000000000000000e+00  7.5645853424006784e-08 6.3596562440163495e+00 0.0000000000000000e+00  -5.9079733766449782e-04 6.3596562440199964e+00 0.0000000000000000e+00  3.1796977335133740e+00 6.3596562440263416e+00 0.0000000000000000e+00  -3.1702473991164872e+00 1.9057443882287245e+01 0.0000000000000000e+00  5.8958539486130988e-04 1.9057443882290652e+01 0.0000000000000000e+00  -7.6467122141957241e-08 1.9057443882287487e+01 0.0000000000000000e+00  -4.9767067314633462e-11 1.9057443882287600e+01 0.0000000000000000e+00  -2.1816184074572514e-12 1.9057443882292709e+01 0.0000000000000000e+00  2.8746421713468679e-12 1.9057443882289476e+01 0.0000000000000000e+00  1.1647989692854507e-12 1.9057443882292436e+01 0.0000000000000000e+00  4.9143909933032963e-11 1.9057443882289554e+01 0.0000000000000000e+00  7.6463840884253009e-08 1.9057443882291995e+01 0.0000000000000000e+00  -5.8958539151638951e-04 1.9057443882288776e+01 0.0000000000000000e+00  3.1702473991164006e+00 1.9057443882287465e+01 0.0000000000000000e+00  -3.1419352306334498e+00 3.8001569041125897e+01 0.0000000000000000e+00  5.8592336250988259e-04 3.8001569041123510e+01 0.0000000000000000e+00  -7.8873522907071022e-08 3.8001569041126174e+01 0.0000000000000000e+00  -4.0392243116967020e-11 3.8001569041125329e+01 0.0000000000000000e+00  -1.7782119743720216e-13 3.8001569041126004e+01 0.0000000000000000e+00  2.6522970689002169e-12 3.8001569041123872e+01 0.0000000000000000e+00  -1.7654147957355095e-12 3.8001569041124057e+01 0.0000000000000000e+00  4.5600062549390273e-11 3.8001569041122174e+01 0.0000000000000000e+00  7.8869900258666761e-08 3.8001569041127311e+01 0.0000000000000000e+00  -5.8592336247634475e-04 3.8001569041127254e+01 0.0000000000000000e+00  3.1419352306279569e+00 3.8001569041123524e+01 0.0000000000000000e+00  -3.0948785664283514e+00 5.6719524597555690e+01 0.0000000000000000e+00  5.7973467713660714e-04 5.6719524597555115e+01 0.0000000000000000e+00  -8.2669164458543056e-08 5.6719524597553963e+01 0.0000000000000000e+00  -3.5557505763424606e-11 5.6719524597552287e+01 0.0000000000000000e+00  7.1225267651174653e-13 5.6719524597550070e+01 0.0000000000000000e+00  2.3664409333896397e-12 5.6719524597554667e+01 0.0000000000000000e+00  -8.3816107940394790e-13 5.6719524597554894e+01 0.0000000000000000e+00  3.5226541735683390e-11 5.6719524597556784e+01 0.0000000000000000e+00  8.2669144447672930e-08 5.6719524597550404e+01 0.0000000000000000e+00  -5.7973467837304094e-04 5.6719524597554191e+01 0.0000000000000000e+00  3.0948785664220217e+00 5.6719524597553942e+01 0.0000000000000000e+00  -3.0292756866368142e+00 7.5099405230692668e+01 0.0000000000000000e+00  5.7089836234105844e-04 7.5099405230692668e+01 0.0000000000000000e+00  -8.7569740200236702e-08 7.5099405230692668e+01 0.0000000000000000e+00  -2.2742862967030072e-11 7.5099405230692412e+01 0.0000000000000000e+00  -2.8685475384299893e-13 7.5099405230693321e+01 0.0000000000000000e+00  3.0914937556643256e-12 7.5099405230691943e+01 0.0000000000000000e+00  4.3453594891161979e-12 7.5099405230691616e+01 0.0000000000000000e+00  2.0613944841664505e-11 7.5099405230693321e+01 0.0000000000000000e+00  8.7564507532909907e-08 7.5099405230694217e+01 0.0000000000000000e+00  -5.7089836342064755e-04 7.5099405230693847e+01 0.0000000000000000e+00  3.0292756866402333e+00 7.5099405230688305e+01 0.0000000000000000e+00  -2.9454096654916126e+00 9.3030747863805075e+01 0.0000000000000000e+00  5.5925854662783520e-04 9.3030747863803683e+01 0.0000000000000000e+00  -9.3163935998129797e-08 9.3030747863801579e+01 0.0000000000000000e+00  -2.3569911320804244e-12 9.3030747863805999e+01 0.0000000000000000e+00  -2.1228781240011011e-13 9.3030747863807477e+01 0.0000000000000000e+00  -7.1607957149060302e-13 9.3030747863805757e+01 0.0000000000000000e+00  -5.0861423798285518e-13 9.3030747863798837e+01 0.0000000000000000e+00  7.3052309758870520e-12 9.3030747863794730e+01 0.0000000000000000e+00  9.3165663127776651e-08 9.3030747863802830e+01 0.0000000000000000e+00  -5.5925855386983821e-04 9.3030747863800968e+01 0.0000000000000000e+00  2.9454096654939459e+00 9.3030747863805217e+01 0.0000000000000000e+00  -2.8436533337553125e+00 1.1040505493921654e+02 0.0000000000000000e+00  5.4463708359511016e-04 1.1040505493922070e+02 0.0000000000000000e+00  -9.8994349591286160e-08 1.1040505493922748e+02 0.0000000000000000e+00  1.2242049744020817e-11 1.1040505493922481e+02 0.0000000000000000e+00  -3.2602378184431560e-12 1.1040505493922406e+02 0.0000000000000000e+00  -1.7654612257619050e-12 1.1040505493921899e+02 0.0000000000000000e+00  -4.5437654130335920e-12 1.1040505493922420e+02 0.0000000000000000e+00  -4.9263461884454995e-12 1.1040505493922326e+02 0.0000000000000000e+00  9.8995305121494689e-08 1.1040505493922434e+02 0.0000000000000000e+00  -5.4463708606645642e-04 1.1040505493922349e+02 0.0000000000000000e+00  2.8436533337653631e+00 1.1040505493922788e+02 0.0000000000000000e+00  -2.7244749499698071e+00 1.2711634977390410e+02 0.0000000000000000e+00  5.2684841360328672e-04 1.2711634977389947e+02 0.0000000000000000e+00  -1.0454247245849047e-07 1.2711634977390037e+02 0.0000000000000000e+00  2.7737886016325292e-11 1.2711634977390152e+02 0.0000000000000000e+00  -2.2056982050809460e-12 1.2711634977390054e+02 0.0000000000000000e+00  -2.7659916264678443e-12 1.2711634977390672e+02 0.0000000000000000e+00  1.2653482569864404e-12 1.2711634977390986e+02 0.0000000000000000e+00  -2.2317908238313395e-11 1.2711634977390774e+02 0.0000000000000000e+00  1.0454676294646302e-07 1.2711634977390878e+02 0.0000000000000000e+00  -5.2684841018787369e-04 1.2711634977391238e+02 0.0000000000000000e+00  2.7244749499718965e+00 1.2711634977390783e+02 0.0000000000000000e+00  -2.5884441053110687e+00 1.4306176684764475e+02 0.0000000000000000e+00  5.0571597973199031e-04 1.4306176684764776e+02 0.0000000000000000e+00  -1.0928806384592199e-07 1.4306176684764657e+02 0.0000000000000000e+00  4.8018481759091132e-11 1.4306176684764372e+02 0.0000000000000000e+00  1.4281917086942379e-12 1.4306176684764674e+02 0.0000000000000000e+00  4.6819495368757509e-12 1.4306176684765123e+02 0.0000000000000000e+00  -1.8019116328956787e-12 1.4306176684764671e+02 0.0000000000000000e+00  -4.5460593621116749e-11 1.4306176684764969e+02 0.0000000000000000e+00  1.0929777324337479e-07 1.4306176684764583e+02 0.0000000000000000e+00  -5.0571598044491526e-04 1.4306176684764753e+02 0.0000000000000000e+00  2.5884441053086431e+00 1.4306176684764901e+02 0.0000000000000000e+00  -2.4362373396115196e+00 1.5814217687167650e+02 0.0000000000000000e+00  4.8108905626132413e-04 1.5814217687167508e+02 0.0000000000000000e+00  -1.1266717382845770e-07 1.5814217687167684e+02 0.0000000000000000e+00  3.2660758341107065e-11 1.5814217687167667e+02 0.0000000000000000e+00  1.6806862522527614e-11 1.5814217687167414e+02 0.0000000000000000e+00  -3.4935064641809842e-12 1.5814217687167113e+02 0.0000000000000000e+00  -8.6456975224813845e-12 1.5814217687167320e+02 0.0000000000000000e+00  -2.7823887494008782e-11 1.5814217687168025e+02 0.0000000000000000e+00  1.1266257258624809e-07 1.5814217687167840e+02 0.0000000000000000e+00  -4.8108904773186872e-04 1.5814217687167914e+02 0.0000000000000000e+00  2.4362373396164640e+00 1.5814217687168019e+02 0.0000000000000000e+00  -2.2686429305055271e+00 1.7226284328898464e+02 0.0000000000000000e+00  4.5285974418543561e-04 1.7226284328898663e+02 0.0000000000000000e+00  -1.1453513912406604e-07 1.7226284328897694e+02 0.0000000000000000e+00  2.1763301641831163e-10 1.7226284328898828e+02 0.0000000000000000e+00  -7.1696807900661232e-11 1.7226284328898248e+02 0.0000000000000000e+00  2.6240586170716124e-12 1.7226284328898831e+02 0.0000000000000000e+00  7.5399501499676462e-11 1.7226284328898743e+02 0.0000000000000000e+00  -2.1149281043525398e-10 1.7226284328898694e+02 0.0000000000000000e+00  1.1454633308562959e-07 1.7226284328899430e+02 0.0000000000000000e+00  -4.5285974539782355e-04 1.7226284328898910e+02 0.0000000000000000e+00  2.2686429304966276e+00 1.7226284328898467e+02 0.0000000000000000e+00  -2.0865643255635997e+00 1.8533410365456785e+02 0.0000000000000000e+00  4.2097441523503479e-04 1.8533410365456876e+02 0.0000000000000000e+00  -1.1239687223228851e-07 1.8533410365456987e+02 0.0000000000000000e+00  -7.7623196616740587e-10 1.8533410365457249e+02 0.0000000000000000e+00  4.1002370951842701e-10 1.8533410365458039e+02 0.0000000000000000e+00  3.5596907275647007e-12 1.8533410365457823e+02 0.0000000000000000e+00  -4.0245798585805274e-10 1.8533410365458226e+02 0.0000000000000000e+00  7.8853944695558469e-10 1.8533410365457652e+02 0.0000000000000000e+00  1.1239746957873278e-07 1.8533410365457536e+02 0.0000000000000000e+00  -4.2097442205382804e-04 1.8533410365456956e+02 0.0000000000000000e+00  2.0865643255668478e+00 1.8533410365457462e+02 0.0000000000000000e+00  -1.8910217712095814e+00 1.9727206631857408e+02 0.0000000000000000e+00  3.8546891446944649e-04 1.9727206631857504e+02 0.0000000000000000e+00  -1.1862129236085880e-07 1.9727206631858928e+02 0.0000000000000000e+00  4.9998633487456447e-09 1.9727206631858334e+02 0.0000000000000000e+00  -2.2124885595622431e-09 1.9727206631858121e+02 0.0000000000000000e+00  5.3223728319927632e-12 1.9727206631858030e+02 0.0000000000000000e+00  2.2139219930327602e-09 1.9727206631858803e+02 0.0000000000000000e+00  -4.9869467195891414e-09 1.9727206631858078e+02 0.0000000000000000e+00  1.1862987524648323e-07 1.9727206631858277e+02 0.0000000000000000e+00  -3.8546891535333098e-04 1.9727206631858576e+02 0.0000000000000000e+00  1.8910217712054844e+00 1.9727206631858050e+02 0.0000000000000000e+00  -1.6831515259506162e+00 2.0799931016669925e+02 0.0000000000000000e+00  3.4633990215772627e-04 2.0799931016669444e+02 0.0000000000000000e+00  -5.7588558508036940e-08 2.0799931016668083e+02 0.0000000000000000e+00  -2.7272094040604789e-08 2.0799931016669458e+02 0.0000000000000000e+00  1.1568789775190564e-08 2.0799931016670649e+02 0.0000000000000000e+00  1.1995553834949056e-11 2.0799931016670305e+02 0.0000000000000000e+00  -1.1563276592450929e-08 2.0799931016669777e+02 0.0000000000000000e+00  2.7275133792402850e-08 2.0799931016670158e+02 0.0000000000000000e+00  5.7602248294812142e-08 2.0799931016669609e+02 0.0000000000000000e+00  -3.4633990073638964e-04 2.0799931016670584e+02 0.0000000000000000e+00  1.6831515259500354e+00 2.0799931016670160e+02 0.0000000000000000e+00  -1.4642036366412521e+00 2.1744557301809149e+02 0.0000000000000000e+00  3.0440575318288628e-04 2.1744557301809783e+02 0.0000000000000000e+00  -3.7415555789872741e-07 2.1744557301810022e+02 0.0000000000000000e+00  1.4733499815786604e-07 2.1744557301808882e+02 0.0000000000000000e+00  -5.6238604842590555e-08 2.1744557301808021e+02 0.0000000000000000e+00  -2.8181625299185872e-12 2.1744557301808777e+02 0.0000000000000000e+00  5.6250638782114081e-08 2.1744557301808723e+02 0.0000000000000000e+00  -1.4731168599852541e-07 2.1744557301809186e+02 0.0000000000000000e+00  3.7417014579484007e-07 2.1744557301809212e+02 0.0000000000000000e+00  -3.0440575735111449e-04 2.1744557301809562e+02 0.0000000000000000e+00  1.4642036366327933e+00 2.1744557301810480e+02 0.0000000000000000e+00  -1.2355299372141657e+00 2.2554841277280784e+02 0.0000000000000000e+00  2.5599049204280374e-04 2.2554841277280755e+02 0.0000000000000000e+00  1.5212186780120056e-06 2.2554841277280761e+02 0.0000000000000000e+00  -7.4624614843758405e-07 2.2554841277280954e+02 0.0000000000000000e+00  2.4180363754974727e-07 2.2554841277281074e+02 0.0000000000000000e+00  1.2913625955448149e-11 2.2554841277280735e+02 0.0000000000000000e+00  -2.4179172470811764e-07 2.2554841277280246e+02 0.0000000000000000e+00  7.4624290404589716e-07 2.2554841277280366e+02 0.0000000000000000e+00  -1.5212069440148918e-06 2.2554841277281383e+02 0.0000000000000000e+00  -2.5599048066623185e-04 2.2554841277281247e+02 0.0000000000000000e+00  1.2355299372101689e+00 2.2554841277281520e+02 0.0000000000000000e+00  -9.9861466432129253e-01 2.3225382463550275e+02 0.0000000000000000e+00  2.2627454081365937e-04 2.3225382463550503e+02 0.0000000000000000e+00  -9.0625587269397727e-06 2.3225382463550960e+02 0.0000000000000000e+00  3.3815128341812472e-06 2.3225382463550770e+02 0.0000000000000000e+00  -8.1822324009102966e-07 2.3225382463550994e+02 0.0000000000000000e+00  -7.0835484970505659e-12 2.3225382463549374e+02 0.0000000000000000e+00  8.1822362903500428e-07 2.3225382463549482e+02 0.0000000000000000e+00  -3.3814787650734590e-06 2.3225382463550073e+02 0.0000000000000000e+00  9.0625801156738133e-06 2.3225382463551654e+02 0.0000000000000000e+00  -2.2627453618002770e-04 2.3225382463550784e+02 0.0000000000000000e+00  9.9861466433421564e-01 2.3225382463550594e+02 0.0000000000000000e+00  -7.5480148887625198e-01 2.3751679777560585e+02 0.0000000000000000e+00  5.8207140652583798e-05 2.3751679777559357e+02 0.0000000000000000e+00  4.6533422782452971e-05 2.3751679777559184e+02 0.0000000000000000e+00  -1.1781841142212483e-05 2.3751679777559400e+02 0.0000000000000000e+00  1.5677643347215730e-06 2.3751679777559258e+02 0.0000000000000000e+00  3.8811111670751975e-13 2.3751679777560159e+02 0.0000000000000000e+00  -1.5677584635662930e-06 2.3751679777560443e+02 0.0000000000000000e+00  1.1781862570337503e-05 2.3751679777559929e+02 0.0000000000000000e+00  -4.6533401593932625e-05 2.3751679777558417e+02 0.0000000000000000e+00  -5.8207139218324186e-05 2.3751679777559087e+02 0.0000000000000000e+00  7.5480148888090193e-01 2.3751679777558840e+02 0.0000000000000000e+00  -5.0710228390635714e-01 2.4130179562923925e+02 0.0000000000000000e+00  7.5619282891231350e-04 2.4130179562924246e+02 0.0000000000000000e+00  -1.8916540934245182e-04 2.4130179562923840e+02 0.0000000000000000e+00  1.3481475159672508e-05 2.4130179562923692e+02 0.0000000000000000e+00  -9.1717080158618602e-07 2.4130179562923999e+02 0.0000000000000000e+00  -7.8686301401963493e-12 2.4130179562924286e+02 0.0000000000000000e+00  9.1718288155180992e-07 2.4130179562923104e+02 0.0000000000000000e+00  -1.3481460015962983e-05 2.4130179562922902e+02 0.0000000000000000e+00  1.8916542831364620e-04 2.4130179562922567e+02 0.0000000000000000e+00  -7.5619283352795438e-04 2.4130179562922504e+02 0.0000000000000000e+00  5.0710228389793865e-01 2.4130179562922135e+02 0.0000000000000000e+00  -2.4612677050133464e-01 2.4358314567483922e+02 0.0000000000000000e+00  -3.8180280478740444e-03 2.4358314567483615e+02 0.0000000000000000e+00  -4.7415143189291478e-05 2.4358314567483399e+02 0.0000000000000000e+00  1.2556193374604344e-05 2.4358314567483097e+02 0.0000000000000000e+00  -1.8215352421462591e-06 2.4358314567482529e+02 0.0000000000000000e+00  -4.0799208386730886e-12 2.4358314567482637e+02 0.0000000000000000e+00  1.8215407254685804e-06 2.4358314567483313e+02 0.0000000000000000e+00  -1.2556182284434366e-05 2.4358314567483012e+02 0.0000000000000000e+00  4.7415152067454101e-05 2.4358314567482489e+02 0.0000000000000000e+00  3.8180280437845300e-03 2.4358314567482014e+02 0.0000000000000000e+00  2.4612677049730891e-01 2.4358314567482941e+02 0.0000000000000000e+00  -1.0935891813723879e-01 2.4434532684618677e+02 0.0000000000000000e+00  -9.2555505155503363e-03 2.4434532684620004e+02 0.0000000000000000e+00  3.9849570560700562e-04 2.4434532684621070e+02 0.0000000000000000e+00  -3.4030900045561279e-05 2.4434532684620069e+02 0.0000000000000000e+00  3.5878698718066863e-06 2.4434532684619043e+02 0.0000000000000000e+00  -1.4950625143411628e-12 2.4434532684618941e+02 0.0000000000000000e+00  -3.5878676646818810e-06 2.4434532684619006e+02 0.0000000000000000e+00  3.4030905030996276e-05 2.4434532684619225e+02 0.0000000000000000e+00  -3.9849570522015285e-04 2.4434532684618043e+02 0.0000000000000000e+00  9.2555505126155468e-03 2.4434532684617304e+02 0.0000000000000000e+00  1.0935891813089570e-01 2.4434532684616590e+02 0.0000000000000000e+00  1.5871911874770617e+00 6.3677950053333525e+00 0.0000000000000000e+00  -2.9505765774525501e-04 6.3677950053336154e+00 0.0000000000000000e+00  3.8047316390273466e-08 6.3677950053348429e+00 0.0000000000000000e+00  2.6049733921539914e-11 6.3677950053338588e+00 0.0000000000000000e+00  -3.0908736453038535e-12 6.3677950053313062e+00 0.0000000000000000e+00  -5.2672523197455108e-12 6.3677950053273129e+00 0.0000000000000000e+00  -1.4363435695037346e-11 6.3677950053294916e+00 0.0000000000000000e+00  -3.8056590358556732e-08 6.3677950053340897e+00 0.0000000000000000e+00  2.9505765612794044e-04 6.3677950053303443e+00 0.0000000000000000e+00  -1.5871911874692894e+00 6.3677950053302377e+00 0.0000000000000000e+00  1.5777517802502352e+00 2.8586132363488087e+01 0.0000000000000000e+00  -2.9383835962494423e-04 2.8586132363485444e+01 0.0000000000000000e+00  3.8854352777104976e-08 2.8586132363482829e+01 0.0000000000000000e+00  2.8572317671222604e-11 2.8586132363489522e+01 0.0000000000000000e+00  -6.6523468823376383e-12 2.8586132363493178e+01 0.0000000000000000e+00  -1.6503321043523470e-12 2.8586132363495832e+01 0.0000000000000000e+00  -1.4746333840361083e-11 2.8586132363494549e+01 0.0000000000000000e+00  -3.8860469667350557e-08 2.8586132363490087e+01 0.0000000000000000e+00  2.9383835338944405e-04 2.8586132363493203e+01 0.0000000000000000e+00  -1.5777517802429872e+00 2.8586132363489831e+01 0.0000000000000000e+00  1.5589120347559582e+00 4.7454662796948220e+01 0.0000000000000000e+00  -2.9137413010170833e-04 4.7454662796949002e+01 0.0000000000000000e+00  4.0400892004897522e-08 4.7454662796951339e+01 0.0000000000000000e+00  2.8482456662147841e-11 4.7454662796948170e+01 0.0000000000000000e+00  -8.0854357267651637e-12 4.7454662796947531e+01 0.0000000000000000e+00  5.2528540538670024e-12 4.7454662796950153e+01 0.0000000000000000e+00  -1.9978075532710097e-11 4.7454662796948796e+01 0.0000000000000000e+00  -4.0405386556241091e-08 4.7454662796946621e+01 0.0000000000000000e+00  2.9137412545460586e-04 4.7454662796946380e+01 0.0000000000000000e+00  -1.5589120347539540e+00 4.7454662796947282e+01 0.0000000000000000e+00  1.5307509050064230e+00 6.6040674465795320e+01 0.0000000000000000e+00  -2.8761570348838914e-04 6.6040674465797466e+01 0.0000000000000000e+00  4.2565929797919257e-08 6.6040674465794027e+01 0.0000000000000000e+00  1.9069439075440993e-11 6.6040674465789394e+01 0.0000000000000000e+00  -1.4709367202102766e-12 6.6040674465791000e+01 0.0000000000000000e+00  -1.4634446892815775e-13 6.6040674465789820e+01 0.0000000000000000e+00  -1.0230889308259504e-11 6.6040674465791440e+01 0.0000000000000000e+00  -4.2577396028026506e-08 6.6040674465794822e+01 0.0000000000000000e+00  2.8761570789324399e-04 6.6040674465796187e+01 0.0000000000000000e+00  -1.5307509050076302e+00 6.6040674465801004e+01 0.0000000000000000e+00  1.4933887988048655e+00 8.4232813600042817e+01 0.0000000000000000e+00  -2.8249404717330828e-04 8.4232813600042007e+01 0.0000000000000000e+00  4.5180904116189682e-08 8.4232813600045304e+01 0.0000000000000000e+00  1.2261312467240840e-11 8.4232813600049894e+01 0.0000000000000000e+00  -5.0470714176551592e-14 8.4232813600049639e+01 0.0000000000000000e+00  -3.6494111017802455e-12 8.4232813600048900e+01 0.0000000000000000e+00  -2.9197397773328292e-12 8.4232813600045034e+01 0.0000000000000000e+00  -4.5190777833847201e-08 8.4232813600044665e+01 0.0000000000000000e+00  2.8249405724775888e-04 8.4232813600050477e+01 0.0000000000000000e+00  -1.4933887988109169e+00 8.4232813600047592e+01 0.0000000000000000e+00  1.4469897759058508e+00 1.0192142038055168e+02 0.0000000000000000e+00  -2.7592