<?xml version="1.0"?>
<VTKFile type="UnstructuredGrid"  version="0.1"  >
<UnstructuredGrid>
<Piece  NumberOfPoints="1876" NumberOfCells="3600">
<Points>
<DataArray  type="Float64"  NumberOfComponents="3"  format="ascii">-0.75 -3 0  -0.65 -3 0  -0.55 -3 0  -0.45 -3 0  -0.35 -3 0  -0.25 -3 0  -0.15 -3 0  -0.05000000000000004 -3 0  0.05000000000000004 -3 0  0.15 -3 0  0.25 -3 0  0.3500000000000001 -3 0  0.45 -3 0  0.55 -3 0  0.6499999999999999 -3 0  0.75 -3 0  -0.75 -2.95 0  -0.65 -2.95 0  -0.55 -2.95 0  -0.45 -2.95 0  -0.35 -2.95 0  -0.25 -2.95 0  -0.15 -2.95 0  -0.05000000000000004 -2.95 0  0.05000000000000004 -2.95 0  0.15 -2.95 0  0.25 -2.95 0  0.3500000000000001 -2.95 0  0.45 -2.95 0  0.55 -2.95 0  0.6499999999999999 -2.95 0  0.75 -2.95 0  -0.75 -2.9 0  -0.65 -2.9 0  -0.55 -2.9 0  -0.45 -2.9 0  -0.35 -2.9 0  -0.25 -2.9 0  -0.15 -2.9 0  -0.05000000000000004 -2.9 0  0.05000000000000004 -2.9 0  0.15 -2.9 0  0.25 -2.9 0  0.3500000000000001 -2.9 0  0.45 -2.9 0  0.55 -2.9 0  0.6499999999999999 -2.9 0  0.75 -2.9 0  -0.75 -2.85 0  -0.65 -2.85 0  -0.55 -2.85 0  -0.45 -2.85 0  -0.35 -2.85 0  -0.25 -2.85 0  -0.15 -2.85 0  -0.05000000000000004 -2.85 0  0.05000000000000004 -2.85 0  0.15 -2.85 0  0.25 -2.85 0  0.3500000000000001 -2.85 0  0.45 -2.85 0  0.55 -2.85 0  0.6499999999999999 -2.85 0  0.75 -2.85 0  -0.75 -2.8 0  -0.65 -2.8 0  -0.55 -2.8 0  -0.45 -2.8 0  -0.35 -2.8 0  -0.25 -2.8 0  -0.15 -2.8 0  -0.05000000000000004 -2.8 0  0.05000000000000004 -2.8 0  0.15 -2.8 0  0.25 -2.8 0  0.3500000000000001 -2.8 0  0.45 -2.8 0  0.55 -2.8 0  0.6499999999999999 -2.8 0  0.75 -2.8 0  -0.75 -2.75 0  -0.65 -2.75 0  -0.55 -2.75 0  -0.45 -2.75 0  -0.35 -2.75 0  -0.25 -2.75 0  -0.15 -2.75 0  -0.05000000000000004 -2.75 0  0.05000000000000004 -2.75 0  0.15 -2.75 0  0.25 -2.75 0  0.3500000000000001 -2.75 0  0.45 -2.75 0  0.55 -2.75 0  0.6499999999999999 -2.75 0  0.75 -2.75 0  -0.75 -2.7 0  -0.65 -2.7 0  -0.55 -2.7 0  -0.45 -2.7 0  -0.35 -2.7 0  -0.25 -2.7 0  -0.15 -2.7 0  -0.05000000000000004 -2.7 0  0.05000000000000004 -2.7 0  0.15 -2.7 0  0.25 -2.7 0  0.3500000000000001 -2.7 0  0.45 -2.7 0  0.55 -2.7 0  0.6499999999999999 -2.7 0  0.75 -2.7 0  -0.75 -2.65 0  -0.65 -2.65 0  -0.55 -2.65 0  -0.45 -2.65 0  -0.35 -2.65 0  -0.25 -2.65 0  -0.15 -2.65 0  -0.05000000000000004 -2.65 0  0.05000000000000004 -2.65 0  0.15 -2.65 0  0.25 -2.65 0  0.3500000000000001 -2.65 0  0.45 -2.65 0  0.55 -2.65 0  0.6499999999999999 -2.65 0  0.75 -2.65 0  -0.75 -2.6 0  -0.65 -2.6 0  -0.55 -2.6 0  -0.45 -2.6 0  -0.35 -2.6 0  -0.25 -2.6 0  -0.15 -2.6 0  -0.05000000000000004 -2.6 0  0.05000000000000004 -2.6 0  0.15 -2.6 0  0.25 -2.6 0  0.3500000000000001 -2.6 0  0.45 -2.6 0  0.55 -2.6 0  0.6499999999999999 -2.6 0  0.75 -2.6 0  -0.75 -2.55 0  -0.65 -2.55 0  -0.55 -2.55 0  -0.45 -2.55 0  -0.35 -2.55 0  -0.25 -2.55 0  -0.15 -2.55 0  -0.05000000000000004 -2.55 0  0.05000000000000004 -2.55 0  0.15 -2.55 0  0.25 -2.55 0  0.3500000000000001 -2.55 0  0.45 -2.55 0  0.55 -2.55 0  0.6499999999999999 -2.55 0  0.75 -2.55 0  -0.75 -2.5 0  -0.65 -2.5 0  -0.55 -2.5 0  -0.45 -2.5 0  -0.35 -2.5 0  -0.25 -2.5 0  -0.15 -2.5 0  -0.05000000000000004 -2.5 0  0.05000000000000004 -2.5 0  0.15 -2.5 0  0.25 -2.5 0  0.3500000000000001 -2.5 0  0.45 -2.5 0  0.55 -2.5 0  0.6499999999999999 -2.5 0  0.75 -2.5 0  -0.75 -2.45 0  -0.65 -2.45 0  -0.55 -2.45 0  -0.45 -2.45 0  -0.35 -2.45 0  -0.25 -2.45 0  -0.15 -2.45 0  -0.05000000000000004 -2.45 0  0.05000000000000004 -2.45 0  0.15 -2.45 0  0.25 -2.45 0  0.3500000000000001 -2.45 0  0.45 -2.45 0  0.55 -2.45 0  0.6499999999999999 -2.45 0  0.75 -2.45 0  -0.75 -2.4 0  -0.65 -2.4 0  -0.55 -2.4 0  -0.45 -2.4 0  -0.35 -2.4 0  -0.25 -2.4 0  -0.15 -2.4 0  -0.05000000000000004 -2.4 0  0.05000000000000004 -2.4 0  0.15 -2.4 0  0.25 -2.4 0  0.3500000000000001 -2.4 0  0.45 -2.4 0  0.55 -2.4 0  0.6499999999999999 -2.4 0  0.75 -2.4 0  -0.75 -2.35 0  -0.65 -2.35 0  -0.55 -2.35 0  -0.45 -2.35 0  -0.35 -2.35 0  -0.25 -2.35 0  -0.15 -2.35 0  -0.05000000000000004 -2.35 0  0.05000000000000004 -2.35 0  0.15 -2.35 0  0.25 -2.35 0  0.3500000000000001 -2.35 0  0.45 -2.35 0  0.55 -2.35 0  0.6499999999999999 -2.35 0  0.75 -2.35 0  -0.75 -2.3 0  -0.65 -2.3 0  -0.55 -2.3 0  -0.45 -2.3 0  -0.35 -2.3 0  -0.25 -2.3 0  -0.15 -2.3 0  -0.05000000000000004 -2.3 0  0.05000000000000004 -2.3 0  0.15 -2.3 0  0.25 -2.3 0  0.3500000000000001 -2.3 0  0.45 -2.3 0  0.55 -2.3 0  0.6499999999999999 -2.3 0  0.75 -2.3 0  -0.75 -2.25 0  -0.65 -2.25 0  -0.55 -2.25 0  -0.45 -2.25 0  -0.35 -2.25 0  -0.25 -2.25 0  -0.15 -2.25 0  -0.05000000000000004 -2.25 0  0.05000000000000004 -2.25 0  0.15 -2.25 0  0.25 -2.25 0  0.3500000000000001 -2.25 0  0.45 -2.25 0  0.55 -2.25 0  0.6499999999999999 -2.25 0  0.75 -2.25 0  -0.75 -2.2 0  -0.65 -2.2 0  -0.55 -2.2 0  -0.45 -2.2 0  -0.35 -2.2 0  -0.25 -2.2 0  -0.15 -2.2 0  -0.05000000000000004 -2.2 0  0.05000000000000004 -2.2 0  0.15 -2.2 0  0.25 -2.2 0  0.3500000000000001 -2.2 0  0.45 -2.2 0  0.55 -2.2 0  0.6499999999999999 -2.2 0  0.75 -2.2 0  -0.75 -2.15 0  -0.65 -2.15 0  -0.55 -2.15 0  -0.45 -2.15 0  -0.35 -2.15 0  -0.25 -2.15 0  -0.15 -2.15 0  -0.05000000000000004 -2.15 0  0.05000000000000004 -2.15 0  0.15 -2.15 0  0.25 -2.15 0  0.3500000000000001 -2.15 0  0.45 -2.15 0  0.55 -2.15 0  0.6499999999999999 -2.15 0  0.75 -2.15 0  -0.75 -2.1 0  -0.65 -2.1 0  -0.55 -2.1 0  -0.45 -2.1 0  -0.35 -2.1 0  -0.25 -2.1 0  -0.15 -2.1 0  -0.05000000000000004 -2.1 0  0.05000000000000004 -2.1 0  0.15 -2.1 0  0.25 -2.1 0  0.3500000000000001 -2.1 0  0.45 -2.1 0  0.55 -2.1 0  0.6499999999999999 -2.1 0  0.75 -2.1 0  -0.75 -2.05 0  -0.65 -2.05 0  -0.55 -2.05 0  -0.45 -2.05 0  -0.35 -2.05 0  -0.25 -2.05 0  -0.15 -2.05 0  -0.05000000000000004 -2.05 0  0.05000000000000004 -2.05 0  0.15 -2.05 0  0.25 -2.05 0  0.3500000000000001 -2.05 0  0.45 -2.05 0  0.55 -2.05 0  0.6499999999999999 -2.05 0  0.75 -2.05 0  -0.75 -2 0  -0.65 -2 0  -0.55 -2 0  -0.45 -2 0  -0.35 -2 0  -0.25 -2 0  -0.15 -2 0  -0.05000000000000004 -2 0  0.05000000000000004 -2 0  0.15 -2 0  0.25 -2 0  0.3500000000000001 -2 0  0.45 -2 0  0.55 -2 0  0.6499999999999999 -2 0  0.75 -2 0  -0.75 -1.95 0  -0.65 -1.95 0  -0.55 -1.95 0  -0.45 -1.95 0  -0.35 -1.95 0  -0.25 -1.95 0  -0.15 -1.95 0  -0.05000000000000004 -1.95 0  0.05000000000000004 -1.95 0  0.15 -1.95 0  0.25 -1.95 0  0.3500000000000001 -1.95 0  0.45 -1.95 0  0.55 -1.95 0  0.6499999999999999 -1.95 0  0.75 -1.95 0  -0.75 -1.9 0  -0.65 -1.9 0  -0.55 -1.9 0  -0.45 -1.9 0  -0.35 -1.9 0  -0.25 -1.9 0  -0.15 -1.9 0  -0.05000000000000004 -1.9 0  0.05000000000000004 -1.9 0  0.15 -1.9 0  0.25 -1.9 0  0.3500000000000001 -1.9 0  0.45 -1.9 0  0.55 -1.9 0  0.6499999999999999 -1.9 0  0.75 -1.9 0  -0.75 -1.85 0  -0.65 -1.85 0  -0.55 -1.85 0  -0.45 -1.85 0  -0.35 -1.85 0  -0.25 -1.85 0  -0.15 -1.85 0  -0.05000000000000004 -1.85 0  0.05000000000000004 -1.85 0  0.15 -1.85 0  0.25 -1.85 0  0.3500000000000001 -1.85 0  0.45 -1.85 0  0.55 -1.85 0  0.6499999999999999 -1.85 0  0.75 -1.85 0  -0.75 -1.8 0  -0.65 -1.8 0  -0.55 -1.8 0  -0.45 -1.8 0  -0.35 -1.8 0  -0.25 -1.8 0  -0.15 -1.8 0  -0.05000000000000004 -1.8 0  0.05000000000000004 -1.8 0  0.15 -1.8 0  0.25 -1.8 0  0.3500000000000001 -1.8 0  0.45 -1.8 0  0.55 -1.8 0  0.6499999999999999 -1.8 0  0.75 -1.8 0  -0.75 -1.75 0  -0.65 -1.75 0  -0.55 -1.75 0  -0.45 -1.75 0  -0.35 -1.75 0  -0.25 -1.75 0  -0.15 -1.75 0  -0.05000000000000004 -1.75 0  0.05000000000000004 -1.75 0  0.15 -1.75 0  0.25 -1.75 0  0.3500000000000001 -1.75 0  0.45 -1.75 0  0.55 -1.75 0  0.6499999999999999 -1.75 0  0.75 -1.75 0  -0.75 -1.7 0  -0.65 -1.7 0  -0.55 -1.7 0  -0.45 -1.7 0  -0.35 -1.7 0  -0.25 -1.7 0  -0.15 -1.7 0  -0.05000000000000004 -1.7 0  0.05000000000000004 -1.7 0  0.15 -1.7 0  0.25 -1.7 0  0.3500000000000001 -1.7 0  0.45 -1.7 0  0.55 -1.7 0  0.6499999999999999 -1.7 0  0.75 -1.7 0  -0.75 -1.65 0  -0.65 -1.65 0  -0.55 -1.65 0  -0.45 -1.65 0  -0.35 -1.65 0  -0.25 -1.65 0  -0.15 -1.65 0  -0.05000000000000004 -1.65 0  0.05000000000000004 -1.65 0  0.15 -1.65 0  0.25 -1.65 0  0.3500000000000001 -1.65 0  0.45 -1.65 0  0.55 -1.65 0  0.6499999999999999 -1.65 0  0.75 -1.65 0  -0.75 -1.6 0  -0.65 -1.6 0  -0.55 -1.6 0  -0.45 -1.6 0  -0.35 -1.6 0  -0.25 -1.6 0  -0.15 -1.6 0  -0.05000000000000004 -1.6 0  0.05000000000000004 -1.6 0  0.15 -1.6 0  0.25 -1.6 0  0.3500000000000001 -1.6 0  0.45 -1.6 0  0.55 -1.6 0  0.6499999999999999 -1.6 0  0.75 -1.6 0  -0.75 -1.55 0  -0.65 -1.55 0  -0.55 -1.55 0  -0.45 -1.55 0  -0.35 -1.55 0  -0.25 -1.55 0  -0.15 -1.55 0  -0.05000000000000004 -1.55 0  0.05000000000000004 -1.55 0  0.15 -1.55 0  0.25 -1.55 0  0.3500000000000001 -1.55 0  0.45 -1.55 0  0.55 -1.55 0  0.6499999999999999 -1.55 0  0.75 -1.55 0  -0.75 -1.5 0  -0.65 -1.5 0  -0.55 -1.5 0  -0.45 -1.5 0  -0.35 -1.5 0  -0.25 -1.5 0  -0.15 -1.5 0  -0.05000000000000004 -1.5 0  0.05000000000000004 -1.5 0  0.15 -1.5 0  0.25 -1.5 0  0.3500000000000001 -1.5 0  0.45 -1.5 0  0.55 -1.5 0  0.6499999999999999 -1.5 0  0.75 -1.5 0  -0.75 -1.45 0  -0.65 -1.45 0  -0.55 -1.45 0  -0.45 -1.45 0  -0.35 -1.45 0  -0.25 -1.45 0  -0.15 -1.45 0  -0.05000000000000004 -1.45 0  0.05000000000000004 -1.45 0  0.15 -1.45 0  0.25 -1.45 0  0.3500000000000001 -1.45 0  0.45 -1.45 0  0.55 -1.45 0  0.6499999999999999 -1.45 0  0.75 -1.45 0  -0.75 -1.4 0  -0.65 -1.4 0  -0.55 -1.4 0  -0.45 -1.4 0  -0.35 -1.4 0  -0.25 -1.4 0  -0.15 -1.4 0  -0.05000000000000004 -1.4 0  0.05000000000000004 -1.4 0  0.15 -1.4 0  0.25 -1.4 0  0.3500000000000001 -1.4 0  0.45 -1.4 0  0.55 -1.4 0  0.6499999999999999 -1.4 0  0.75 -1.4 0  -0.75 -1.35 0  -0.65 -1.35 0  -0.55 -1.35 0  -0.45 -1.35 0  -0.35 -1.35 0  -0.25 -1.35 0  -0.15 -1.35 0  -0.05000000000000004 -1.35 0  0.05000000000000004 -1.35 0  0.15 -1.35 0  0.25 -1.35 0  0.3500000000000001 -1.35 0  0.45 -1.35 0  0.55 -1.35 0  0.6499999999999999 -1.35 0  0.75 -1.35 0  -0.75 -1.3 0  -0.65 -1.3 0  -0.55 -1.3 0  -0.45 -1.3 0  -0.35 -1.3 0  -0.25 -1.3 0  -0.15 -1.3 0  -0.05000000000000004 -1.3 0  0.05000000000000004 -1.3 0  0.15 -1.3 0  0.25 -1.3 0  0.3500000000000001 -1.3 0  0.45 -1.3 0  0.55 -1.3 0  0.6499999999999999 -1.
[...]
<PointData  Vectors="flow"> 
<DataArray  type="Float64"  Name="flow"  NumberOfComponents="3" format="ascii">-4.8624475624824066e-19 -1.2240464670993927e-18 0.0000000000000000e+00  -3.7083006004260188e-19 -1.5893663625899080e-18 0.0000000000000000e+00  -2.8815344764922452e-18 1.6523939857108004e-18 0.0000000000000000e+00  -2.8021293049544318e-18 -2.0038383323581346e-18 0.0000000000000000e+00  -1.7854791207352772e-18 -3.1904520680071910e-18 0.0000000000000000e+00  8.6070216172976340e-20 -1.9596531418484570e-18 0.0000000000000000e+00  -2.1579225312073061e-19 -9.1774373134256036e-19 0.0000000000000000e+00  -6.2558942509621356e-19 -4.6642877567918059e-18 0.0000000000000000e+00  -3.1390047172336142e-19 1.1183988538539960e-18 0.0000000000000000e+00  -7.9244606391563156e-19 -1.3989789584656166e-18 0.0000000000000000e+00  1.5260865778149422e-18 -4.1052915694094520e-19 0.0000000000000000e+00  4.5261027232967792e-19 -4.7216647789203318e-18 0.0000000000000000e+00  2.9589823965600157e-19 -9.7489435894688392e-19 0.0000000000000000e+00  1.8329739178773220e-18 2.7930840870677942e-19 0.0000000000000000e+00  -1.1095694314992648e-20 -6.8598073382146423e-19 0.0000000000000000e+00  -7.0027654849876572e-20 9.3666371666519445e-19 0.0000000000000000e+00  -3.5980861998110821e-19 5.8203501059267596e-19 0.0000000000000000e+00  -8.6585538926494158e-19 -4.2386618510287840e-19 0.0000000000000000e+00  -2.7406097459934873e-18 -1.0267721638697860e-18 0.0000000000000000e+00  -3.0245532725594064e-18 9.1445072298475032e-19 0.0000000000000000e+00  -7.9266916586516491e-19 7.1925018429931537e-19 0.0000000000000000e+00  -1.2557916227460659e-19 1.5753773036529618e-18 0.0000000000000000e+00  -2.5477750611837749e-19 -3.4906541865258167e-19 0.0000000000000000e+00  -6.7609001807915686e-19 4.7991549618178581e-19 0.0000000000000000e+00  -5.7985745274165124e-19 2.7205599457311921e-19 0.0000000000000000e+00  -4.1297312844942524e-19 5.0672329507289024e-19 0.0000000000000000e+00  9.8474079440350354e-19 1.4745343809459022e-18 0.0000000000000000e+00  5.2835492360448041e-19 -2.7391603115016217e-19 0.0000000000000000e+00  1.0398051969996798e-18 2.3958279949036583e-18 0.0000000000000000e+00  7.8872252989369592e-19 -1.2587176703251415e-18 0.0000000000000000e+00  3.3610458243957678e-19 -4.9023438830147574e-20 0.0000000000000000e+00  1.4910931776029970e-18 -1.9974928202692847e-18 0.0000000000000000e+00  5.1350355218027166e-19 -3.4717673441710437e-18 0.0000000000000000e+00  -1.1413480670965525e-18 -3.6500814733803680e-18 0.0000000000000000e+00  -1.8520982615167530e-18 -1.8896224626357143e-18 0.0000000000000000e+00  -2.0751397908855861e-18 -8.1244157334461758e-20 0.0000000000000000e+00  -8.5677415481841582e-19 7.1391644160462084e-19 0.0000000000000000e+00  -8.7923855866351545e-19 1.9845488178163793e-18 0.0000000000000000e+00  2.3649417433237272e-19 2.5360525603070480e-18 0.0000000000000000e+00  -7.3995375301920541e-19 2.2127636161499819e-18 0.0000000000000000e+00  -8.1190145507958824e-19 4.1426454563469927e-19 0.0000000000000000e+00  -2.0416870821798267e-19 -1.7969055445385802e-18 0.0000000000000000e+00  5.8069054634565679e-19 -1.5990579396642554e-18 0.0000000000000000e+00  1.1834973705673037e-18 -1.4153985337040450e-18 0.0000000000000000e+00  1.0159025873037941e-19 -1.3741774874105524e-18 0.0000000000000000e+00  9.6552523231634466e-19 -1.4998026581730326e-18 0.0000000000000000e+00  -2.3512685149399716e-20 -1.1936516321417837e-18 0.0000000000000000e+00  -5.9371623515834939e-19 -3.5161196647668965e-18 0.0000000000000000e+00  -2.3947928088199580e-18 -2.4199270369432795e-18 0.0000000000000000e+00  -2.5088902770202601e-19 -3.7155876206610437e-18 0.0000000000000000e+00  -1.3030443791483840e-18 -6.7342724769853731e-19 0.0000000000000000e+00  -1.4437011275565459e-18 -1.7145374346507597e-18 0.0000000000000000e+00  -9.4451416296375802e-19 -1.5878108295796226e-20 0.0000000000000000e+00  6.3750313118693487e-19 -3.0276480638570612e-18 0.0000000000000000e+00  3.6045260696667002e-20 -2.4481796013419108e-20 0.0000000000000000e+00  -1.4657414020305986e-18 -1.2195927049328806e-19 0.0000000000000000e+00  -2.4751166966130886e-18 -6.1670845577212147e-19 0.0000000000000000e+00  -7.2125810508290611e-19 -4.8116446277481417e-18 0.0000000000000000e+00  1.4670170431066289e-18 3.3246780209524406e-19 0.0000000000000000e+00  1.9420919895063472e-19 -3.7834297232192145e-18 0.0000000000000000e+00  1.0784859854709434e-18 -2.9844088650058682e-18 0.0000000000000000e+00  7.1607772612029290e-19 -9.4651133280195621e-19 0.0000000000000000e+00  -3.6300422753206911e-19 -2.5292369147238288e-18 0.0000000000000000e+00  -3.4963264607203874e-19 4.3664319590589428e-20 0.0000000000000000e+00  -1.4278060393316023e-18 -4.3041743306493732e-19 0.0000000000000000e+00  -1.1168659539735484e-18 2.7449921917117860e-19 0.0000000000000000e+00  -1.1355101563817890e-18 -5.2832298786538947e-18 0.0000000000000000e+00  -9.8692830275728112e-19 -3.9979295708576870e-18 0.0000000000000000e+00  -1.4395500874259512e-18 -1.4039223545628988e-18 0.0000000000000000e+00  -6.0106376123715575e-19 -2.6773517758456330e-18 0.0000000000000000e+00  1.4046896419254377e-18 -5.7204042307123230e-18 0.0000000000000000e+00  -1.0278793888387627e-18 -3.1067812518202775e-18 0.0000000000000000e+00  -3.2174999568346980e-18 -3.7151882239530532e-18 0.0000000000000000e+00  -1.2750831432423219e-20 3.3159847663611358e-19 0.0000000000000000e+00  1.0681243608115419e-18 -3.8926986560638774e-18 0.0000000000000000e+00  -1.3702422033542461e-19 -1.6024728613331041e-18 0.0000000000000000e+00  1.0659150088597494e-18 -1.8956364776121333e-18 0.0000000000000000e+00  3.0992706789498214e-19 -4.8347784769392734e-18 0.0000000000000000e+00  6.6227509065195488e-19 -3.8985492694194027e-18 0.0000000000000000e+00  -3.3734834515856119e-19 -3.6659010506079363e-18 0.0000000000000000e+00  1.3071165879674568e-19 -1.8522739040692347e-18 0.0000000000000000e+00  -2.0104318063347004e-18 -8.0386440972397049e-19 0.0000000000000000e+00  -2.0546321290263266e-18 9.7994440876304691e-21 0.0000000000000000e+00  -1.0976435667489678e-18 -1.4271191948301898e-18 0.0000000000000000e+00  4.2775279647126755e-19 -2.7950736852433292e-18 0.0000000000000000e+00  -7.7631146422716749e-19 2.7977551046322131e-18 0.0000000000000000e+00  -1.0076231603430921e-18 -5.5054539241935551e-19 0.0000000000000000e+00  -8.7234413682193308e-19 -2.5759642686091364e-18 0.0000000000000000e+00  -2.9705483688558526e-19 -1.5510847890164297e-18 0.0000000000000000e+00  -5.2355702147770954e-19 3.4198310953002495e-18 0.0000000000000000e+00  -6.1065569968909354e-19 -1.6497235012311465e-18 0.0000000000000000e+00  9.9369340246648727e-19 -1.7898913103037424e-18 0.0000000000000000e+00  8.7235844389654784e-19 -3.1505507328484362e-18 0.0000000000000000e+00  1.5786794632432433e-19 2.0451397985357469e-19 0.0000000000000000e+00  -1.2589777794981910e-19 1.0968677476643507e-19 0.0000000000000000e+00  6.4426002390895722e-19 -8.6904109933551026e-19 0.0000000000000000e+00  -1.3017882439455658e-18 3.2657646604532716e-18 0.0000000000000000e+00  -5.3513213432212653e-19 -1.3814142602692453e-19 0.0000000000000000e+00  -2.0532833676254878e-18 5.2902157888886488e-18 0.0000000000000000e+00  -2.7682786428362140e-18 9.9535945732686982e-19 0.0000000000000000e+00  3.9101224942467973e-19 -4.3791375373395710e-18 0.0000000000000000e+00  6.8287351658192583e-19 -1.6556725999238127e-18 0.0000000000000000e+00  -2.1706158785616295e-18 -1.3458006148655994e-18 0.0000000000000000e+00  -7.1897532031712634e-19 -3.3607125060816999e-18 0.0000000000000000e+00  9.1009625945788333e-19 -3.9936302285041286e-20 0.0000000000000000e+00  -8.9055326557516283e-19 1.3345593388639022e-18 0.0000000000000000e+00  -6.9986360949283923e-19 -3.3590190127751217e-19 0.0000000000000000e+00  1.4796244778460038e-22 8.4268081861481975e-19 0.0000000000000000e+00  1.1446191224503975e-18 1.1052890461923015e-18 0.0000000000000000e+00  9.0700800193049403e-19 -1.0839896931318620e-18 0.0000000000000000e+00  2.4469021146908140e-19 -2.2743815843725686e-18 0.0000000000000000e+00  2.2819586219432143e-18 2.8838160139010109e-19 0.0000000000000000e+00  -2.1815848781694261e-18 -6.8956906945008725e-18 0.0000000000000000e+00  2.7523841005845262e-19 -1.7216368085116157e-18 0.0000000000000000e+00  -7.9404560443706722e-19 -5.2946130866345606e-18 0.0000000000000000e+00  -5.5155385631984175e-18 -5.9037843838998021e-19 0.0000000000000000e+00  -1.2387919281749895e-19 -2.5525110916272156e-19 0.0000000000000000e+00  1.0470878779794623e-18 -3.9997169124639839e-18 0.0000000000000000e+00  -8.4332796606675583e-19 -3.9362127777662341e-19 0.0000000000000000e+00  -1.8483476315134832e-18 -6.6642509248700695e-20 0.0000000000000000e+00  1.5096455293078374e-18 -2.9908993240020724e-19 0.0000000000000000e+00  -1.4834009927742812e-18 -3.1111033896996114e-18 0.0000000000000000e+00  -1.6755058476413540e-18 -6.3330121018358111e-18 0.0000000000000000e+00  1.2119225210418230e-18 -6.4610941842580843e-18 0.0000000000000000e+00  8.3539507280981191e-19 -7.6902187519342952e-18 0.0000000000000000e+00  9.2330604218483446e-19 -4.0879700512842952e-18 0.0000000000000000e+00  -6.6113430031352680e-19 -4.8851518747250760e-18 0.0000000000000000e+00  2.7390685140446202e-18 -6.0098005189363833e-18 0.0000000000000000e+00  3.7960076118595749e-18 -2.9163384545121009e-18 0.0000000000000000e+00  -8.1438729604742481e-19 -1.3307953937484130e-19 0.0000000000000000e+00  -2.6919589784025384e-18 -5.5541986335087178e-18 0.0000000000000000e+00  -1.7200346920904393e-19 -2.4670595801002232e-18 0.0000000000000000e+00  -2.2168260695204870e-18 2.8321654134678780e-18 0.0000000000000000e+00  -1.3794507929696027e-18 -9.7568001143172792e-18 0.0000000000000000e+00  5.7085215107033216e-19 -6.4043235341521420e-18 0.0000000000000000e+00  4.5569389455541571e-19 -1.5775968257031776e-18 0.0000000000000000e+00  -5.7684585503919572e-19 -7.9527681591813177e-18 0.0000000000000000e+00  -1.7950459417395788e-18 -9.6369615914232203e-19 0.0000000000000000e+00  -2.4199800947503599e-18 -2.4016591595702678e-18 0.0000000000000000e+00  -6.7650943979688749e-19 -3.1254091481663414e-18 0.0000000000000000e+00  8.4484413853720621e-19 -6.6286980048359333e-18 0.0000000000000000e+00  6.8593126825521674e-19 -7.4652007023047010e-18 0.0000000000000000e+00  -3.0255551568751030e-19 -1.0330237754485542e-17 0.0000000000000000e+00  1.1648431255966983e-18 -7.8885970239926772e-18 0.0000000000000000e+00  -1.5998970824761164e-18 -6.1437573269620666e-18 0.0000000000000000e+00  -2.6143853041300272e-19 -9.2685537395169345e-18 0.0000000000000000e+00  -1.6102347262559122e-18 -7.8044585812199511e-19 0.0000000000000000e+00  4.8206449049946329e-19 -7.0143500920552589e-18 0.0000000000000000e+00  -4.5225742993058619e-18 -3.6495650281452594e-18 0.0000000000000000e+00  -1.8421309860323347e-18 -2.8000104319742993e-18 0.0000000000000000e+00  3.1661821666905722e-18 -3.3154359141535111e-18 0.0000000000000000e+00  -2.1077298344195350e-18 -3.8170050290888242e-18 0.0000000000000000e+00  -9.5831097288176388e-19 -4.7391175997780035e-18 0.0000000000000000e+00  1.4394451909789542e-18 -7.2765921835286879e-18 0.0000000000000000e+00  -2.2690339118202101e-18 -3.4931746201883771e-18 0.0000000000000000e+00  -1.3545836756399087e-18 -6.3213259102244066e-18 0.0000000000000000e+00  -3.1143365920402671e-19 -5.1065185871936871e-18 0.0000000000000000e+00  -8.9881656658992957e-19 -8.9388642286606704e-18 0.0000000000000000e+00  2.1212577086514538e-19 -4.2169287412784945e-18 0.0000000000000000e+00  2.6813076872051379e-18 -6.6535055334531956e-18 0.0000000000000000e+00  -1.6673620921386100e-19 5.6571640560248515e-19 0.0000000000000000e+00  4.7950267328091100e-19 1.7468340392442802e-18 0.0000000000000000e+00  -2.9273371177177569e-18 -2.0632532685679396e-18 0.0000000000000000e+00  -2.4273798464149613e-18 -7.3521546259498926e-18 0.0000000000000000e+00  -7.0635200104084013e-19 -9.6237862320020111e-18 0.0000000000000000e+00  -1.1335713411996978e-18 5.3470925524617023e-19 0.0000000000000000e+00  -9.4329652745043166e-20 -2.1384310780382496e-18 0.0000000000000000e+00  9.0239699587181532e-20 -7.7601673541451601e-18 0.0000000000000000e+00  -1.1125570791870284e-18 3.4501541398831606e-19 0.0000000000000000e+00  -8.8250078795776784e-19 -4.2160949483840633e-18 0.0000000000000000e+00  -1.3882993311747262e-18 -9.1636541086448865e-19 0.0000000000000000e+00  -2.9094968096138695e-18 -6.9770960298842544e-18 0.0000000000000000e+00  1.0758941791480868e-18 -3.1154100768970541e-18 0.0000000000000000e+00  5.1601843346475114e-20 -2.8467913408918684e-18 0.0000000000000000e+00  1.2930757728808830e-18 -1.4680113809089634e-18 0.0000000000000000e+00  -8.7602096774575938e-19 -3.8161469539331661e-19 0.0000000000000000e+00  4.8315228392845955e-18 -1.5181344792385385e-18 0.0000000000000000e+00  1.5666475409138218e-19 -1.3610252815447707e-18 0.0000000000000000e+00  -3.7448008217836233e-18 1.7218917839420218e-18 0.0000000000000000e+00  -4.1232524529227775e-18 2.8410336233869563e-18 0.0000000000000000e+00  1.2292427949826749e-18 -8.4856691280080744e-19 0.0000000000000000e+00  7.5966747900530013e-19 7.7334517521705182e-18 0.0000000000000000e+00  -1.3867740588215965e-18 1.2834832195127389e-18 0.0000000000000000e+00  -1.9010799042974711e-18 1.5513872322544888e-18 0.0000000000000000e+00  1.0797112656450814e-18 -2.9611069904985733e-19 0.0000000000000000e+00  -1.1611853171444538e-18 -1.7463532926924653e-18 0.0000000000000000e+00  -2.8207067915412863e-18 -7.1227736386634587e-18 0.0000000000000000e+00  -1.3024907703120057e-18 -3.2889460625832703e-19 0.0000000000000000e+00  3.6241842673091908e-19 2.9539728733775671e-18 0.0000000000000000e+00  -4.1962995462263332e-20 -1.5516330986170942e-19 0.0000000000000000e+00  1.4233245876656754e-18 1.2815123537554319e-18 0.0000000000000000e+00  1.4415921881123440e-18 -2.3846673285299956e-18 0.0000000000000000e+00  -6.5823835783148831e-19 -3.5689602956332743e-18 0.0000000000000000e+00  6.2654101101235534e-19 -6.5002344271283988e-18 0.0000000000000000e+00  -1.8569287688743414e-18 -5.5343351446561857e-18 0.0000000000000000e+00  -3.3689169767941520e-18 -1.5977832628995319e-18 0.0000000000000000e+00  8.8720630113698028e-19 8.6577340293097981e-19 0.0000000000000000e+00  -3.1655803628071953e-19 -9.0969025642491516e-18 0.0000000000000000e+00  -2.2958353417193166e-18 -9.7718301486584863e-18 0.0000000000000000e+00  -2.0424832101706041e-18 -6.5942976607805484e-18 0.0000000000000000e+00  1.0915448443537882e-20 -7.0298597856532626e-18 0.0000000000000000e+00  -3.3702245944370465e-18 -1.0017153643285397e-17 0.0000000000000000e+00  -2.1350314038515774e-18 -4.8496316099123096e-18 0.0000000000000000e+00  3.1504275314928498e-18 -6.9518024672820153e-18 0.0000000000000000e+00  -5.4245991856198073e-19 -7.7602704588952100e-18 0.0000000000000000e+00  2.3498505207706364e-18 -2.9838632729080633e-18 0.0000000000000000e+00  -1.1640763183758787e-18 -3.0356113355518467e-18 0.0000000000000000e+00  -3.0666391965741452e-18 -8.5994532417199677e-18 0.0000000000000000e+00  1.3303928273756680e-18 -7.7815111851477961e-19 0.0000000000000000e+00  -6.4960544124882133e-19 -6.3756334221933593e-18 0.0000000000000000e+00  -2.0030705515452735e-18 -7.2356956598637138e-18 0.0000000000000000e+00  3.5792530640722919e-19 -3.4053838067090517e-18 0.0000000000000000e+00  -1.8799477824012080e-18 4.7619595631831389e-18 0.0000000000000000e+00  -3.0507006762171627e-18 -1.7196271755081231e-18 0.0000000000000000e+00  1.5591452657596173e-19 1.0147092879098615e-18 0.0000000000000000e+00  2.0210495672993724e-18 1.3657592507883420e-17 0.0000000000000000e+00  -5.1501408253850609e-18 3.6671611036150817e-18 0.0000000000000000e+00  -3.2380415463492330e-18 -9.2921399637839033e-18 0.0000000000000000e+00  -5.0584244516781989e-19 -2.2518828013225747e-18 0.0000000000000000e+00  -2.3389157524088530e-18 -9.7624971896974360e-18 0.0000000000000000e+00  3.3628845580905498e-18 -7.4524095996586098e-18 0.0000000000000000e+00  4.0866070362484395e-19 -3.1922658600422649e-18 0.0000000000000000e+00  -1.5191278862953768e-18 -1.3177768930305560e-17 0.0000000000000000e+00  -2.0352462809028047e-18 -8.5582900375011783e-18 0.0000000000000000e+00  -7.6331341667855318e-18 -1.5437907210517761e-17 0.0000000000000000e+00  -2.0508139052562322e-18 -1.2618840174241435e-17 0.0000000000000000e+00  1.4931333565827680e-18 -1.0825182226516335e-17 0.0000000000000000e+00  9.9960731924580792e-19 -6.6763275311098315e-18 0.0000000000000000e+00  2.6233829206380215e-19 -1.1142190668888837e-17 0.0000000000000000e+00  -4.0116829991762773e-18 -6.9146428474260833e-18 0.0000000000000000e+00  2.3307200836664845e-18 -1.0656506240616200e-17 0.0000000000000000e+00  9.0240645302180488e-19 -2.0873781599407222e-17 0.0000000000000000e+00  -8.6746630867670622e-18 -1.8769431044647435e-17 0.0000000000000000e+00  -6.0618698741404578e-19 7.0875615001907675e-18 0.0000000000000000e+00  -2.3836750593159966e-18 -7.6870592139832026e-18 0.0000000000000000e+00  -1.4976654101268434e-18 -2.6102986409317967e-18 0.0000000000000000e+00  2.1944777686011543e-18 -6.5728448790350887e-18 0.0000000000000000e+00  -2.5699230958914642e-18 -2.1902500269906351e-17 0.0000000000000000e+00  4.7424070829632272e-19 -1.2696958666420709e-17 0.0000000000000000e+00  -2.6986544546352486e-18 -1.0004962627664222e-17 0.0000000000000000e+00  -4.6882787790079823e-18 -1.9560822518142450e-18 0.0000000000000000e+00  7.2359380148253054e-19 6.7565632764666799e-18 0.0000000000000000e+00  -1.3132468780411395e-19 -2.9023248745159587e-18 0.0000000000000000e+00  3.5855287129449192e-19 -4.6419951100692319e-18 0.0000000000000000e+00  -3.1361344992997333e-19 -7.5662580743006039e-18 0.0000000000000000e+00  -2.6926770989192606e-18 -4.2330160648673416e-18 0.0000000000000000e+00  -3.5001342464155403e-18 -2.8395462841499010e-18 0.0000000000000000e+00  -1.4500418686271178e-18 -9.7012184976948482e-18 0.0000000000000000e+00  3.9122897477981509e-18 7.6319785277957026e-19 0.0000000000000000e+00  -1.5454471868191095e-18 2.3430088104355173e-18 0.0000000000000000e+00  -5.7301389186859030e-18 -5.2000562549430717e-18 0.0000000000000000e+00  8.3635469605632762e-19 2.0936020976780973e-18 0.0000000000000000e+00  -3.8767916748647526e-18 -6.6015113929456414e-18 0.0000000000000000e+00  -2.1881553084653378e-18 2.0160008553198768e-18 0.0000000000000000e+00  -1.6163498025087398e-19 -1.2453096849492196e-17 0.0000000000000000e+00  -7.3696700601746241e-20 -1.2419213579381039e-17 0.0000000000000000e+00  4.7304602249718110e-18 1.0666327178138085e-17 0.0000000000000000e+00  -2.9391402342714602e-18 3.1270256059858765e-18 0.0000000000000000e+00  -4.4859413549306973e-18 3.5034709493779331e-18 0.0000000000000000e+00  -2.3957050487867581e-19 -3.6043157496410134e-18 0.0000000000000000e+00  1.6335597516087417e-18 -6.5817666096042025e-18 0.0000000000000000e+00  -1.1763882459402392e-18 3.1626608302296979e-18 0.0000000000000000e+00  -3.4925131465044049e-18 7.0507097961943973e-18 0.0000000000000000e+00  -3.8892678132152151e-19 2.4891137854087537e-19 0.0000000000000000e+00  1.1567227515788974e-18 -4.4188310475732101e-18 0.0000000000000000e+00  -2.2542435762083047e-18 -1.1804709988672014e-17 0.0000000000000000e+00  -2.8518069745942401e-18 -1.5797624446050812e-18 0.0000000000000000e+00  -3.2427149401807335e-18 -9.3502943272920248e-18 0.0000000000000000e+00  -9.2828749903162378e-19 -4.4413631707811465e-18 0.0000000000000000e+00  -2.7024872838999571e-18 -9.2079985359525197e-18 0.0000000000000000e+00  -4.4939342905930422e-18 -4.4822398258168132e-18 0.0000000000000000e+00  6.5709778102576422e-18 7.2074741115172952e-19 0.0000000000000000e+00  -2.2500851643032834e-19 -1.1339201427810630e-17 0.0000000000000000e+00  -1.9946103539907730e-19 -5.6682677004332432e-18 0.0000000000000000e+00  -1.8459884944892283e-18 -3.9154635240963729e-19 0.0000000000000000e+00  -7.3686266722643967e-18 7.8202535447503183e-18 0.0000000000000000e+00  -1.9161815383875590e-18 -8.8020708443005501e-18 0.0000000000000000e+00  5.0067615513074129e-18 -1.8130082777372565e-17 0.0000000000000000e+00  -1.4581054944352881e-18 -9.24025635483769