<?xml version="1.0"?>
<VTKFile type="UnstructuredGrid"  version="0.1"  >
<UnstructuredGrid>
<Piece  NumberOfPoints="431" NumberOfCells="800">
<Points>
<DataArray  type="Float64"  NumberOfComponents="3"  format="ascii">-0.25 -1 0  -0.2 -1 0  -0.15 -1 0  -0.1 -1 0  -0.04999999999999999 -1 0  0 -1 0  0.04999999999999999 -1 0  0.09999999999999998 -1 0  0.15 -1 0  0.2 -1 0  0.25 -1 0  -0.25 -0.95 0  -0.2 -0.95 0  -0.15 -0.95 0  -0.1 -0.95 0  -0.04999999999999999 -0.95 0  0 -0.95 0  0.04999999999999999 -0.95 0  0.09999999999999998 -0.95 0  0.15 -0.95 0  0.2 -0.95 0  0.25 -0.95 0  -0.25 -0.9 0  -0.2 -0.9 0  -0.15 -0.9 0  -0.1 -0.9 0  -0.04999999999999999 -0.9 0  0 -0.9 0  0.04999999999999999 -0.9 0  0.09999999999999998 -0.9 0  0.15 -0.9 0  0.2 -0.9 0  0.25 -0.9 0  -0.25 -0.85 0  -0.2 -0.85 0  -0.15 -0.85 0  -0.1 -0.85 0  -0.04999999999999999 -0.85 0  0 -0.85 0  0.04999999999999999 -0.85 0  0.09999999999999998 -0.85 0  0.15 -0.85 0  0.2 -0.85 0  0.25 -0.85 0  -0.25 -0.8 0  -0.2 -0.8 0  -0.15 -0.8 0  -0.1 -0.8 0  -0.04999999999999999 -0.8 0  0 -0.8 0  0.04999999999999999 -0.8 0  0.09999999999999998 -0.8 0  0.15 -0.8 0  0.2 -0.8 0  0.25 -0.8 0  -0.25 -0.75 0  -0.2 -0.75 0  -0.15 -0.75 0  -0.1 -0.75 0  -0.04999999999999999 -0.75 0  0 -0.75 0  0.04999999999999999 -0.75 0  0.09999999999999998 -0.75 0  0.15 -0.75 0  0.2 -0.75 0  0.25 -0.75 0  -0.25 -0.7 0  -0.2 -0.7 0  -0.15 -0.7 0  -0.1 -0.7 0  -0.04999999999999999 -0.7 0  0 -0.7 0  0.04999999999999999 -0.7 0  0.09999999999999998 -0.7 0  0.15 -0.7 0  0.2 -0.7 0  0.25 -0.7 0  -0.25 -0.65 0  -0.2 -0.65 0  -0.15 -0.65 0  -0.1 -0.65 0  -0.04999999999999999 -0.65 0  0 -0.65 0  0.04999999999999999 -0.65 0  0.09999999999999998 -0.65 0  0.15 -0.65 0  0.2 -0.65 0  0.25 -0.65 0  -0.25 -0.6 0  -0.2 -0.6 0  -0.15 -0.6 0  -0.1 -0.6 0  -0.04999999999999999 -0.6 0  0 -0.6 0  0.04999999999999999 -0.6 0  0.09999999999999998 -0.6 0  0.15 -0.6 0  0.2 -0.6 0  0.25 -0.6 0  -0.25 -0.55 0  -0.2 -0.55 0  -0.15 -0.55 0  -0.1 -0.55 0  -0.04999999999999999 -0.55 0  0 -0.55 0  0.04999999999999999 -0.55 0  0.09999999999999998 -0.55 0  0.15 -0.55 0  0.2 -0.55 0  0.25 -0.55 0  -0.25 -0.5 0  -0.2 -0.5 0  -0.15 -0.5 0  -0.1 -0.5 0  -0.04999999999999999 -0.5 0  0 -0.5 0  0.04999999999999999 -0.5 0  0.09999999999999998 -0.5 0  0.15 -0.5 0  0.2 -0.5 0  0.25 -0.5 0  -0.25 -0.45 0  -0.2 -0.45 0  -0.15 -0.45 0  -0.1 -0.45 0  -0.04999999999999999 -0.45 0  0 -0.45 0  0.04999999999999999 -0.45 0  0.09999999999999998 -0.45 0  0.15 -0.45 0  0.2 -0.45 0  0.25 -0.45 0  -0.25 -0.4 0  -0.2 -0.4 0  -0.15 -0.4 0  -0.1 -0.4 0  -0.04999999999999999 -0.4 0  0 -0.4 0  0.04999999999999999 -0.4 0  0.09999999999999998 -0.4 0  0.15 -0.4 0  0.2 -0.4 0  0.25 -0.4 0  -0.25 -0.35 0  -0.2 -0.35 0  -0.15 -0.35 0  -0.1 -0.35 0  -0.04999999999999999 -0.35 0  0 -0.35 0  0.04999999999999999 -0.35 0  0.09999999999999998 -0.35 0  0.15 -0.35 0  0.2 -0.35 0  0.25 -0.35 0  -0.25 -0.3 0  -0.2 -0.3 0  -0.15 -0.3 0  -0.1 -0.3 0  -0.04999999999999999 -0.3 0  0 -0.3 0  0.04999999999999999 -0.3 0  0.09999999999999998 -0.3 0  0.15 -0.3 0  0.2 -0.3 0  0.25 -0.3 0  -0.25 -0.25 0  -0.2 -0.25 0  -0.15 -0.25 0  -0.1 -0.25 0  -0.04999999999999999 -0.25 0  0 -0.25 0  0.04999999999999999 -0.25 0  0.09999999999999998 -0.25 0  0.15 -0.25 0  0.2 -0.25 0  0.25 -0.25 0  -0.25 -0.2 0  -0.2 -0.2 0  -0.15 -0.2 0  -0.1 -0.2 0  -0.04999999999999999 -0.2 0  0 -0.2 0  0.04999999999999999 -0.2 0  0.09999999999999998 -0.2 0  0.15 -0.2 0  0.2 -0.2 0  0.25 -0.2 0  -0.25 -0.15 0  -0.2 -0.15 0  -0.15 -0.15 0  -0.1 -0.15 0  -0.04999999999999999 -0.15 0  0 -0.15 0  0.04999999999999999 -0.15 0  0.09999999999999998 -0.15 0  0.15 -0.15 0  0.2 -0.15 0  0.25 -0.15 0  -0.25 -0.09999999999999998 0  -0.2 -0.09999999999999998 0  -0.15 -0.09999999999999998 0  -0.1 -0.09999999999999998 0  -0.04999999999999999 -0.09999999999999998 0  0 -0.09999999999999998 0  0.04999999999999999 -0.09999999999999998 0  0.09999999999999998 -0.09999999999999998 0  0.15 -0.09999999999999998 0  0.2 -0.09999999999999998 0  0.25 -0.09999999999999998 0  -0.25 -0.05000000000000004 0  -0.2 -0.05000000000000004 0  -0.15 -0.05000000000000004 0  -0.1 -0.05000000000000004 0  -0.04999999999999999 -0.05000000000000004 0  0 -0.05000000000000004 0  0.04999999999999999 -0.05000000000000004 0  0.09999999999999998 -0.05000000000000004 0  0.15 -0.05000000000000004 0  0.2 -0.05000000000000004 0  0.25 -0.05000000000000004 0  -0.25 0 0  -0.2 0 0  -0.15 0 0  -0.1 0 0  -0.04999999999999999 0 0  0 0 0  0.04999999999999999 0 0  0.09999999999999998 0 0  0.15 0 0  0.2 0 0  0.25 0 0  -0.225 -0.975 0  -0.175 -0.975 0  -0.125 -0.975 0  -0.07500000000000001 -0.975 0  -0.02499999999999999 -0.975 0  0.02500000000000002 -0.975 0  0.07500000000000001 -0.975 0  0.125 -0.975 0  0.175 -0.975 0  0.225 -0.975 0  -0.225 -0.925 0  -0.175 -0.925 0  -0.125 -0.925 0  -0.07500000000000001 -0.925 0  -0.02499999999999999 -0.925 0  0.02500000000000002 -0.925 0  0.07500000000000001 -0.925 0  0.125 -0.925 0  0.175 -0.925 0  0.225 -0.925 0  -0.225 -0.875 0  -0.175 -0.875 0  -0.125 -0.875 0  -0.07500000000000001 -0.875 0  -0.02499999999999999 -0.875 0  0.02500000000000002 -0.875 0  0.07500000000000001 -0.875 0  0.125 -0.875 0  0.175 -0.875 0  0.225 -0.875 0  -0.225 -0.825 0  -0.175 -0.825 0  -0.125 -0.825 0  -0.07500000000000001 -0.825 0  -0.02499999999999999 -0.825 0  0.02500000000000002 -0.825 0  0.07500000000000001 -0.825 0  0.125 -0.825 0  0.175 -0.825 0  0.225 -0.825 0  -0.225 -0.775 0  -0.175 -0.775 0  -0.125 -0.775 0  -0.07500000000000001 -0.775 0  -0.02499999999999999 -0.775 0  0.02500000000000002 -0.775 0  0.07500000000000001 -0.775 0  0.125 -0.775 0  0.175 -0.775 0  0.225 -0.775 0  -0.225 -0.725 0  -0.175 -0.725 0  -0.125 -0.725 0  -0.07500000000000001 -0.725 0  -0.02499999999999999 -0.725 0  0.02500000000000002 -0.725 0  0.07500000000000001 -0.725 0  0.125 -0.725 0  0.175 -0.725 0  0.225 -0.725 0  -0.225 -0.675 0  -0.175 -0.675 0  -0.125 -0.675 0  -0.07500000000000001 -0.675 0  -0.02499999999999999 -0.675 0  0.02500000000000002 -0.675 0  0.07500000000000001 -0.675 0  0.125 -0.675 0  0.175 -0.675 0  0.225 -0.675 0  -0.225 -0.625 0  -0.175 -0.625 0  -0.125 -0.625 0  -0.07500000000000001 -0.625 0  -0.02499999999999999 -0.625 0  0.02500000000000002 -0.625 0  0.07500000000000001 -0.625 0  0.125 -0.625 0  0.175 -0.625 0  0.225 -0.625 0  -0.225 -0.575 0  -0.175 -0.575 0  -0.125 -0.575 0  -0.07500000000000001 -0.575 0  -0.02499999999999999 -0.575 0  0.02500000000000002 -0.575 0  0.07500000000000001 -0.575 0  0.125 -0.575 0  0.175 -0.575 0  0.225 -0.575 0  -0.225 -0.525 0  -0.175 -0.525 0  -0.125 -0.525 0  -0.07500000000000001 -0.525 0  -0.02499999999999999 -0.525 0  0.02500000000000002 -0.525 0  0.07500000000000001 -0.525 0  0.125 -0.525 0  0.175 -0.525 0  0.225 -0.525 0  -0.225 -0.475 0  -0.175 -0.475 0  -0.125 -0.475 0  -0.07500000000000001 -0.475 0  -0.02499999999999999 -0.475 0  0.02500000000000002 -0.475 0  0.07500000000000001 -0.475 0  0.125 -0.475 0  0.175 -0.475 0  0.225 -0.475 0  -0.225 -0.425 0  -0.175 -0.425 0  -0.125 -0.425 0  -0.07500000000000001 -0.425 0  -0.02499999999999999 -0.425 0  0.02500000000000002 -0.425 0  0.07500000000000001 -0.425 0  0.125 -0.425 0  0.175 -0.425 0  0.225 -0.425 0  -0.225 -0.375 0  -0.175 -0.375 0  -0.125 -0.375 0  -0.07500000000000001 -0.375 0  -0.02499999999999999 -0.375 0  0.02500000000000002 -0.375 0  0.07500000000000001 -0.375 0  0.125 -0.375 0  0.175 -0.375 0  0.225 -0.375 0  -0.225 -0.325 0  -0.175 -0.325 0  -0.125 -0.325 0  -0.07500000000000001 -0.325 0  -0.02499999999999999 -0.325 0  0.02500000000000002 -0.325 0  0.07500000000000001 -0.325 0  0.125 -0.325 0  0.175 -0.325 0  0.225 -0.325 0  -0.225 -0.275 0  -0.175 -0.275 0  -0.125 -0.275 0  -0.07500000000000001 -0.275 0  -0.02499999999999999 -0.275 0  0.02500000000000002 -0.275 0  0.07500000000000001 -0.275 0  0.125 -0.275 0  0.175 -0.275 0  0.225 -0.275 0  -0.225 -0.225 0  -0.175 -0.225 0  -0.125 -0.225 0  -0.07500000000000001 -0.225 0  -0.02499999999999999 -0.225 0  0.02500000000000002 -0.225 0  0.07500000000000001 -0.225 0  0.125 -0.225 0  0.175 -0.225 0  0.225 -0.225 0  -0.225 -0.175 0  -0.175 -0.175 0  -0.125 -0.175 0  -0.07500000000000001 -0.175 0  -0.02499999999999999 -0.175 0  0.02500000000000002 -0.175 0  0.07500000000000001 -0.175 0  0.125 -0.175 0  0.175 -0.175 0  0.225 -0.175 0  -0.225 -0.125 0  -0.175 -0.125 0  -0.125 -0.125 0  -0.07500000000000001 -0.125 0  -0.02499999999999999 -0.125 0  0.02500000000000002 -0.125 0  0.07500000000000001 -0.125 0  0.125 -0.125 0  0.175 -0.125 0  0.225 -0.125 0  -0.225 -0.07499999999999996 0  -0.175 -0.07499999999999996 0  -0.125 -0.07499999999999996 0  -0.07500000000000001 -0.07499999999999996 0  -0.02499999999999999 -0.07499999999999996 0  0.02500000000000002 -0.07499999999999996 0  0.07500000000000001 -0.07499999999999996 0  0.125 -0.07499999999999996 0  0.175 -0.07499999999999996 0  0.225 -0.07499999999999996 0  -0.225 -0.02500000000000002 0  -0.175 -0.02500000000000002 0  -0.125 -0.02500000000000002 0  -0.07500000000000001 -0.02500000000000002 0  -0.02499999999999999 -0.02500000000000002 0  0.02500000000000002 -0.02500000000000002 0  0.07500000000000001 -0.02500000000000002 0  0.125 -0.02500000000000002 0  0.175 -0.02500000000000002 0  0.225 -0.02500000000000002 0  </DataArray>
</Points>
<Cells>
[...]
<PointData  Vectors="flow"> 
<DataArray  type="Float64"  Name="flow"  NumberOfComponents="3" format="ascii">-4.1671722883331186e-01 8.3347000343953537e-01 0.0000000000000000e+00  8.0318460689723768e-05 8.3347000344031075e-01 0.0000000000000000e+00  -1.5481123468001920e-08 8.3347000343847988e-01 0.0000000000000000e+00  6.8136630481499686e-12 8.3347000344013322e-01 0.0000000000000000e+00  2.4944472323010068e-12 8.3347000343741140e-01 0.0000000000000000e+00  -9.0001818412892306e-13 8.3347000343654409e-01 0.0000000000000000e+00  -6.5108710659490347e-13 8.3347000344258937e-01 0.0000000000000000e+00  -5.5574292157707744e-13 8.3347000343955646e-01 0.0000000000000000e+00  1.5484142040658803e-08 8.3347000343884503e-01 0.0000000000000000e+00  -8.0318460406771314e-05 8.3347000344001543e-01 0.0000000000000000e+00  4.1671722883166523e-01 8.3347000344216460e-01 0.0000000000000000e+00  -4.1543262869275599e-01 2.4974839427538824e+00 0.0000000000000000e+00  8.0070864442750668e-05 2.4974839427534845e+00 0.0000000000000000e+00  -1.5433509264402526e-08 2.4974839427534157e+00 0.0000000000000000e+00  5.5451008420659246e-12 2.4974839427490934e+00 0.0000000000000000e+00  4.0985538104577788e-14 2.4974839427503208e+00 0.0000000000000000e+00  3.5610657586348163e-12 2.4974839427480360e+00 0.0000000000000000e+00  1.1384340682871431e-12 2.4974839427520461e+00 0.0000000000000000e+00  -3.6929746434199564e-12 2.4974839427497488e+00 0.0000000000000000e+00  1.5436002206599813e-08 2.4974839427538122e+00 0.0000000000000000e+00  -8.0070863155724532e-05 2.4974839427499074e+00 0.0000000000000000e+00  4.1543262869398573e-01 2.4974839427522979e+00 0.0000000000000000e+00  -4.1158674825995512e-01 4.9795700665472635e+00 0.0000000000000000e+00  7.9329606187128270e-05 4.9795700665447029e+00 0.0000000000000000e+00  -1.5293941531044946e-08 4.9795700665499076e+00 0.0000000000000000e+00  3.4269400010208196e-12 4.9795700665521538e+00 0.0000000000000000e+00  1.2221544752627934e-12 4.9795700665457963e+00 0.0000000000000000e+00  4.9717150459988863e-13 4.9795700665470433e+00 0.0000000000000000e+00  1.7202359990559170e-12 4.9795700665450502e+00 0.0000000000000000e+00  5.9660794491916400e-13 4.9795700665492539e+00 0.0000000000000000e+00  1.5292865499283501e-08 4.9795700665434062e+00 0.0000000000000000e+00  -7.9329607736019182e-05 4.9795700665441673e+00 0.0000000000000000e+00  4.1158674826042912e-01 4.9795700665407239e+00 0.0000000000000000e+00  -4.0520329866570964e-01 7.4309554850959039e+00 0.0000000000000000e+00  7.8099257550687590e-05 7.4309554851089716e+00 0.0000000000000000e+00  -1.5046265564720174e-08 7.4309554850987736e+00 0.0000000000000000e+00  -2.7964347161744496e-13 7.4309554851027650e+00 0.0000000000000000e+00  -3.1950015936042651e-12 7.4309554850995516e+00 0.0000000000000000e+00  2.6521355871652216e-12 7.4309554850985533e+00 0.0000000000000000e+00  3.6976477256039089e-12 7.4309554851048460e+00 0.0000000000000000e+00  -5.0679402767268503e-12 7.4309554851034720e+00 0.0000000000000000e+00  1.5050829105539778e-08 7.4309554850968533e+00 0.0000000000000000e+00  -7.8099254693967006e-05 7.4309554850979831e+00 0.0000000000000000e+00  4.0520329865692911e-01 7.4309554850921327e+00 0.0000000000000000e+00  -3.9632163597085718e-01 9.8365265921833718e+00 0.0000000000000000e+00  7.6387395832958126e-05 9.8365265921852991e+00 0.0000000000000000e+00  -1.4731657889060197e-08 9.8365265921851641e+00 0.0000000000000000e+00  4.2392728725354687e-12 9.8365265921783500e+00 0.0000000000000000e+00  -4.8825648054084914e-12 9.8365265921819169e+00 0.0000000000000000e+00  5.0665437255302422e-12 9.8365265921794851e+00 0.0000000000000000e+00  7.1343232843987647e-12 9.8365265921795562e+00 0.0000000000000000e+00  -6.5257741614906106e-12 9.8365265921724063e+00 0.0000000000000000e+00  1.4719713281159767e-08 9.8365265921792098e+00 0.0000000000000000e+00  -7.6387400986326933e-05 9.8365265921724205e+00 0.0000000000000000e+00  3.9632163599028042e-01 9.8365265921762575e+00 0.0000000000000000e+00  -3.8499651865197659e-01 1.2181452242011783e+01 0.0000000000000000e+00  7.4204585207826679e-05 1.2181452242000242e+01 0.0000000000000000e+00  -1.4303206341867547e-08 1.2181452242006552e+01 0.0000000000000000e+00  -1.2528999989682106e-12 1.2181452242013757e+01 0.0000000000000000e+00  -1.7421148112059995e-13 1.2181452242013826e+01 0.0000000000000000e+00  1.9106015295318492e-12 1.2181452242015574e+01 0.0000000000000000e+00  -7.0290378106794914e-12 1.2181452242002136e+01 0.0000000000000000e+00  -6.6641941958584348e-12 1.2181452242001338e+01 0.0000000000000000e+00  1.4301107386698585e-08 1.2181452242001150e+01 0.0000000000000000e+00  -7.4204582261244262e-05 1.2181452242009962e+01 0.0000000000000000e+00  3.8499651865713252e-01 1.2181452242019830e+01 0.0000000000000000e+00  -3.7129776975817963e-01 1.4451275188215639e+01 0.0000000000000000e+00  7.1564271617080398e-05 1.4451275188219686e+01 0.0000000000000000e+00  -1.3789654955746094e-08 1.4451275188217160e+01 0.0000000000000000e+00  8.6076061611027648e-12 1.4451275188218970e+01 0.0000000000000000e+00  -9.1723103807434178e-12 1.4451275188220503e+01 0.0000000000000000e+00  -4.5783668299696763e-12 1.4451275188215016e+01 0.0000000000000000e+00  -3.0452218163712857e-12 1.4451275188218068e+01 0.0000000000000000e+00  -2.2850740697415652e-12 1.4451275188230932e+01 0.0000000000000000e+00  1.3797631176224538e-08 1.4451275188235412e+01 0.0000000000000000e+00  -7.1564265309240175e-05 1.4451275188237227e+01 0.0000000000000000e+00  3.7129776975851092e-01 1.4451275188227894e+01 0.0000000000000000e+00  -3.5530984663519438e-01 1.6632001217576477e+01 0.0000000000000000e+00  6.8482747647947824e-05 1.6632001217569748e+01 0.0000000000000000e+00  -1.3203128484671579e-08 1.6632001217570057e+01 0.0000000000000000e+00  7.0589575267377726e-12 1.6632001217560944e+01 0.0000000000000000e+00  7.4490258226684525e-13 1.6632001217566717e+01 0.0000000000000000e+00  -2.3037234902305896e-12 1.6632001217573972e+01 0.0000000000000000e+00  2.8841478913794985e-12 1.6632001217580626e+01 0.0000000000000000e+00  5.6593744645662722e-12 1.6632001217575585e+01 0.0000000000000000e+00  1.3204638894537839e-08 1.6632001217584278e+01 0.0000000000000000e+00  -6.8482746957154779e-05 1.6632001217579511e+01 0.0000000000000000e+00  3.5530984663043474e-01 1.6632001217580022e+01 0.0000000000000000e+00  -3.3713132016701325e-01 1.8710185428913913e+01 0.0000000000000000e+00  6.4978995542935294e-05 1.8710185428911164e+01 0.0000000000000000e+00  -1.2527026184135887e-08 1.8710185428912066e+01 0.0000000000000000e+00  2.0497913575048601e-12 1.8710185428920429e+01 0.0000000000000000e+00  2.5524586511715352e-12 1.8710185428916745e+01 0.0000000000000000e+00  9.1614716802946905e-12 1.8710185428926064e+01 0.0000000000000000e+00  5.7587460127421151e-12 1.8710185428923779e+01 0.0000000000000000e+00  4.1472414577421888e-12 1.8710185428929758e+01 0.0000000000000000e+00  1.2532210824690586e-08 1.8710185428920077e+01 0.0000000000000000e+00  -6.4979003679638302e-05 1.8710185428924078e+01 0.0000000000000000e+00  3.3713132016440039e-01 1.8710185428922266e+01 0.0000000000000000e+00  -3.1687426697790316e-01 2.0673015125515896e+01 0.0000000000000000e+00  6.1074628091556946e-05 2.0673015125520493e+01 0.0000000000000000e+00  -1.1759739845470647e-08 2.0673015125523737e+01 0.0000000000000000e+00  6.9325671946280898e-12 2.0673015125534697e+01 0.0000000000000000e+00  1.0065210565738310e-11 2.0673015125536921e+01 0.0000000000000000e+00  -2.2884336594322956e-12 2.0673015125534295e+01 0.0000000000000000e+00  3.3154825534862813e-12 2.0673015125528043e+01 0.0000000000000000e+00  3.0885162782953588e-12 2.0673015125524365e+01 0.0000000000000000e+00  1.1768707023743419e-08 2.0673015125522916e+01 0.0000000000000000e+00  -6.1074622794657661e-05 2.0673015125530398e+01 0.0000000000000000e+00  3.1687426697767790e-01 2.0673015125538637e+01 0.0000000000000000e+00  -2.9466357861672626e-01 2.2508388809589558e+01 0.0000000000000000e+00  5.6793764311170740e-05 2.2508388809589061e+01 0.0000000000000000e+00  -1.0964483770871672e-08 2.2508388809580730e+01 0.0000000000000000e+00  3.0981877252403337e-11 2.2508388809577781e+01 0.0000000000000000e+00  -4.4972891419590237e-12 2.2508388809577784e+01 0.0000000000000000e+00  7.9062537786718498e-12 2.2508388809582559e+01 0.0000000000000000e+00  8.4965019893254555e-12 2.2508388809597829e+01 0.0000000000000000e+00  -2.0278915211486773e-11 2.2508388809593374e+01 0.0000000000000000e+00  1.0984411487030246e-08 2.2508388809599865e+01 0.0000000000000000e+00  -5.6793756118271290e-05 2.2508388809597410e+01 0.0000000000000000e+00  2.9466357862158554e-01 2.2508388809591594e+01 0.0000000000000000e+00  -2.7063619098274788e-01 2.4204990791989527e+01 0.0000000000000000e+00  5.2162436415390906e-05 2.4204990791986148e+01 0.0000000000000000e+00  -9.8804869934826799e-09 2.4204990791991889e+01 0.0000000000000000e+00  -9.6270010911763410e-11 2.4204990791994781e+01 0.0000000000000000e+00  5.6415470181194895e-11 2.4204990791995737e+01 0.0000000000000000e+00  1.1517919900600923e-11 2.4204990791991325e+01 0.0000000000000000e+00  -4.0246380116612563e-11 2.4204990791987075e+01 0.0000000000000000e+00  1.1798264487132067e-10 2.4204990791998203e+01 0.0000000000000000e+00  9.8919644850343510e-09 2.4204990792008804e+01 0.0000000000000000e+00  -5.2162446029152760e-05 2.4204990791996771e+01 0.0000000000000000e+00  2.7063619097335340e-01 2.4204990791994678e+01 0.0000000000000000e+00  -2.4494024323914240e-01 2.5752360957300077e+01 0.0000000000000000e+00  4.7211370795921330e-05 2.5752360957312721e+01 0.0000000000000000e+00  -1.0116360925092132e-08 2.5752360957320132e+01 0.0000000000000000e+00  6.4278707285973759e-10 2.5752360957309474e+01 0.0000000000000000e+00  -2.7874737658741443e-10 2.5752360957313591e+01 0.0000000000000000e+00  1.0228105436414917e-11 2.5752360957321002e+01 0.0000000000000000e+00  2.9374882489956335e-10 2.5752360957329500e+01 0.0000000000000000e+00  -6.2248568671475202e-10 2.5752360957314842e+01 0.0000000000000000e+00  1.0131097454316449e-08 2.5752360957298773e+01 0.0000000000000000e+00  -4.7211372447626538e-05 2.5752360957300752e+01 0.0000000000000000e+00  2.4494024324528496e-01 2.5752360957298606e+01 0.0000000000000000e+00  -2.1773414485696355e-01 2.7140959253839899e+01 0.0000000000000000e+00  4.1957898307364250e-05 2.7140959253842972e+01 0.0000000000000000e+00  -1.9966272885935561e-09 2.7140959253838695e+01 0.0000000000000000e+00  -3.5087745457549789e-09 2.7140959253853627e+01 0.0000000000000000e+00  1.5004221824593160e-09 2.7140959253850571e+01 0.0000000000000000e+00  1.2829270977379465e-11 2.7140959253835192e+01 0.0000000000000000e+00  -1.4842694002822079e-09 2.7140959253833223e+01 0.0000000000000000e+00  3.5108621055404589e-09 2.7140959253824121e+01 0.0000000000000000e+00  2.0041555916453729e-09 2.7140959253824022e+01 0.0000000000000000e+00  -4.1957894623811147e-05 2.7140959253834193e+01 0.0000000000000000e+00  2.1773414485601023e-01 2.7140959253821588e+01 0.0000000000000000e+00  -1.8918572218455057e-01 2.8362224511293096e+01 0.0000000000000000e+00  3.6515891010096994e-05 2.8362224511286364e+01 0.0000000000000000e+00  -4.2771736762405147e-08 2.8362224511298642e+01 0.0000000000000000e+00  1.8963847311581746e-08 2.8362224511292037e+01 0.0000000000000000e+00  -7.2498599611521983e-09 2.8362224511285870e+01 0.0000000000000000e+00  8.1363406914746837e-12 2.8362224511279585e+01 0.0000000000000000e+00  7.2413301064597639e-09 2.8362224511282598e+01 0.0000000000000000e+00  -1.8963009722453712e-08 2.8362224511284598e+01 0.0000000000000000e+00  4.2802921331885059e-08 2.8362224511287003e+01 0.0000000000000000e+00  -3.6515886753566597e-05 2.8362224511296318e+01 0.0000000000000000e+00  1.8918572219131483e-01 2.8362224511313258e+01 0.0000000000000000e+00  -1.5947040131502777e-01 2.9408627223196497e+01 0.0000000000000000e+00  3.0411008281702758e-05 2.9408627223203535e+01 0.0000000000000000e+00  2.0086371417754945e-07 2.9408627223202732e+01 0.0000000000000000e+00  -9.6057946324062327e-08 2.9408627223206953e+01 0.0000000000000000e+00  3.1125267473147309e-08 2.9408627223216598e+01 0.0000000000000000e+00  -2.1147251368636136e-12 2.9408627223221227e+01 0.0000000000000000e+00  -3.1120579336337804e-08 2.9408627223191534e+01 0.0000000000000000e+00  9.6069366123189390e-08 2.9408627223221956e+01 0.0000000000000000e+00  -2.0083225647851423e-07 2.9408627223227832e+01 0.0000000000000000e+00  -3.0410990701075943e-05 2.9408627223234678e+01 0.0000000000000000e+00  1.5947040131453630e-01 2.9408627223226116e+01 0.0000000000000000e+00  -1.2877518658112097e-01 3.0273715968855573e+01 0.0000000000000000e+00  2.6873776835856328e-05 3.0273715968870711e+01 0.0000000000000000e+00  -1.1621282040298341e-06 3.0273715968879518e+01 0.0000000000000000e+00  4.3527941211072616e-07 3.0273715968864618e+01 0.0000000000000000e+00  -1.0532235179476625e-07 3.0273715968863087e+01 0.0000000000000000e+00  -2.6987783622038308e-12 3.0273715968873052e+01 0.0000000000000000e+00  1.0532530279098693e-07 3.0273715968890070e+01 0.0000000000000000e+00  -4.3524348674782317e-07 3.0273715968884218e+01 0.0000000000000000e+00  1.1621670787470884e-06 3.0273715968879458e+01 0.0000000000000000e+00  -2.6873747056011780e-05 3.0273715968867169e+01 0.0000000000000000e+00  1.2877518659256657e-01 3.0273715968884641e+01 0.0000000000000000e+00  -9.7263867000331822e-02 3.0952157188460731e+01 0.0000000000000000e+00  5.6681702320269227e-06 3.0952157188439799e+01 0.0000000000000000e+00  5.9934423093045966e-06 3.0952157188437848e+01 0.0000000000000000e+00  -1.5165323927707411e-06 3.0952157188441117e+01 0.0000000000000000e+00  2.0179660429326132e-07 3.0952157188461619e+01 0.0000000000000000e+00  1.3268350049078806e-11 3.0952157188452524e+01 0.0000000000000000e+00  -2.0177429388609633e-07 3.0952157188455519e+01 0.0000000000000000e+00  1.5165445832897256e-06 3.0952157188446634e+01 0.0000000000000000e+00  -5.9934410694323026e-06 3.0952157188446247e+01 0.0000000000000000e+00  -5.6681352320215857e-06 3.0952157188415956e+01 0.0000000000000000e+00  9.7263867035556367e-02 3.0952157188420735e+01 0.0000000000000000e+00  -6.5310480764870935e-02 3.1439768066153547e+01 0.0000000000000000e+00  9.6057635729363458e-05 3.1439768066137095e+01 0.0000000000000000e+00  -2.4346780346491838e-05 3.1439768066131265e+01 0.0000000000000000e+00  1.7349655765966712e-06 3.1439768066133684e+01 0.0000000000000000e+00  -1.1801961347314343e-07 3.1439768066125612e+01 0.0000000000000000e+00  -1.0779233229414768e-11 3.1439768066123548e+01 0.0000000000000000e+00  1.1803469940379162e-07 3.1439768066100982e+01 0.0000000000000000e+00  -1.7349365129880940e-06 3.1439768066102069e+01 0.0000000000000000e+00  2.4346794596401433e-05 3.1439768066112290e+01 0.0000000000000000e+00  -9.6057646960070984e-05 3.1439768066119562e+01 0.0000000000000000e+00  6.5310480760268769e-02 3.1439768066105124e+01 0.0000000000000000e+00  -3.1688981918103001e-02 3.1733542318718555e+01 0.0000000000000000e+00  -4.9213156518844729e-04 3.1733542318719000e+01 0.0000000000000000e+00  -6.1126450336485815e-06 3.1733542318704867e+01 0.0000000000000000e+00  1.6162399073713072e-06 3.1733542318700831e+01 0.0000000000000000e+00  -2.3443929150518927e-07 3.1733542318697431e+01 0.0000000000000000e+00  -1.8188648752545746e-11 3.1733542318696010e+01 0.0000000000000000e+00  2.3444840044946944e-07 3.1733542318699364e+01 0.0000000000000000e+00  -1.6162146166436489e-06 3.1733542318700486e+01 0.0000000000000000e+00  6.1126610393422036e-06 3.1733542318691846e+01 0.0000000000000000e+00  4.9213156049094482e-04 3.1733542318700859e+01 0.0000000000000000e+00  3.1688981921559507e-02 3.1733542318706927e+01 0.0000000000000000e+00  -1.4077691461487154e-02 3.1831668730219906e+01 0.0000000000000000e+00  -1.1917438534906428e-03 3.1831668730239951e+01 0.0000000000000000e+00  5.1273816777043313e-05 3.1831668730241987e+01 0.0000000000000000e+00  -4.3796412752235187e-06 3.1831668730230390e+01 0.0000000000000000e+00  4.6176961486909971e-07 3.1831668730196423e+01 0.0000000000000000e+00  -6.6155915497875214e-12 3.1831668730208833e+01 0.0000000000000000e+00  -4.6176739840448663e-07 3.1831668730228984e+01 0.0000000000000000e+00  4.3796544951958132e-06 3.1831668730219370e+01 0.0000000000000000e+00  -5.1273821558369107e-05 3.1831668730203074e+01 0.0000000000000000e+00  1.1917438478741332e-03 3.1831668730204306e+01 0.0000000000000000e+00  1.4077691464641391e-02 3.1831668730194178e+01 0.0000000000000000e+00  2.0799736704934446e-01 8.3457627951409752e-01 0.0000000000000000e+00  -4.0089608118746198e-05 8.3457627951290814e-01 0.0000000000000000e+00  7.7299635195577132e-09 8.3457627951284674e-01 0.0000000000000000e+00  2.5027443611305484e-12 8.3457627951195201e-01 0.0000000000000000e+00  -1.2467565997097588e-12 8.3457627951018387e-01 0.0000000000000000e+00  3.8171806979301135e-12 8.3457627951405644e-01 0.0000000000000000e+00  -2.6301568268198258e-13 8.3457627951638058e-01 0.0000000000000000e+00  -7.7247881573904030e-09 8.3457627951305546e-01 0.0000000000000000e+00  4.0089606243622525e-05 8.3457627951190683e-01 0.0000000000000000e+00  -2.0799736704712143e-01 8.3457627951448998e-01 0.0000000000000000e+00  2.0671499411853222e-01 3.7462190935709483e+00 0.0000000000000000e+00  -3.9842441864233864e-05 3.7462190935702995e+00 0.0000000000000000e+00  7.6778931017969622e-09 3.7462190935640396e+00 0.0000000000000000e+00  4.2955425616987552e-12 3.7462190935622841e+00 0.0000000000000000e+00  -5.3067783589884131e-12 3.7462190935633544e+00 0.0000000000000000e+00  9.0489158740696842e-12 3.7462190935596551e+00 0.0000000000000000e+00  -2.9753786823417916e-12 3.7462190935595121e+00 0.0000000000000000e+00  -7.6714494563185530e-09 3.7462190935672797e+00 0.0000000000000000e+00  3.9842434930536826e-05 3.7462190935693482e+00 0.0000000000000000e+00  -2.0671499411507308e-01 3.7462190935638038e+00 0.0000000000000000e+00  2.0415815451317973e-01 6.2180302195129746e+00 0.0000000000000000e+00  -3.9349630464314916e-05 6.2180302195178756e+00 0.0000000000000000e+00  7.5868287168774263e-09 6.2180302195338335e+00 0.0000000000000000e+00  -4.5837799413409446e-12 6.2180302195313715e+00 0.0000000000000000e+00  -3.2764425325411346e-12 6.2180302195240236e+00 0.0000000000000000e+00  7.9561043430440210e-12 6.2180302195266552e+00 0.0000000000000000e+00  1.6468019929460541e-12 6.2180302195282735e+00 0.0000000000000000e+00  -7.5820327826145662e-09 6.2180302195205845e+00 0.0000000000000000e+00  3.9349629213094089e-05 6.2180302195152759e+00 0.0000000000000000e+00  -2.0415815451551103e-01 6.2180302195162351e+00 0.0000000000000000e+00  2.0034261201285269e-01 8.6515051215905459e+00 0.0000000000000000e+00  -3.8614232416558668e-05 8.6515051215884906e+00 0.0000000000000000e+00  7.4519670156529792e-09 8.6515051215674514e+00 0.0000000000000000e+00  -8.8066975506772750e-12 8.6515051215717307e+00 0.0000000000000000e+00  -5.8749381455001485e-12 8.6515051215736491e+00 0.0000000000000000e+00  1.6395164834130794e-11 8.6515051215771006e+00 0.0000000000000000e+00  -7.1596059476207045e-14 8.6515051215830301e+00 0.0000000000000000e+00  -7.4491550242867317e-09 8.6515051215808807e+00 0.0000000000000000e+00  3.8614221389557159e-05 8.6515051215785839e+00 0.0000000000000000e+00  -2.0034261200703832e-01 8.6515051215745888e+00 0.0000000000000000e+00  1.9529189068148164e-01 1.1031640617803241e+01 0.0000000000000000e+00  -3.7640753130219964e-05 1.1031640617805927e+01 0.0000000000000000e+00  7.2552487408907564e-09 1.1031640617814391e+01 0.0000000000000000e+00  -2.4122053378361253e-12 1.1031640617805428e+01 0.0000000000000000e+00  -6.0784877248958085e-12 1.1031640617810810e+01 0.0000000000000000e+00  1.6646126655033507e-11 1.1031640617807888e+01 0.0000000000000000e+00  -1.0332862489966459e-11 1.1031640617791874e+01 0.0000000000000000e+00  -7.2535820080518446e-09 1.1031640617790840e+01 0.0000000000000000e+00  3.7640733805370219e-05 1.1031640617793185e+01 0.0000000000000000e+00  -1.9529189066771535e-01 1.1031640617795738e+01 0.0000000000000000e+00  1.8903712989230936e-01 1.3343762381407556e+01 0.0000000000000000e+00  -3.6435197843898