<?xml version="1.0"?>
<VTKFile type="UnstructuredGrid"  version="0.1"  >
<UnstructuredGrid>
<Piece  NumberOfPoints="1411" NumberOfCells="2700">
<Points>
<DataArray  type="Float64"  NumberOfComponents="3"  format="ascii">-0.75 -4.5 0  -0.65 -4.5 0  -0.55 -4.5 0  -0.45 -4.5 0  -0.35 -4.5 0  -0.25 -4.5 0  -0.15 -4.5 0  -0.05000000000000004 -4.5 0  0.05000000000000004 -4.5 0  0.15 -4.5 0  0.25 -4.5 0  0.3500000000000001 -4.5 0  0.45 -4.5 0  0.55 -4.5 0  0.6499999999999999 -4.5 0  0.75 -4.5 0  -0.75 -4.4 0  -0.65 -4.4 0  -0.55 -4.4 0  -0.45 -4.4 0  -0.35 -4.4 0  -0.25 -4.4 0  -0.15 -4.4 0  -0.05000000000000004 -4.4 0  0.05000000000000004 -4.4 0  0.15 -4.4 0  0.25 -4.4 0  0.3500000000000001 -4.4 0  0.45 -4.4 0  0.55 -4.4 0  0.6499999999999999 -4.4 0  0.75 -4.4 0  -0.75 -4.3 0  -0.65 -4.3 0  -0.55 -4.3 0  -0.45 -4.3 0  -0.35 -4.3 0  -0.25 -4.3 0  -0.15 -4.3 0  -0.05000000000000004 -4.3 0  0.05000000000000004 -4.3 0  0.15 -4.3 0  0.25 -4.3 0  0.3500000000000001 -4.3 0  0.45 -4.3 0  0.55 -4.3 0  0.6499999999999999 -4.3 0  0.75 -4.3 0  -0.75 -4.2 0  -0.65 -4.2 0  -0.55 -4.2 0  -0.45 -4.2 0  -0.35 -4.2 0  -0.25 -4.2 0  -0.15 -4.2 0  -0.05000000000000004 -4.2 0  0.05000000000000004 -4.2 0  0.15 -4.2 0  0.25 -4.2 0  0.3500000000000001 -4.2 0  0.45 -4.2 0  0.55 -4.2 0  0.6499999999999999 -4.2 0  0.75 -4.2 0  -0.75 -4.1 0  -0.65 -4.1 0  -0.55 -4.1 0  -0.45 -4.1 0  -0.35 -4.1 0  -0.25 -4.1 0  -0.15 -4.1 0  -0.05000000000000004 -4.1 0  0.05000000000000004 -4.1 0  0.15 -4.1 0  0.25 -4.1 0  0.3500000000000001 -4.1 0  0.45 -4.1 0  0.55 -4.1 0  0.6499999999999999 -4.1 0  0.75 -4.1 0  -0.75 -4 0  -0.65 -4 0  -0.55 -4 0  -0.45 -4 0  -0.35 -4 0  -0.25 -4 0  -0.15 -4 0  -0.05000000000000004 -4 0  0.05000000000000004 -4 0  0.15 -4 0  0.25 -4 0  0.3500000000000001 -4 0  0.45 -4 0  0.55 -4 0  0.6499999999999999 -4 0  0.75 -4 0  -0.75 -3.9 0  -0.65 -3.9 0  -0.55 -3.9 0  -0.45 -3.9 0  -0.35 -3.9 0  -0.25 -3.9 0  -0.15 -3.9 0  -0.05000000000000004 -3.9 0  0.05000000000000004 -3.9 0  0.15 -3.9 0  0.25 -3.9 0  0.3500000000000001 -3.9 0  0.45 -3.9 0  0.55 -3.9 0  0.6499999999999999 -3.9 0  0.75 -3.9 0  -0.75 -3.8 0  -0.65 -3.8 0  -0.55 -3.8 0  -0.45 -3.8 0  -0.35 -3.8 0  -0.25 -3.8 0  -0.15 -3.8 0  -0.05000000000000004 -3.8 0  0.05000000000000004 -3.8 0  0.15 -3.8 0  0.25 -3.8 0  0.3500000000000001 -3.8 0  0.45 -3.8 0  0.55 -3.8 0  0.6499999999999999 -3.8 0  0.75 -3.8 0  -0.75 -3.7 0  -0.65 -3.7 0  -0.55 -3.7 0  -0.45 -3.7 0  -0.35 -3.7 0  -0.25 -3.7 0  -0.15 -3.7 0  -0.05000000000000004 -3.7 0  0.05000000000000004 -3.7 0  0.15 -3.7 0  0.25 -3.7 0  0.3500000000000001 -3.7 0  0.45 -3.7 0  0.55 -3.7 0  0.6499999999999999 -3.7 0  0.75 -3.7 0  -0.75 -3.6 0  -0.65 -3.6 0  -0.55 -3.6 0  -0.45 -3.6 0  -0.35 -3.6 0  -0.25 -3.6 0  -0.15 -3.6 0  -0.05000000000000004 -3.6 0  0.05000000000000004 -3.6 0  0.15 -3.6 0  0.25 -3.6 0  0.3500000000000001 -3.6 0  0.45 -3.6 0  0.55 -3.6 0  0.6499999999999999 -3.6 0  0.75 -3.6 0  -0.75 -3.5 0  -0.65 -3.5 0  -0.55 -3.5 0  -0.45 -3.5 0  -0.35 -3.5 0  -0.25 -3.5 0  -0.15 -3.5 0  -0.05000000000000004 -3.5 0  0.05000000000000004 -3.5 0  0.15 -3.5 0  0.25 -3.5 0  0.3500000000000001 -3.5 0  0.45 -3.5 0  0.55 -3.5 0  0.6499999999999999 -3.5 0  0.75 -3.5 0  -0.75 -3.4 0  -0.65 -3.4 0  -0.55 -3.4 0  -0.45 -3.4 0  -0.35 -3.4 0  -0.25 -3.4 0  -0.15 -3.4 0  -0.05000000000000004 -3.4 0  0.05000000000000004 -3.4 0  0.15 -3.4 0  0.25 -3.4 0  0.3500000000000001 -3.4 0  0.45 -3.4 0  0.55 -3.4 0  0.6499999999999999 -3.4 0  0.75 -3.4 0  -0.75 -3.3 0  -0.65 -3.3 0  -0.55 -3.3 0  -0.45 -3.3 0  -0.35 -3.3 0  -0.25 -3.3 0  -0.15 -3.3 0  -0.05000000000000004 -3.3 0  0.05000000000000004 -3.3 0  0.15 -3.3 0  0.25 -3.3 0  0.3500000000000001 -3.3 0  0.45 -3.3 0  0.55 -3.3 0  0.6499999999999999 -3.3 0  0.75 -3.3 0  -0.75 -3.2 0  -0.65 -3.2 0  -0.55 -3.2 0  -0.45 -3.2 0  -0.35 -3.2 0  -0.25 -3.2 0  -0.15 -3.2 0  -0.05000000000000004 -3.2 0  0.05000000000000004 -3.2 0  0.15 -3.2 0  0.25 -3.2 0  0.3500000000000001 -3.2 0  0.45 -3.2 0  0.55 -3.2 0  0.6499999999999999 -3.2 0  0.75 -3.2 0  -0.75 -3.1 0  -0.65 -3.1 0  -0.55 -3.1 0  -0.45 -3.1 0  -0.35 -3.1 0  -0.25 -3.1 0  -0.15 -3.1 0  -0.05000000000000004 -3.1 0  0.05000000000000004 -3.1 0  0.15 -3.1 0  0.25 -3.1 0  0.3500000000000001 -3.1 0  0.45 -3.1 0  0.55 -3.1 0  0.6499999999999999 -3.1 0  0.75 -3.1 0  -0.75 -3 0  -0.65 -3 0  -0.55 -3 0  -0.45 -3 0  -0.35 -3 0  -0.25 -3 0  -0.15 -3 0  -0.05000000000000004 -3 0  0.05000000000000004 -3 0  0.15 -3 0  0.25 -3 0  0.3500000000000001 -3 0  0.45 -3 0  0.55 -3 0  0.6499999999999999 -3 0  0.75 -3 0  -0.75 -2.9 0  -0.65 -2.9 0  -0.55 -2.9 0  -0.45 -2.9 0  -0.35 -2.9 0  -0.25 -2.9 0  -0.15 -2.9 0  -0.05000000000000004 -2.9 0  0.05000000000000004 -2.9 0  0.15 -2.9 0  0.25 -2.9 0  0.3500000000000001 -2.9 0  0.45 -2.9 0  0.55 -2.9 0  0.6499999999999999 -2.9 0  0.75 -2.9 0  -0.75 -2.8 0  -0.65 -2.8 0  -0.55 -2.8 0  -0.45 -2.8 0  -0.35 -2.8 0  -0.25 -2.8 0  -0.15 -2.8 0  -0.05000000000000004 -2.8 0  0.05000000000000004 -2.8 0  0.15 -2.8 0  0.25 -2.8 0  0.3500000000000001 -2.8 0  0.45 -2.8 0  0.55 -2.8 0  0.6499999999999999 -2.8 0  0.75 -2.8 0  -0.75 -2.7 0  -0.65 -2.7 0  -0.55 -2.7 0  -0.45 -2.7 0  -0.35 -2.7 0  -0.25 -2.7 0  -0.15 -2.7 0  -0.05000000000000004 -2.7 0  0.05000000000000004 -2.7 0  0.15 -2.7 0  0.25 -2.7 0  0.3500000000000001 -2.7 0  0.45 -2.7 0  0.55 -2.7 0  0.6499999999999999 -2.7 0  0.75 -2.7 0  -0.75 -2.6 0  -0.65 -2.6 0  -0.55 -2.6 0  -0.45 -2.6 0  -0.35 -2.6 0  -0.25 -2.6 0  -0.15 -2.6 0  -0.05000000000000004 -2.6 0  0.05000000000000004 -2.6 0  0.15 -2.6 0  0.25 -2.6 0  0.3500000000000001 -2.6 0  0.45 -2.6 0  0.55 -2.6 0  0.6499999999999999 -2.6 0  0.75 -2.6 0  -0.75 -2.5 0  -0.65 -2.5 0  -0.55 -2.5 0  -0.45 -2.5 0  -0.35 -2.5 0  -0.25 -2.5 0  -0.15 -2.5 0  -0.05000000000000004 -2.5 0  0.05000000000000004 -2.5 0  0.15 -2.5 0  0.25 -2.5 0  0.3500000000000001 -2.5 0  0.45 -2.5 0  0.55 -2.5 0  0.6499999999999999 -2.5 0  0.75 -2.5 0  -0.75 -2.4 0  -0.65 -2.4 0  -0.55 -2.4 0  -0.45 -2.4 0  -0.35 -2.4 0  -0.25 -2.4 0  -0.15 -2.4 0  -0.05000000000000004 -2.4 0  0.05000000000000004 -2.4 0  0.15 -2.4 0  0.25 -2.4 0  0.3500000000000001 -2.4 0  0.45 -2.4 0  0.55 -2.4 0  0.6499999999999999 -2.4 0  0.75 -2.4 0  -0.75 -2.3 0  -0.65 -2.3 0  -0.55 -2.3 0  -0.45 -2.3 0  -0.35 -2.3 0  -0.25 -2.3 0  -0.15 -2.3 0  -0.05000000000000004 -2.3 0  0.05000000000000004 -2.3 0  0.15 -2.3 0  0.25 -2.3 0  0.3500000000000001 -2.3 0  0.45 -2.3 0  0.55 -2.3 0  0.6499999999999999 -2.3 0  0.75 -2.3 0  -0.75 -2.2 0  -0.65 -2.2 0  -0.55 -2.2 0  -0.45 -2.2 0  -0.35 -2.2 0  -0.25 -2.2 0  -0.15 -2.2 0  -0.05000000000000004 -2.2 0  0.05000000000000004 -2.2 0  0.15 -2.2 0  0.25 -2.2 0  0.3500000000000001 -2.2 0  0.45 -2.2 0  0.55 -2.2 0  0.6499999999999999 -2.2 0  0.75 -2.2 0  -0.75 -2.1 0  -0.65 -2.1 0  -0.55 -2.1 0  -0.45 -2.1 0  -0.35 -2.1 0  -0.25 -2.1 0  -0.15 -2.1 0  -0.05000000000000004 -2.1 0  0.05000000000000004 -2.1 0  0.15 -2.1 0  0.25 -2.1 0  0.3500000000000001 -2.1 0  0.45 -2.1 0  0.55 -2.1 0  0.6499999999999999 -2.1 0  0.75 -2.1 0  -0.75 -2 0  -0.65 -2 0  -0.55 -2 0  -0.45 -2 0  -0.35 -2 0  -0.25 -2 0  -0.15 -2 0  -0.05000000000000004 -2 0  0.05000000000000004 -2 0  0.15 -2 0  0.25 -2 0  0.3500000000000001 -2 0  0.45 -2 0  0.55 -2 0  0.6499999999999999 -2 0  0.75 -2 0  -0.75 -1.9 0  -0.65 -1.9 0  -0.55 -1.9 0  -0.45 -1.9 0  -0.35 -1.9 0  -0.25 -1.9 0  -0.15 -1.9 0  -0.05000000000000004 -1.9 0  0.05000000000000004 -1.9 0  0.15 -1.9 0  0.25 -1.9 0  0.3500000000000001 -1.9 0  0.45 -1.9 0  0.55 -1.9 0  0.6499999999999999 -1.9 0  0.75 -1.9 0  -0.75 -1.8 0  -0.65 -1.8 0  -0.55 -1.8 0  -0.45 -1.8 0  -0.35 -1.8 0  -0.25 -1.8 0  -0.15 -1.8 0  -0.05000000000000004 -1.8 0  0.05000000000000004 -1.8 0  0.15 -1.8 0  0.25 -1.8 0  0.3500000000000001 -1.8 0  0.45 -1.8 0  0.55 -1.8 0  0.6499999999999999 -1.8 0  0.75 -1.8 0  -0.75 -1.7 0  -0.65 -1.7 0  -0.55 -1.7 0  -0.45 -1.7 0  -0.35 -1.7 0  -0.25 -1.7 0  -0.15 -1.7 0  -0.05000000000000004 -1.7 0  0.05000000000000004 -1.7 0  0.15 -1.7 0  0.25 -1.7 0  0.3500000000000001 -1.7 0  0.45 -1.7 0  0.55 -1.7 0  0.6499999999999999 -1.7 0  0.75 -1.7 0  -0.75 -1.6 0  -0.65 -1.6 0  -0.55 -1.6 0  -0.45 -1.6 0  -0.35 -1.6 0  -0.25 -1.6 0  -0.15 -1.6 0  -0.05000000000000004 -1.6 0  0.05000000000000004 -1.6 0  0.15 -1.6 0  0.25 -1.6 0  0.3500000000000001 -1.6 0  0.45 -1.6 0  0.55 -1.6 0  0.6499999999999999 -1.6 0  0.75 -1.6 0  -0.75 -1.5 0  -0.65 -1.5 0  -0.55 -1.5 0  -0.45 -1.5 0  -0.35 -1.5 0  -0.25 -1.5 0  -0.15 -1.5 0  -0.05000000000000004 -1.5 0  0.05000000000000004 -1.5 0  0.15 -1.5 0  0.25 -1.5 0  0.3500000000000001 -1.5 0  0.45 -1.5 0  0.55 -1.5 0  0.6499999999999999 -1.5 0  0.75 -1.5 0  -0.75 -1.4 0  -0.65 -1.4 0  -0.55 -1.4 0  -0.45 -1.4 0  -0.35 -1.4 0  -0.25 -1.4 0  -0.15 -1.4 0  -0.05000000000000004 -1.4 0  0.05000000000000004 -1.4 0  0.15 -1.4 0  0.25 -1.4 0  0.3500000000000001 -1.4 0  0.45 -1.4 0  0.55 -1.4 0  0.6499999999999999 -1.4 0  0.75 -1.4 0  -0.75 -1.3 0  -0.65 -1.3 0  -0.55 -1.3 0  -0.45 -1.3 0  -0.35 -1.3 0  -0.25 -1.3 0  -0.15 -1.3 0  -0.05000000000000004 -1.3 0  0.05000000000000004 -1.3 0  0.15 -1.3 0  0.25 -1.3 0  0.3500000000000001 -1.3 0  0.45 -1.3 0  0.55 -1.3 0  0.6499999999999999 -1.3 0  0.75 -1.3 0  -0.75 -1.2 0  -0.65 -1.2 0  -0.55 -1.2 0  -0.45 -1.2 0  -0.35 -1.2 0  -0.25 -1.2 0  -0.15 -1.2 0  -0.05000000000000004 -1.2 0  0.05000000000000004 -1.2 0  0.15 -1.2 0  0.25 -1.2 0  0.3500000000000001 -1.2 0  0.45 -1.2 0  0.55 -1.2 0  0.6499999999999999 -1.2 0  0.75 -1.2 0  -0.75 -1.1 0  -0.65 -1.1 0  -0.55 -1.1 0  -0.45 -1.1 0  -0.35 -1.1 0  -0.25 -1.1 0  -0.15 -1.1 0  -0.05000000000000004 -1.1 0  0.05000000000000004 -1.1 0  0.15 -1.1 0  0.25 -1.1 0  0.3500000000000001 -1.1 0  0.45 -1.1 0  0.55 -1.1 0  0.6499999999999999 -1.1 0  0.75 -1.1 0  -0.75 -1 0  -0.65 -1 0  -0.55 -1 0  -0.45 -1 0  -0.35 -1 0  -0.25 -1 0  -0.15 -1 0  -0.05000000000000004 -1 0  0.05000000000000004 -1 0  0.15 -1 0  0.25 -1 0  0.3500000000000001 -1 0  0.45 -1 0  0.55 -1 0  0.6499999999999999 -1 0  0.75 -1 0  -0.75 -0.8999999999999999 0  -0.65 -0.899999
[...]
<PointData  Vectors="flow"> 
<DataArray  type="Float64"  Name="flow"  NumberOfComponents="3" format="ascii">-1.1216053768907020e-09 2.2432486567400852e-09 0.0000000000000000e+00  8.6070211021028898e-14 2.2432486567429154e-09 0.0000000000000000e+00  -6.0301255457333149e-18 2.2432486567394884e-09 0.0000000000000000e+00  -7.0049376065483988e-22 2.2432486567434275e-09 0.0000000000000000e+00  2.6191718410723782e-21 2.2432486567377563e-09 0.0000000000000000e+00  -3.9254122373635695e-21 2.2432486567420300e-09 0.0000000000000000e+00  -4.7505084811911545e-21 2.2432486567428658e-09 0.0000000000000000e+00  -1.7495052200464628e-21 2.2432486567400013e-09 0.0000000000000000e+00  3.6054628367575350e-22 2.2432486567463987e-09 0.0000000000000000e+00  4.7850587790229086e-22 2.2432486567392105e-09 0.0000000000000000e+00  1.4882799133278430e-21 2.2432486567400509e-09 0.0000000000000000e+00  4.3400938416731777e-21 2.2432486567313101e-09 0.0000000000000000e+00  -1.2594221994399388e-21 2.2432486567420535e-09 0.0000000000000000e+00  6.0290577869634898e-18 2.2432486567471940e-09 0.0000000000000000e+00  -8.6070210072990163e-14 2.2432486567455500e-09 0.0000000000000000e+00  1.1216053768879341e-09 2.2432486567451042e-09 0.0000000000000000e+00  -1.1202284464717979e-09 6.7266099073280859e-09 0.0000000000000000e+00  8.5973729401557189e-14 6.7266099073296873e-09 0.0000000000000000e+00  -6.0292359486954245e-18 6.7266099073310190e-09 0.0000000000000000e+00  -9.8087024734799757e-22 6.7266099073293672e-09 0.0000000000000000e+00  -1.6695056325876046e-21 6.7266099073272471e-09 0.0000000000000000e+00  -4.3385245322611214e-22 6.7266099073288039e-09 0.0000000000000000e+00  -6.0855283422988757e-21 6.7266099073287898e-09 0.0000000000000000e+00  -2.4480808646453857e-22 6.7266099073302738e-09 0.0000000000000000e+00  1.4088156677883307e-22 6.7266099073271379e-09 0.0000000000000000e+00  -7.1996366736039212e-22 6.7266099073269576e-09 0.0000000000000000e+00  1.9478611255226876e-21 6.7266099073300446e-09 0.0000000000000000e+00  3.4958115695776389e-21 6.7266099073305451e-09 0.0000000000000000e+00  7.6873348907789574e-22 6.7266099073298056e-09 0.0000000000000000e+00  6.0305417567778979e-18 6.7266099073290578e-09 0.0000000000000000e+00  -8.5973727477049903e-14 6.7266099073290545e-09 0.0000000000000000e+00  1.1202284464703890e-09 6.7266099073315427e-09 0.0000000000000000e+00  -1.1161007426477484e-09 1.3436703426870207e-08 0.0000000000000000e+00  8.5684293838899044e-14 1.3436703426867377e-08 0.0000000000000000e+00  -6.0289806838964173e-18 1.3436703426866469e-08 0.0000000000000000e+00  -2.5361239285290253e-21 1.3436703426867709e-08 0.0000000000000000e+00  9.0347126602861634e-22 1.3436703426868588e-08 0.0000000000000000e+00  -2.2130905155150477e-22 1.3436703426868758e-08 0.0000000000000000e+00  -2.9323358895198671e-21 1.3436703426867319e-08 0.0000000000000000e+00  -3.8256087540211835e-21 1.3436703426871805e-08 0.0000000000000000e+00  -2.4807804215840331e-21 1.3436703426868007e-08 0.0000000000000000e+00  1.1923243665821441e-21 1.3436703426868594e-08 0.0000000000000000e+00  3.0464289135301191e-21 1.3436703426866837e-08 0.0000000000000000e+00  2.9064507310297882e-21 1.3436703426865494e-08 0.0000000000000000e+00  7.3671041579411170e-22 1.3436703426864217e-08 0.0000000000000000e+00  6.0288176919151069e-18 1.3436703426866905e-08 0.0000000000000000e+00  -8.5684291984549021e-14 1.3436703426869036e-08 0.0000000000000000e+00  1.1161007426507880e-09 1.3436703426867608e-08 0.0000000000000000e+00  -1.1092315272760418e-09 2.0113801219017971e-08 0.0000000000000000e+00  8.5201943714264328e-14 2.0113801219018719e-08 0.0000000000000000e+00  -6.0244088373652652e-18 2.0113801219017399e-08 0.0000000000000000e+00  3.4307452943277226e-21 2.0113801219021482e-08 0.0000000000000000e+00  -1.6872850537004340e-21 2.0113801219022825e-08 0.0000000000000000e+00  -3.9992037264290559e-21 2.0113801219021518e-08 0.0000000000000000e+00  -1.3220099888869416e-21 2.0113801219019635e-08 0.0000000000000000e+00  -3.2805182267245550e-21 2.0113801219018653e-08 0.0000000000000000e+00  -2.2665477313977210e-21 2.0113801219017521e-08 0.0000000000000000e+00  -1.0960053350706248e-21 2.0113801219014583e-08 0.0000000000000000e+00  2.6159536653076401e-21 2.0113801219013067e-08 0.0000000000000000e+00  5.3107229292708504e-22 2.0113801219013259e-08 0.0000000000000000e+00  1.3187753456511225e-21 2.0113801219016876e-08 0.0000000000000000e+00  6.0302499350165775e-18 2.0113801219019602e-08 0.0000000000000000e+00  -8.5201942009462238e-14 2.0113801219020942e-08 0.0000000000000000e+00  1.1092315272766448e-09 2.0113801219020909e-08 0.0000000000000000e+00  -1.0996362352821122e-09 2.6741498035307352e-08 0.0000000000000000e+00  8.4526775086482266e-14 2.6741498035306412e-08 0.0000000000000000e+00  -6.0199633452869596e-18 2.6741498035305628e-08 0.0000000000000000e+00  1.3700408745527156e-21 2.6741498035301667e-08 0.0000000000000000e+00  8.8233637646291009e-22 2.6741498035301634e-08 0.0000000000000000e+00  -1.5692832934093198e-21 2.6741498035302703e-08 0.0000000000000000e+00  -4.9757328811151787e-21 2.6741498035304539e-08 0.0000000000000000e+00  -6.5623688539793533e-21 2.6741498035299232e-08 0.0000000000000000e+00  -5.6784443686433642e-21 2.6741498035295738e-08 0.0000000000000000e+00  -2.3440095292591537e-21 2.6741498035298676e-08 0.0000000000000000e+00  -3.9219993046483674e-22 2.6741498035294464e-08 0.0000000000000000e+00  5.3818822422655063e-21 2.6741498035299457e-08 0.0000000000000000e+00  9.1686700506634841e-21 2.6741498035303193e-08 0.0000000000000000e+00  6.0226154796322755e-18 2.6741498035300178e-08 0.0000000000000000e+00  -8.4526774940435259e-14 2.6741498035297293e-08 0.0000000000000000e+00  1.0996362352792589e-09 2.6741498035297455e-08 0.0000000000000000e+00  -1.0873364717884179e-09 3.3303499748863755e-08 0.0000000000000000e+00  8.3658935560981737e-14 3.3303499748864351e-08 0.0000000000000000e+00  -6.0141446638046166e-18 3.3303499748863497e-08 0.0000000000000000e+00  -1.0039982601492792e-21 3.3303499748860532e-08 0.0000000000000000e+00  -1.5624747846372249e-21 3.3303499748859493e-08 0.0000000000000000e+00  -2.3760389395534942e-21 3.3303499748852022e-08 0.0000000000000000e+00  -6.7594953611346327e-21 3.3303499748854173e-08 0.0000000000000000e+00  -8.1227131107385137e-21 3.3303499748854511e-08 0.0000000000000000e+00  -1.6264893964778009e-21 3.3303499748857449e-08 0.0000000000000000e+00  -3.0907330543318985e-21 3.3303499748856092e-08 0.0000000000000000e+00  4.6874501003526005e-22 3.3303499748858044e-08 0.0000000000000000e+00  1.1617472743660473e-20 3.3303499748855735e-08 0.0000000000000000e+00  6.8295496869997239e-22 3.3303499748855715e-08 0.0000000000000000e+00  6.0132714446218584e-18 3.3303499748856939e-08 0.0000000000000000e+00  -8.3658936532876396e-14 3.3303499748852373e-08 0.0000000000000000e+00  1.0873364717863655e-09 3.3303499748852658e-08 0.0000000000000000e+00  -1.0723600070860142e-09 3.9783660361599872e-08 0.0000000000000000e+00  8.2598691872066494e-14 3.9783660361602744e-08 0.0000000000000000e+00  -6.0037094755677974e-18 3.9783660361605557e-08 0.0000000000000000e+00  -4.0950445444061818e-21 3.9783660361601381e-08 0.0000000000000000e+00  -2.0191555793595878e-21 3.9783660361601275e-08 0.0000000000000000e+00  -4.9928630962730186e-21 3.9783660361598086e-08 0.0000000000000000e+00  -4.8271940888442722e-21 3.9783660361604299e-08 0.0000000000000000e+00  -7.5413695589743017e-21 3.9783660361600640e-08 0.0000000000000000e+00  -5.8855325106448620e-21 3.9783660361598397e-08 0.0000000000000000e+00  -1.0455879885723338e-21 3.9783660361594386e-08 0.0000000000000000e+00  1.6456920967275369e-21 3.9783660361602526e-08 0.0000000000000000e+00  3.9280676168941901e-21 3.9783660361597576e-08 0.0000000000000000e+00  6.0888065526588470e-21 3.9783660361591614e-08 0.0000000000000000e+00  6.0005563585482224e-18 3.9783660361592249e-08 0.0000000000000000e+00  -8.2598695753791656e-14 3.9783660361592256e-08 0.0000000000000000e+00  1.0723600070823473e-09 3.9783660361589529e-08 0.0000000000000000e+00  -1.0547407682536980e-09 4.6166018971685119e-08 0.0000000000000000e+00  8.1346436863453055e-14 4.6166018971679322e-08 0.0000000000000000e+00  -5.9875107098387181e-18 4.6166018971676013e-08 0.0000000000000000e+00  -4.3058480972732398e-21 4.6166018971674451e-08 0.0000000000000000e+00  -6.3344686534122967e-21 4.6166018971674954e-08 0.0000000000000000e+00  -2.4758999580828324e-21 4.6166018971678554e-08 0.0000000000000000e+00  -1.2973204967643849e-21 4.6166018971671990e-08 0.0000000000000000e+00  -1.1084352131658496e-20 4.6166018971671374e-08 0.0000000000000000e+00  -5.2781396382405732e-21 4.6166018971678111e-08 0.0000000000000000e+00  5.6415861446198895e-22 4.6166018971679342e-08 0.0000000000000000e+00  2.1189497191677115e-21 4.6166018971674101e-08 0.0000000000000000e+00  1.0696787784470742e-21 4.6166018971672268e-08 0.0000000000000000e+00  3.3335723301837888e-22 4.6166018971674670e-08 0.0000000000000000e+00  5.9831481678267393e-18 4.6166018971671837e-08 0.0000000000000000e+00  -8.1346440403714877e-14 4.6166018971673227e-08 0.0000000000000000e+00  1.0547407682450664e-09 4.6166018971668582e-08 0.0000000000000000e+00  -1.0345188263009796e-09 5.2434836677714509e-08 0.0000000000000000e+00  7.9902760129484778e-14 5.2434836677717612e-08 0.0000000000000000e+00  -5.9622318254634118e-18 5.2434836677719068e-08 0.0000000000000000e+00  -7.6660489516386077e-21 5.2434836677721278e-08 0.0000000000000000e+00  1.8309767451444561e-22 5.2434836677711458e-08 0.0000000000000000e+00  -5.4616916078267796e-21 5.2434836677719598e-08 0.0000000000000000e+00  -1.1835943877272920e-20 5.2434836677714939e-08 0.0000000000000000e+00  -3.4692804344823950e-21 5.2434836677717195e-08 0.0000000000000000e+00  -8.0243662080238695e-24 5.2434836677715501e-08 0.0000000000000000e+00  -4.5540116262777831e-21 5.2434836677719512e-08 0.0000000000000000e+00  -4.1636731478354749e-21 5.2434836677712815e-08 0.0000000000000000e+00  6.6164581748443629e-22 5.2434836677709069e-08 0.0000000000000000e+00  3.7200888029269051e-21 5.2434836677710982e-08 0.0000000000000000e+00  5.9537289995519700e-18 5.2434836677706833e-08 0.0000000000000000e+00  -7.9902767491494416e-14 5.2434836677704093e-08 0.0000000000000000e+00  1.0345188262941391e-09 5.2434836677707157e-08 0.0000000000000000e+00  -1.0117403770510361e-09 5.8574633387849060e-08 0.0000000000000000e+00  7.8268510521986668e-14 5.8574633387847260e-08 0.0000000000000000e+00  -5.9218897439864078e-18 5.8574633387847220e-08 0.0000000000000000e+00  -6.9723177959554419e-21 5.8574633387852164e-08 0.0000000000000000e+00  -4.5890286086466743e-21 5.8574633387859006e-08 0.0000000000000000e+00  -2.4600565902952466e-21 5.8574633387852991e-08 0.0000000000000000e+00  -4.8560316910486607e-21 5.8574633387857682e-08 0.0000000000000000e+00  -1.0838700088905698e-20 5.8574633387862586e-08 0.0000000000000000e+00  -2.6041123393126421e-21 5.8574633387854294e-08 0.0000000000000000e+00  -2.3370132525105253e-21 5.8574633387851661e-08 0.0000000000000000e+00  -4.7964251684668391e-21 5.8574633387857219e-08 0.0000000000000000e+00  -1.5326272138618263e-22 5.8574633387861918e-08 0.0000000000000000e+00  -1.6688846479922833e-21 5.8574633387851634e-08 0.0000000000000000e+00  5.9157765698606825e-18 5.8574633387851608e-08 0.0000000000000000e+00  -7.8268519967628322e-14 5.8574633387843931e-08 0.0000000000000000e+00  1.0117403770450551e-09 5.8574633387841139e-08 0.0000000000000000e+00  -9.8645771433738922e-10 6.4570224491713843e-08 0.0000000000000000e+00  7.6444815728724042e-14 6.4570224491713194e-08 0.0000000000000000e+00  -5.8771867906913974e-18 6.4570224491710958e-08 0.0000000000000000e+00  6.6956322475462558e-22 6.4570224491708403e-08 0.0000000000000000e+00  -2.0389432711123196e-21 6.4570224491711911e-08 0.0000000000000000e+00  -4.7460801191805183e-21 6.4570224491712863e-08 0.0000000000000000e+00  9.1990323845383432e-22 6.4570224491714108e-08 0.0000000000000000e+00  -5.0721120138859871e-21 6.4570224491713869e-08 0.0000000000000000e+00  -1.1660293580488904e-20 6.4570224491714558e-08 0.0000000000000000e+00  -5.7184460766460677e-21 6.4570224491708642e-08 0.0000000000000000e+00  2.0956438607479471e-21 6.4570224491701111e-08 0.0000000000000000e+00  -3.2872056066536596e-21 6.4570224491697617e-08 0.0000000000000000e+00  -7.5067615518731861e-21 6.4570224491696796e-08 0.0000000000000000e+00  5.8660430077272562e-18 6.4570224491698887e-08 0.0000000000000000e+00  -7.6444828418025852e-14 6.4570224491704764e-08 0.0000000000000000e+00  9.8645771433307444e-10 6.4570224491707345e-08 0.0000000000000000e+00  -9.5872919334095971e-10 7.0406757342790695e-08 0.0000000000000000e+00  7.4433179962143512e-14 7.0406757342790814e-08 0.0000000000000000e+00  -5.8202734868263114e-18 7.0406757342789875e-08 0.0000000000000000e+00  -9.4386276155998816e-22 7.0406757342791357e-08 0.0000000000000000e+00  -4.1857856724583250e-22 7.0406757342788988e-08 0.0000000000000000e+00  3.0807934115890890e-22 7.0406757342799113e-08 0.0000000000000000e+00  -7.2891809514404218e-21 7.0406757342790417e-08 0.0000000000000000e+00  -1.1895519422395334e-20 7.0406757342782225e-08 0.0000000000000000e+00  -8.4989514742044145e-21 7.0406757342775779e-08 0.0000000000000000e+00  -1.0476433188121372e-20 7.0406757342781179e-08 0.0000000000000000e+00  -9.8887678008416541e-21 7.0406757342779657e-08 0.0000000000000000e+00  -4.1980332027623418e-21 7.0406757342777222e-08 0.0000000000000000e+00  -4.9606004796715006e-21 7.0406757342783284e-08 0.0000000000000000e+00  5.8165932397085385e-18 7.0406757342777698e-08 0.0000000000000000e+00  -7.4433185348152154e-14 7.0406757342791211e-08 0.0000000000000000e+00  9.5872919333755318e-10 7.0406757342791317e-08 0.0000000000000000e+00  -9.2861918245329280e-10 7.6069747487203505e-08 0.0000000000000000e+00  7.2235543626264901e-14 7.6069747487202433e-08 0.0000000000000000e+00  -5.7396252646296838e-18 7.6069747487210282e-08 0.0000000000000000e+00  -7.7949609039129628e-22 7.6069747487210957e-08 0.0000000000000000e+00  2.6951972988951439e-21 7.6069747487214649e-08 0.0000000000000000e+00  -3.5521286681331669e-21 7.6069747487203479e-08 0.0000000000000000e+00  -1.1481195480470454e-20 7.6069747487208151e-08 0.0000000000000000e+00  -1.9130170730262525e-20 7.6069747487206735e-08 0.0000000000000000e+00  -9.2573863191817658e-21 7.6069747487210004e-08 0.0000000000000000e+00  -5.1493668486552469e-21 7.6069747487201957e-08 0.0000000000000000e+00  -8.3917755756879121e-21 7.6069747487209991e-08 0.0000000000000000e+00  -1.7652805595263514e-21 7.6069747487200170e-08 0.0000000000000000e+00  2.5793964757459762e-22 7.6069747487204353e-08 0.0000000000000000e+00  5.7326055124278744e-18 7.6069747487207066e-08 0.0000000000000000e+00  -7.2235543325286533e-14 7.6069747487199191e-08 0.0000000000000000e+00  9.2861918244846807e-10 7.6069747487204842e-08 0.0000000000000000e+00  -8.9619800128637023e-10 8.1545114562863899e-08 0.0000000000000000e+00  6.9854319171465518e-14 8.1545114562867512e-08 0.0000000000000000e+00  -5.6464543076827354e-18 8.1545114562864759e-08 0.0000000000000000e+00  3.1312404963605850e-21 8.1545114562866532e-08 0.0000000000000000e+00  -5.7559463239924497e-21 8.1545114562866744e-08 0.0000000000000000e+00  -6.6287397865170805e-21 8.1545114562863621e-08 0.0000000000000000e+00  -5.7516647654793902e-21 8.1545114562862707e-08 0.0000000000000000e+00  -1.1545370940987597e-20 8.1545114562865513e-08 0.0000000000000000e+00  -1.5050618530362086e-20 8.1545114562872342e-08 0.0000000000000000e+00  -1.1382945194344227e-20 8.1545114562861702e-08 0.0000000000000000e+00  -4.0218389785568621e-21 8.1545114562860180e-08 0.0000000000000000e+00  -1.2921279411723987e-20 8.1545114562865262e-08 0.0000000000000000e+00  -7.2011669926182893e-22 8.1545114562851603e-08 0.0000000000000000e+00  5.6446743771996151e-18 8.1545114562854674e-08 0.0000000000000000e+00  -6.9854315694000709e-14 8.1545114562866175e-08 0.0000000000000000e+00  8.9619800128788015e-10 8.1545114562861291e-08 0.0000000000000000e+00  -8.6154184318494638e-10 8.6819217781100112e-08 0.0000000000000000e+00  6.7292473318136861e-14 8.6819217781098074e-08 0.0000000000000000e+00  -5.5354908026307317e-18 8.6819217781092502e-08 0.0000000000000000e+00  2.6098461692142121e-21 8.6819217781094686e-08 0.0000000000000000e+00  7.6337208154520155e-22 8.6819217781093204e-08 0.0000000000000000e+00  -5.5741389056237970e-21 8.6819217781100271e-08 0.0000000000000000e+00  -1.1333368446234846e-20 8.6819217781103169e-08 0.0000000000000000e+00  -1.0586944113689972e-20 8.6819217781097942e-08 0.0000000000000000e+00  -1.2337800384708212e-20 8.6819217781096698e-08 0.0000000000000000e+00  -1.7092507486160771e-20 8.6819217781104334e-08 0.0000000000000000e+00  -6.5626877706924516e-21 8.6819217781099768e-08 0.0000000000000000e+00  -9.8069120235590201e-21 8.6819217781094249e-08 0.0000000000000000e+00  -3.1808850457484292e-21 8.6819217781104784e-08 0.0000000000000000e+00  5.5432334963703945e-18 8.6819217781102336e-08 0.0000000000000000e+00  -6.7292470623703579e-14 8.6819217781102653e-08 0.0000000000000000e+00  8.6154184318141680e-10 8.6819217781097267e-08 0.0000000000000000e+00  -8.2473268010197467e-10 9.1878890891081039e-08 0.0000000000000000e+00  6.4553574549643733e-14 9.1878890891077479e-08 0.0000000000000000e+00  -5.4075448273918347e-18 9.1878890891067368e-08 0.0000000000000000e+00  3.4658341598375565e-21 9.1878890891064787e-08 0.0000000000000000e+00  -5.4294739585035054e-21 9.1878890891062021e-08 0.0000000000000000e+00  3.0740710120970288e-21 9.1878890891059784e-08 0.0000000000000000e+00  -6.6456403475836675e-21 9.1878890891070637e-08 0.0000000000000000e+00  -1.4599367110819454e-20 9.1878890891068320e-08 0.0000000000000000e+00  -7.1237427174712441e-21 9.1878890891067606e-08 0.0000000000000000e+00  -1.1048923646678334e-20 9.1878890891076526e-08 0.0000000000000000e+00  -1.2949912773840852e-20 9.1878890891066243e-08 0.0000000000000000e+00  -8.5451527614287810e-21 9.1878890891072887e-08 0.0000000000000000e+00  -1.4059879443911500e-21 9.1878890891067023e-08 0.0000000000000000e+00  5.4005483305632017e-18 9.1878890891068493e-08 0.0000000000000000e+00  -6.4553579838774034e-14 9.1878890891059850e-08 0.0000000000000000e+00  8.2473268009415906e-10 9.1878890891067804e-08 0.0000000000000000e+00  -7.8585814795192060e-10 9.6711476515707822e-08 0.0000000000000000e+00  6.1641879502357125e-14 9.6711476515711144e-08 0.0000000000000000e+00  -5.2590521590873951e-18 9.6711476515716014e-08 0.0000000000000000e+00  -5.3772322527366308e-22 9.6711476515714082e-08 0.0000000000000000e+00  -1.2686817577134405e-21 9.6711476515713500e-08 0.0000000000000000e+00  5.7182952172520210e-21 9.6711476515730454e-08 0.0000000000000000e+00  -6.2066662316113694e-21 9.6711476515715763e-08 0.0000000000000000e+00  -1.9505249928534113e-20 9.6711476515730957e-08 0.0000000000000000e+00  -4.6664655259905951e-21 9.6711476515715657e-08 0.0000000000000000e+00  -1.5099553802352374e-20 9.6711476515716186e-08 0.0000000000000000e+00  -1.3860232732424685e-20 9.6711476515711581e-08 0.0000000000000000e+00  -2.3222665707081998e-21 9.6711476515721891e-08 0.0000000000000000e+00  -5.9376693952705375e-21 9.6711476515718291e-08 0.0000000000000000e+00  5.2455168606193195e-18 9.6711476515713791e-08 0.0000000000000000e+00  -6.1641894926947576e-14 9.6711476515706962e-08 0.0000000000000000e+00  7.8585814795898141e-10 9.6711476515705082e-08 0.0000000000000000e+00  -7.4501141111050049e-10 1.0130485973777716e-07 0.0000000000000000e+00  5.8562324111099399e-14 1.0130485973777133e-07 0.0000000000000000e+00  -5.0722370512319401e-18 1.0130485973778806e-07 0.0000000000000000e+00  -4.0358154571615740e-21 1.0130485973778373e-07 0.0000000000000000e+00  1.2799670612714866e-20 1.0130485973778602e-07 0.0000000000000000e+00  2.9621890589609105e-21 1.0130485973779162e-07 0.0000000000000000e+00  2.1181307741842899e-23 1.0130485973777990e-07 0.0000000000000000e+00  -5.1743138786182358e-21 1.0130485973779154e-07 0.0000000000000000e+00  -2.5466817260061134e-20 1.0130485973780337e-07 0.0000000000000000e+00  -1.6762321383458235e-20 1.0130485973778855e