<?xml version="1.0"?>
<VTKFile type="UnstructuredGrid"  version="0.1"  >
<UnstructuredGrid>
<Piece  NumberOfPoints="431" NumberOfCells="800">
<Points>
<DataArray  type="Float64"  NumberOfComponents="3"  format="ascii">-0.75 -3 0  -0.6 -3 0  -0.45 -3 0  -0.3 -3 0  -0.15 -3 0  0 -3 0  0.15 -3 0  0.3 -3 0  0.45 -3 0  0.6000000000000001 -3 0  0.75 -3 0  -0.75 -2.85 0  -0.6 -2.85 0  -0.45 -2.85 0  -0.3 -2.85 0  -0.15 -2.85 0  0 -2.85 0  0.15 -2.85 0  0.3 -2.85 0  0.45 -2.85 0  0.6000000000000001 -2.85 0  0.75 -2.85 0  -0.75 -2.7 0  -0.6 -2.7 0  -0.45 -2.7 0  -0.3 -2.7 0  -0.15 -2.7 0  0 -2.7 0  0.15 -2.7 0  0.3 -2.7 0  0.45 -2.7 0  0.6000000000000001 -2.7 0  0.75 -2.7 0  -0.75 -2.55 0  -0.6 -2.55 0  -0.45 -2.55 0  -0.3 -2.55 0  -0.15 -2.55 0  0 -2.55 0  0.15 -2.55 0  0.3 -2.55 0  0.45 -2.55 0  0.6000000000000001 -2.55 0  0.75 -2.55 0  -0.75 -2.4 0  -0.6 -2.4 0  -0.45 -2.4 0  -0.3 -2.4 0  -0.15 -2.4 0  0 -2.4 0  0.15 -2.4 0  0.3 -2.4 0  0.45 -2.4 0  0.6000000000000001 -2.4 0  0.75 -2.4 0  -0.75 -2.25 0  -0.6 -2.25 0  -0.45 -2.25 0  -0.3 -2.25 0  -0.15 -2.25 0  0 -2.25 0  0.15 -2.25 0  0.3 -2.25 0  0.45 -2.25 0  0.6000000000000001 -2.25 0  0.75 -2.25 0  -0.75 -2.1 0  -0.6 -2.1 0  -0.45 -2.1 0  -0.3 -2.1 0  -0.15 -2.1 0  0 -2.1 0  0.15 -2.1 0  0.3 -2.1 0  0.45 -2.1 0  0.6000000000000001 -2.1 0  0.75 -2.1 0  -0.75 -1.95 0  -0.6 -1.95 0  -0.45 -1.95 0  -0.3 -1.95 0  -0.15 -1.95 0  0 -1.95 0  0.15 -1.95 0  0.3 -1.95 0  0.45 -1.95 0  0.6000000000000001 -1.95 0  0.75 -1.95 0  -0.75 -1.8 0  -0.6 -1.8 0  -0.45 -1.8 0  -0.3 -1.8 0  -0.15 -1.8 0  0 -1.8 0  0.15 -1.8 0  0.3 -1.8 0  0.45 -1.8 0  0.6000000000000001 -1.8 0  0.75 -1.8 0  -0.75 -1.65 0  -0.6 -1.65 0  -0.45 -1.65 0  -0.3 -1.65 0  -0.15 -1.65 0  0 -1.65 0  0.15 -1.65 0  0.3 -1.65 0  0.45 -1.65 0  0.6000000000000001 -1.65 0  0.75 -1.65 0  -0.75 -1.5 0  -0.6 -1.5 0  -0.45 -1.5 0  -0.3 -1.5 0  -0.15 -1.5 0  0 -1.5 0  0.15 -1.5 0  0.3 -1.5 0  0.45 -1.5 0  0.6000000000000001 -1.5 0  0.75 -1.5 0  -0.75 -1.35 0  -0.6 -1.35 0  -0.45 -1.35 0  -0.3 -1.35 0  -0.15 -1.35 0  0 -1.35 0  0.15 -1.35 0  0.3 -1.35 0  0.45 -1.35 0  0.6000000000000001 -1.35 0  0.75 -1.35 0  -0.75 -1.2 0  -0.6 -1.2 0  -0.45 -1.2 0  -0.3 -1.2 0  -0.15 -1.2 0  0 -1.2 0  0.15 -1.2 0  0.3 -1.2 0  0.45 -1.2 0  0.6000000000000001 -1.2 0  0.75 -1.2 0  -0.75 -1.05 0  -0.6 -1.05 0  -0.45 -1.05 0  -0.3 -1.05 0  -0.15 -1.05 0  0 -1.05 0  0.15 -1.05 0  0.3 -1.05 0  0.45 -1.05 0  0.6000000000000001 -1.05 0  0.75 -1.05 0  -0.75 -0.8999999999999999 0  -0.6 -0.8999999999999999 0  -0.45 -0.8999999999999999 0  -0.3 -0.8999999999999999 0  -0.15 -0.8999999999999999 0  0 -0.8999999999999999 0  0.15 -0.8999999999999999 0  0.3 -0.8999999999999999 0  0.45 -0.8999999999999999 0  0.6000000000000001 -0.8999999999999999 0  0.75 -0.8999999999999999 0  -0.75 -0.75 0  -0.6 -0.75 0  -0.45 -0.75 0  -0.3 -0.75 0  -0.15 -0.75 0  0 -0.75 0  0.15 -0.75 0  0.3 -0.75 0  0.45 -0.75 0  0.6000000000000001 -0.75 0  0.75 -0.75 0  -0.75 -0.6000000000000001 0  -0.6 -0.6000000000000001 0  -0.45 -0.6000000000000001 0  -0.3 -0.6000000000000001 0  -0.15 -0.6000000000000001 0  0 -0.6000000000000001 0  0.15 -0.6000000000000001 0  0.3 -0.6000000000000001 0  0.45 -0.6000000000000001 0  0.6000000000000001 -0.6000000000000001 0  0.75 -0.6000000000000001 0  -0.75 -0.4500000000000002 0  -0.6 -0.4500000000000002 0  -0.45 -0.4500000000000002 0  -0.3 -0.4500000000000002 0  -0.15 -0.4500000000000002 0  0 -0.4500000000000002 0  0.15 -0.4500000000000002 0  0.3 -0.4500000000000002 0  0.45 -0.4500000000000002 0  0.6000000000000001 -0.4500000000000002 0  0.75 -0.4500000000000002 0  -0.75 -0.2999999999999998 0  -0.6 -0.2999999999999998 0  -0.45 -0.2999999999999998 0  -0.3 -0.2999999999999998 0  -0.15 -0.2999999999999998 0  0 -0.2999999999999998 0  0.15 -0.2999999999999998 0  0.3 -0.2999999999999998 0  0.45 -0.2999999999999998 0  0.6000000000000001 -0.2999999999999998 0  0.75 -0.2999999999999998 0  -0.75 -0.1499999999999999 0  -0.6 -0.1499999999999999 0  -0.45 -0.1499999999999999 0  -0.3 -0.1499999999999999 0  -0.15 -0.1499999999999999 0  0 -0.1499999999999999 0  0.15 -0.1499999999999999 0  0.3 -0.1499999999999999 0  0.45 -0.1499999999999999 0  0.6000000000000001 -0.1499999999999999 0  0.75 -0.1499999999999999 0  -0.75 0 0  -0.6 0 0  -0.45 0 0  -0.3 0 0  -0.15 0 0  0 0 0  0.15 0 0  0.3 0 0  0.45 0 0  0.6000000000000001 0 0  0.75 0 0  -0.675 -2.925 0  -0.525 -2.925 0  -0.375 -2.925 0  -0.225 -2.925 0  -0.07499999999999996 -2.925 0  0.07499999999999996 -2.925 0  0.225 -2.925 0  0.375 -2.925 0  0.5249999999999999 -2.925 0  0.675 -2.925 0  -0.675 -2.775 0  -0.525 -2.775 0  -0.375 -2.775 0  -0.225 -2.775 0  -0.07499999999999996 -2.775 0  0.07499999999999996 -2.775 0  0.225 -2.775 0  0.375 -2.775 0  0.5249999999999999 -2.775 0  0.675 -2.775 0  -0.675 -2.625 0  -0.525 -2.625 0  -0.375 -2.625 0  -0.225 -2.625 0  -0.07499999999999996 -2.625 0  0.07499999999999996 -2.625 0  0.225 -2.625 0  0.375 -2.625 0  0.5249999999999999 -2.625 0  0.675 -2.625 0  -0.675 -2.475 0  -0.525 -2.475 0  -0.375 -2.475 0  -0.225 -2.475 0  -0.07499999999999996 -2.475 0  0.07499999999999996 -2.475 0  0.225 -2.475 0  0.375 -2.475 0  0.5249999999999999 -2.475 0  0.675 -2.475 0  -0.675 -2.325 0  -0.525 -2.325 0  -0.375 -2.325 0  -0.225 -2.325 0  -0.07499999999999996 -2.325 0  0.07499999999999996 -2.325 0  0.225 -2.325 0  0.375 -2.325 0  0.5249999999999999 -2.325 0  0.675 -2.325 0  -0.675 -2.175 0  -0.525 -2.175 0  -0.375 -2.175 0  -0.225 -2.175 0  -0.07499999999999996 -2.175 0  0.07499999999999996 -2.175 0  0.225 -2.175 0  0.375 -2.175 0  0.5249999999999999 -2.175 0  0.675 -2.175 0  -0.675 -2.025 0  -0.525 -2.025 0  -0.375 -2.025 0  -0.225 -2.025 0  -0.07499999999999996 -2.025 0  0.07499999999999996 -2.025 0  0.225 -2.025 0  0.375 -2.025 0  0.5249999999999999 -2.025 0  0.675 -2.025 0  -0.675 -1.875 0  -0.525 -1.875 0  -0.375 -1.875 0  -0.225 -1.875 0  -0.07499999999999996 -1.875 0  0.07499999999999996 -1.875 0  0.225 -1.875 0  0.375 -1.875 0  0.5249999999999999 -1.875 0  0.675 -1.875 0  -0.675 -1.725 0  -0.525 -1.725 0  -0.375 -1.725 0  -0.225 -1.725 0  -0.07499999999999996 -1.725 0  0.07499999999999996 -1.725 0  0.225 -1.725 0  0.375 -1.725 0  0.5249999999999999 -1.725 0  0.675 -1.725 0  -0.675 -1.575 0  -0.525 -1.575 0  -0.375 -1.575 0  -0.225 -1.575 0  -0.07499999999999996 -1.575 0  0.07499999999999996 -1.575 0  0.225 -1.575 0  0.375 -1.575 0  0.5249999999999999 -1.575 0  0.675 -1.575 0  -0.675 -1.425 0  -0.525 -1.425 0  -0.375 -1.425 0  -0.225 -1.425 0  -0.07499999999999996 -1.425 0  0.07499999999999996 -1.425 0  0.225 -1.425 0  0.375 -1.425 0  0.5249999999999999 -1.425 0  0.675 -1.425 0  -0.675 -1.275 0  -0.525 -1.275 0  -0.375 -1.275 0  -0.225 -1.275 0  -0.07499999999999996 -1.275 0  0.07499999999999996 -1.275 0  0.225 -1.275 0  0.375 -1.275 0  0.5249999999999999 -1.275 0  0.675 -1.275 0  -0.675 -1.125 0  -0.525 -1.125 0  -0.375 -1.125 0  -0.225 -1.125 0  -0.07499999999999996 -1.125 0  0.07499999999999996 -1.125 0  0.225 -1.125 0  0.375 -1.125 0  0.5249999999999999 -1.125 0  0.675 -1.125 0  -0.675 -0.9750000000000001 0  -0.525 -0.9750000000000001 0  -0.375 -0.9750000000000001 0  -0.225 -0.9750000000000001 0  -0.07499999999999996 -0.9750000000000001 0  0.07499999999999996 -0.9750000000000001 0  0.225 -0.9750000000000001 0  0.375 -0.9750000000000001 0  0.5249999999999999 -0.9750000000000001 0  0.675 -0.9750000000000001 0  -0.675 -0.8250000000000002 0  -0.525 -0.8250000000000002 0  -0.375 -0.8250000000000002 0  -0.225 -0.8250000000000002 0  -0.07499999999999996 -0.8250000000000002 0  0.07499999999999996 -0.8250000000000002 0  0.225 -0.8250000000000002 0  0.375 -0.8250000000000002 0  0.5249999999999999 -0.8250000000000002 0  0.675 -0.8250000000000002 0  -0.675 -0.6749999999999998 0  -0.525 -0.6749999999999998 0  -0.375 -0.6749999999999998 0  -0.225 -0.6749999999999998 0  -0.07499999999999996 -0.6749999999999998 0  0.07499999999999996 -0.6749999999999998 0  0.225 -0.6749999999999998 0  0.375 -0.6749999999999998 0  0.5249999999999999 -0.6749999999999998 0  0.675 -0.6749999999999998 0  -0.675 -0.5249999999999999 0  -0.525 -0.5249999999999999 0  -0.375 -0.5249999999999999 0  -0.225 -0.5249999999999999 0  -0.07499999999999996 -0.5249999999999999 0  0.07499999999999996 -0.5249999999999999 0  0.225 -0.5249999999999999 0  0.375 -0.5249999999999999 0  0.5249999999999999 -0.5249999999999999 0  0.675 -0.5249999999999999 0  -0.675 -0.375 0  -0.525 -0.375 0  -0.375 -0.375 0  -0.225 -0.375 0  -0.07499999999999996 -0.375 0  0.07499999999999996 -0.375 0  0.225 -0.375 0  0.375 -0.375 0  0.5249999999999999 -0.375 0  0.675 -0.375 0  -0.675 -0.2250000000000001 0  -0.525 -0.2250000000000001 0  -0.375 -0.2250000000000001 0  -0.225 -0.2250000000000001 0  -0.07499999999999996 -0.2250000000000001 0  0.07499999999999996 -0.2250000000000001 0  0.225 -0.2250000000000001 0  0.375 -0.2250000000000001 0  0.5249999999999999 -0.2250000000000001 0  0.675 -0.2250000000000001 0  -0.675 -0.07500000000000018 0  -0.525 -0.07500000000000018 0  -0.375 -0.07500000000000018 0  -0.225 -0.07500000000000018 0  -0.07499999999999996 -0.07500000000000018 0  0.07499999999999996 -0.07500000000000018 0  0.225 -0.07500000000000018 0  0.375 -0.07500000000000018 0  0.5249999999999999 -0.07500000000000018 0  0.675 -0.07500000000000018 0  </DataArray>
</Points>
<Cells>
[...]
<PointData  Vectors="flow"> 
<DataArray  type="Float64"  Name="flow"  NumberOfComponents="3" format="ascii">-1.9450146983102420e-03 -1.2707693586313010e+01 0.0000000000000000e+00  -8.7903150143053745e-04 -5.7431252229612593e+00 0.0000000000000000e+00  8.1090759510896488e-05 5.2980397805790913e-01 0.0000000000000000e+00  -1.0591782231380173e-05 -6.9201082771388325e-02 0.0000000000000000e+00  1.5222255963461454e-06 9.9454140189350528e-03 0.0000000000000000e+00  -2.2904214917040927e-07 -1.4964398225559834e-03 0.0000000000000000e+00  3.5407544106674359e-08 2.3133409816510859e-04 0.0000000000000000e+00  -5.5722271887385223e-09 -3.6405974602314699e-05 0.0000000000000000e+00  8.8866597570001581e-10 5.8060717636676656e-06 0.0000000000000000e+00  -1.4664565664874072e-10 -9.5810487811471399e-07 0.0000000000000000e+00  4.6307724335022738e-11 3.0255008974490298e-07 0.0000000000000000e+00  3.9667909970169806e-04 2.5916906723034101e+00 0.0000000000000000e+00  1.4027342504240628e-04 9.1647209930606766e-01 0.0000000000000000e+00  -4.8768493500819702e-05 -3.1862744924905589e-01 0.0000000000000000e+00  7.8369374465881898e-06 5.1202389273903512e-02 0.0000000000000000e+00  -1.2295977380837659e-06 -8.0335389257298658e-03 0.0000000000000000e+00  1.9420104553975558e-07 1.2688065457833347e-03 0.0000000000000000e+00  -3.0957118769634989e-08 -2.0225738138708490e-04 0.0000000000000000e+00  4.9759580552679279e-09 3.2510268595720778e-05 0.0000000000000000e+00  -8.0593567979412694e-10 -5.2655559251033712e-06 0.0000000000000000e+00  1.3462139955678709e-10 8.7954476499045550e-07 0.0000000000000000e+00  -4.2887014139631424e-11 -2.8020098510915164e-07 0.0000000000000000e+00  -1.8944401487137912e-05 -1.2377266325225555e-01 0.0000000000000000e+00  3.2170758940945722e-06 2.1018666204211316e-02 0.0000000000000000e+00  8.8070311550797983e-06 5.7540466620173029e-02 0.0000000000000000e+00  -3.0953039451879300e-06 -2.0223072929025223e-02 0.0000000000000000e+00  6.4387741120375960e-07 4.2067532218827107e-03 0.0000000000000000e+00  -1.1812534125124732e-07 -7.7176827645755719e-04 0.0000000000000000e+00  2.0674028906462992e-08 1.3507313068952662e-04 0.0000000000000000e+00  -3.5424547230630335e-09 -2.3144518755144093e-05 0.0000000000000000e+00  6.0111383620331704e-10 3.9273587225850701e-06 0.0000000000000000e+00  -1.0415293232918278e-10 -6.8047997339305185e-07 0.0000000000000000e+00  3.4069085528319488e-11 2.2258932029454420e-07 0.0000000000000000e+00  1.7007047546283599e-06 1.1111502098867732e-02 0.0000000000000000e+00  -6.8108961782258615e-07 -4.4498780269515035e-03 0.0000000000000000e+00  -6.2325573580765573e-07 -4.0720221412395867e-03 0.0000000000000000e+00  6.2764489562118765e-07 4.1006985816079700e-03 0.0000000000000000e+00  -2.1618167356511566e-07 -1.4124163015469626e-03 0.0000000000000000e+00  5.1366729780040187e-08 3.3560294590204268e-04 0.0000000000000000e+00  -1.0534593756373172e-08 -6.8827443632471332e-05 0.0000000000000000e+00  2.0100590052635381e-09 1.3132658561135394e-05 0.0000000000000000e+00  -3.6876443356713115e-10 -2.4093110614395539e-06 0.0000000000000000e+00  6.7933416097693429e-11 4.4384088037533867e-07 0.0000000000000000e+00  -2.3219502943995545e-11 -1.5170390686257078e-07 0.0000000000000000e+00  -1.8694001851878623e-07 -1.2213668495257280e-03 0.0000000000000000e+00  9.9269929400593044e-08 6.4857702425261826e-04 0.0000000000000000e+00  4.1390736176250899e-08 2.7042509915049513e-04 0.0000000000000000e+00  -8.2248142812265483e-08 -5.3736570618700247e-04 0.0000000000000000e+00  4.7778780187483639e-08 3.1216118781920873e-04 0.0000000000000000e+00  -1.6073796986848229e-08 -1.0501765722126575e-04 0.0000000000000000e+00  4.1074024242488196e-09 2.6835587149227655e-05 0.0000000000000000e+00  -9.1059198525899615e-10 -5.9493246713645378e-06 0.0000000000000000e+00  1.8629718393925475e-10 1.2171669096124363e-06 0.0000000000000000e+00  -3.7397616220856663e-11 -2.4433617298935811e-07 0.0000000000000000e+00  1.3586574942191813e-11 8.8767468648359034e-08 0.0000000000000000e+00  2.2801548964214830e-08 1.4897321741696008e-04 0.0000000000000000e+00  -1.4024479046662940e-08 -9.1628501618774253e-05 0.0000000000000000e+00  -2.0193029918829722e-09 -1.3193053862815023e-05 0.0000000000000000e+00  9.9033097606659329e-09 6.4702969102607737e-05 0.0000000000000000e+00  -8.0558428876040474e-09 -5.2632601226143741e-05 0.0000000000000000e+00  3.7719975839815108e-09 2.4644229962474220e-05 0.0000000000000000e+00  -1.2443854711492541e-09 -8.1301541239572457e-06 0.0000000000000000e+00  3.3174511042247190e-10 2.1674464546045879e-06 0.0000000000000000e+00  -7.7824478414169006e-11 -5.0846383117879326e-07 0.0000000000000000e+00  1.7426591593127730e-11 1.1385609908844120e-07 0.0000000000000000e+00  -6.8373061141553050e-12 -4.4671328771959334e-08 0.0000000000000000e+00  -2.9651955564755428e-09 -1.9373013781296243e-05 0.0000000000000000e+00  1.9975839298275705e-09 1.3051153040254674e-05 0.0000000000000000e+00  -7.1416802047101977e-11 -4.6659947511830039e-07 0.0000000000000000e+00  -1.1635541144648334e-09 -7.6020449462713542e-06 0.0000000000000000e+00  1.2208881245243568e-09 7.9766349339686080e-06 0.0000000000000000e+00  -7.2815562602422139e-10 -4.7573823409687137e-06 0.0000000000000000e+00  3.0449967197407011e-10 1.9894392222027824e-06 0.0000000000000000e+00  -9.8959012793955790e-11 -6.4654566018556312e-07 0.0000000000000000e+00  2.7141916434319223e-11 1.7733087451333313e-07 0.0000000000000000e+00  -6.9151765445788364e-12 -4.5180092829175045e-08 0.0000000000000000e+00  2.9697347042915079e-12 1.9402670163655930e-08 0.0000000000000000e+00  4.0279350624491361e-10 2.6316389590083038e-06 0.0000000000000000e+00  -2.8874841387982507e-10 -1.8865288628957320e-06 0.0000000000000000e+00  4.7630918464445837e-11 3.1119513780881950e-07 0.0000000000000000e+00  1.3496272644640268e-10 8.8177481370410988e-07 0.0000000000000000e+00  -1.7651262481360418e-10 -1.1532397941238228e-06 0.0000000000000000e+00  1.2646690977475669e-10 8.2626765731986190e-07 0.0000000000000000e+00  -6.3911964601917100e-11 -4.1756685096828990e-07 0.0000000000000000e+00  2.4957061956534748e-11 1.6305619511965571e-07 0.0000000000000000e+00  -8.0429224906315520e-12 -5.2548186210728875e-08 0.0000000000000000e+00  2.3617157021342711e-12 1.5430196752127216e-08 0.0000000000000000e+00  -1.1203193615061472e-12 -7.3195720203051710e-09 0.0000000000000000e+00  -5.6475937234671000e-11 -3.6898379534177183e-07 0.0000000000000000e+00  4.2356836131354794e-11 2.7673708343209277e-07 0.0000000000000000e+00  -1.1136911541214528e-11 -7.2762668316377329e-08 0.0000000000000000e+00  -1.5399736533087579e-11 -1.0061370402107504e-07 0.0000000000000000e+00  2.4950814869073872e-11 1.6301537996626451e-07 0.0000000000000000e+00  -2.0706866529591943e-11 -1.3528767428818842e-07 0.0000000000000000e+00  1.2160698387015086e-11 7.9451548120439645e-08 0.0000000000000000e+00  -5.5448193211554651e-12 -3.6226906144167688e-08 0.0000000000000000e+00  2.0780095722482230e-12 1.3576611496302306e-08 0.0000000000000000e+00  -7.0541374752036361e-13 -4.6087989786654583e-09 0.0000000000000000e+00  3.7071466042680206e-13 2.4220528085214786e-09 0.0000000000000000e+00  8.1113664259971157e-12 5.2995362553006671e-08 0.0000000000000000e+00  -6.2961624719495315e-12 -4.1135783463583692e-08 0.0000000000000000e+00  2.1407702872584291e-12 1.3986656693544482e-08 0.0000000000000000e+00  1.7059034513081011e-12 1.1145467623401692e-08 0.0000000000000000e+00  -3.4866204134127160e-12 -2.2779727013849828e-08 0.0000000000000000e+00  3.2755800822088440e-12 2.1400901514164549e-08 0.0000000000000000e+00  -2.1730467735318389e-12 -1.4197534121854775e-08 0.0000000000000000e+00  1.1266085705297992e-12 7.3606623736286090e-09 0.0000000000000000e+00  -4.8225015361692657e-13 -3.1507665157699411e-09 0.0000000000000000e+00  1.8807036790288240e-13 1.2287519523895016e-09 0.0000000000000000e+00  -1.0907231939120298e-13 -7.1262063714789947e-10 0.0000000000000000e+00  -1.1872407207548331e-12 -7.7568006584489764e-09 0.0000000000000000e+00  9.4679093327994705e-13 6.1858293826126049e-09 0.0000000000000000e+00  -3.8093216216593612e-13 -2.4888085412320486e-09 0.0000000000000000e+00  -1.7852793635492626e-13 -1.1664067699674163e-09 0.0000000000000000e+00  4.8409627973985679e-13 3.1628281238967406e-09 0.0000000000000000e+00  -5.0745121186024872e-13 -3.3154168531093876e-09 0.0000000000000000e+00  3.7266290922530718e-13 2.4347816320017404e-09 0.0000000000000000e+00  -2.1507269832576711e-13 -1.4051708459991500e-09 0.0000000000000000e+00  1.0329121308576084e-13 6.7484995727422846e-10 0.0000000000000000e+00  -4.5739086739021314e-14 -2.9883491353676368e-10 0.0000000000000000e+00  2.9004240984888918e-14 1.8949831456788277e-10 0.0000000000000000e+00  1.7644637196779566e-13 1.1528069331976365e-09 0.0000000000000000e+00  -1.4381295409333969e-13 -9.3959750327252107e-10 0.0000000000000000e+00  6.5266428687905902e-14 4.2641620032969226e-10 0.0000000000000000e+00  1.6570859831266665e-14 1.0826520199586260e-10 0.0000000000000000e+00  -6.6921663044981408e-14 -4.3723062298754096e-10 0.0000000000000000e+00  7.7598990022037780e-14 5.0699060971832675e-10 0.0000000000000000e+00  -6.2168559705343421e-14 -4.0617636880803511e-10 0.0000000000000000e+00  3.9295328701529909e-14 2.5673481899458809e-10 0.0000000000000000e+00  -2.0854023182577514e-14 -1.3624911774512096e-10 0.0000000000000000e+00  1.0347775538508205e-14 6.7606872563763464e-11 0.0000000000000000e+00  -7.0907374778085754e-15 -4.6327114775666704e-11 0.0000000000000000e+00  -2.6555257478216775e-14 -1.7349795630438952e-10 0.0000000000000000e+00  2.2036387849466782e-14 1.4397406085591848e-10 0.0000000000000000e+00  -1.0954330644300661e-14 -7.1569781653509869e-11 0.0000000000000000e+00  -1.0965556577393639e-15 -7.1643125941392041e-12 0.0000000000000000e+00  9.2148356063653940e-15 6.0204844434168002e-11 0.0000000000000000e+00  -1.1768930987514324e-14 -7.6891947890021134e-11 0.0000000000000000e+00  1.0176964849355090e-14 6.6490886190544572e-11 0.0000000000000000e+00  -6.9584449796271680e-15 -4.5462785816035855e-11 0.0000000000000000e+00  4.0306640957855145e-15 2.6334219645277825e-11 0.0000000000000000e+00  -2.2124562245864096e-15 -1.4455014555725714e-11 0.0000000000000000e+00  1.6189896638070981e-15 1.0577619071435362e-11 0.0000000000000000e+00  4.0389634687516764e-15 2.6388443342766651e-11 0.0000000000000000e+00  -3.4025394662142009e-15 -2.2230386736692036e-11 0.0000000000000000e+00  1.8169322964733943e-15 1.1870871161394709e-11 0.0000000000000000e+00  -3.0237959917612640e-17 -1.9755877919176476e-13 0.0000000000000000e+00  -1.2630026892725745e-15 -8.2517891447857550e-12 0.0000000000000000e+00  1.7754803258286240e-15 1.1600045988731409e-11 0.0000000000000000e+00  -1.6443006036297642e-15 -1.0742987316686925e-11 0.0000000000000000e+00  1.2047441803167136e-15 7.8711589720422077e-12 0.0000000000000000e+00  -7.5417228403538263e-16 -4.9273613742546607e-12 0.0000000000000000e+00  4.5255291998656076e-16 2.9567405551107763e-12 0.0000000000000000e+00  -3.4987690782319049e-16 -2.2859099941025753e-12 0.0000000000000000e+00  -6.1985029322371268e-16 -4.0497727870726861e-12 0.0000000000000000e+00  5.2891400918785864e-16 3.4556433779687362e-12 0.0000000000000000e+00  -2.9927139049714958e-16 -1.9552804063082647e-12 0.0000000000000000e+00  3.2599178480545683e-17 2.1298572790025347e-13 0.0000000000000000e+00  1.7204980662326908e-16 1.1240821090207390e-12 0.0000000000000000e+00  -2.6693227505962104e-16 -1.7439937922844574e-12 0.0000000000000000e+00  2.6326574990519012e-16 1.7200386631898053e-12 0.0000000000000000e+00  -2.0519844862109785e-16 -1.3406577398767692e-12 0.0000000000000000e+00  1.3770972199539171e-16 8.9972222446138839e-13 0.0000000000000000e+00  -8.9382463987700133e-17 -5.8397757370786544e-13 0.0000000000000000e+00  7.2342517170339587e-17 4.7264760634555798e-13 0.0000000000000000e+00  9.5864931050086259e-17 6.2633057247118310e-13 0.0000000000000000e+00  -8.2708220740297671e-17 -5.4037161115025911e-13 0.0000000000000000e+00  4.9092819634157149e-17 3.2074642404552670e-13 0.0000000000000000e+00  -9.0366794961605345e-18 -5.9040866978891958e-14 0.0000000000000000e+00  -2.3237875955006376e-17 -1.5182394636375665e-13 0.0000000000000000e+00  4.0041575423365827e-17 2.6161039895247750e-13 0.0000000000000000e+00  -4.1887617251140052e-17 -2.7367145633947421e-13 0.0000000000000000e+00  3.4537026653370085e-17 2.2564659921317853e-13 0.0000000000000000e+00  -2.4682698733117766e-17 -1.6126365145529931e-13 0.0000000000000000e+00  1.7166298159724845e-17 1.1215547996351283e-13 0.0000000000000000e+00  -1.4434186439877238e-17 -9.4305312245212038e-14 0.0000000000000000e+00  -1.4926328048362867e-17 -9.7520704276513200e-14 0.0000000000000000e+00  1.3001962760680571e-17 8.4947922978125716e-14 0.0000000000000000e+00  -8.0347236935473661e-18 -5.2494619622665110e-14 0.0000000000000000e+00  1.9817704730066064e-18 1.2947836307483506e-14 0.0000000000000000e+00  3.1010669403388526e-18 2.0260725280229065e-14 0.0000000000000000e+00  -5.9976616524843328e-18 -3.9185537559363853e-14 0.0000000000000000e+00  6.6366285489426837e-18 4.3360208084498853e-14 0.0000000000000000e+00  -5.7629366369826342e-18 -3.7651968904777554e-14 0.0000000000000000e+00  4.3612433601620053e-18 2.8494049080672245e-14 0.0000000000000000e+00  -3.2231349442206462e-18 -2.1058252821470922e-14 0.0000000000000000e+00  2.7978977365713967e-18 1.8279978631049303e-14 0.0000000000000000e+00  2.3378495347375756e-18 1.5274267882993029e-14 0.0000000000000000e+00  -2.0536658305976362e-18 -1.3417562410499090e-14 0.0000000000000000e+00  1.3134804544639496e-18 8.5815840679455019e-15 0.0000000000000000e+00  -3.9363070765405646e-19 -2.5717740968111754e-15 0.0000000000000000e+00  -4.0678480347586479e-19 -2.6577159764554776e-15 0.0000000000000000e+00  8.9750523401670390e-19 5.8638227854549797e-15 0.0000000000000000e+00  -1.0486959666109608e-18 -6.8516227771810775e-15 0.0000000000000000e+00  9.5566904520668564e-19 6.2438342532637159e-15 0.0000000000000000e+00  -7.6207866928209072e-19 -4.9790174985902754e-15 0.0000000000000000e+00  5.9412225902837863e-19 3.8816794685921007e-15 0.0000000000000000e+00  -5.2969156492779468e-19 -3.4607235144314456e-15 0.0000000000000000e+00  -3.6830938997892206e-19 -2.4063380481803704e-15 0.0000000000000000e+00  3.2596162610847701e-19 2.1296602380853253e-15 0.0000000000000000e+00  -2.1477337286358005e-19 -1.4032152123171194e-15 0.0000000000000000e+00  7.4170655869691197e-20 4.8459169419477560e-16 0.0000000000000000e+00  5.2043871487270910e-20 3.4002703037681787e-16 0.0000000000000000e+00  -1.3428329733864765e-19 -8.7733578456850890e-16 0.0000000000000000e+00  1.6555575187932267e-19 1.0816534024970768e-15 0.0000000000000000e+00  -1.5788831821052008e-19 -1.0315584609312507e-15 0.0000000000000000e+00  1.3210642263080191e-19 8.6311324075578983e-16 0.0000000000000000e+00  -1.0796066642901348e-19 -7.0535768678043255e-16 0.0000000000000000e+00  9.8444043711317491e-20 6.4318112555542506e-16 0.0000000000000000e+00  5.9695492455775306e-20 3.9001866015258835e-16 0.0000000000000000e+00  -5.3197349696964951e-20 -3.4756324470980551e-16 0.0000000000000000e+00  3.6008163105836606e-20 2.3525822388513634e-16 0.0000000000000000e+00  -1.3918753135667879e-20 -9.0937744637746411e-17 0.0000000000000000e+00  -6.4833740746382179e-21 -4.2358924699913554e-17 0.0000000000000000e+00  2.0510990377684417e-20 1.3400792348657798e-16 0.0000000000000000e+00  -2.6736485798702077e-20 -1.7468200595084750e-16 0.0000000000000000e+00  2.6667647102294183e-20 1.7423225044946599e-16 0.0000000000000000e+00  -2.3364054564593234e-20 -1.5264833042068397e-16 0.0000000000000000e+00  1.9937465352656551e-20 1.3026081541152408e-16 0.0000000000000000e+00  -1.8543989791586094e-20 -1.2115658578000355e-16 0.0000000000000000e+00  -1.8495502631533236e-20 -1.2083979641416594e-16 0.0000000000000000e+00  1.6575676267992563e-20 1.0829667003676875e-16 0.0000000000000000e+00  -1.1465610164821078e-20 -7.4910210643262480e-17 0.0000000000000000e+00  4.8104369951966560e-21 3.1428841851082309e-17 0.0000000000000000e+00  1.4817875346019832e-21 9.6812131888253889e-18 0.0000000000000000e+00  -5.9964770883314596e-21 -3.9177798245979189e-17 0.0000000000000000e+00  8.2270510733294276e-21 5.3751184630966808e-17 0.0000000000000000e+00  -8.5306288608978462e-21 -5.5734600749817584e-17 0.0000000000000000e+00  7.7659184113568323e-21 5.0738388596016761e-17 0.0000000000000000e+00  -6.8590073139606906e-21 -4.4813112892059705e-17 0.0000000000000000e+00  6.4772089226004730e-21 4.2318644869083880e-17 0.0000000000000000e+00  -6.1470397416274458e-04 -4.0161494700967273e+00 0.0000000000000000e+00  1.7660895259451401e-04 1.1538691487115873e+00 0.0000000000000000e+00  -7.3918553063212506e-06 -4.8294458827842432e-02 0.0000000000000000e+00  6.1555423163240801e-07 4.0217046010699508e-03 0.0000000000000000e+00  -6.4446688657932486e-08 -4.2106045410814140e-04 0.0000000000000000e+00  7.5976695734037347e-09 4.9639139998657195e-05 0.0000000000000000e+00  -9.6353905089221487e-10 -6.2952526928575891e-06 0.0000000000000000e+00  1.2838470939118015e-10 8.3879754200742996e-07 0.0000000000000000e+00  -1.7676509703484442e-11 -1.1548893136001321e-07 0.0000000000000000e+00  2.1508867241406563e-12 1.4052752122127237e-08 0.0000000000000000e+00  -1.3030629978776550e-04 -8.5135219364036019e-01 0.0000000000000000e+00  -2.5882259647690285e-05 -1.6910094572034928e-01 0.0000000000000000e+00  8.8049572110849323e-06 5.7526916571001299e-02 0.0000000000000000e+00  -1.0389782936300674e-06 -6.7881326602578116e-03 0.0000000000000000e+00  1.2741115564787523e-07 8.3243685863034899e-04 0.0000000000000000e+00  -1.6448153606334171e-08 -1.0746350465705552e-04 0.0000000000000000e+00  2.2123966327417927e-09 1.4454625214245514e-05 0.0000000000000000e+00  -3.0717037215352422e-10 -2.0068881595146159e-06 0.0000000000000000e+00  4.3588344090801841e-11 2.8478310273022701e-07 0.0000000000000000e+00  -5.4126346540731565e-12 -3.5363281695699524e-08 0.0000000000000000e+00  3.6769276140593922e-06 2.4023093244032012e-02 0.0000000000000000e+00  -2.6799404238860339e-06 -1.7509308164048328e-02 0.0000000000000000e+00  -1.4290290924263509e-06 -9.3365175328790559e-03 0.0000000000000000e+00  5.0999082798202529e-07 3.3320093567703792e-03 0.0000000000000000e+00  -9.0234281541859311e-08 -5.8954289744505889e-04 0.0000000000000000e+00  1.4154794080279335e-08 9.2479910874614823e-05 0.0000000000000000e+00  -2.1517598580725830e-09 -1.4058456715761655e-05 0.0000000000000000e+00  3.2501157879082775e-10 2.1234531332157980e-06 0.0000000000000000e+00  -4.9032471601174127e-11 -3.2035214203195079e-07 0.0000000000000000e+00  6.3424834117913593e-12 4.1438419896434981e-08 0.0000000000000000e+00  -2.3298626192189474e-07 -1.5222085616607773e-03 0.0000000000000000e+00  2.9092117201334911e-07 1.9007245111969922e-03 0.0000000000000000e+00  9.1170617056206969e-09 5.9566041667031227e-05 0.0000000000000000e+00  -9.4248464857822519e-08 -6.1576944042330303e-04 0.0000000000000000e+00  3.3277490146109985e-08 2.1741745626174409e-04 0.0000000000000000e+00  -7.2164353652668852e-09 -4.7148358049383202e-05 0.0000000000000000e+00  1.3319310780299486e-09 8.7021306483681810e-06 0.0000000000000000e+00  -2.2924994259416571e-10 -1.4977974344859306e-06 0.0000000000000000e+00  3.7982862437759753e-11 2.4815986111028326e-07 0.0000000000000000e+00  -5.2257179687582398e-12 -3.4142067292942090e-08 0.0000000000000000e+00  1.9723254800160290e-08 1.2886127736873066e-04 0.0000000000000000e+00  -3.1154220884574466e-08 -2.0354514198038078e-04 0.0000000000000000e+00  8.2433499668078845e-09 5.3857672949178549e-05 0.0000000000000000e+00  8.1554739379299896e-09 5.3283537622832434e-05 0.0000000000000000e+00  -6.8552844742532140e-09 -4.4788789833568332e-05 0.0000000000000000e+00  2.3596956124417827e-09 1.5416998558380246e-05 0.0000000000000000e+00  -5.7104251956575890e-10 -3.7308887021276051e-06 0.0000000000000000e+00  1.1759354232785936e-10 7.6829378458157507e-07 0.0000000000000000e+00  -2.2125420224339116e-11 -1.4455575113318099e-07 0.0000000000000000e+00  3.30543894