<?xml version="1.0"?>
<VTKFile type="UnstructuredGrid"  version="0.1"  >
<UnstructuredGrid>
<Piece  NumberOfPoints="431" NumberOfCells="800">
<Points>
<DataArray  type="Float64"  NumberOfComponents="3"  format="ascii">-0.75 -3 0  -0.6 -3 0  -0.45 -3 0  -0.3 -3 0  -0.15 -3 0  0 -3 0  0.15 -3 0  0.3 -3 0  0.45 -3 0  0.6000000000000001 -3 0  0.75 -3 0  -0.75 -2.85 0  -0.6 -2.85 0  -0.45 -2.85 0  -0.3 -2.85 0  -0.15 -2.85 0  0 -2.85 0  0.15 -2.85 0  0.3 -2.85 0  0.45 -2.85 0  0.6000000000000001 -2.85 0  0.75 -2.85 0  -0.75 -2.7 0  -0.6 -2.7 0  -0.45 -2.7 0  -0.3 -2.7 0  -0.15 -2.7 0  0 -2.7 0  0.15 -2.7 0  0.3 -2.7 0  0.45 -2.7 0  0.6000000000000001 -2.7 0  0.75 -2.7 0  -0.75 -2.55 0  -0.6 -2.55 0  -0.45 -2.55 0  -0.3 -2.55 0  -0.15 -2.55 0  0 -2.55 0  0.15 -2.55 0  0.3 -2.55 0  0.45 -2.55 0  0.6000000000000001 -2.55 0  0.75 -2.55 0  -0.75 -2.4 0  -0.6 -2.4 0  -0.45 -2.4 0  -0.3 -2.4 0  -0.15 -2.4 0  0 -2.4 0  0.15 -2.4 0  0.3 -2.4 0  0.45 -2.4 0  0.6000000000000001 -2.4 0  0.75 -2.4 0  -0.75 -2.25 0  -0.6 -2.25 0  -0.45 -2.25 0  -0.3 -2.25 0  -0.15 -2.25 0  0 -2.25 0  0.15 -2.25 0  0.3 -2.25 0  0.45 -2.25 0  0.6000000000000001 -2.25 0  0.75 -2.25 0  -0.75 -2.1 0  -0.6 -2.1 0  -0.45 -2.1 0  -0.3 -2.1 0  -0.15 -2.1 0  0 -2.1 0  0.15 -2.1 0  0.3 -2.1 0  0.45 -2.1 0  0.6000000000000001 -2.1 0  0.75 -2.1 0  -0.75 -1.95 0  -0.6 -1.95 0  -0.45 -1.95 0  -0.3 -1.95 0  -0.15 -1.95 0  0 -1.95 0  0.15 -1.95 0  0.3 -1.95 0  0.45 -1.95 0  0.6000000000000001 -1.95 0  0.75 -1.95 0  -0.75 -1.8 0  -0.6 -1.8 0  -0.45 -1.8 0  -0.3 -1.8 0  -0.15 -1.8 0  0 -1.8 0  0.15 -1.8 0  0.3 -1.8 0  0.45 -1.8 0  0.6000000000000001 -1.8 0  0.75 -1.8 0  -0.75 -1.65 0  -0.6 -1.65 0  -0.45 -1.65 0  -0.3 -1.65 0  -0.15 -1.65 0  0 -1.65 0  0.15 -1.65 0  0.3 -1.65 0  0.45 -1.65 0  0.6000000000000001 -1.65 0  0.75 -1.65 0  -0.75 -1.5 0  -0.6 -1.5 0  -0.45 -1.5 0  -0.3 -1.5 0  -0.15 -1.5 0  0 -1.5 0  0.15 -1.5 0  0.3 -1.5 0  0.45 -1.5 0  0.6000000000000001 -1.5 0  0.75 -1.5 0  -0.75 -1.35 0  -0.6 -1.35 0  -0.45 -1.35 0  -0.3 -1.35 0  -0.15 -1.35 0  0 -1.35 0  0.15 -1.35 0  0.3 -1.35 0  0.45 -1.35 0  0.6000000000000001 -1.35 0  0.75 -1.35 0  -0.75 -1.2 0  -0.6 -1.2 0  -0.45 -1.2 0  -0.3 -1.2 0  -0.15 -1.2 0  0 -1.2 0  0.15 -1.2 0  0.3 -1.2 0  0.45 -1.2 0  0.6000000000000001 -1.2 0  0.75 -1.2 0  -0.75 -1.05 0  -0.6 -1.05 0  -0.45 -1.05 0  -0.3 -1.05 0  -0.15 -1.05 0  0 -1.05 0  0.15 -1.05 0  0.3 -1.05 0  0.45 -1.05 0  0.6000000000000001 -1.05 0  0.75 -1.05 0  -0.75 -0.8999999999999999 0  -0.6 -0.8999999999999999 0  -0.45 -0.8999999999999999 0  -0.3 -0.8999999999999999 0  -0.15 -0.8999999999999999 0  0 -0.8999999999999999 0  0.15 -0.8999999999999999 0  0.3 -0.8999999999999999 0  0.45 -0.8999999999999999 0  0.6000000000000001 -0.8999999999999999 0  0.75 -0.8999999999999999 0  -0.75 -0.75 0  -0.6 -0.75 0  -0.45 -0.75 0  -0.3 -0.75 0  -0.15 -0.75 0  0 -0.75 0  0.15 -0.75 0  0.3 -0.75 0  0.45 -0.75 0  0.6000000000000001 -0.75 0  0.75 -0.75 0  -0.75 -0.6000000000000001 0  -0.6 -0.6000000000000001 0  -0.45 -0.6000000000000001 0  -0.3 -0.6000000000000001 0  -0.15 -0.6000000000000001 0  0 -0.6000000000000001 0  0.15 -0.6000000000000001 0  0.3 -0.6000000000000001 0  0.45 -0.6000000000000001 0  0.6000000000000001 -0.6000000000000001 0  0.75 -0.6000000000000001 0  -0.75 -0.4500000000000002 0  -0.6 -0.4500000000000002 0  -0.45 -0.4500000000000002 0  -0.3 -0.4500000000000002 0  -0.15 -0.4500000000000002 0  0 -0.4500000000000002 0  0.15 -0.4500000000000002 0  0.3 -0.4500000000000002 0  0.45 -0.4500000000000002 0  0.6000000000000001 -0.4500000000000002 0  0.75 -0.4500000000000002 0  -0.75 -0.2999999999999998 0  -0.6 -0.2999999999999998 0  -0.45 -0.2999999999999998 0  -0.3 -0.2999999999999998 0  -0.15 -0.2999999999999998 0  0 -0.2999999999999998 0  0.15 -0.2999999999999998 0  0.3 -0.2999999999999998 0  0.45 -0.2999999999999998 0  0.6000000000000001 -0.2999999999999998 0  0.75 -0.2999999999999998 0  -0.75 -0.1499999999999999 0  -0.6 -0.1499999999999999 0  -0.45 -0.1499999999999999 0  -0.3 -0.1499999999999999 0  -0.15 -0.1499999999999999 0  0 -0.1499999999999999 0  0.15 -0.1499999999999999 0  0.3 -0.1499999999999999 0  0.45 -0.1499999999999999 0  0.6000000000000001 -0.1499999999999999 0  0.75 -0.1499999999999999 0  -0.75 0 0  -0.6 0 0  -0.45 0 0  -0.3 0 0  -0.15 0 0  0 0 0  0.15 0 0  0.3 0 0  0.45 0 0  0.6000000000000001 0 0  0.75 0 0  -0.675 -2.925 0  -0.525 -2.925 0  -0.375 -2.925 0  -0.225 -2.925 0  -0.07499999999999996 -2.925 0  0.07499999999999996 -2.925 0  0.225 -2.925 0  0.375 -2.925 0  0.5249999999999999 -2.925 0  0.675 -2.925 0  -0.675 -2.775 0  -0.525 -2.775 0  -0.375 -2.775 0  -0.225 -2.775 0  -0.07499999999999996 -2.775 0  0.07499999999999996 -2.775 0  0.225 -2.775 0  0.375 -2.775 0  0.5249999999999999 -2.775 0  0.675 -2.775 0  -0.675 -2.625 0  -0.525 -2.625 0  -0.375 -2.625 0  -0.225 -2.625 0  -0.07499999999999996 -2.625 0  0.07499999999999996 -2.625 0  0.225 -2.625 0  0.375 -2.625 0  0.5249999999999999 -2.625 0  0.675 -2.625 0  -0.675 -2.475 0  -0.525 -2.475 0  -0.375 -2.475 0  -0.225 -2.475 0  -0.07499999999999996 -2.475 0  0.07499999999999996 -2.475 0  0.225 -2.475 0  0.375 -2.475 0  0.5249999999999999 -2.475 0  0.675 -2.475 0  -0.675 -2.325 0  -0.525 -2.325 0  -0.375 -2.325 0  -0.225 -2.325 0  -0.07499999999999996 -2.325 0  0.07499999999999996 -2.325 0  0.225 -2.325 0  0.375 -2.325 0  0.5249999999999999 -2.325 0  0.675 -2.325 0  -0.675 -2.175 0  -0.525 -2.175 0  -0.375 -2.175 0  -0.225 -2.175 0  -0.07499999999999996 -2.175 0  0.07499999999999996 -2.175 0  0.225 -2.175 0  0.375 -2.175 0  0.5249999999999999 -2.175 0  0.675 -2.175 0  -0.675 -2.025 0  -0.525 -2.025 0  -0.375 -2.025 0  -0.225 -2.025 0  -0.07499999999999996 -2.025 0  0.07499999999999996 -2.025 0  0.225 -2.025 0  0.375 -2.025 0  0.5249999999999999 -2.025 0  0.675 -2.025 0  -0.675 -1.875 0  -0.525 -1.875 0  -0.375 -1.875 0  -0.225 -1.875 0  -0.07499999999999996 -1.875 0  0.07499999999999996 -1.875 0  0.225 -1.875 0  0.375 -1.875 0  0.5249999999999999 -1.875 0  0.675 -1.875 0  -0.675 -1.725 0  -0.525 -1.725 0  -0.375 -1.725 0  -0.225 -1.725 0  -0.07499999999999996 -1.725 0  0.07499999999999996 -1.725 0  0.225 -1.725 0  0.375 -1.725 0  0.5249999999999999 -1.725 0  0.675 -1.725 0  -0.675 -1.575 0  -0.525 -1.575 0  -0.375 -1.575 0  -0.225 -1.575 0  -0.07499999999999996 -1.575 0  0.07499999999999996 -1.575 0  0.225 -1.575 0  0.375 -1.575 0  0.5249999999999999 -1.575 0  0.675 -1.575 0  -0.675 -1.425 0  -0.525 -1.425 0  -0.375 -1.425 0  -0.225 -1.425 0  -0.07499999999999996 -1.425 0  0.07499999999999996 -1.425 0  0.225 -1.425 0  0.375 -1.425 0  0.5249999999999999 -1.425 0  0.675 -1.425 0  -0.675 -1.275 0  -0.525 -1.275 0  -0.375 -1.275 0  -0.225 -1.275 0  -0.07499999999999996 -1.275 0  0.07499999999999996 -1.275 0  0.225 -1.275 0  0.375 -1.275 0  0.5249999999999999 -1.275 0  0.675 -1.275 0  -0.675 -1.125 0  -0.525 -1.125 0  -0.375 -1.125 0  -0.225 -1.125 0  -0.07499999999999996 -1.125 0  0.07499999999999996 -1.125 0  0.225 -1.125 0  0.375 -1.125 0  0.5249999999999999 -1.125 0  0.675 -1.125 0  -0.675 -0.9750000000000001 0  -0.525 -0.9750000000000001 0  -0.375 -0.9750000000000001 0  -0.225 -0.9750000000000001 0  -0.07499999999999996 -0.9750000000000001 0  0.07499999999999996 -0.9750000000000001 0  0.225 -0.9750000000000001 0  0.375 -0.9750000000000001 0  0.5249999999999999 -0.9750000000000001 0  0.675 -0.9750000000000001 0  -0.675 -0.8250000000000002 0  -0.525 -0.8250000000000002 0  -0.375 -0.8250000000000002 0  -0.225 -0.8250000000000002 0  -0.07499999999999996 -0.8250000000000002 0  0.07499999999999996 -0.8250000000000002 0  0.225 -0.8250000000000002 0  0.375 -0.8250000000000002 0  0.5249999999999999 -0.8250000000000002 0  0.675 -0.8250000000000002 0  -0.675 -0.6749999999999998 0  -0.525 -0.6749999999999998 0  -0.375 -0.6749999999999998 0  -0.225 -0.6749999999999998 0  -0.07499999999999996 -0.6749999999999998 0  0.07499999999999996 -0.6749999999999998 0  0.225 -0.6749999999999998 0  0.375 -0.6749999999999998 0  0.5249999999999999 -0.6749999999999998 0  0.675 -0.6749999999999998 0  -0.675 -0.5249999999999999 0  -0.525 -0.5249999999999999 0  -0.375 -0.5249999999999999 0  -0.225 -0.5249999999999999 0  -0.07499999999999996 -0.5249999999999999 0  0.07499999999999996 -0.5249999999999999 0  0.225 -0.5249999999999999 0  0.375 -0.5249999999999999 0  0.5249999999999999 -0.5249999999999999 0  0.675 -0.5249999999999999 0  -0.675 -0.375 0  -0.525 -0.375 0  -0.375 -0.375 0  -0.225 -0.375 0  -0.07499999999999996 -0.375 0  0.07499999999999996 -0.375 0  0.225 -0.375 0  0.375 -0.375 0  0.5249999999999999 -0.375 0  0.675 -0.375 0  -0.675 -0.2250000000000001 0  -0.525 -0.2250000000000001 0  -0.375 -0.2250000000000001 0  -0.225 -0.2250000000000001 0  -0.07499999999999996 -0.2250000000000001 0  0.07499999999999996 -0.2250000000000001 0  0.225 -0.2250000000000001 0  0.375 -0.2250000000000001 0  0.5249999999999999 -0.2250000000000001 0  0.675 -0.2250000000000001 0  -0.675 -0.07500000000000018 0  -0.525 -0.07500000000000018 0  -0.375 -0.07500000000000018 0  -0.225 -0.07500000000000018 0  -0.07499999999999996 -0.07500000000000018 0  0.07499999999999996 -0.07500000000000018 0  0.225 -0.07500000000000018 0  0.375 -0.07500000000000018 0  0.5249999999999999 -0.07500000000000018 0  0.675 -0.07500000000000018 0  </DataArray>
</Points>
<Cells>
[...]
<PointData  Vectors="flow"> 
<DataArray  type="Float64"  Name="flow"  NumberOfComponents="3" format="ascii">-3.6983423704338740e-03 -1.6905051734152259e+01 0.0000000000000000e+00  -1.6714318146340882e-03 -7.6400826279321539e+00 0.0000000000000000e+00  1.5418978170723111e-04 7.0479852202882831e-01 0.0000000000000000e+00  -2.0139712588677709e-05 -9.2058238291933145e-02 0.0000000000000000e+00  2.8944312992682332e-06 1.3230389713578284e-02 0.0000000000000000e+00  -4.3551150828220992e-07 -1.9907147151078182e-03 0.0000000000000000e+00  6.7325568653277507e-08 3.0774387742294227e-04 0.0000000000000000e+00  -1.0595294692476516e-08 -4.8430887942343604e-05 0.0000000000000000e+00  1.6897512568669018e-09 7.7238204454912647e-06 0.0000000000000000e+00  -2.7883894445389339e-10 -1.2745674438292948e-06 0.0000000000000000e+00  8.8051683689265918e-11 4.0248255000567314e-07 0.0000000000000000e+00  7.5426428559479612e-04 3.4477275200747703e+00 0.0000000000000000e+00  2.6672248375855865e-04 1.2191833353900789e+00 0.0000000000000000e+00  -9.2730705846594933e-05 -4.2387027015490658e-01 0.0000000000000000e+00  1.4901521226722313e-05 6.8114566479618749e-02 0.0000000000000000e+00  -2.3380149349490920e-06 -1.0687021230513667e-02 0.0000000000000000e+00  3.6926299617488856e-07 1.6878940424091206e-03 0.0000000000000000e+00  -5.8863320730562938e-08 -2.6906310517633996e-04 0.0000000000000000e+00  9.4615205351850587e-09 4.3248428109235070e-05 0.0000000000000000e+00  -1.5324439835938039e-09 -7.0047719295670424e-06 0.0000000000000000e+00  2.5597545683357063e-10 1.1700588823357403e-06 0.0000000000000000e+00  -8.1547384537397538e-11 -3.7275152387467763e-07 0.0000000000000000e+00  -3.6021775446355619e-05 -1.6465484167849448e-01 0.0000000000000000e+00  6.1170993197983608e-06 2.7961143157226715e-02 0.0000000000000000e+00  1.6746103002131383e-05 7.6546114242868821e-02 0.0000000000000000e+00  -5.8855564124038864e-06 -2.6902764987733391e-02 0.0000000000000000e+00  1.2242987743428924e-06 5.5962461138766148e-03 0.0000000000000000e+00  -2.2460907619411997e-07 -1.0266837606428239e-03 0.0000000000000000e+00  3.9310570320508190e-08 1.7968785969625084e-04 0.0000000000000000e+00  -6.7357899192378693e-09 -3.0789165969439140e-05 0.0000000000000000e+00  1.1429861027868556e-09 5.2245674585184700e-06 0.0000000000000000e+00  -1.9804128111350038e-10 -9.0524288110425943e-07 0.0000000000000000e+00  6.4780560599764604e-11 2.9611069463477829e-07 0.0000000000000000e+00  3.2337999600233101e-06 1.4781637324637472e-02 0.0000000000000000e+00  -1.2950558131227580e-06 -5.9196751751478425e-03 0.0000000000000000e+00  -1.1850877514477939e-06 -5.4170132835443374e-03 0.0000000000000000e+00  1.1934335062243999e-06 5.4551615678640787e-03 0.0000000000000000e+00  -4.1105799547518105e-07 -1.8789381791144560e-03 0.0000000000000000e+00  9.7671114434862988e-08 4.4645278264488002e-04 0.0000000000000000e+00  -2.0030971734224189e-08 -9.1561185940899220e-05 0.0000000000000000e+00  3.8220206730039634e-09 1.7470382872787288e-05 0.0000000000000000e+00  -7.0118602731136371e-10 -3.2051078239067133e-06 0.0000000000000000e+00  1.2917179049633062e-10 5.9044176612490590e-07 0.0000000000000000e+00  -4.4150654302405406e-11 -2.0181179034305444e-07 0.0000000000000000e+00  -3.5545653810141189e-07 -1.6247849885088043e-03 0.0000000000000000e+00  1.8875650982542479e-07 8.6280237039884232e-04 0.0000000000000000e+00  7.8702291287087255e-08 3.5974665743248907e-04 0.0000000000000000e+00  -1.5639048471785835e-07 -7.1485789309830381e-04 0.0000000000000000e+00  9.0848818432338729e-08 4.1526819903510409e-04 0.0000000000000000e+00  -3.0563473120207272e-08 -1.3970504688884763e-04 0.0000000000000000e+00  7.8100080329568966e-09 3.5699396274605081e-05 0.0000000000000000e+00  -1.7314424020479446e-09 -7.9143898670180560e-06 0.0000000000000000e+00  3.5423422221622749e-10 1.6191978061430776e-06 0.0000000000000000e+00  -7.1109585312119944e-11 -3.2504054467906803e-07 0.0000000000000000e+00  2.5834152215629331e-11 1.1808741213484337e-07 0.0000000000000000e+00  4.3355936959828329e-08 1.9817915267875976e-04 0.0000000000000000e+00  -2.6666803663024294e-08 -1.2189344586153593e-04 0.0000000000000000e+00  -3.8395976236645702e-09 -1.7550726775672596e-05 0.0000000000000000e+00  1.8830618672044661e-08 8.6074395216055537e-05 0.0000000000000000e+00  -1.5317758321655730e-08 -7.0017178222591935e-05 0.0000000000000000e+00  7.1722535043732057e-09 3.2784232609502775e-05 0.0000000000000000e+00  -2.3661330256793425e-09 -1.0815548481603379e-05 0.0000000000000000e+00  6.3079574623553456e-10 2.8833552050357874e-06 0.0000000000000000e+00  -1.4797912130231540e-10 -6.7640971295379570e-07 0.0000000000000000e+00  3.3135740371063747e-11 1.5146283094297598e-07 0.0000000000000000e+00  -1.3000775224770961e-11 -5.9426293118734362e-08 0.0000000000000000e+00  -5.6381622065184845e-09 -2.5771930838181190e-05 0.0000000000000000e+00  3.7982999781941641e-09 1.7361956033742950e-05 0.0000000000000000e+00  -1.3579526427288739e-10 -6.2071753716966549e-07 0.0000000000000000e+00  -2.2124364846992874e-09 -1.0113004553437198e-05 0.0000000000000000e+00  2.3214540663423631e-09 1.0611321819124023e-05 0.0000000000000000e+00  -1.3845493333982175e-09 -6.3287483324149458e-06 0.0000000000000000e+00  5.7898998893081513e-10 2.6465520863292627e-06 0.0000000000000000e+00  -1.8816531837530503e-10 -8.6010004566845721e-07 0.0000000000000000e+00  5.1608915681215615e-11 2.3590335943724433e-07 0.0000000000000000e+00  -1.3148841721383796e-11 -6.0103102222549442e-08 0.0000000000000000e+00  5.6467931555329188e-12 2.5811382739868428e-08 0.0000000000000000e+00  7.6589050559636197e-10 3.5008707477462586e-06 0.0000000000000000e+00  -5.4903980642155533e-10 -2.5096503790092428e-06 0.0000000000000000e+00  9.0567667202093259e-11 4.1398306217745784e-07 0.0000000000000000e+00  2.5662447182514367e-10 1.1730255173602600e-06 0.0000000000000000e+00  -3.3562940158333109e-10 -1.5341555294144261e-06 0.0000000000000000e+00  2.4047012667007444e-10 1.0991843168372896e-06 0.0000000000000000e+00  -1.2152521359879086e-10 -5.5548941042212198e-07 0.0000000000000000e+00  4.7454530680710254e-11 2.1691374562577612e-07 0.0000000000000000e+00  -1.5293190871544576e-11 -6.9904880881376154e-08 0.0000000000000000e+00  4.4906772456322929e-12 2.0526799185952139e-08 0.0000000000000000e+00  -2.1302278932262974e-12 -9.7372306653967359e-09 0.0000000000000000e+00  -1.0738600164122376e-10 -4.9085934492746078e-07 0.0000000000000000e+00  8.0539279152083506e-11 3.6814349357752139e-07 0.0000000000000000e+00  -2.1176247081541613e-11 -9.6796217492068301e-08 0.0000000000000000e+00  -2.9281782890029216e-11 -1.3384646553587954e-07 0.0000000000000000e+00  4.7442652174975336e-11 2.1685944920487743e-07 0.0000000000000000e+00  -3.9373009320618386e-11 -1.7997326716299331e-07 0.0000000000000000e+00  2.3122923512010932e-11 1.0569443795695230e-07 0.0000000000000000e+00  -1.0543180084780371e-11 -4.8192673074447306e-08 0.0000000000000000e+00  3.9512250750029754e-12 1.8060973705462759e-08 0.0000000000000000e+00  -1.3413068566564505e-12 -6.1310878042073585e-09 0.0000000000000000e+00  7.0489428033040001e-13 3.2220581770247199e-09 0.0000000000000000e+00  1.5423333387373183e-11 7.0499759814295629e-08 0.0000000000000000e+00  -1.1971819267677585e-11 -5.4722955259619988e-08 0.0000000000000000e+00  4.0705612485149986e-12 1.8606457055815548e-08 0.0000000000000000e+00  3.2436850062486227e-12 1.4826821680518011e-08 0.0000000000000000e+00  -6.6296239384444622e-12 -3.0303883316305856e-08 0.0000000000000000e+00  6.2283419329975392e-12 2.8469630999295819e-08 0.0000000000000000e+00  -4.1319332766325040e-12 -1.8886987414132587e-08 0.0000000000000000e+00  2.1421864908805423e-12 9.7918931849160472e-09 0.0000000000000000e+00  -9.1697310967325188e-13 -4.1914664206803126e-09 0.0000000000000000e+00  3.5760583755103973e-13 1.6346093948911407e-09 0.0000000000000000e+00  -2.0739523490307294e-13 -9.4799962369135655e-10 0.0000000000000000e+00  -2.2574753112594176e-12 -1.0318876162061419e-08 0.0000000000000000e+00  1.8002727833028142e-12 8.2290122138556684e-09 0.0000000000000000e+00  -7.2432231839851994e-13 -3.3108633647921310e-09 0.0000000000000000e+00  -3.3946140967528500e-13 -1.5516715645868615e-09 0.0000000000000000e+00  9.2048342065831949e-13 4.2075119845740083e-09 0.0000000000000000e+00  -9.6489158636241022e-13 -4.4105008545737234e-09 0.0000000000000000e+00  7.0859877217095923e-13 3.2389913378683584e-09 0.0000000000000000e+00  -4.0894933782904164e-13 -1.8692995456329881e-09 0.0000000000000000e+00  1.9640276763998557e-13 8.9775326757947857e-10 0.0000000000000000e+00  -8.6970449436105377e-14 -3.9754024906227211e-10 0.0000000000000000e+00  5.5150027117985065e-14 2.5208971160235323e-10 0.0000000000000000e+00  3.3550342530817632e-13 1.5335796942873659e-09 0.0000000000000000e+00  -2.7345271066729185e-13 -1.2499470729456571e-09 0.0000000000000000e+00  1.2410065527683877e-13 5.6726170472178887e-10 0.0000000000000000e+00  3.1508611776422986e-14 1.4402525748022398e-10 0.0000000000000000e+00  -1.2724799568567356e-13 -5.8164813710341826e-10 0.0000000000000000e+00  1.4755036707470750e-13 6.7444988563848530e-10 0.0000000000000000e+00  -1.1821022158180406e-13 -5.4033664576910588e-10 0.0000000000000000e+00  7.4717985022555173e-14 3.4153447024693070e-10 0.0000000000000000e+00  -3.9652819897525880e-14 -1.8125227592005151e-10 0.0000000000000000e+00  1.9675746793611044e-14 8.9937459580047973e-11 0.0000000000000000e+00  -1.3482661531856449e-14 -6.1628986145855072e-11 0.0000000000000000e+00  -5.0493414766886780e-14 -2.3080442624571982e-10 0.0000000000000000e+00  4.1901023650772352e-14 1.9152877196903268e-10 0.0000000000000000e+00  -2.0829079182155038e-14 -9.5209319711461329e-11 0.0000000000000000e+00  -2.0850424698999105e-15 -9.5306889657783186e-12 0.0000000000000000e+00  1.7521521554161484e-14 8.0090537507325468e-11 0.0000000000000000e+00  -2.2377998564046736e-14 -1.0228940036928360e-10 0.0000000000000000e+00  1.9350959320505160e-14 8.8452862296856174e-11 0.0000000000000000e+00  -1.3231114357565214e-14 -6.0479168857718472e-11 0.0000000000000000e+00  7.6640941682243170e-15 3.5032426809648551e-11 0.0000000000000000e+00  -4.2068682592613146e-15 -1.9229513776257679e-11 0.0000000000000000e+00  3.0784230454166096e-15 1.4071412440992897e-11 0.0000000000000000e+00  7.6798749860841913e-15 3.5104560624100259e-11 0.0000000000000000e+00  -6.4697484733178442e-15 -2.9573095644890036e-11 0.0000000000000000e+00  3.4548004712226933e-15 1.5791826404200962e-11 0.0000000000000000e+00  -5.7495878286140223e-17 -2.6281255210381350e-13 0.0000000000000000e+00  -2.4015326792988724e-15 -1.0977359616395432e-11 0.0000000000000000e+00  3.3759817458389025e-15 1.5431547528755464e-11 0.0000000000000000e+00  -3.1265504561055840e-15 -1.4291401908174785e-11 0.0000000000000000e+00  2.2907572119993501e-15 1.0471007089235057e-11 0.0000000000000000e+00  -1.4340186298222267e-15 -6.5548715334429489e-12 0.0000000000000000e+00  8.6050539376587444e-16 3.9333535790042610e-12 0.0000000000000000e+00  -6.6527239807649859e-16 -3.0409473164777253e-12 0.0000000000000000e+00  -1.1786124828499706e-15 -5.3874149555166428e-12 0.0000000000000000e+00  1.0057019580339959e-15 4.5970442773550749e-12 0.0000000000000000e+00  -5.6904868878154318e-16 -2.6011105948460015e-12 0.0000000000000000e+00  6.1985610247922983e-17 2.8333503041557170e-13 0.0000000000000000e+00  3.2714358930684821e-16 1.4953670449606778e-12 0.0000000000000000e+00  -5.0755757462756166e-16 -2.3200358965503781e-12 0.0000000000000000e+00  5.0058587135834025e-16 2.2881683752025569e-12 0.0000000000000000e+00  -3.9017397531340193e-16 -1.7834777252434616e-12 0.0000000000000000e+00  2.6184773828119956e-16 1.1969009677152044e-12 0.0000000000000000e+00  -1.6995601834098002e-16 -7.7686568597696908e-13 0.0000000000000000e+00  1.3755546252033073e-16 6.2876336945209102e-13 0.0000000000000000e+00  1.8228208591393635e-16 8.3320790341613510e-13 0.0000000000000000e+00  -1.5726529851562634e-16 -7.1885665011637510e-13 0.0000000000000000e+00  9.3347394801081085e-17 4.2668914348659132e-13 0.0000000000000000e+00  -1.7182767152205368e-17 -7.8542097661400894e-14 0.0000000000000000e+00  -4.4185589609142473e-17 -2.0197147895719319e-13 0.0000000000000000e+00  7.6136933615879792e-17 3.4802045693383782e-13 0.0000000000000000e+00  -7.9647084318176308e-17 -3.6406528817806620e-13 0.0000000000000000e+00  6.5670325849943200e-17 3.0017779445381335e-13 0.0000000000000000e+00  -4.6932843551593241e-17 -2.1452912380783200e-13 0.0000000000000000e+00  3.2640806202013020e-17 1.4920049639015290e-13 0.0000000000000000e+00  -2.7445840558283125e-17 -1.2545440850319105e-13 0.0000000000000000e+00  -2.8381621745179671e-17 -1.2973184628255867e-13 0.0000000000000000e+00  2.4722543134714368e-17 1.1300626843888565e-13 0.0000000000000000e+00  -1.5277601293394184e-17 -6.9833621219951916e-14 0.0000000000000000e+00  3.7682315281023691e-18 1.7224513727580959e-14 0.0000000000000000e+00  5.8965144422664543e-18 2.6952853931151182e-14 0.0000000000000000e+00  -1.1404235778875927e-17 -5.2128542065658324e-14 0.0000000000000000e+00  1.2619197469669095e-17 5.7682108550489101e-14 0.0000000000000000e+00  -1.0957918601435142e-17 -5.0088434844975909e-14 0.0000000000000000e+00  8.2926731199888405e-18 3.7905649089859443e-14 0.0000000000000000e+00  -6.1286202825064107e-18 -2.8013805255837198e-14 0.0000000000000000e+00  5.3200542681207670e-18 2.4317865579472656e-14 0.0000000000000000e+00  4.4452969931438493e-18 2.0319366925986314e-14 0.0000000000000000e+00  -3.9049367403803806e-18 -1.7849390619554101e-14 0.0000000000000000e+00  2.4975134746801507e-18 1.1416085983206809e-14 0.0000000000000000e+00  -7.4846792966942890e-19 -3.4212324887949394e-15 0.0000000000000000e+00  -7.7347974575739390e-19 -3.5355610183310074e-15 0.0000000000000000e+00  1.7065586381089113e-18 7.8006466613882556e-15 0.0000000000000000e+00  -1.9940398036014154e-18 -9.1147175311100783e-15 0.0000000000000000e+00  1.8171540426252412e-18 8.3061761250351338e-15 0.0000000000000000e+00  -1.4490522023604071e-18 -6.6235897039235394e-15 0.0000000000000000e+00  1.1296919893157861e-18 5.1638003219264787e-15 0.0000000000000000e+00  -1.0071804390659767e-18 -4.6038023856723343e-15 0.0000000000000000e+00  -7.0032078604396969e-19 -3.2011528227405630e-15 0.0000000000000000e+00  6.1979875731521060e-19 2.8330881805157628e-15 0.0000000000000000e+00  -4.0838018632580849e-19 -1.8666979650752468e-15 0.0000000000000000e+00  1.4103157137273035e-19 6.4465259605617565e-16 0.0000000000000000e+00  9.8958663505218972e-20 4.5233814464345302e-16 0.0000000000000000e+00  -2.5533257338391347e-19 -1.1671202744712165e-15 0.0000000000000000e+00  3.1479548837150914e-19 1.4389241134464773e-15 0.0000000000000000e+00  -3.0021626959518876e-19 -1.3722827852591382e-15 0.0000000000000000e+00  2.5119336149304940e-19 1.1482000166516337e-15 0.0000000000000000e+00  -2.0528148570886089e-19 -9.3833771684172535e-16 0.0000000000000000e+00  1.8718613195607670e-19 8.5562420340821489e-16 0.0000000000000000e+00  1.1350781526993634e-19 5.1884203709992061e-16 0.0000000000000000e+00  -1.0115194119098216e-19 -4.6236357469599611e-16 0.0000000000000000e+00  6.8467613849655397e-20 3.1296414401638763e-16 0.0000000000000000e+00  -2.6465771446339657e-20 -1.2097453147154840e-16 0.0000000000000000e+00  -1.2327792208685008e-20 -5.6350100715866608e-17 0.0000000000000000e+00  3.9000561198459387e-20 1.7827081397106697e-16 0.0000000000000000e+00  -5.0838010813875745e-20 -2.3237956813856079e-16 0.0000000000000000e+00  5.0707117680846006e-20 2.3178125814887356e-16 0.0000000000000000e+00  -4.4425511548284150e-20 -2.0306815751939644e-16 0.0000000000000000e+00  3.7910033758020353e-20 1.7328603404762913e-16 0.0000000000000000e+00  -3.5260413827565217e-20 -1.6117467238509860e-16 0.0000000000000000e+00  -3.5168218062360406e-20 -1.6075324731831151e-16 0.0000000000000000e+00  3.1517769975604646e-20 1.4406711943226523e-16 0.0000000000000000e+00  -2.1801250094548932e-20 -9.9653094225103190e-17 0.0000000000000000e+00  9.1467910114480658e-21 4.1809805518861581e-17 0.0000000000000000e+00  2.8175404679255922e-21 1.2878923204658307e-17 0.0000000000000000e+00  -1.1401983392916635e-20 -5.2118246452826244e-17 0.0000000000000000e+00  1.5643301613427945e-20 7.1505230338348517e-17 0.0000000000000000e+00  -1.6220538688017793e-20 -7.4143769886991504e-17 0.0000000000000000e+00  1.4766482294969421e-20 6.7497306123828839e-17 0.0000000000000000e+00  -1.3042038906119598e-20 -5.9614908611317513e-17 0.0000000000000000e+00  1.2316069498815017e-20 5.6296516434863571e-17 0.0000000000000000e+00  -1.1688270298909323e-03 -5.3426858385378981e+00 0.0000000000000000e+00  3.3581256375372421e-04 1.5349927601670421e+00 0.0000000000000000e+00  -1.4055221124670293e-05 -6.4246145015402267e-02 0.0000000000000000e+00  1.1704437494090767e-06 5.3500758323125003e-03 0.0000000000000000e+00  -1.2254196305295693e-07 -5.6013695259148836e-04 0.0000000000000000e+00  1.4446566046152001e-08 6.6034975113025182e-05 0.0000000000000000e+00  -1.8321184413558203e-09 -8.3745781033736348e-06 0.0000000000000000e+00  2.4411672100459695e-10 1.1158528292961086e-06 0.0000000000000000e+00  -3.3610946413194976e-11 -1.5363498860767226e-07 0.0000000000000000e+00  4.0897971171137446e-12 1.8694383840640418e-08 0.0000000000000000e+00  -2.4777052330669992e-04 -1.1325542892358975e+00 0.0000000000000000e+00  -4.9213745058473431e-05 -2.2495508065881734e-01 0.0000000000000000e+00  1.6742159507536323e-05 7.6528088605038291e-02 0.0000000000000000e+00  -1.9755621634280645e-06 -9.0302565938121127e-03 0.0000000000000000e+00  2.4226556015635916e-07 1.1073912087176949e-03 0.0000000000000000e+00  -3.1275292392678639e-08 -1.4295875907155282e-04 0.0000000000000000e+00  4.2067549485269234e-09 1.9228995835073436e-05 0.0000000000000000e+00  -5.8406818378506639e-10 -2.6697644171868667e-06 0.0000000000000000e+00  8.2880926271720256e-11 3.7884711745427680e-07 0.0000000000000000e+00  -1.0291837945609447e-11 -4.7043792997896001e-08 0.0000000000000000e+00  6.9914829949141779e-06 3.1957934092944541e-02 0.0000000000000000e+00  -5.0957646893398030e-06 -2.3292642235350856e-02 0.0000000000000000e+00  -2.7172230861260280e-06 -1.2420374384863802e-02 0.0000000000000000e+00  9.6972053182794511e-07 4.4325738712767924e-03 0.0000000000000000e+00  -1.7157570427711378e-07 -7.8426923919105464e-04 0.0000000000000000e+00  2.6914590793243263e-08 1.2302607606064811e-04 0.0000000000000000e+00  -4.0914573350125248e-09 -1.8701972664674948e-05 0.0000000000000000e+00  6.1799229268960415e-10 2.8248308655100262e-06 0.0000000000000000e+00  -9.3232646214580538e-11 -4.2616462990810075e-07 0.0000000000000000e+00  1.2059896079952651e-11 5.5125552671907485e-08 0.0000000000000000e+00  -4.4301102965614044e-07 -2.0249948828449135e-03 0.0000000000000000e+00  5.5317119086450919e-07 2.5285348577152099e-03 0.0000000000000000e+00  1.7335609663541383e-08 7.9240737836518710e-05 0.0000000000000000e+00  -1.7920846111592464e-07 -8.1915842367160524e-04 0.0000000000000000e+00  6.3275383932046616e-08 2.8923056108082966e-04 0.0000000000000000e+00  -1.3721669403347070e-08 -6.2721486522434412e-05 0.0000000000000000e+00  2.5325963575778117e-09 1.1576449165131195e-05 0.0000000000000000e+00  -4.3590661646521921e-10 -1.9925207470013925e-06 0.0000000000000000e+00  7.2222399977731044e-11 3.3012719907944789e-07 0.0000000000000000e+00  -9.9364257743586191e-12 -4.5419210809406531e-08 0.0000000000000000e+00  3.7502723744795689e-08 1.7142422782318419e-04 0.0000000000000000e+00  -5.9238099956455727e-08 -2.7077621379853044e-04 0.0000000000000000e+00  1.5674293095597719e-08 7.1646891806357790e-05 0.0000000000000000e+00  1.5507201483782672e-08 7.0883119267434015e-05 0.0000000000000000e+00  -1.3034960123712229e-08 -5.9582551633291793e-05 0.0000000000000000e+00  4.4868361521391186e-09 2.0509241621585742e-05 0.0000000000000000e+00  -1.0858070878662833e-09 -4.9632032827548470e-06 0.0000000000000000e+00  2.2359788872462397e-10 1.0220616421982442e-06 0.0000000000000000e+00  -4.2070313993213807e-11 -1.9230259486329673e-07 0.0000000000000000e+00  6.28511698