<?xml version="1.0"?>
<VTKFile type="UnstructuredGrid"  version="0.1"  >
<UnstructuredGrid>
<Piece  NumberOfPoints="1411" NumberOfCells="2700">
<Points>
<DataArray  type="Float64"  NumberOfComponents="3"  format="ascii">-0.75 -4.5 0  -0.65 -4.5 0  -0.55 -4.5 0  -0.45 -4.5 0  -0.35 -4.5 0  -0.25 -4.5 0  -0.15 -4.5 0  -0.05000000000000004 -4.5 0  0.05000000000000004 -4.5 0  0.15 -4.5 0  0.25 -4.5 0  0.3500000000000001 -4.5 0  0.45 -4.5 0  0.55 -4.5 0  0.6499999999999999 -4.5 0  0.75 -4.5 0  -0.75 -4.4 0  -0.65 -4.4 0  -0.55 -4.4 0  -0.45 -4.4 0  -0.35 -4.4 0  -0.25 -4.4 0  -0.15 -4.4 0  -0.05000000000000004 -4.4 0  0.05000000000000004 -4.4 0  0.15 -4.4 0  0.25 -4.4 0  0.3500000000000001 -4.4 0  0.45 -4.4 0  0.55 -4.4 0  0.6499999999999999 -4.4 0  0.75 -4.4 0  -0.75 -4.3 0  -0.65 -4.3 0  -0.55 -4.3 0  -0.45 -4.3 0  -0.35 -4.3 0  -0.25 -4.3 0  -0.15 -4.3 0  -0.05000000000000004 -4.3 0  0.05000000000000004 -4.3 0  0.15 -4.3 0  0.25 -4.3 0  0.3500000000000001 -4.3 0  0.45 -4.3 0  0.55 -4.3 0  0.6499999999999999 -4.3 0  0.75 -4.3 0  -0.75 -4.2 0  -0.65 -4.2 0  -0.55 -4.2 0  -0.45 -4.2 0  -0.35 -4.2 0  -0.25 -4.2 0  -0.15 -4.2 0  -0.05000000000000004 -4.2 0  0.05000000000000004 -4.2 0  0.15 -4.2 0  0.25 -4.2 0  0.3500000000000001 -4.2 0  0.45 -4.2 0  0.55 -4.2 0  0.6499999999999999 -4.2 0  0.75 -4.2 0  -0.75 -4.1 0  -0.65 -4.1 0  -0.55 -4.1 0  -0.45 -4.1 0  -0.35 -4.1 0  -0.25 -4.1 0  -0.15 -4.1 0  -0.05000000000000004 -4.1 0  0.05000000000000004 -4.1 0  0.15 -4.1 0  0.25 -4.1 0  0.3500000000000001 -4.1 0  0.45 -4.1 0  0.55 -4.1 0  0.6499999999999999 -4.1 0  0.75 -4.1 0  -0.75 -4 0  -0.65 -4 0  -0.55 -4 0  -0.45 -4 0  -0.35 -4 0  -0.25 -4 0  -0.15 -4 0  -0.05000000000000004 -4 0  0.05000000000000004 -4 0  0.15 -4 0  0.25 -4 0  0.3500000000000001 -4 0  0.45 -4 0  0.55 -4 0  0.6499999999999999 -4 0  0.75 -4 0  -0.75 -3.9 0  -0.65 -3.9 0  -0.55 -3.9 0  -0.45 -3.9 0  -0.35 -3.9 0  -0.25 -3.9 0  -0.15 -3.9 0  -0.05000000000000004 -3.9 0  0.05000000000000004 -3.9 0  0.15 -3.9 0  0.25 -3.9 0  0.3500000000000001 -3.9 0  0.45 -3.9 0  0.55 -3.9 0  0.6499999999999999 -3.9 0  0.75 -3.9 0  -0.75 -3.8 0  -0.65 -3.8 0  -0.55 -3.8 0  -0.45 -3.8 0  -0.35 -3.8 0  -0.25 -3.8 0  -0.15 -3.8 0  -0.05000000000000004 -3.8 0  0.05000000000000004 -3.8 0  0.15 -3.8 0  0.25 -3.8 0  0.3500000000000001 -3.8 0  0.45 -3.8 0  0.55 -3.8 0  0.6499999999999999 -3.8 0  0.75 -3.8 0  -0.75 -3.7 0  -0.65 -3.7 0  -0.55 -3.7 0  -0.45 -3.7 0  -0.35 -3.7 0  -0.25 -3.7 0  -0.15 -3.7 0  -0.05000000000000004 -3.7 0  0.05000000000000004 -3.7 0  0.15 -3.7 0  0.25 -3.7 0  0.3500000000000001 -3.7 0  0.45 -3.7 0  0.55 -3.7 0  0.6499999999999999 -3.7 0  0.75 -3.7 0  -0.75 -3.6 0  -0.65 -3.6 0  -0.55 -3.6 0  -0.45 -3.6 0  -0.35 -3.6 0  -0.25 -3.6 0  -0.15 -3.6 0  -0.05000000000000004 -3.6 0  0.05000000000000004 -3.6 0  0.15 -3.6 0  0.25 -3.6 0  0.3500000000000001 -3.6 0  0.45 -3.6 0  0.55 -3.6 0  0.6499999999999999 -3.6 0  0.75 -3.6 0  -0.75 -3.5 0  -0.65 -3.5 0  -0.55 -3.5 0  -0.45 -3.5 0  -0.35 -3.5 0  -0.25 -3.5 0  -0.15 -3.5 0  -0.05000000000000004 -3.5 0  0.05000000000000004 -3.5 0  0.15 -3.5 0  0.25 -3.5 0  0.3500000000000001 -3.5 0  0.45 -3.5 0  0.55 -3.5 0  0.6499999999999999 -3.5 0  0.75 -3.5 0  -0.75 -3.4 0  -0.65 -3.4 0  -0.55 -3.4 0  -0.45 -3.4 0  -0.35 -3.4 0  -0.25 -3.4 0  -0.15 -3.4 0  -0.05000000000000004 -3.4 0  0.05000000000000004 -3.4 0  0.15 -3.4 0  0.25 -3.4 0  0.3500000000000001 -3.4 0  0.45 -3.4 0  0.55 -3.4 0  0.6499999999999999 -3.4 0  0.75 -3.4 0  -0.75 -3.3 0  -0.65 -3.3 0  -0.55 -3.3 0  -0.45 -3.3 0  -0.35 -3.3 0  -0.25 -3.3 0  -0.15 -3.3 0  -0.05000000000000004 -3.3 0  0.05000000000000004 -3.3 0  0.15 -3.3 0  0.25 -3.3 0  0.3500000000000001 -3.3 0  0.45 -3.3 0  0.55 -3.3 0  0.6499999999999999 -3.3 0  0.75 -3.3 0  -0.75 -3.2 0  -0.65 -3.2 0  -0.55 -3.2 0  -0.45 -3.2 0  -0.35 -3.2 0  -0.25 -3.2 0  -0.15 -3.2 0  -0.05000000000000004 -3.2 0  0.05000000000000004 -3.2 0  0.15 -3.2 0  0.25 -3.2 0  0.3500000000000001 -3.2 0  0.45 -3.2 0  0.55 -3.2 0  0.6499999999999999 -3.2 0  0.75 -3.2 0  -0.75 -3.1 0  -0.65 -3.1 0  -0.55 -3.1 0  -0.45 -3.1 0  -0.35 -3.1 0  -0.25 -3.1 0  -0.15 -3.1 0  -0.05000000000000004 -3.1 0  0.05000000000000004 -3.1 0  0.15 -3.1 0  0.25 -3.1 0  0.3500000000000001 -3.1 0  0.45 -3.1 0  0.55 -3.1 0  0.6499999999999999 -3.1 0  0.75 -3.1 0  -0.75 -3 0  -0.65 -3 0  -0.55 -3 0  -0.45 -3 0  -0.35 -3 0  -0.25 -3 0  -0.15 -3 0  -0.05000000000000004 -3 0  0.05000000000000004 -3 0  0.15 -3 0  0.25 -3 0  0.3500000000000001 -3 0  0.45 -3 0  0.55 -3 0  0.6499999999999999 -3 0  0.75 -3 0  -0.75 -2.9 0  -0.65 -2.9 0  -0.55 -2.9 0  -0.45 -2.9 0  -0.35 -2.9 0  -0.25 -2.9 0  -0.15 -2.9 0  -0.05000000000000004 -2.9 0  0.05000000000000004 -2.9 0  0.15 -2.9 0  0.25 -2.9 0  0.3500000000000001 -2.9 0  0.45 -2.9 0  0.55 -2.9 0  0.6499999999999999 -2.9 0  0.75 -2.9 0  -0.75 -2.8 0  -0.65 -2.8 0  -0.55 -2.8 0  -0.45 -2.8 0  -0.35 -2.8 0  -0.25 -2.8 0  -0.15 -2.8 0  -0.05000000000000004 -2.8 0  0.05000000000000004 -2.8 0  0.15 -2.8 0  0.25 -2.8 0  0.3500000000000001 -2.8 0  0.45 -2.8 0  0.55 -2.8 0  0.6499999999999999 -2.8 0  0.75 -2.8 0  -0.75 -2.7 0  -0.65 -2.7 0  -0.55 -2.7 0  -0.45 -2.7 0  -0.35 -2.7 0  -0.25 -2.7 0  -0.15 -2.7 0  -0.05000000000000004 -2.7 0  0.05000000000000004 -2.7 0  0.15 -2.7 0  0.25 -2.7 0  0.3500000000000001 -2.7 0  0.45 -2.7 0  0.55 -2.7 0  0.6499999999999999 -2.7 0  0.75 -2.7 0  -0.75 -2.6 0  -0.65 -2.6 0  -0.55 -2.6 0  -0.45 -2.6 0  -0.35 -2.6 0  -0.25 -2.6 0  -0.15 -2.6 0  -0.05000000000000004 -2.6 0  0.05000000000000004 -2.6 0  0.15 -2.6 0  0.25 -2.6 0  0.3500000000000001 -2.6 0  0.45 -2.6 0  0.55 -2.6 0  0.6499999999999999 -2.6 0  0.75 -2.6 0  -0.75 -2.5 0  -0.65 -2.5 0  -0.55 -2.5 0  -0.45 -2.5 0  -0.35 -2.5 0  -0.25 -2.5 0  -0.15 -2.5 0  -0.05000000000000004 -2.5 0  0.05000000000000004 -2.5 0  0.15 -2.5 0  0.25 -2.5 0  0.3500000000000001 -2.5 0  0.45 -2.5 0  0.55 -2.5 0  0.6499999999999999 -2.5 0  0.75 -2.5 0  -0.75 -2.4 0  -0.65 -2.4 0  -0.55 -2.4 0  -0.45 -2.4 0  -0.35 -2.4 0  -0.25 -2.4 0  -0.15 -2.4 0  -0.05000000000000004 -2.4 0  0.05000000000000004 -2.4 0  0.15 -2.4 0  0.25 -2.4 0  0.3500000000000001 -2.4 0  0.45 -2.4 0  0.55 -2.4 0  0.6499999999999999 -2.4 0  0.75 -2.4 0  -0.75 -2.3 0  -0.65 -2.3 0  -0.55 -2.3 0  -0.45 -2.3 0  -0.35 -2.3 0  -0.25 -2.3 0  -0.15 -2.3 0  -0.05000000000000004 -2.3 0  0.05000000000000004 -2.3 0  0.15 -2.3 0  0.25 -2.3 0  0.3500000000000001 -2.3 0  0.45 -2.3 0  0.55 -2.3 0  0.6499999999999999 -2.3 0  0.75 -2.3 0  -0.75 -2.2 0  -0.65 -2.2 0  -0.55 -2.2 0  -0.45 -2.2 0  -0.35 -2.2 0  -0.25 -2.2 0  -0.15 -2.2 0  -0.05000000000000004 -2.2 0  0.05000000000000004 -2.2 0  0.15 -2.2 0  0.25 -2.2 0  0.3500000000000001 -2.2 0  0.45 -2.2 0  0.55 -2.2 0  0.6499999999999999 -2.2 0  0.75 -2.2 0  -0.75 -2.1 0  -0.65 -2.1 0  -0.55 -2.1 0  -0.45 -2.1 0  -0.35 -2.1 0  -0.25 -2.1 0  -0.15 -2.1 0  -0.05000000000000004 -2.1 0  0.05000000000000004 -2.1 0  0.15 -2.1 0  0.25 -2.1 0  0.3500000000000001 -2.1 0  0.45 -2.1 0  0.55 -2.1 0  0.6499999999999999 -2.1 0  0.75 -2.1 0  -0.75 -2 0  -0.65 -2 0  -0.55 -2 0  -0.45 -2 0  -0.35 -2 0  -0.25 -2 0  -0.15 -2 0  -0.05000000000000004 -2 0  0.05000000000000004 -2 0  0.15 -2 0  0.25 -2 0  0.3500000000000001 -2 0  0.45 -2 0  0.55 -2 0  0.6499999999999999 -2 0  0.75 -2 0  -0.75 -1.9 0  -0.65 -1.9 0  -0.55 -1.9 0  -0.45 -1.9 0  -0.35 -1.9 0  -0.25 -1.9 0  -0.15 -1.9 0  -0.05000000000000004 -1.9 0  0.05000000000000004 -1.9 0  0.15 -1.9 0  0.25 -1.9 0  0.3500000000000001 -1.9 0  0.45 -1.9 0  0.55 -1.9 0  0.6499999999999999 -1.9 0  0.75 -1.9 0  -0.75 -1.8 0  -0.65 -1.8 0  -0.55 -1.8 0  -0.45 -1.8 0  -0.35 -1.8 0  -0.25 -1.8 0  -0.15 -1.8 0  -0.05000000000000004 -1.8 0  0.05000000000000004 -1.8 0  0.15 -1.8 0  0.25 -1.8 0  0.3500000000000001 -1.8 0  0.45 -1.8 0  0.55 -1.8 0  0.6499999999999999 -1.8 0  0.75 -1.8 0  -0.75 -1.7 0  -0.65 -1.7 0  -0.55 -1.7 0  -0.45 -1.7 0  -0.35 -1.7 0  -0.25 -1.7 0  -0.15 -1.7 0  -0.05000000000000004 -1.7 0  0.05000000000000004 -1.7 0  0.15 -1.7 0  0.25 -1.7 0  0.3500000000000001 -1.7 0  0.45 -1.7 0  0.55 -1.7 0  0.6499999999999999 -1.7 0  0.75 -1.7 0  -0.75 -1.6 0  -0.65 -1.6 0  -0.55 -1.6 0  -0.45 -1.6 0  -0.35 -1.6 0  -0.25 -1.6 0  -0.15 -1.6 0  -0.05000000000000004 -1.6 0  0.05000000000000004 -1.6 0  0.15 -1.6 0  0.25 -1.6 0  0.3500000000000001 -1.6 0  0.45 -1.6 0  0.55 -1.6 0  0.6499999999999999 -1.6 0  0.75 -1.6 0  -0.75 -1.5 0  -0.65 -1.5 0  -0.55 -1.5 0  -0.45 -1.5 0  -0.35 -1.5 0  -0.25 -1.5 0  -0.15 -1.5 0  -0.05000000000000004 -1.5 0  0.05000000000000004 -1.5 0  0.15 -1.5 0  0.25 -1.5 0  0.3500000000000001 -1.5 0  0.45 -1.5 0  0.55 -1.5 0  0.6499999999999999 -1.5 0  0.75 -1.5 0  -0.75 -1.4 0  -0.65 -1.4 0  -0.55 -1.4 0  -0.45 -1.4 0  -0.35 -1.4 0  -0.25 -1.4 0  -0.15 -1.4 0  -0.05000000000000004 -1.4 0  0.05000000000000004 -1.4 0  0.15 -1.4 0  0.25 -1.4 0  0.3500000000000001 -1.4 0  0.45 -1.4 0  0.55 -1.4 0  0.6499999999999999 -1.4 0  0.75 -1.4 0  -0.75 -1.3 0  -0.65 -1.3 0  -0.55 -1.3 0  -0.45 -1.3 0  -0.35 -1.3 0  -0.25 -1.3 0  -0.15 -1.3 0  -0.05000000000000004 -1.3 0  0.05000000000000004 -1.3 0  0.15 -1.3 0  0.25 -1.3 0  0.3500000000000001 -1.3 0  0.45 -1.3 0  0.55 -1.3 0  0.6499999999999999 -1.3 0  0.75 -1.3 0  -0.75 -1.2 0  -0.65 -1.2 0  -0.55 -1.2 0  -0.45 -1.2 0  -0.35 -1.2 0  -0.25 -1.2 0  -0.15 -1.2 0  -0.05000000000000004 -1.2 0  0.05000000000000004 -1.2 0  0.15 -1.2 0  0.25 -1.2 0  0.3500000000000001 -1.2 0  0.45 -1.2 0  0.55 -1.2 0  0.6499999999999999 -1.2 0  0.75 -1.2 0  -0.75 -1.1 0  -0.65 -1.1 0  -0.55 -1.1 0  -0.45 -1.1 0  -0.35 -1.1 0  -0.25 -1.1 0  -0.15 -1.1 0  -0.05000000000000004 -1.1 0  0.05000000000000004 -1.1 0  0.15 -1.1 0  0.25 -1.1 0  0.3500000000000001 -1.1 0  0.45 -1.1 0  0.55 -1.1 0  0.6499999999999999 -1.1 0  0.75 -1.1 0  -0.75 -1 0  -0.65 -1 0  -0.55 -1 0  -0.45 -1 0  -0.35 -1 0  -0.25 -1 0  -0.15 -1 0  -0.05000000000000004 -1 0  0.05000000000000004 -1 0  0.15 -1 0  0.25 -1 0  0.3500000000000001 -1 0  0.45 -1 0  0.55 -1 0  0.6499999999999999 -1 0  0.75 -1 0  -0.75 -0.8999999999999999 0  -0.65 -0.899999
[...]
<PointData  Vectors="flow"> 
<DataArray  type="Float64"  Name="flow"  NumberOfComponents="3" format="ascii">-6.8211377915600779e-10 1.3642508634283686e-09 0.0000000000000000e+00  5.2905522715893660e-14 1.3642508634245129e-09 0.0000000000000000e+00  -4.0971761651394025e-18 1.3642508634257071e-09 0.0000000000000000e+00  5.7602528780559377e-23 1.3642508634254201e-09 0.0000000000000000e+00  -4.8349537364608794e-22 1.3642508634272159e-09 0.0000000000000000e+00  -2.3068988634221791e-21 1.3642508634310474e-09 0.0000000000000000e+00  -2.4674530892185019e-21 1.3642508634283274e-09 0.0000000000000000e+00  -3.7091771057468775e-21 1.3642508634214078e-09 0.0000000000000000e+00  -2.4000912068709024e-21 1.3642508634251335e-09 0.0000000000000000e+00  1.9204686101669381e-21 1.3642508634228300e-09 0.0000000000000000e+00  3.2140877250274397e-21 1.3642508634223998e-09 0.0000000000000000e+00  4.4628589899567509e-21 1.3642508634255959e-09 0.0000000000000000e+00  2.3907955794428341e-21 1.3642508634238278e-09 0.0000000000000000e+00  4.0958788793181483e-18 1.3642508634212376e-09 0.0000000000000000e+00  -5.2905521674839989e-14 1.3642508634250232e-09 0.0000000000000000e+00  6.8211377915850960e-10 1.3642508634262158e-09 0.0000000000000000e+00  -6.8126742186841070e-10 4.0908249360080072e-09 0.0000000000000000e+00  5.2839986594101057e-14 4.0908249360094713e-09 0.0000000000000000e+00  -4.0918872333583331e-18 4.0908249360101049e-09 0.0000000000000000e+00  3.0527062441221957e-22 4.0908249360090924e-09 0.0000000000000000e+00  1.5024712686821351e-21 4.0908249360045768e-09 0.0000000000000000e+00  -2.1334732362366744e-21 4.0908249360068193e-09 0.0000000000000000e+00  -3.3644185000469423e-21 4.0908249360083025e-09 0.0000000000000000e+00  -4.9935154991577577e-21 4.0908249360055091e-09 0.0000000000000000e+00  -2.3377654154249974e-21 4.0908249360054884e-09 0.0000000000000000e+00  7.1644426017457268e-23 4.0908249360034767e-09 0.0000000000000000e+00  5.9169785708904518e-21 4.0908249360031458e-09 0.0000000000000000e+00  4.5701910585666378e-21 4.0908249360052262e-09 0.0000000000000000e+00  -6.5072113207864372e-22 4.0908249360054106e-09 0.0000000000000000e+00  4.0936351727057688e-18 4.0908249360071634e-09 0.0000000000000000e+00  -5.2839985713059572e-14 4.0908249360088716e-09 0.0000000000000000e+00  6.8126742186747113e-10 4.0908249360085920e-09 0.0000000000000000e+00  -6.7873044678600186e-10 8.1714981869507982e-09 0.0000000000000000e+00  5.2643545022091049e-14 8.1714981869517892e-09 0.0000000000000000e+00  -4.0769587458926814e-18 8.1714981869519099e-09 0.0000000000000000e+00  -6.7498922781773900e-21 8.1714981869487137e-09 0.0000000000000000e+00  -1.7826539576074525e-21 8.1714981869484771e-09 0.0000000000000000e+00  1.0407938514565736e-21 8.1714981869453206e-09 0.0000000000000000e+00  -5.1888005483460902e-21 8.1714981869452544e-09 0.0000000000000000e+00  -6.6734010122550523e-21 8.1714981869418630e-09 0.0000000000000000e+00  -2.9553203278157903e-21 8.1714981869438151e-09 0.0000000000000000e+00  -1.4032645450116111e-21 8.1714981869433436e-09 0.0000000000000000e+00  6.4871460665818982e-21 8.1714981869441443e-09 0.0000000000000000e+00  6.9703586460152495e-21 8.1714981869429714e-09 0.0000000000000000e+00  3.6757962743397698e-21 8.1714981869460849e-09 0.0000000000000000e+00  4.0796665271311137e-18 8.1714981869487898e-09 0.0000000000000000e+00  -5.2643541147952778e-14 8.1714981869482207e-09 0.0000000000000000e+00  6.7873044679143623e-10 8.1714981869463132e-09 0.0000000000000000e+00  -6.7450913919996815e-10 1.2231893218089825e-08 0.0000000000000000e+00  5.2316667694338259e-14 1.2231893218088904e-08 0.0000000000000000e+00  -4.0550295696442628e-18 1.2231893218085550e-08 0.0000000000000000e+00  -1.6368418505333014e-21 1.2231893218087847e-08 0.0000000000000000e+00  -2.9106844666626285e-21 1.2231893218093318e-08 0.0000000000000000e+00  -5.4635085393014585e-21 1.2231893218085833e-08 0.0000000000000000e+00  -5.2582583593467075e-21 1.2231893218084324e-08 0.0000000000000000e+00  -5.5772463685191236e-21 1.2231893218089218e-08 0.0000000000000000e+00  -3.3114291055012468e-21 1.2231893218084945e-08 0.0000000000000000e+00  -1.2125034403724709e-22 1.2231893218084808e-08 0.0000000000000000e+00  5.8997584752885166e-21 1.2231893218086521e-08 0.0000000000000000e+00  6.0458850276993270e-21 1.2231893218084937e-08 0.0000000000000000e+00  6.3369343323844497e-21 1.2231893218086447e-08 0.0000000000000000e+00  4.0552962717009451e-18 1.2231893218086300e-08 0.0000000000000000e+00  -5.2316667636032887e-14 1.2231893218083377e-08 0.0000000000000000e+00  6.7450913919415773e-10 1.2231893218083744e-08 0.0000000000000000e+00  -6.6861395750301417e-10 1.6261933733971031e-08 0.0000000000000000e+00  5.1860159185247969e-14 1.6261933733972143e-08 0.0000000000000000e+00  -4.0200741883368467e-18 1.6261933733972411e-08 0.0000000000000000e+00  1.7550538123866389e-22 1.6261933733971892e-08 0.0000000000000000e+00  -3.2501115648261722e-21 1.6261933733968441e-08 0.0000000000000000e+00  -8.1943373583499891e-21 1.6261933733972431e-08 0.0000000000000000e+00  -2.7074392429859939e-21 1.6261933733967044e-08 0.0000000000000000e+00  -5.6026139262833201e-21 1.6261933733966803e-08 0.0000000000000000e+00  -6.2646605588615146e-21 1.6261933733969195e-08 0.0000000000000000e+00  7.3362914511496819e-22 1.6261933733972030e-08 0.0000000000000000e+00  6.5198167288856088e-21 1.6261933733968219e-08 0.0000000000000000e+00  6.8178196389850254e-21 1.6261933733969519e-08 0.0000000000000000e+00  3.8392203660580456e-21 1.6261933733969463e-08 0.0000000000000000e+00  4.0166936904053426e-18 1.6261933733967230e-08 0.0000000000000000e+00  -5.1860160069152319e-14 1.6261933733968007e-08 0.0000000000000000e+00  6.6861395750398001e-10 1.6261933733971322e-08 0.0000000000000000e+00  -6.6105950770946541e-10 2.0251618644728107e-08 0.0000000000000000e+00  5.1275134751091737e-14 2.0251618644723378e-08 0.0000000000000000e+00  -3.9744522050877872e-18 2.0251618644722518e-08 0.0000000000000000e+00  -3.5566053570204094e-21 2.0251618644725096e-08 0.0000000000000000e+00  -3.8316028443303830e-21 2.0251618644719299e-08 0.0000000000000000e+00  -6.9604151773013791e-21 2.0251618644720377e-08 0.0000000000000000e+00  -9.0275744570249933e-21 2.0251618644721463e-08 0.0000000000000000e+00  -3.5213113210864558e-21 2.0251618644719911e-08 0.0000000000000000e+00  2.9918702561233935e-22 2.0251618644720470e-08 0.0000000000000000e+00  -3.8346340770496264e-22 2.0251618644722641e-08 0.0000000000000000e+00  2.0928488066589139e-21 2.0251618644719405e-08 0.0000000000000000e+00  8.1257885017866221e-21 2.0251618644718194e-08 0.0000000000000000e+00  5.5671766830499885e-21 2.0251618644721009e-08 0.0000000000000000e+00  3.9741471074823812e-18 2.0251618644721095e-08 0.0000000000000000e+00  -5.1275133767883840e-14 2.0251618644721261e-08 0.0000000000000000e+00  6.6105950771376593e-10 2.0251618644723378e-08 0.0000000000000000e+00  -6.5186450776103342e-10 2.4191046848683288e-08 0.0000000000000000e+00  5.0563017171665202e-14 2.4191046848686004e-08 0.0000000000000000e+00  -3.9186355004462315e-18 2.4191046848686891e-08 0.0000000000000000e+00  -1.7502340742611929e-21 2.4191046848691014e-08 0.0000000000000000e+00  -1.0240561712342363e-20 2.4191046848684519e-08 0.0000000000000000e+00  -4.9525214317244246e-21 2.4191046848682752e-08 0.0000000000000000e+00  -3.9580490806508687e-21 2.4191046848683549e-08 0.0000000000000000e+00  -7.2566841479892540e-21 2.4191046848686623e-08 0.0000000000000000e+00  -2.4928999608265576e-21 2.4191046848683572e-08 0.0000000000000000e+00  -1.4765772141995876e-21 2.4191046848679446e-08 0.0000000000000000e+00  4.0009130457549021e-21 2.4191046848679407e-08 0.0000000000000000e+00  7.0530671838407689e-21 2.4191046848677137e-08 0.0000000000000000e+00  4.3625059587019410e-21 2.4191046848677051e-08 0.0000000000000000e+00  3.9188387213289909e-18 2.4191046848673233e-08 0.0000000000000000e+00  -5.0563020106968132e-14 2.4191046848672022e-08 0.0000000000000000e+00  6.5186450777105368e-10 2.4191046848672171e-08 0.0000000000000000e+00  -6.4105174176527546e-10 2.8070441770778642e-08 0.0000000000000000e+00  4.9725564542485751e-14 2.8070441770783535e-08 0.0000000000000000e+00  -3.8542079873747217e-18 2.8070441770786162e-08 0.0000000000000000e+00  -6.3554075930303760e-21 2.8070441770778211e-08 0.0000000000000000e+00  -8.7433146537023060e-21 2.8070441770784647e-08 0.0000000000000000e+00  -7.9919942832601557e-21 2.8070441770791281e-08 0.0000000000000000e+00  -5.5608782191061944e-21 2.8070441770789534e-08 0.0000000000000000e+00  -4.5474667568717059e-21 2.8070441770783347e-08 0.0000000000000000e+00  -6.2572951583718749e-21 2.8070441770789203e-08 0.0000000000000000e+00  -5.3715587220864968e-21 2.8070441770784177e-08 0.0000000000000000e+00  -7.8173071353251039e-22 2.8070441770785742e-08 0.0000000000000000e+00  6.2819885389484650e-21 2.8070441770779469e-08 0.0000000000000000e+00  3.5814730454091278e-21 2.8070441770774271e-08 0.0000000000000000e+00  3.8522096032777569e-18 2.8070441770773903e-08 0.0000000000000000e+00  -4.9725561799888793e-14 2.8070441770777030e-08 0.0000000000000000e+00  6.4105174177252601e-10 2.8070441770774790e-08 0.0000000000000000e+00  -6.2864800434734623e-10 3.1880175596589417e-08 0.0000000000000000e+00  4.8764807047462445e-14 3.1880175596584314e-08 0.0000000000000000e+00  -3.7822720647878990e-18 3.1880175596583673e-08 0.0000000000000000e+00  -4.8197867821669396e-21 3.1880175596588616e-08 0.0000000000000000e+00  -8.4577254646281596e-22 3.1880175596588669e-08 0.0000000000000000e+00  -4.8268487853794185e-22 3.1880175596593632e-08 0.0000000000000000e+00  -1.1441876697201928e-20 3.1880175596599766e-08 0.0000000000000000e+00  -5.6149732463722910e-21 3.1880175596593705e-08 0.0000000000000000e+00  1.4912943550151911e-22 3.1880175596594710e-08 0.0000000000000000e+00  -4.6322282921802226e-21 3.1880175596600507e-08 0.0000000000000000e+00  -1.2346622458597995e-22 3.1880175596596424e-08 0.0000000000000000e+00  -4.0601165861934815e-21 3.1880175596598251e-08 0.0000000000000000e+00  -4.8142162145487361e-21 3.1880175596588510e-08 0.0000000000000000e+00  3.7840713473967690e-18 3.1880175596593579e-08 0.0000000000000000e+00  -4.8764803076365047e-14 3.1880175596592308e-08 0.0000000000000000e+00  6.2864800435185932e-10 3.1880175596586545e-08 0.0000000000000000e+00  -6.1468403506903688e-10 3.5610793142527121e-08 0.0000000000000000e+00  4.7683092984347362e-14 3.5610793142518929e-08 0.0000000000000000e+00  -3.6943002790877474e-18 3.5610793142516798e-08 0.0000000000000000e+00  -4.7909207666372363e-22 3.5610793142518009e-08 0.0000000000000000e+00  3.0469912676834448e-21 3.5610793142525917e-08 0.0000000000000000e+00  2.6100985203109623e-21 3.5610793142527776e-08 0.0000000000000000e+00  -9.1432993221342688e-21 3.5610793142520669e-08 0.0000000000000000e+00  -1.0647772890118385e-20 3.5610793142531879e-08 0.0000000000000000e+00  -2.6251107275727513e-21 3.5610793142522105e-08 0.0000000000000000e+00  -5.1645601558664296e-21 3.5610793142519683e-08 0.0000000000000000e+00  -5.0005060130651286e-22 3.5610793142520934e-08 0.0000000000000000e+00  -7.3894416722788610e-22 3.5610793142521728e-08 0.0000000000000000e+00  -1.8481041783199997e-21 3.5610793142526929e-08 0.0000000000000000e+00  3.7031550227482441e-18 3.5610793142529669e-08 0.0000000000000000e+00  -4.7683105632047393e-14 3.5610793142529768e-08 0.0000000000000000e+00  6.1468403506777771e-10 3.5610793142529781e-08 0.0000000000000000e+00  -5.9919444316752128e-10 3.9253035303638867e-08 0.0000000000000000e+00  4.6483094507240326e-14 3.9253035303646901e-08 0.0000000000000000e+00  -3.6061585270904560e-18 3.9253035303643976e-08 0.0000000000000000e+00  -9.5855181429078818e-22 3.9253035303637961e-08 0.0000000000000000e+00  2.0750817474431151e-22 3.9253035303628531e-08 0.0000000000000000e+00  -1.6381338178045118e-21 3.9253035303621152e-08 0.0000000000000000e+00  -7.4546670989773539e-22 3.9253035303631833e-08 0.0000000000000000e+00  -5.9205073458743989e-21 3.9253035303629993e-08 0.0000000000000000e+00  -6.3956045159206916e-21 3.9253035303634235e-08 0.0000000000000000e+00  -4.3786836096358042e-21 3.9253035303634639e-08 0.0000000000000000e+00  -4.3564714191305672e-21 3.9253035303633573e-08 0.0000000000000000e+00  1.7238848541472010e-21 3.9253035303624593e-08 0.0000000000000000e+00  2.6623910761391577e-21 3.9253035303633507e-08 0.0000000000000000e+00  3.6113937381852035e-18 3.9253035303630205e-08 0.0000000000000000e+00  -4.6483098645813373e-14 3.9253035303636809e-08 0.0000000000000000e+00  5.9919444315890754e-10 3.9253035303638086e-08 0.0000000000000000e+00  -5.8221762278364849e-10 4.2797862021202975e-08 0.0000000000000000e+00  4.5167739243319913e-14 4.2797862021202955e-08 0.0000000000000000e+00  -3.5140029963687962e-18 4.2797862021196741e-08 0.0000000000000000e+00  -6.9182080848533307e-21 4.2797862021194107e-08 0.0000000000000000e+00  -8.9533933791799047e-21 4.2797862021199752e-08 0.0000000000000000e+00  1.1786476637013784e-21 4.2797862021207177e-08 0.0000000000000000e+00  -3.4678143013540093e-21 4.2797862021185246e-08 0.0000000000000000e+00  -8.3430721802368962e-21 4.2797862021188264e-08 0.0000000000000000e+00  -4.5094604460166022e-21 4.2797862021191745e-08 0.0000000000000000e+00  -4.0200246955161397e-21 4.2797862021183116e-08 0.0000000000000000e+00  -6.7280963916101356e-21 4.2797862021195259e-08 0.0000000000000000e+00  3.7573977608653257e-22 4.2797862021196622e-08 0.0000000000000000e+00  6.4062112758002641e-21 4.2797862021193895e-08 0.0000000000000000e+00  3.5108700512575866e-18 4.2797862021193002e-08 0.0000000000000000e+00  -4.5167739604173782e-14 4.2797862021192519e-08 0.0000000000000000e+00  5.8221762278026708e-10 4.2797862021189104e-08 0.0000000000000000e+00  -5.6379565885589543e-10 4.6236474713468097e-08 0.0000000000000000e+00  4.3740254615849045e-14 4.6236474713459475e-08 0.0000000000000000e+00  -3.4038189920157249e-18 4.6236474713460937e-08 0.0000000000000000e+00  -3.4981359872552448e-21 4.6236474713462439e-08 0.0000000000000000e+00  1.1417598794371394e-20 4.6236474713464782e-08 0.0000000000000000e+00  -1.1874835819613036e-20 4.6236474713462261e-08 0.0000000000000000e+00  -2.2294013860601513e-20 4.6236474713454670e-08 0.0000000000000000e+00  -1.8436027709517507e-24 4.6236474713444638e-08 0.0000000000000000e+00  -3.5253027079981873e-21 4.6236474713451461e-08 0.0000000000000000e+00  1.7796429629569794e-21 4.6236474713466224e-08 0.0000000000000000e+00  4.5630646105634091e-21 4.6236474713462320e-08 0.0000000000000000e+00  -1.0941557067374140e-21 4.6236474713470585e-08 0.0000000000000000e+00  -1.7720419555829722e-21 4.6236474713464279e-08 0.0000000000000000e+00  3.3958239624697925e-18 4.6236474713450634e-08 0.0000000000000000e+00  -4.3740261538919209e-14 4.6236474713452050e-08 0.0000000000000000e+00  5.6379565884796236e-10 4.6236474713461400e-08 0.0000000000000000e+00  -5.4397422374107954e-10 4.9560338113903945e-08 0.0000000000000000e+00  4.2204151898845076e-14 4.9560338113908723e-08 0.0000000000000000e+00  -3.2838326630990022e-18 4.9560338113911006e-08 0.0000000000000000e+00  -3.4276484137125515e-21 4.9560338113911377e-08 0.0000000000000000e+00  -7.1223730512333743e-21 4.9560338113907764e-08 0.0000000000000000e+00  -1.4318651628817486e-20 4.9560338113891140e-08 0.0000000000000000e+00  -1.2103629515291570e-20 4.9560338113908935e-08 0.0000000000000000e+00  -8.3270458742569197e-21 4.9560338113912191e-08 0.0000000000000000e+00  5.3514650511739539e-21 4.9560338113906480e-08 0.0000000000000000e+00  -8.3314541128598470e-22 4.9560338113897103e-08 0.0000000000000000e+00  2.8915446044318080e-21 4.9560338113899406e-08 0.0000000000000000e+00  4.6201520287756995e-21 4.9560338113898896e-08 0.0000000000000000e+00  -1.0968402789521747e-20 4.9560338113902741e-08 0.0000000000000000e+00  3.2742714028437442e-18 4.9560338113905011e-08 0.0000000000000000e+00  -4.2204154212530528e-14 4.9560338113903747e-08 0.0000000000000000e+00  5.4397422374453343e-10 4.9560338113898082e-08 0.0000000000000000e+00  -5.2280246508285870e-10 5.2761201463012263e-08 0.0000000000000000e+00  4.0563218941560390e-14 5.2761201463009762e-08 0.0000000000000000e+00  -3.1538980694534080e-18 5.2761201463014480e-08 0.0000000000000000e+00  -4.1187663665364683e-21 5.2761201463024360e-08 0.0000000000000000e+00  -3.7370234136912479e-21 5.2761201463020065e-08 0.0000000000000000e+00  -1.4257305013543034e-20 5.2761201463034107e-08 0.0000000000000000e+00  -1.1857883819921017e-20 5.2761201463028324e-08 0.0000000000000000e+00  -5.5178915290953591e-21 5.2761201463027927e-08 0.0000000000000000e+00  -9.2148493894977591e-21 5.2761201463020422e-08 0.0000000000000000e+00  1.0513824906329083e-21 5.2761201463009133e-08 0.0000000000000000e+00  3.6809367498153681e-21 5.2761201463021527e-08 0.0000000000000000e+00  -2.1541164245728708e-21 5.2761201463003515e-08 0.0000000000000000e+00  1.5403778519429473e-21 5.2761201463007154e-08 0.0000000000000000e+00  3.1571672771569521e-18 5.2761201463014023e-08 0.0000000000000000e+00  -4.0563223590220327e-14 5.2761201463019873e-08 0.0000000000000000e+00  5.2280246507396516e-10 5.2761201463022262e-08 0.0000000000000000e+00  -5.0033288494679864e-10 5.5831119000705559e-08 0.0000000000000000e+00  3.8821467968314745e-14 5.5831119000709146e-08 0.0000000000000000e+00  -3.0145936098837945e-18 5.5831119000705129e-08 0.0000000000000000e+00  -7.8222993423710350e-22 5.5831119000701264e-08 0.0000000000000000e+00  -4.6087423780596149e-21 5.5831119000697413e-08 0.0000000000000000e+00  3.5090004313195893e-21 5.5831119000704996e-08 0.0000000000000000e+00  -7.3595198118388863e-21 5.5831119000720786e-08 0.0000000000000000e+00  -1.1515798893769970e-20 5.5831119000722566e-08 0.0000000000000000e+00  -2.1451940372805527e-20 5.5831119000712514e-08 0.0000000000000000e+00  2.7169842695528730e-21 5.5831119000721355e-08 0.0000000000000000e+00  -4.7838221005660012e-21 5.5831119000712236e-08 0.0000000000000000e+00  -5.6681083699528393e-21 5.5831119000708477e-08 0.0000000000000000e+00  -4.7038555084408376e-21 5.5831119000696619e-08 0.0000000000000000e+00  3.0209439384247794e-18 5.5831119000693495e-08 0.0000000000000000e+00  -3.8821468822259256e-14 5.5831119000689730e-08 0.0000000000000000e+00  5.0033288494259594e-10 5.5831119000696314e-08 0.0000000000000000e+00  -4.7662121047933200e-10 5.8762469708247632e-08 0.0000000000000000e+00  3.6983228847933350e-14 5.8762469708255752e-08 0.0000000000000000e+00  -2.8824567212848989e-18 5.8762469708259762e-08 0.0000000000000000e+00  -6.4539221813678029e-21 5.8762469708257724e-08 0.0000000000000000e+00  -2.8702232538067905e-21 5.8762469708261019e-08 0.0000000000000000e+00  5.9954744139867540e-21 5.8762469708267848e-08 0.0000000000000000e+00  -6.5966463216374544e-21 5.8762469708258875e-08 0.0000000000000000e+00  -1.5892181675212540e-20 5.8762469708257340e-08 0.0000000000000000e+00  -7.7318738362656630e-21 5.8762469708258233e-08 0.0000000000000000e+00  1.5452825632358275e-21 5.8762469708257406e-08 0.0000000000000000e+00  -1.0702865835221935e-20 5.8762469708252781e-08 0.0000000000000000e+00  -1.7085910332507276e-20 5.8762469708259193e-08 0.0000000000000000e+00  -8.1550851349439193e-21 5.8762469708243721e-08 0.0000000000000000e+00  2.8840637232638082e-18 5.8762469708254799e-08 0.0000000000000000e+00  -3.6983221986026166e-14 5.8762469708252172e-08 0.0000000000000000e+00  4.7662121048156436e-10 5.8762469708238467e-08 0.0000000000000000e+00  -4.5172625670656285e-10 6.1547976250352084e-08 0.0000000000000000e+00  3.5052999942020019e-14 6.1547976250345678e-08 0.0000000000000000e+00  -2.7204154059009976e-18 6.1547976250355724e-08 0.0000000000000000e+00  -1.9932542171283389e-21 6.1547976250363559e-08 0.0000000000000000e+00  5.2744400855276496e-21 6.1547976250363492e-08 0.0000000000000000e+00  2.1456643209296912e-21 6.1547976250357007e-08 0.0000000000000000e+00  -1.1277894173966644e-20 6.1547976250347915e-08 0.0000000000000000e+00  -1.6680857217162925e-20 6.1547976250347372e-08 0.0000000000000000e+00  -2.0519986991143205e-20 6.1547976250342025e-08 0.0000000000000000e+00  -7.6446328344704214e-22 6.1547976250351859e-08 0