<?xml version="1.0"?>
<VTKFile type="UnstructuredGrid"  version="0.1"  >
<UnstructuredGrid>
<Piece  NumberOfPoints="431" NumberOfCells="800">
<Points>
<DataArray  type="Float64"  NumberOfComponents="3"  format="ascii">-0.75 -3 0  -0.6 -3 0  -0.45 -3 0  -0.3 -3 0  -0.15 -3 0  0 -3 0  0.15 -3 0  0.3 -3 0  0.45 -3 0  0.6000000000000001 -3 0  0.75 -3 0  -0.75 -2.85 0  -0.6 -2.85 0  -0.45 -2.85 0  -0.3 -2.85 0  -0.15 -2.85 0  0 -2.85 0  0.15 -2.85 0  0.3 -2.85 0  0.45 -2.85 0  0.6000000000000001 -2.85 0  0.75 -2.85 0  -0.75 -2.7 0  -0.6 -2.7 0  -0.45 -2.7 0  -0.3 -2.7 0  -0.15 -2.7 0  0 -2.7 0  0.15 -2.7 0  0.3 -2.7 0  0.45 -2.7 0  0.6000000000000001 -2.7 0  0.75 -2.7 0  -0.75 -2.55 0  -0.6 -2.55 0  -0.45 -2.55 0  -0.3 -2.55 0  -0.15 -2.55 0  0 -2.55 0  0.15 -2.55 0  0.3 -2.55 0  0.45 -2.55 0  0.6000000000000001 -2.55 0  0.75 -2.55 0  -0.75 -2.4 0  -0.6 -2.4 0  -0.45 -2.4 0  -0.3 -2.4 0  -0.15 -2.4 0  0 -2.4 0  0.15 -2.4 0  0.3 -2.4 0  0.45 -2.4 0  0.6000000000000001 -2.4 0  0.75 -2.4 0  -0.75 -2.25 0  -0.6 -2.25 0  -0.45 -2.25 0  -0.3 -2.25 0  -0.15 -2.25 0  0 -2.25 0  0.15 -2.25 0  0.3 -2.25 0  0.45 -2.25 0  0.6000000000000001 -2.25 0  0.75 -2.25 0  -0.75 -2.1 0  -0.6 -2.1 0  -0.45 -2.1 0  -0.3 -2.1 0  -0.15 -2.1 0  0 -2.1 0  0.15 -2.1 0  0.3 -2.1 0  0.45 -2.1 0  0.6000000000000001 -2.1 0  0.75 -2.1 0  -0.75 -1.95 0  -0.6 -1.95 0  -0.45 -1.95 0  -0.3 -1.95 0  -0.15 -1.95 0  0 -1.95 0  0.15 -1.95 0  0.3 -1.95 0  0.45 -1.95 0  0.6000000000000001 -1.95 0  0.75 -1.95 0  -0.75 -1.8 0  -0.6 -1.8 0  -0.45 -1.8 0  -0.3 -1.8 0  -0.15 -1.8 0  0 -1.8 0  0.15 -1.8 0  0.3 -1.8 0  0.45 -1.8 0  0.6000000000000001 -1.8 0  0.75 -1.8 0  -0.75 -1.65 0  -0.6 -1.65 0  -0.45 -1.65 0  -0.3 -1.65 0  -0.15 -1.65 0  0 -1.65 0  0.15 -1.65 0  0.3 -1.65 0  0.45 -1.65 0  0.6000000000000001 -1.65 0  0.75 -1.65 0  -0.75 -1.5 0  -0.6 -1.5 0  -0.45 -1.5 0  -0.3 -1.5 0  -0.15 -1.5 0  0 -1.5 0  0.15 -1.5 0  0.3 -1.5 0  0.45 -1.5 0  0.6000000000000001 -1.5 0  0.75 -1.5 0  -0.75 -1.35 0  -0.6 -1.35 0  -0.45 -1.35 0  -0.3 -1.35 0  -0.15 -1.35 0  0 -1.35 0  0.15 -1.35 0  0.3 -1.35 0  0.45 -1.35 0  0.6000000000000001 -1.35 0  0.75 -1.35 0  -0.75 -1.2 0  -0.6 -1.2 0  -0.45 -1.2 0  -0.3 -1.2 0  -0.15 -1.2 0  0 -1.2 0  0.15 -1.2 0  0.3 -1.2 0  0.45 -1.2 0  0.6000000000000001 -1.2 0  0.75 -1.2 0  -0.75 -1.05 0  -0.6 -1.05 0  -0.45 -1.05 0  -0.3 -1.05 0  -0.15 -1.05 0  0 -1.05 0  0.15 -1.05 0  0.3 -1.05 0  0.45 -1.05 0  0.6000000000000001 -1.05 0  0.75 -1.05 0  -0.75 -0.8999999999999999 0  -0.6 -0.8999999999999999 0  -0.45 -0.8999999999999999 0  -0.3 -0.8999999999999999 0  -0.15 -0.8999999999999999 0  0 -0.8999999999999999 0  0.15 -0.8999999999999999 0  0.3 -0.8999999999999999 0  0.45 -0.8999999999999999 0  0.6000000000000001 -0.8999999999999999 0  0.75 -0.8999999999999999 0  -0.75 -0.75 0  -0.6 -0.75 0  -0.45 -0.75 0  -0.3 -0.75 0  -0.15 -0.75 0  0 -0.75 0  0.15 -0.75 0  0.3 -0.75 0  0.45 -0.75 0  0.6000000000000001 -0.75 0  0.75 -0.75 0  -0.75 -0.6000000000000001 0  -0.6 -0.6000000000000001 0  -0.45 -0.6000000000000001 0  -0.3 -0.6000000000000001 0  -0.15 -0.6000000000000001 0  0 -0.6000000000000001 0  0.15 -0.6000000000000001 0  0.3 -0.6000000000000001 0  0.45 -0.6000000000000001 0  0.6000000000000001 -0.6000000000000001 0  0.75 -0.6000000000000001 0  -0.75 -0.4500000000000002 0  -0.6 -0.4500000000000002 0  -0.45 -0.4500000000000002 0  -0.3 -0.4500000000000002 0  -0.15 -0.4500000000000002 0  0 -0.4500000000000002 0  0.15 -0.4500000000000002 0  0.3 -0.4500000000000002 0  0.45 -0.4500000000000002 0  0.6000000000000001 -0.4500000000000002 0  0.75 -0.4500000000000002 0  -0.75 -0.2999999999999998 0  -0.6 -0.2999999999999998 0  -0.45 -0.2999999999999998 0  -0.3 -0.2999999999999998 0  -0.15 -0.2999999999999998 0  0 -0.2999999999999998 0  0.15 -0.2999999999999998 0  0.3 -0.2999999999999998 0  0.45 -0.2999999999999998 0  0.6000000000000001 -0.2999999999999998 0  0.75 -0.2999999999999998 0  -0.75 -0.1499999999999999 0  -0.6 -0.1499999999999999 0  -0.45 -0.1499999999999999 0  -0.3 -0.1499999999999999 0  -0.15 -0.1499999999999999 0  0 -0.1499999999999999 0  0.15 -0.1499999999999999 0  0.3 -0.1499999999999999 0  0.45 -0.1499999999999999 0  0.6000000000000001 -0.1499999999999999 0  0.75 -0.1499999999999999 0  -0.75 0 0  -0.6 0 0  -0.45 0 0  -0.3 0 0  -0.15 0 0  0 0 0  0.15 0 0  0.3 0 0  0.45 0 0  0.6000000000000001 0 0  0.75 0 0  -0.675 -2.925 0  -0.525 -2.925 0  -0.375 -2.925 0  -0.225 -2.925 0  -0.07499999999999996 -2.925 0  0.07499999999999996 -2.925 0  0.225 -2.925 0  0.375 -2.925 0  0.5249999999999999 -2.925 0  0.675 -2.925 0  -0.675 -2.775 0  -0.525 -2.775 0  -0.375 -2.775 0  -0.225 -2.775 0  -0.07499999999999996 -2.775 0  0.07499999999999996 -2.775 0  0.225 -2.775 0  0.375 -2.775 0  0.5249999999999999 -2.775 0  0.675 -2.775 0  -0.675 -2.625 0  -0.525 -2.625 0  -0.375 -2.625 0  -0.225 -2.625 0  -0.07499999999999996 -2.625 0  0.07499999999999996 -2.625 0  0.225 -2.625 0  0.375 -2.625 0  0.5249999999999999 -2.625 0  0.675 -2.625 0  -0.675 -2.475 0  -0.525 -2.475 0  -0.375 -2.475 0  -0.225 -2.475 0  -0.07499999999999996 -2.475 0  0.07499999999999996 -2.475 0  0.225 -2.475 0  0.375 -2.475 0  0.5249999999999999 -2.475 0  0.675 -2.475 0  -0.675 -2.325 0  -0.525 -2.325 0  -0.375 -2.325 0  -0.225 -2.325 0  -0.07499999999999996 -2.325 0  0.07499999999999996 -2.325 0  0.225 -2.325 0  0.375 -2.325 0  0.5249999999999999 -2.325 0  0.675 -2.325 0  -0.675 -2.175 0  -0.525 -2.175 0  -0.375 -2.175 0  -0.225 -2.175 0  -0.07499999999999996 -2.175 0  0.07499999999999996 -2.175 0  0.225 -2.175 0  0.375 -2.175 0  0.5249999999999999 -2.175 0  0.675 -2.175 0  -0.675 -2.025 0  -0.525 -2.025 0  -0.375 -2.025 0  -0.225 -2.025 0  -0.07499999999999996 -2.025 0  0.07499999999999996 -2.025 0  0.225 -2.025 0  0.375 -2.025 0  0.5249999999999999 -2.025 0  0.675 -2.025 0  -0.675 -1.875 0  -0.525 -1.875 0  -0.375 -1.875 0  -0.225 -1.875 0  -0.07499999999999996 -1.875 0  0.07499999999999996 -1.875 0  0.225 -1.875 0  0.375 -1.875 0  0.5249999999999999 -1.875 0  0.675 -1.875 0  -0.675 -1.725 0  -0.525 -1.725 0  -0.375 -1.725 0  -0.225 -1.725 0  -0.07499999999999996 -1.725 0  0.07499999999999996 -1.725 0  0.225 -1.725 0  0.375 -1.725 0  0.5249999999999999 -1.725 0  0.675 -1.725 0  -0.675 -1.575 0  -0.525 -1.575 0  -0.375 -1.575 0  -0.225 -1.575 0  -0.07499999999999996 -1.575 0  0.07499999999999996 -1.575 0  0.225 -1.575 0  0.375 -1.575 0  0.5249999999999999 -1.575 0  0.675 -1.575 0  -0.675 -1.425 0  -0.525 -1.425 0  -0.375 -1.425 0  -0.225 -1.425 0  -0.07499999999999996 -1.425 0  0.07499999999999996 -1.425 0  0.225 -1.425 0  0.375 -1.425 0  0.5249999999999999 -1.425 0  0.675 -1.425 0  -0.675 -1.275 0  -0.525 -1.275 0  -0.375 -1.275 0  -0.225 -1.275 0  -0.07499999999999996 -1.275 0  0.07499999999999996 -1.275 0  0.225 -1.275 0  0.375 -1.275 0  0.5249999999999999 -1.275 0  0.675 -1.275 0  -0.675 -1.125 0  -0.525 -1.125 0  -0.375 -1.125 0  -0.225 -1.125 0  -0.07499999999999996 -1.125 0  0.07499999999999996 -1.125 0  0.225 -1.125 0  0.375 -1.125 0  0.5249999999999999 -1.125 0  0.675 -1.125 0  -0.675 -0.9750000000000001 0  -0.525 -0.9750000000000001 0  -0.375 -0.9750000000000001 0  -0.225 -0.9750000000000001 0  -0.07499999999999996 -0.9750000000000001 0  0.07499999999999996 -0.9750000000000001 0  0.225 -0.9750000000000001 0  0.375 -0.9750000000000001 0  0.5249999999999999 -0.9750000000000001 0  0.675 -0.9750000000000001 0  -0.675 -0.8250000000000002 0  -0.525 -0.8250000000000002 0  -0.375 -0.8250000000000002 0  -0.225 -0.8250000000000002 0  -0.07499999999999996 -0.8250000000000002 0  0.07499999999999996 -0.8250000000000002 0  0.225 -0.8250000000000002 0  0.375 -0.8250000000000002 0  0.5249999999999999 -0.8250000000000002 0  0.675 -0.8250000000000002 0  -0.675 -0.6749999999999998 0  -0.525 -0.6749999999999998 0  -0.375 -0.6749999999999998 0  -0.225 -0.6749999999999998 0  -0.07499999999999996 -0.6749999999999998 0  0.07499999999999996 -0.6749999999999998 0  0.225 -0.6749999999999998 0  0.375 -0.6749999999999998 0  0.5249999999999999 -0.6749999999999998 0  0.675 -0.6749999999999998 0  -0.675 -0.5249999999999999 0  -0.525 -0.5249999999999999 0  -0.375 -0.5249999999999999 0  -0.225 -0.5249999999999999 0  -0.07499999999999996 -0.5249999999999999 0  0.07499999999999996 -0.5249999999999999 0  0.225 -0.5249999999999999 0  0.375 -0.5249999999999999 0  0.5249999999999999 -0.5249999999999999 0  0.675 -0.5249999999999999 0  -0.675 -0.375 0  -0.525 -0.375 0  -0.375 -0.375 0  -0.225 -0.375 0  -0.07499999999999996 -0.375 0  0.07499999999999996 -0.375 0  0.225 -0.375 0  0.375 -0.375 0  0.5249999999999999 -0.375 0  0.675 -0.375 0  -0.675 -0.2250000000000001 0  -0.525 -0.2250000000000001 0  -0.375 -0.2250000000000001 0  -0.225 -0.2250000000000001 0  -0.07499999999999996 -0.2250000000000001 0  0.07499999999999996 -0.2250000000000001 0  0.225 -0.2250000000000001 0  0.375 -0.2250000000000001 0  0.5249999999999999 -0.2250000000000001 0  0.675 -0.2250000000000001 0  -0.675 -0.07500000000000018 0  -0.525 -0.07500000000000018 0  -0.375 -0.07500000000000018 0  -0.225 -0.07500000000000018 0  -0.07499999999999996 -0.07500000000000018 0  0.07499999999999996 -0.07500000000000018 0  0.225 -0.07500000000000018 0  0.375 -0.07500000000000018 0  0.5249999999999999 -0.07500000000000018 0  0.675 -0.07500000000000018 0  </DataArray>
</Points>
<Cells>
[...]
<PointData  Vectors="flow"> 
<DataArray  type="Float64"  Name="flow"  NumberOfComponents="3" format="ascii">-2.1103543564677555e-03 -1.3165253912056823e+01 0.0000000000000000e+00  -9.5375523903646784e-04 -5.9499154032529864e+00 0.0000000000000000e+00  8.7984033103591106e-05 5.4888039653888709e-01 0.0000000000000000e+00  -1.1492156740085252e-05 -7.1692775678495010e-02 0.0000000000000000e+00  1.6516252661569422e-06 1.0303514160967305e-02 0.0000000000000000e+00  -2.4851231085114001e-07 -1.5503214721263048e-03 0.0000000000000000e+00  3.8417429452980819e-08 2.3966364314454433e-04 0.0000000000000000e+00  -6.0459049143425701e-09 -3.7716828494479540e-05 0.0000000000000000e+00  9.6420871003827258e-10 6.0151284323252387e-06 0.0000000000000000e+00  -1.5911154842922515e-10 -9.9260293845503298e-07 0.0000000000000000e+00  5.0244200145851704e-11 3.1344387756542484e-07 0.0000000000000000e+00  4.3039955785550450e-04 2.6850085368074454e+00 0.0000000000000000e+00  1.5219763320661414e-04 9.4947110651735733e-01 0.0000000000000000e+00  -5.2914151655119352e-05 -3.3010012747182516e-01 0.0000000000000000e+00  8.5031311568703932e-06 5.3046011151933581e-02 0.0000000000000000e+00  -1.3341220225853920e-06 -8.3227990233837538e-03 0.0000000000000000e+00  2.1070947321964433e-07 1.3144919042200386e-03 0.0000000000000000e+00  -3.3588687281358703e-08 -2.0953997383259710e-04 0.0000000000000000e+00  5.3989487938874797e-09 3.3680851517605114e-05 0.0000000000000000e+00  -8.7444576864326042e-10 -5.4551504780368468e-06 0.0000000000000000e+00  1.4606514659003186e-10 9.1121414594002204e-07 0.0000000000000000e+00  -4.6532706001705005e-11 -2.9029005856291940e-07 0.0000000000000000e+00  -2.0554806214980464e-05 -1.2822929102119068e-01 0.0000000000000000e+00  3.4905495233984884e-06 2.1775476060364733e-02 0.0000000000000000e+00  9.5556895183448806e-06 5.9612300857546749e-02 0.0000000000000000e+00  -3.3584261193471237e-06 -2.0951236208545287e-02 0.0000000000000000e+00  6.9861143000385520e-07 4.3582239322405448e-03 0.0000000000000000e+00  -1.2816680960579940e-07 -7.9955699685564804e-04 0.0000000000000000e+00  2.2431463888883849e-08 1.3993664941208258e-04 0.0000000000000000e+00  -3.8435877959691436e-09 -2.3977873247747995e-05 0.0000000000000000e+00  6.5221265631915125e-10 4.0687693982685281e-06 0.0000000000000000e+00  -1.1300664960050749e-10 -7.0498171607145801e-07 0.0000000000000000e+00  3.6965192668221915e-11 2.3060399590891101e-07 0.0000000000000000e+00  1.8452763833165139e-06 1.1511589060780076e-02 0.0000000000000000e+00  -7.3898693072374302e-07 -4.6101028250789284e-03 0.0000000000000000e+00  -6.7623677003463291e-07 -4.2186416489202279e-03 0.0000000000000000e+00  6.8099903869088870e-07 4.2483506292461566e-03 0.0000000000000000e+00  -2.3455860616013836e-07 -1.4632725532052319e-03 0.0000000000000000e+00  5.5733255930140570e-08 3.4768685335578528e-04 0.0000000000000000e+00  -1.1430106850449133e-08 -7.1305683079675786e-05 0.0000000000000000e+00  2.1809278779231810e-09 1.3605520413547978e-05 0.0000000000000000e+00  -4.0011195265765963e-10 -2.4960620636259640e-06 0.0000000000000000e+00  7.3708224794420931e-11 4.5982206346128426e-07 0.0000000000000000e+00  -2.5193320767934305e-11 -1.5716624261761381e-07 0.0000000000000000e+00  -2.0283120884485818e-07 -1.2653440677145265e-03 0.0000000000000000e+00  1.0770855775989214e-07 6.7193005149326641e-04 0.0000000000000000e+00  4.4909234096197099e-08 2.8016217658442718e-04 0.0000000000000000e+00  -8.9239801964499493e-08 -5.5671439648209340e-04 0.0000000000000000e+00  5.1840305887132368e-08 3.2340103821479685e-04 0.0000000000000000e+00  -1.7440180542410886e-08 -1.0879898174885510e-04 0.0000000000000000e+00  4.4565599464673607e-09 2.7801844315732875e-05 0.0000000000000000e+00  -9.8799858156620816e-10 -6.1635393843725116e-06 0.0000000000000000e+00  2.0213372889440794e-10 1.2609929024146793e-06 0.0000000000000000e+00  -4.0576671416292551e-11 -2.5313387795010910e-07 0.0000000000000000e+00  1.4741527477216372e-11 9.1963679793546220e-08 0.0000000000000000e+00  2.4739837818525451e-08 1.5433723043989167e-04 0.0000000000000000e+00  -1.5216656449449115e-08 -9.4927728717959247e-05 0.0000000000000000e+00  -2.1909576671327060e-09 -1.3668090342253596e-05 0.0000000000000000e+00  1.0745159363077170e-08 6.7032700412077503e-05 0.0000000000000000e+00  -8.7406450694920567e-09 -5.4527720115988339e-05 0.0000000000000000e+00  4.0926433825188111e-09 2.5531583895959090e-05 0.0000000000000000e+00  -1.3501668149070881e-09 -8.4228930024986704e-06 0.0000000000000000e+00  3.5994573183696847e-10 2.2454887444241456e-06 0.0000000000000000e+00  -8.4440095596118531e-11 -5.2677186439055608e-07 0.0000000000000000e+00  1.8907972016299624e-11 1.1795566549937033e-07 0.0000000000000000e+00  -7.4185242697892184e-12 -4.6279789631160582e-08 0.0000000000000000e+00  -3.2172576206356575e-09 -2.0070569355500252e-05 0.0000000000000000e+00  2.1673923350728188e-09 1.3521080159276736e-05 0.0000000000000000e+00  -7.7487722563756661e-11 -4.8340011690091398e-07 0.0000000000000000e+00  -1.2624642356585298e-09 -7.8757684302623093e-06 0.0000000000000000e+00  1.3246720318299399e-09 8.2638461146550315e-06 0.0000000000000000e+00  -7.9005387409242836e-10 -4.9286793114879002e-06 0.0000000000000000e+00  3.3038424329222347e-10 2.0610720840101420e-06 0.0000000000000000e+00  -1.0737121109825257e-10 -6.6982554499498201e-07 0.0000000000000000e+00  2.9449166445791558e-11 1.8371594920494749e-07 0.0000000000000000e+00  -7.5030142236322819e-12 -4.6806872531694726e-08 0.0000000000000000e+00  3.2221826273085656e-12 2.0101293562157162e-08 0.0000000000000000e+00  4.3703373110720256e-10 2.7263952238761366e-06 0.0000000000000000e+00  -3.1329401967184823e-10 -1.9544562767233194e-06 0.0000000000000000e+00  5.1679874898287179e-11 3.2240020406718705e-07 0.0000000000000000e+00  1.4643548861834974e-10 9.1352449103546424e-07 0.0000000000000000e+00  -1.9151741478898154e-10 -1.1947639914359436e-06 0.0000000000000000e+00  1.3721746896002220e-10 8.5601871291991680e-07 0.0000000000000000e+00  -6.9344922197886199e-11 -4.3260199665000973e-07 0.0000000000000000e+00  2.7078584275154867e-11 1.6892728771775353e-07 0.0000000000000000e+00  -8.7266263497045457e-12 -5.4440265606294780e-08 0.0000000000000000e+00  2.5624778183256579e-12 1.5985785050211375e-08 0.0000000000000000e+00  -1.2155542306408619e-12 -7.5831246260686160e-09 0.0000000000000000e+00  -6.1276781240949134e-11 -3.8226963233839325e-07 0.0000000000000000e+00  4.5957459207713093e-11 2.8670143370388073e-07 0.0000000000000000e+00  -1.2083625799340433e-11 -7.5382601665469545e-08 0.0000000000000000e+00  -1.6708820303152971e-11 -1.0423645734554635e-07 0.0000000000000000e+00  2.7071806142192841e-11 1.6888500295111164e-07 0.0000000000000000e+00  -2.2467092936359140e-11 -1.4015891798760375e-07 0.0000000000000000e+00  1.3194441584952099e-11 8.2312325018459485e-08 0.0000000000000000e+00  -6.0161671890669468e-12 -3.7531312397232340e-08 0.0000000000000000e+00  2.2546547115482263e-12 1.4065458566508363e-08 0.0000000000000000e+00  -7.6537877913475450e-13 -4.7747459735030813e-09 0.0000000000000000e+00  4.0222796224513621e-13 2.5092625971828500e-09 0.0000000000000000e+00  8.8008884914240794e-12 5.4903543230166033e-08 0.0000000000000000e+00  -6.8313796873878897e-12 -4.2616941500129063e-08 0.0000000000000000e+00  2.3227505200024569e-12 1.4490268080559459e-08 0.0000000000000000e+00  1.8509170050535087e-12 1.1546777566995556e-08 0.0000000000000000e+00  -3.7830071850805598e-12 -2.3599946610900790e-08 0.0000000000000000e+00  3.5540269708264390e-12 2.2171474348764489e-08 0.0000000000000000e+00  -2.3577707301210537e-12 -1.4708738479548117e-08 0.0000000000000000e+00  1.2223780657889103e-12 7.6256945016455519e-09 0.0000000000000000e+00  -5.2324474127464597e-13 -3.2642147779196660e-09 0.0000000000000000e+00  2.0405764571915562e-13 1.2729950827242816e-09 0.0000000000000000e+00  -1.1834421847672456e-13 -7.3827965454948019e-10 0.0000000000000000e+00  -1.2881643667770550e-12 -8.0360963632047408e-09 0.0000000000000000e+00  1.0272746897220630e-12 6.4085598165878341e-09 0.0000000000000000e+00  -4.1331402207086796e-13 -2.5784219741579534e-09 0.0000000000000000e+00  -1.9370404170474001e-13 -1.2084050647792309e-09 0.0000000000000000e+00  5.2524780084509571e-13 3.2767106830576467e-09 0.0000000000000000e+00  -5.5058806320305947e-13 -3.4347936074339667e-09 0.0000000000000000e+00  4.0434182562261110e-13 2.5224497418036411e-09 0.0000000000000000e+00  -2.3335536038024414e-13 -1.4557662137308359e-09 0.0000000000000000e+00  1.1207167828075993e-13 6.9914898244203560e-10 0.0000000000000000e+00  -4.9627224434040648e-14 -3.0959493064394191e-10 0.0000000000000000e+00  3.1469801421900478e-14 1.9632149691428225e-10 0.0000000000000000e+00  1.9144552999453623e-13 1.1943155446770430e-09 0.0000000000000000e+00  -1.5603804662815295e-13 -9.7342917671863602e-10 0.0000000000000000e+00  7.0814525068768517e-14 4.4176998063609039e-10 0.0000000000000000e+00  1.7979497155323079e-14 1.1216345943774159e-10 0.0000000000000000e+00  -7.2610465757270703e-14 -4.5297379344727243e-10 0.0000000000000000e+00  8.4195439136154329e-14 5.2524559729385646e-10 0.0000000000000000e+00  -6.7453315866187117e-14 -4.2080138241565171e-10 0.0000000000000000e+00  4.2635702540525882e-14 2.6597895654095367e-10 0.0000000000000000e+00  -2.2626758919336603e-14 -1.4115497971561355e-10 0.0000000000000000e+00  1.1227407796153356e-14 7.0041163446108499e-11 0.0000000000000000e+00  -7.6934990464918703e-15 -4.7995194792197497e-11 0.0000000000000000e+00  -2.8812637434032763e-14 -1.7974502079829750e-10 0.0000000000000000e+00  2.3909632734054266e-14 1.4915807145048019e-10 0.0000000000000000e+00  -1.1885524267488421e-14 -7.4146763257949976e-11 0.0000000000000000e+00  -1.1897704482285552e-15 -7.4222748421303119e-12 0.0000000000000000e+00  9.9981601593663679e-15 6.2372613749941062e-11 0.0000000000000000e+00  -1.2769371255675550e-14 -7.9660562389943449e-11 0.0000000000000000e+00  1.1042077020864777e-14 6.8884994243095431e-11 0.0000000000000000e+00  -7.5499607739494203e-15 -4.7099744320418755e-11 0.0000000000000000e+00  4.3732983310557757e-15 2.7282424292900182e-11 0.0000000000000000e+00  -2.4005302562013807e-15 -1.4975489897991855e-11 0.0000000000000000e+00  1.7566149464370796e-15 1.0958482742332562e-11 0.0000000000000000e+00  4.3823032079393711e-15 2.7338600399181094e-11 0.0000000000000000e+00  -3.6917787777217354e-15 -2.3030826480345183e-11 0.0000000000000000e+00  1.9713840674832625e-15 1.2298300390670450e-11 0.0000000000000000e+00  -3.2808394969075188e-17 -2.0467219113753634e-13 0.0000000000000000e+00  -1.3703666249167506e-15 -8.5489076819469318e-12 0.0000000000000000e+00  1.9264083935665872e-15 1.2017723735302521e-11 0.0000000000000000e+00  -1.7840774906365986e-15 -1.1129805329152966e-11 0.0000000000000000e+00  1.3071557410693766e-15 8.1545723262253883e-12 0.0000000000000000e+00  -8.1828212739163750e-16 -5.1047787049565757e-12 0.0000000000000000e+00  4.9102303805495811e-16 3.0632026099555355e-12 0.0000000000000000e+00  -3.7961885701614600e-16 -2.3682177484104986e-12 0.0000000000000000e+00  -6.7254184135415966e-16 -4.1955911720577567e-12 0.0000000000000000e+00  5.7387534626660238e-16 3.5800692070098723e-12 0.0000000000000000e+00  -3.2471152184634071e-16 -2.0256833266772624e-12 0.0000000000000000e+00  3.5370333387945407e-17 2.2065461119326177e-13 0.0000000000000000e+00  1.8667522628609867e-16 1.1645564384081229e-12 0.0000000000000000e+00  -2.8962335865292687e-16 -1.8067890086054096e-12 0.0000000000000000e+00  2.8564515358359014e-16 1.7819713377286984e-12 0.0000000000000000e+00  -2.2264173137826148e-16 -1.3889302126116881e-12 0.0000000000000000e+00  1.4941599772660611e-16 9.3211812630677997e-13 0.0000000000000000e+00  -9.6980589623378765e-17 -6.0500459698616156e-13 0.0000000000000000e+00  7.8492129854289730e-17 4.8966602052533023e-13 0.0000000000000000e+00  1.0401411107576142e-16 6.4888258152118694e-13 0.0000000000000000e+00  -8.9738989688160537e-17 -5.5982853374138219e-13 0.0000000000000000e+00  5.3266047745672872e-17 3.3229539926046971e-13 0.0000000000000000e+00  -9.8048595515975813e-18 -6.1166725471116122e-14 0.0000000000000000e+00  -2.5213255611543512e-17 -1.5729060432824706e-13 0.0000000000000000e+00  4.3445385378292862e-17 2.7103008935889386e-13 0.0000000000000000e+00  -4.5448353487916690e-17 -2.8352542392682220e-13 0.0000000000000000e+00  3.7472912014856640e-17 2.3377135692296252e-13 0.0000000000000000e+00  -2.6780898286305766e-17 -1.6707020072321675e-13 0.0000000000000000e+00  1.8625551846611984e-17 1.1619381293066372e-13 0.0000000000000000e+00  -1.5661191795582001e-17 -9.7700922085597859e-14 0.0000000000000000e+00  -1.6195168833580162e-17 -1.0103208932152129e-13 0.0000000000000000e+00  1.4107219229999383e-17 8.8006605424717998e-14 0.0000000000000000e+00  -8.7177305983462051e-18 -5.4384770269688285e-14 0.0000000000000000e+00  2.1502346254051322e-18 1.3414043346415305e-14 0.0000000000000000e+00  3.3646790088156013e-18 2.0990244291374747e-14 0.0000000000000000e+00  -6.5075042404235083e-18 -4.0596473950639581e-14 0.0000000000000000e+00  7.2007877280758302e-18 4.4921459998601692e-14 0.0000000000000000e+00  -6.2528259804256068e-18 -3.9007686764981703e-14 0.0000000000000000e+00  4.7319791118955932e-18 2.9520021755458439e-14 0.0000000000000000e+00  -3.4971236345559751e-18 -2.1816488055515752e-14 0.0000000000000000e+00  3.0357383326996897e-18 1.8938177770035613e-14 0.0000000000000000e+00  2.5365828621684745e-18 1.5824241718966509e-14 0.0000000000000000e+00  -2.2282415840332053e-18 -1.3900682670327189e-14 0.0000000000000000e+00  1.4251353481397163e-18 8.8905773856436757e-15 0.0000000000000000e+00  -4.2709203146839753e-19 -2.6643748339538681e-15 0.0000000000000000e+00  -4.4136431611852511e-19 -2.7534111850046982e-15 0.0000000000000000e+00  9.7379936624913737e-19 6.0749588697171017e-15 0.0000000000000000e+00  -1.1378423534126955e-18 -7.0983261406598350e-15 0.0000000000000000e+00  1.0369075023676867e-18 6.4686532430677295e-15 0.0000000000000000e+00  -8.2686060989040664e-19 -5.1582947886087361e-15 0.0000000000000000e+00  6.4462674688487848e-19 4.0214453914968746e-15 0.0000000000000000e+00  -5.7471899960485202e-19 -3.5853322617086134e-15 0.0000000000000000e+00  -3.9961822722741152e-19 -2.4929820023878399e-15 0.0000000000000000e+00  3.5367061148532899e-19 2.2063419762499461e-15 0.0000000000000000e+00  -2.3303059019024034e-19 -1.4537401644081863e-15 0.0000000000000000e+00  8.0475672946151110e-20 5.0204017388484792e-16 0.0000000000000000e+00  5.6467959350656218e-20 3.5227023389161952e-16 0.0000000000000000e+00  -1.4569830335249704e-19 -9.0892562773299003e-16 0.0000000000000000e+00  1.7962913211933770e-19 1.1206000201367681e-15 0.0000000000000000e+00  -1.7130991372991226e-19 -1.0687013320747513e-15 0.0000000000000000e+00  1.4333637928725550e-19 8.9419097904965223e-16 0.0000000000000000e+00  -1.1713806734908789e-19 -7.3075519032716423e-16 0.0000000000000000e+00  1.0681246609342769e-19 6.6633986504835660e-16 0.0000000000000000e+00  6.4770020851245348e-20 4.0406189026145548e-16 0.0000000000000000e+00  -5.7719491160174910e-20 -3.6007780137469606e-16 0.0000000000000000e+00  3.9069105207698837e-20 2.4372906313095525e-16 0.0000000000000000e+00  -1.5101943107151977e-20 -9.4212099954564876e-17 0.0000000000000000e+00  -7.0345055669295100e-21 -4.3884123844212605e-17 0.0000000000000000e+00  2.2254565961182476e-20 1.3883308776255797e-16 0.0000000000000000e+00  -2.9009271411135347e-20 -1.8097170399885081e-16 0.0000000000000000e+00  2.8934580950963396e-20 1.8050575434922986e-16 0.0000000000000000e+00  -2.5350160272812013e-20 -1.5814467161880415e-16 0.0000000000000000e+00  2.1632287355184034e-20 1.3495105921749284e-16 0.0000000000000000e+00  -2.0120356764895338e-20 -1.2551901759967040e-16 0.0000000000000000e+00  -2.0067747861970667e-20 -1.2519082173866930e-16 0.0000000000000000e+00  1.7984723022374594e-20 1.1219606053453464e-16 0.0000000000000000e+00  -1.2440266071979853e-20 -7.7607469603014407e-17 0.0000000000000000e+00  5.2193573026189857e-21 3.2560486316496338e-17 0.0000000000000000e+00  1.6077496903872757e-21 1.0029800367937763e-17 0.0000000000000000e+00  -6.5062189801513490e-21 -4.0588455971206810e-17 0.0000000000000000e+00  8.9264071313018858e-21 5.5686579860778793e-17 0.0000000000000000e+00  -9.2557911236585584e-21 -5.7741411970207445e-17 0.0000000000000000e+00  8.4260750140439015e-21 5.2565303406011506e-17 0.0000000000000000e+00  -7.4420702211846802e-21 -4.6426678909623321e-17 0.0000000000000000e+00  7.0278163344662895e-21 4.3842393675255196e-17 0.0000000000000000e+00  -6.6695804969463160e-04 -4.1607571951171476e+00 0.0000000000000000e+00  1.9162193109534595e-04 1.1954160069171447e+00 0.0000000000000000e+00  -8.0202139663142788e-06 -5.0033376135125499e-02 0.0000000000000000e+00  6.6788058491083419e-07 4.1665123472445159e-03 0.0000000000000000e+00  -6.9925101485014766e-08 -4.3622139241932781e-04 0.0000000000000000e+00  8.2435238649685616e-09 5.1426474648580773e-05 0.0000000000000000e+00  -1.0454465127917806e-09 -6.5219230837683556e-06 0.0000000000000000e+00  1.3929829476502353e-10 8.6899975564653254e-07 0.0000000000000000e+00  -1.9179134888955384e-11 -1.1964729044334939e-07 0.0000000000000000e+00  2.3337269237617298e-12 1.4558743378126877e-08 0.0000000000000000e+00  -1.4138323359263441e-04 -8.8200645709099601e-01 0.0000000000000000e+00  -2.8082430148309583e-05 -1.7518968899086118e-01 0.0000000000000000e+00  9.5534392748128254e-06 5.9598262917722682e-02 0.0000000000000000e+00  -1.1272986112354380e-06 -7.0325499630612999e-03 0.0000000000000000e+00  1.3824198224192372e-07 8.6241004594470949e-04 0.0000000000000000e+00  -1.7846360055342627e-08 -1.1133289573596974e-04 0.0000000000000000e+00  2.4004655986391484e-09 1.4975086537664467e-05 0.0000000000000000e+00  -3.3328197139856027e-10 -2.0791492975222209e-06 0.0000000000000000e+00  4.7293653833646672e-11 2.9503716247494143e-07 0.0000000000000000e+00  -5.8727459140103951e-12 -3.6636591803639368e-08 0.0000000000000000e+00  3.9894918097473015e-06 2.4888082181281211e-02 0.0000000000000000e+00  -2.9077538352462505e-06 -1.8139758110978097e-02 0.0000000000000000e+00  -1.5505064169135049e-06 -9.6726934073318553e-03 0.0000000000000000e+00  5.5334356420313016e-07 3.4519835500659577e-03 0.0000000000000000e+00  -9.7904817542014623e-08 -6.1077030888386321e-04 0.0000000000000000e+00  1.5358049159306036e-08 9.5809794291864002e-05 0.0000000000000000e+00  -2.3346742800971898e-09 -1.4564653374551701e-05 0.0000000000000000e+00  3.5263980359611800e-10 2.1999113748893654e-06 0.0000000000000000e+00  -5.3200569713851259e-11 -3.3188692050809752e-07 0.0000000000000000e+00  6.8816382264497475e-12 4.2930474829719204e-08 0.0000000000000000e+00  -2.5279170037695079e-07 -1.5770180548699696e-03 0.0000000000000000e+00  3.1565147722557134e-07 1.9691630614803637e-03 0.0000000000000000e+00  9.8920748030117076e-09 6.1710809892934594e-05 0.0000000000000000e+00  -1.0226023411334575e-07 -6.3794117944340691e-04 0.0000000000000000e+00  3.6106306221319046e-08 2.2524591084587597e-04 0.0000000000000000e+00  -7.8298821209369588e-09 -4.8846008210746698e-05 0.0000000000000000e+00  1.4451544019061958e-09 9.0154644336918332e-06 0.0000000000000000e+00  -2.4873776814842961e-10 -1.5517279669910405e-06 0.0000000000000000e+00  4.1211667596280652e-11 2.5709524392502631e-07 0.0000000000000000e+00  -5.6699400218525874e-12 -3.5371405671776761e-08 0.0000000000000000e+00  2.1399867428972385e-08 1.3350112862483163e-04 0.0000000000000000e+00  -3.3802544434876809e-08 -2.1087410225436990e-04 0.0000000000000000e+00  8.9440915430894643e-09 5.5796902456960478e-05 0.0000000000000000e+00  8.8487454459455059e-09 5.5202094492801853e-05 0.0000000000000000e+00  -7.4380309144370571e-09 -4.6401480061478090e-05 0.0000000000000000e+00  2.5602860070829445e-09 1.5972111634915415e-05 0.0000000000000000e+00  -6.1958507045775657e-10 -3.8652251683214512e-06 0.0000000000000000e+00  1.2758980410773726e-10 7.9595740048105884e-07 0.0000000000000000e+00  -2.4006233474574032e-11 -1.4976070639334562e-07 0.0000000000000000e+00  3.58642404