<?xml version="1.0"?>
<VTKFile type="UnstructuredGrid"  version="0.1"  >
<UnstructuredGrid>
<Piece  NumberOfPoints="1876" NumberOfCells="3600">
<Points>
<DataArray  type="Float64"  NumberOfComponents="3"  format="ascii">-0.75 -3 0  -0.65 -3 0  -0.55 -3 0  -0.45 -3 0  -0.35 -3 0  -0.25 -3 0  -0.15 -3 0  -0.05000000000000004 -3 0  0.05000000000000004 -3 0  0.15 -3 0  0.25 -3 0  0.3500000000000001 -3 0  0.45 -3 0  0.55 -3 0  0.6499999999999999 -3 0  0.75 -3 0  -0.75 -2.95 0  -0.65 -2.95 0  -0.55 -2.95 0  -0.45 -2.95 0  -0.35 -2.95 0  -0.25 -2.95 0  -0.15 -2.95 0  -0.05000000000000004 -2.95 0  0.05000000000000004 -2.95 0  0.15 -2.95 0  0.25 -2.95 0  0.3500000000000001 -2.95 0  0.45 -2.95 0  0.55 -2.95 0  0.6499999999999999 -2.95 0  0.75 -2.95 0  -0.75 -2.9 0  -0.65 -2.9 0  -0.55 -2.9 0  -0.45 -2.9 0  -0.35 -2.9 0  -0.25 -2.9 0  -0.15 -2.9 0  -0.05000000000000004 -2.9 0  0.05000000000000004 -2.9 0  0.15 -2.9 0  0.25 -2.9 0  0.3500000000000001 -2.9 0  0.45 -2.9 0  0.55 -2.9 0  0.6499999999999999 -2.9 0  0.75 -2.9 0  -0.75 -2.85 0  -0.65 -2.85 0  -0.55 -2.85 0  -0.45 -2.85 0  -0.35 -2.85 0  -0.25 -2.85 0  -0.15 -2.85 0  -0.05000000000000004 -2.85 0  0.05000000000000004 -2.85 0  0.15 -2.85 0  0.25 -2.85 0  0.3500000000000001 -2.85 0  0.45 -2.85 0  0.55 -2.85 0  0.6499999999999999 -2.85 0  0.75 -2.85 0  -0.75 -2.8 0  -0.65 -2.8 0  -0.55 -2.8 0  -0.45 -2.8 0  -0.35 -2.8 0  -0.25 -2.8 0  -0.15 -2.8 0  -0.05000000000000004 -2.8 0  0.05000000000000004 -2.8 0  0.15 -2.8 0  0.25 -2.8 0  0.3500000000000001 -2.8 0  0.45 -2.8 0  0.55 -2.8 0  0.6499999999999999 -2.8 0  0.75 -2.8 0  -0.75 -2.75 0  -0.65 -2.75 0  -0.55 -2.75 0  -0.45 -2.75 0  -0.35 -2.75 0  -0.25 -2.75 0  -0.15 -2.75 0  -0.05000000000000004 -2.75 0  0.05000000000000004 -2.75 0  0.15 -2.75 0  0.25 -2.75 0  0.3500000000000001 -2.75 0  0.45 -2.75 0  0.55 -2.75 0  0.6499999999999999 -2.75 0  0.75 -2.75 0  -0.75 -2.7 0  -0.65 -2.7 0  -0.55 -2.7 0  -0.45 -2.7 0  -0.35 -2.7 0  -0.25 -2.7 0  -0.15 -2.7 0  -0.05000000000000004 -2.7 0  0.05000000000000004 -2.7 0  0.15 -2.7 0  0.25 -2.7 0  0.3500000000000001 -2.7 0  0.45 -2.7 0  0.55 -2.7 0  0.6499999999999999 -2.7 0  0.75 -2.7 0  -0.75 -2.65 0  -0.65 -2.65 0  -0.55 -2.65 0  -0.45 -2.65 0  -0.35 -2.65 0  -0.25 -2.65 0  -0.15 -2.65 0  -0.05000000000000004 -2.65 0  0.05000000000000004 -2.65 0  0.15 -2.65 0  0.25 -2.65 0  0.3500000000000001 -2.65 0  0.45 -2.65 0  0.55 -2.65 0  0.6499999999999999 -2.65 0  0.75 -2.65 0  -0.75 -2.6 0  -0.65 -2.6 0  -0.55 -2.6 0  -0.45 -2.6 0  -0.35 -2.6 0  -0.25 -2.6 0  -0.15 -2.6 0  -0.05000000000000004 -2.6 0  0.05000000000000004 -2.6 0  0.15 -2.6 0  0.25 -2.6 0  0.3500000000000001 -2.6 0  0.45 -2.6 0  0.55 -2.6 0  0.6499999999999999 -2.6 0  0.75 -2.6 0  -0.75 -2.55 0  -0.65 -2.55 0  -0.55 -2.55 0  -0.45 -2.55 0  -0.35 -2.55 0  -0.25 -2.55 0  -0.15 -2.55 0  -0.05000000000000004 -2.55 0  0.05000000000000004 -2.55 0  0.15 -2.55 0  0.25 -2.55 0  0.3500000000000001 -2.55 0  0.45 -2.55 0  0.55 -2.55 0  0.6499999999999999 -2.55 0  0.75 -2.55 0  -0.75 -2.5 0  -0.65 -2.5 0  -0.55 -2.5 0  -0.45 -2.5 0  -0.35 -2.5 0  -0.25 -2.5 0  -0.15 -2.5 0  -0.05000000000000004 -2.5 0  0.05000000000000004 -2.5 0  0.15 -2.5 0  0.25 -2.5 0  0.3500000000000001 -2.5 0  0.45 -2.5 0  0.55 -2.5 0  0.6499999999999999 -2.5 0  0.75 -2.5 0  -0.75 -2.45 0  -0.65 -2.45 0  -0.55 -2.45 0  -0.45 -2.45 0  -0.35 -2.45 0  -0.25 -2.45 0  -0.15 -2.45 0  -0.05000000000000004 -2.45 0  0.05000000000000004 -2.45 0  0.15 -2.45 0  0.25 -2.45 0  0.3500000000000001 -2.45 0  0.45 -2.45 0  0.55 -2.45 0  0.6499999999999999 -2.45 0  0.75 -2.45 0  -0.75 -2.4 0  -0.65 -2.4 0  -0.55 -2.4 0  -0.45 -2.4 0  -0.35 -2.4 0  -0.25 -2.4 0  -0.15 -2.4 0  -0.05000000000000004 -2.4 0  0.05000000000000004 -2.4 0  0.15 -2.4 0  0.25 -2.4 0  0.3500000000000001 -2.4 0  0.45 -2.4 0  0.55 -2.4 0  0.6499999999999999 -2.4 0  0.75 -2.4 0  -0.75 -2.35 0  -0.65 -2.35 0  -0.55 -2.35 0  -0.45 -2.35 0  -0.35 -2.35 0  -0.25 -2.35 0  -0.15 -2.35 0  -0.05000000000000004 -2.35 0  0.05000000000000004 -2.35 0  0.15 -2.35 0  0.25 -2.35 0  0.3500000000000001 -2.35 0  0.45 -2.35 0  0.55 -2.35 0  0.6499999999999999 -2.35 0  0.75 -2.35 0  -0.75 -2.3 0  -0.65 -2.3 0  -0.55 -2.3 0  -0.45 -2.3 0  -0.35 -2.3 0  -0.25 -2.3 0  -0.15 -2.3 0  -0.05000000000000004 -2.3 0  0.05000000000000004 -2.3 0  0.15 -2.3 0  0.25 -2.3 0  0.3500000000000001 -2.3 0  0.45 -2.3 0  0.55 -2.3 0  0.6499999999999999 -2.3 0  0.75 -2.3 0  -0.75 -2.25 0  -0.65 -2.25 0  -0.55 -2.25 0  -0.45 -2.25 0  -0.35 -2.25 0  -0.25 -2.25 0  -0.15 -2.25 0  -0.05000000000000004 -2.25 0  0.05000000000000004 -2.25 0  0.15 -2.25 0  0.25 -2.25 0  0.3500000000000001 -2.25 0  0.45 -2.25 0  0.55 -2.25 0  0.6499999999999999 -2.25 0  0.75 -2.25 0  -0.75 -2.2 0  -0.65 -2.2 0  -0.55 -2.2 0  -0.45 -2.2 0  -0.35 -2.2 0  -0.25 -2.2 0  -0.15 -2.2 0  -0.05000000000000004 -2.2 0  0.05000000000000004 -2.2 0  0.15 -2.2 0  0.25 -2.2 0  0.3500000000000001 -2.2 0  0.45 -2.2 0  0.55 -2.2 0  0.6499999999999999 -2.2 0  0.75 -2.2 0  -0.75 -2.15 0  -0.65 -2.15 0  -0.55 -2.15 0  -0.45 -2.15 0  -0.35 -2.15 0  -0.25 -2.15 0  -0.15 -2.15 0  -0.05000000000000004 -2.15 0  0.05000000000000004 -2.15 0  0.15 -2.15 0  0.25 -2.15 0  0.3500000000000001 -2.15 0  0.45 -2.15 0  0.55 -2.15 0  0.6499999999999999 -2.15 0  0.75 -2.15 0  -0.75 -2.1 0  -0.65 -2.1 0  -0.55 -2.1 0  -0.45 -2.1 0  -0.35 -2.1 0  -0.25 -2.1 0  -0.15 -2.1 0  -0.05000000000000004 -2.1 0  0.05000000000000004 -2.1 0  0.15 -2.1 0  0.25 -2.1 0  0.3500000000000001 -2.1 0  0.45 -2.1 0  0.55 -2.1 0  0.6499999999999999 -2.1 0  0.75 -2.1 0  -0.75 -2.05 0  -0.65 -2.05 0  -0.55 -2.05 0  -0.45 -2.05 0  -0.35 -2.05 0  -0.25 -2.05 0  -0.15 -2.05 0  -0.05000000000000004 -2.05 0  0.05000000000000004 -2.05 0  0.15 -2.05 0  0.25 -2.05 0  0.3500000000000001 -2.05 0  0.45 -2.05 0  0.55 -2.05 0  0.6499999999999999 -2.05 0  0.75 -2.05 0  -0.75 -2 0  -0.65 -2 0  -0.55 -2 0  -0.45 -2 0  -0.35 -2 0  -0.25 -2 0  -0.15 -2 0  -0.05000000000000004 -2 0  0.05000000000000004 -2 0  0.15 -2 0  0.25 -2 0  0.3500000000000001 -2 0  0.45 -2 0  0.55 -2 0  0.6499999999999999 -2 0  0.75 -2 0  -0.75 -1.95 0  -0.65 -1.95 0  -0.55 -1.95 0  -0.45 -1.95 0  -0.35 -1.95 0  -0.25 -1.95 0  -0.15 -1.95 0  -0.05000000000000004 -1.95 0  0.05000000000000004 -1.95 0  0.15 -1.95 0  0.25 -1.95 0  0.3500000000000001 -1.95 0  0.45 -1.95 0  0.55 -1.95 0  0.6499999999999999 -1.95 0  0.75 -1.95 0  -0.75 -1.9 0  -0.65 -1.9 0  -0.55 -1.9 0  -0.45 -1.9 0  -0.35 -1.9 0  -0.25 -1.9 0  -0.15 -1.9 0  -0.05000000000000004 -1.9 0  0.05000000000000004 -1.9 0  0.15 -1.9 0  0.25 -1.9 0  0.3500000000000001 -1.9 0  0.45 -1.9 0  0.55 -1.9 0  0.6499999999999999 -1.9 0  0.75 -1.9 0  -0.75 -1.85 0  -0.65 -1.85 0  -0.55 -1.85 0  -0.45 -1.85 0  -0.35 -1.85 0  -0.25 -1.85 0  -0.15 -1.85 0  -0.05000000000000004 -1.85 0  0.05000000000000004 -1.85 0  0.15 -1.85 0  0.25 -1.85 0  0.3500000000000001 -1.85 0  0.45 -1.85 0  0.55 -1.85 0  0.6499999999999999 -1.85 0  0.75 -1.85 0  -0.75 -1.8 0  -0.65 -1.8 0  -0.55 -1.8 0  -0.45 -1.8 0  -0.35 -1.8 0  -0.25 -1.8 0  -0.15 -1.8 0  -0.05000000000000004 -1.8 0  0.05000000000000004 -1.8 0  0.15 -1.8 0  0.25 -1.8 0  0.3500000000000001 -1.8 0  0.45 -1.8 0  0.55 -1.8 0  0.6499999999999999 -1.8 0  0.75 -1.8 0  -0.75 -1.75 0  -0.65 -1.75 0  -0.55 -1.75 0  -0.45 -1.75 0  -0.35 -1.75 0  -0.25 -1.75 0  -0.15 -1.75 0  -0.05000000000000004 -1.75 0  0.05000000000000004 -1.75 0  0.15 -1.75 0  0.25 -1.75 0  0.3500000000000001 -1.75 0  0.45 -1.75 0  0.55 -1.75 0  0.6499999999999999 -1.75 0  0.75 -1.75 0  -0.75 -1.7 0  -0.65 -1.7 0  -0.55 -1.7 0  -0.45 -1.7 0  -0.35 -1.7 0  -0.25 -1.7 0  -0.15 -1.7 0  -0.05000000000000004 -1.7 0  0.05000000000000004 -1.7 0  0.15 -1.7 0  0.25 -1.7 0  0.3500000000000001 -1.7 0  0.45 -1.7 0  0.55 -1.7 0  0.6499999999999999 -1.7 0  0.75 -1.7 0  -0.75 -1.65 0  -0.65 -1.65 0  -0.55 -1.65 0  -0.45 -1.65 0  -0.35 -1.65 0  -0.25 -1.65 0  -0.15 -1.65 0  -0.05000000000000004 -1.65 0  0.05000000000000004 -1.65 0  0.15 -1.65 0  0.25 -1.65 0  0.3500000000000001 -1.65 0  0.45 -1.65 0  0.55 -1.65 0  0.6499999999999999 -1.65 0  0.75 -1.65 0  -0.75 -1.6 0  -0.65 -1.6 0  -0.55 -1.6 0  -0.45 -1.6 0  -0.35 -1.6 0  -0.25 -1.6 0  -0.15 -1.6 0  -0.05000000000000004 -1.6 0  0.05000000000000004 -1.6 0  0.15 -1.6 0  0.25 -1.6 0  0.3500000000000001 -1.6 0  0.45 -1.6 0  0.55 -1.6 0  0.6499999999999999 -1.6 0  0.75 -1.6 0  -0.75 -1.55 0  -0.65 -1.55 0  -0.55 -1.55 0  -0.45 -1.55 0  -0.35 -1.55 0  -0.25 -1.55 0  -0.15 -1.55 0  -0.05000000000000004 -1.55 0  0.05000000000000004 -1.55 0  0.15 -1.55 0  0.25 -1.55 0  0.3500000000000001 -1.55 0  0.45 -1.55 0  0.55 -1.55 0  0.6499999999999999 -1.55 0  0.75 -1.55 0  -0.75 -1.5 0  -0.65 -1.5 0  -0.55 -1.5 0  -0.45 -1.5 0  -0.35 -1.5 0  -0.25 -1.5 0  -0.15 -1.5 0  -0.05000000000000004 -1.5 0  0.05000000000000004 -1.5 0  0.15 -1.5 0  0.25 -1.5 0  0.3500000000000001 -1.5 0  0.45 -1.5 0  0.55 -1.5 0  0.6499999999999999 -1.5 0  0.75 -1.5 0  -0.75 -1.45 0  -0.65 -1.45 0  -0.55 -1.45 0  -0.45 -1.45 0  -0.35 -1.45 0  -0.25 -1.45 0  -0.15 -1.45 0  -0.05000000000000004 -1.45 0  0.05000000000000004 -1.45 0  0.15 -1.45 0  0.25 -1.45 0  0.3500000000000001 -1.45 0  0.45 -1.45 0  0.55 -1.45 0  0.6499999999999999 -1.45 0  0.75 -1.45 0  -0.75 -1.4 0  -0.65 -1.4 0  -0.55 -1.4 0  -0.45 -1.4 0  -0.35 -1.4 0  -0.25 -1.4 0  -0.15 -1.4 0  -0.05000000000000004 -1.4 0  0.05000000000000004 -1.4 0  0.15 -1.4 0  0.25 -1.4 0  0.3500000000000001 -1.4 0  0.45 -1.4 0  0.55 -1.4 0  0.6499999999999999 -1.4 0  0.75 -1.4 0  -0.75 -1.35 0  -0.65 -1.35 0  -0.55 -1.35 0  -0.45 -1.35 0  -0.35 -1.35 0  -0.25 -1.35 0  -0.15 -1.35 0  -0.05000000000000004 -1.35 0  0.05000000000000004 -1.35 0  0.15 -1.35 0  0.25 -1.35 0  0.3500000000000001 -1.35 0  0.45 -1.35 0  0.55 -1.35 0  0.6499999999999999 -1.35 0  0.75 -1.35 0  -0.75 -1.3 0  -0.65 -1.3 0  -0.55 -1.3 0  -0.45 -1.3 0  -0.35 -1.3 0  -0.25 -1.3 0  -0.15 -1.3 0  -0.05000000000000004 -1.3 0  0.05000000000000004 -1.3 0  0.15 -1.3 0  0.25 -1.3 0  0.3500000000000001 -1.3 0  0.45 -1.3 0  0.55 -1.3 0  0.6499999999999999 -1.
[...]
<PointData  Vectors="flow"> 
<DataArray  type="Float64"  Name="flow"  NumberOfComponents="3" format="ascii">4.7105106205226541e-06 4.1761840426723361e-05 0.0000000000000000e+00  2.1288719447003662e-06 1.8873879629134635e-05 0.0000000000000000e+00  -1.9638868756833338e-07 -1.7411176181431389e-06 0.0000000000000000e+00  2.5651581314097041e-08 2.2741849702348791e-07 0.0000000000000000e+00  -3.6865838815933044e-09 -3.2684042174125817e-08 0.0000000000000000e+00  5.5470298712089132e-10 4.9178145425344859e-09 0.0000000000000000e+00  -8.5751297262765380e-11 -7.6024284438929525e-10 0.0000000000000000e+00  1.3494785720973686e-11 1.1964033907848350e-10 0.0000000000000000e+00  -2.1507080375495956e-12 -1.9067471258275581e-11 0.0000000000000000e+00  3.4601149272322482e-13 3.0676242787700920e-12 0.0000000000000000e+00  -5.6074905455730822e-14 -4.9714169911498815e-13 0.0000000000000000e+00  9.1405449365805616e-15 8.1037070034759242e-14 0.0000000000000000e+00  -1.4970744748636849e-15 -1.3272570717448228e-14 0.0000000000000000e+00  2.4633999709119140e-16 2.1839695264502698e-15 0.0000000000000000e+00  -4.1723692347249039e-17 -3.6990855603382085e-16 0.0000000000000000e+00  1.3437238309832229e-17 1.1913014262746816e-16 0.0000000000000000e+00  -9.6069254063094892e-07 -8.5171846139520230e-06 0.0000000000000000e+00  -3.3971951935035424e-07 -3.0118417088673276e-06 0.0000000000000000e+00  1.1810939361127660e-07 1.0471191015686342e-06 0.0000000000000000e+00  -1.8979793369300322e-08 -1.6826861584126012e-07 0.0000000000000000e+00  2.9778865975549725e-09 2.6400964760412828e-08 0.0000000000000000e+00  -4.7032347667808937e-10 -4.1697335096535209e-09 0.0000000000000000e+00  7.4973089925265499e-11 6.6468679724787831e-10 0.0000000000000000e+00  -1.2050732308230824e-11 -1.0683783568789747e-10 0.0000000000000000e+00  1.9504402515896724e-12 1.7291962827526401e-11 0.0000000000000000e+00  -3.1750250058726516e-13 -2.8148729156542689e-12 0.0000000000000000e+00  5.1932702355621802e-14 4.6041828655581260e-13 0.0000000000000000e+00  -8.5287334219184752e-15 -7.5612950039098311e-14 0.0000000000000000e+00  1.4054799820745406e-15 1.2460524020183275e-14 0.0000000000000000e+00  -2.3246432835231948e-16 -2.0609524036011667e-15 0.0000000000000000e+00  3.9553153286567603e-17 3.5066526943613761e-16 0.0000000000000000e+00  -1.2783822535009016e-17 -1.1333717292231908e-16 0.0000000000000000e+00  4.5880272515234980e-08 4.0675943095596532e-07 0.0000000000000000e+00  -7.7912368370963963e-09 -6.9074547481123568e-08 0.0000000000000000e+00  -2.1329203232894661e-08 -1.8909771224387257e-07 0.0000000000000000e+00  7.4963248966282703e-09 6.6459955053689630e-08 0.0000000000000000e+00  -1.5593668184749038e-09 -1.3824834181702923e-08 0.0000000000000000e+00  2.8608044159992168e-10 2.5362952583634906e-09 0.0000000000000000e+00  -5.0069117253442177e-11 -4.4389635296335424e-10 0.0000000000000000e+00  8.5790564605936253e-12 7.6059097576009348e-11 0.0000000000000000e+00  -1.4546373598613494e-12 -1.2896337190412599e-11 0.0000000000000000e+00  2.4531295776221458e-13 2.1748641329963568e-12 0.0000000000000000e+00  -4.1254904715286078e-14 -3.6575243881910455e-13 0.0000000000000000e+00  6.9285821749918415e-15 6.1426534506644290e-14 0.0000000000000000e+00  -1.1630322692990542e-15 -1.0311062208412541e-14 0.0000000000000000e+00  1.9536340055655309e-16 1.7320277601581024e-15 0.0000000000000000e+00  -3.3697691337252312e-17 -2.9875266648250643e-16 0.0000000000000000e+00  1.1008586922657536e-17 9.7598516896396934e-17 0.0000000000000000e+00  -4.1188315008685963e-09 -3.6516207634566502e-08 0.0000000000000000e+00  1.6494887576302091e-09 1.4623825701975345e-08 0.0000000000000000e+00  1.5094244610761679e-09 1.3382061639988740e-08 0.0000000000000000e+00  -1.5200542952533075e-09 -1.3476302259409958e-08 0.0000000000000000e+00  5.2355700383653086e-10 4.6416844817746301e-09 0.0000000000000000e+00  -1.2440189682608921e-10 -1.1029063688760781e-09 0.0000000000000000e+00  2.5513055015973779e-11 2.2619036835057411e-10 0.0000000000000000e+00  -4.8678912804605432e-12 -4.3157125680501086e-11 0.0000000000000000e+00  8.9223929980248886e-13 7.9103006579504455e-12 0.0000000000000000e+00  -1.5962204734310597e-13 -1.4151566585344058e-12 0.0000000000000000e+00  2.8116938580211017e-14 2.4927554502455812e-13 0.0000000000000000e+00  -4.9016889296419175e-15 -4.3456764540407592e-14 0.0000000000000000e+00  8.4846130957289803e-16 7.5221793714373578e-15 0.0000000000000000e+00  -1.4624312606916726e-16 -1.2965435355982929e-15 0.0000000000000000e+00  2.5805940533888665e-17 2.2878699518104349e-16 0.0000000000000000e+00  -8.5819178872355578e-18 -7.6084466045043847e-17 0.0000000000000000e+00  4.5273845148847362e-10 4.0138304505097659e-09 0.0000000000000000e+00  -2.4041569308026526e-10 -2.1314465923832554e-09 0.0000000000000000e+00  -1.0024166012101309e-10 -8.8870964346092304e-10 0.0000000000000000e+00  1.9919168240367855e-10 1.7659680499669453e-09 0.0000000000000000e+00  -1.1571246771284911e-10 -1.0258687436034712e-09 0.0000000000000000e+00  3.8928130256722897e-11 3.4512402048497714e-10 0.0000000000000000e+00  -9.9474462710133581e-12 -8.8190792313163484e-11 0.0000000000000000e+00  2.2052088680183899e-12 1.9550657725416832e-11 0.0000000000000000e+00  -4.5063567980205974e-13 -3.9951879672003647e-12 0.0000000000000000e+00  8.7549373161363779e-14 7.7618399489328691e-13 0.0000000000000000e+00  -1.6452242615722577e-14 -1.4586018080207821e-13 0.0000000000000000e+00  3.0215999398269153e-15 2.6788512899361081e-14 0.0000000000000000e+00  -5.4594642046066862e-16 -4.8401816978154952e-15 0.0000000000000000e+00  9.7549661724278918e-17 8.6484326961525150e-16 0.0000000000000000e+00  -1.7770524064473066e-17 -1.5754763125816466e-16 0.0000000000000000e+00  6.0581670291377005e-18 5.3709719631459780e-17 0.0000000000000000e+00  -5.5221659072779259e-11 -4.8957709685419406e-10 0.0000000000000000e+00  3.3965017106503523e-11 3.0112268897407723e-10 0.0000000000000000e+00  4.8904248261431459e-12 4.3356900697447951e-11 0.0000000000000000e+00  -2.3984212420318754e-11 -2.1263615190551305e-10 0.0000000000000000e+00  1.9509946549168779e-11 1.7296877985382518e-10 0.0000000000000000e+00  -9.1351653678515168e-12 -8.0989376544833068e-11 0.0000000000000000e+00  3.0136894309597240e-12 2.6718380925225104e-11 0.0000000000000000e+00  -8.0337497062279343e-13 -7.1224586947752368e-12 0.0000000000000000e+00  1.8816815398135005e-13 1.6682370666406314e-12 0.0000000000000000e+00  -4.0579346104024115e-14 -3.5976315799687154e-13 0.0000000000000000e+00  8.2794244243089475e-15 7.3402658328948203e-14 0.0000000000000000e+00  -1.6250386520388034e-15 -1.4407059094194802e-14 0.0000000000000000e+00  3.1014076533262893e-16 2.7496061881728676e-15 0.0000000000000000e+00  -5.8025712235397328e-17 -5.1443691146009131e-16 0.0000000000000000e+00  1.1010947180977670e-17 9.7619442171653077e-17 0.0000000000000000e+00  -3.8744846768797175e-18 -3.4349908926366549e-17 0.0000000000000000e+00  7.1812234497393371e-12 6.3666369091719146e-11 0.0000000000000000e+00  -4.8378247874249281e-12 -4.2890566025827180e-11 0.0000000000000000e+00  1.7295993624662699e-13 1.5334060019477764e-12 0.0000000000000000e+00  2.8179395988562505e-12 2.4982927189859923e-11 0.0000000000000000e+00  -2.9567931156164209e-12 -2.6213956875763555e-11 0.0000000000000000e+00  1.7634738841967043e-12 1.5634380406161876e-11 0.0000000000000000e+00  -7.3744295826751798e-13 -6.5379271225508496e-12 0.0000000000000000e+00  2.3963192242395602e-13 2.1244979391019456e-12 0.0000000000000000e+00  -6.5577517588454448e-14 -5.8138873802301623e-13 0.0000000000000000e+00  1.5983119639428160e-14 1.4170109053463225e-13 0.0000000000000000e+00  -3.5961084935369946e-15 -3.1881917091954942e-14 0.0000000000000000e+00  7.6431940938704854e-16 6.7762049130732568e-15 0.0000000000000000e+00  -1.5581564965513851e-16 -1.3814103864948141e-15 0.0000000000000000e+00  3.0819549595366009e-17 2.7323600686040993e-16 0.0000000000000000e+00  -6.1455007443422589e-18 -5.4483991673721094e-17 0.0000000000000000e+00  2.2466992764076801e-18 1.9918498062480097e-17 0.0000000000000000e+00  -9.7550064338549204e-13 -8.6484683906117134e-12 0.0000000000000000e+00  6.9930189883319414e-13 6.1997810135361102e-12 0.0000000000000000e+00  -1.1535437523179228e-13 -1.0226940132490375e-12 0.0000000000000000e+00  -3.2685784542702034e-13 -2.8978143310992561e-12 0.0000000000000000e+00  4.2748487766423238e-13 3.7899405572023071e-12 0.0000000000000000e+00  -3.0628178389103659e-13 -2.7153937258399461e-12 0.0000000000000000e+00  1.5478144846227018e-13 1.3722414983072955e-12 0.0000000000000000e+00  -6.0427337039935529e-14 -5.3572892838390770e-13 0.0000000000000000e+00  1.9409227430053729e-14 1.7207583721570080e-13 0.0000000000000000e+00  -5.4039917604016944e-15 -4.7910016502665941e-14 0.0000000000000000e+00  1.3566161754426863e-15 1.2027313555417290e-14 0.0000000000000000e+00  -3.1570200543789976e-16 -2.7989103168673595e-15 0.0000000000000000e+00  6.9432496415458862e-17 6.1556571448929376e-16 0.0000000000000000e+00  -1.4647379170789955e-17 -1.2985885414103370e-16 0.0000000000000000e+00  3.0946961298482836e-18 2.7436559718356509e-17 0.0000000000000000e+00  -1.1826603933173983e-18 -1.0485078710903532e-17 0.0000000000000000e+00  1.3677557434280656e-13 1.2126073307407087e-12 0.0000000000000000e+00  -1.0258139822336947e-13 -9.0945299320420573e-13 0.0000000000000000e+00  2.6971798469406200e-14 2.3912310881832009e-13 0.0000000000000000e+00  3.7295656546285624e-14 3.3065104460438292e-13 0.0000000000000000e+00  -6.0426775386183001e-14 -5.3572394894616092e-13 0.0000000000000000e+00  5.0148394357886040e-14 4.4459919774006551e-13 0.0000000000000000e+00  -2.9449890316684094e-14 -2.6109305743448376e-13 0.0000000000000000e+00  1.3422416934652891e-14 1.1899874118184838e-13 0.0000000000000000e+00  -5.0050404436662205e-15 -4.4373045127429030e-14 0.0000000000000000e+00  1.5931353785495474e-15 1.4124215147140814e-14 0.0000000000000000e+00  -4.4890551864111151e-16 -3.9798489264600170e-15 0.0000000000000000e+00  1.1526292899496765e-16 1.0218832809404628e-15 0.0000000000000000e+00  -2.7564469947598251e-17 -2.4437753953542402e-16 0.0000000000000000e+00  6.2490032326104041e-18 5.5401610748814804e-17 0.0000000000000000e+00  -1.4095056884714700e-18 -1.2496214611224713e-17 0.0000000000000000e+00  5.6614753752557192e-19 5.0192781685103112e-18 0.0000000000000000e+00  -1.9644416004297546e-14 -1.7416094188884779e-13 0.0000000000000000e+00  1.5248286129575182e-14 1.3518629792489115e-13 0.0000000000000000e+00  -5.1846000828068064e-15 -4.5964961928168216e-14 0.0000000000000000e+00  -4.1314163757388576e-15 -3.6627781002819067e-14 0.0000000000000000e+00  8.4440035072954536e-15 7.4861762437813581e-14 0.0000000000000000e+00  -7.9328009679337679e-15 -7.0329608581383138e-14 0.0000000000000000e+00  5.2622112633396763e-15 4.6653037170504123e-14 0.0000000000000000e+00  -2.7260649319534845e-15 -2.4168396560901126e-14 0.0000000000000000e+00  1.1581215501396880e-15 1.0267525384820551e-14 0.0000000000000000e+00  -4.1793610357205793e-16 -3.7052842615194512e-15 0.0000000000000000e+00  1.3207779118916891e-16 1.1709583278562177e-15 0.0000000000000000e+00  -3.7540104186763812e-17 -3.3281823711847435e-16 0.0000000000000000e+00  9.8113523850369130e-18 8.6984228607640954e-17 0.0000000000000000e+00  -2.4041076811521886e-18 -2.1314029292603056e-17 0.0000000000000000e+00  5.8262060672378623e-19 5.1653229909541837e-18 0.0000000000000000e+00  -2.4707701852561232e-19 -2.1905037164808107e-18 0.0000000000000000e+00  2.8753048062317214e-15 2.5491508282114195e-14 0.0000000000000000e+00  -2.2929744286070995e-15 -2.0328758367054104e-14 0.0000000000000000e+00  9.2255653149799122e-16 8.1790832792509172e-15 0.0000000000000000e+00  4.3236329658165723e-16 3.8331910174552697e-15 0.0000000000000000e+00  -1.1723916006971302e-15 -1.0394038967374566e-14 0.0000000000000000e+00  1.2289153424135660e-15 1.0895159901397906e-14 0.0000000000000000e+00  -9.0232085671151073e-16 -7.9996804311438576e-15 0.0000000000000000e+00  5.2003459199246184e-16 4.6104559349779580e-15 0.0000000000000000e+00  -2.4699779738621463e-16 -2.1898013678718189e-15 0.0000000000000000e+00  9.9737945560339642e-17 8.8424387556480502e-16 0.0000000000000000e+00  -3.5121809446571907e-17 -3.1137843001886233e-16 0.0000000000000000e+00  1.1034828498860443e-17 9.7831166094374954e-17 0.0000000000000000e+00  -3.1573170580346440e-18 -2.7991736305560966e-17 0.0000000000000000e+00  8.3910830749703731e-19 7.4392587261677893e-18 0.0000000000000000e+00  -2.1955331442049178e-19 -1.9464875935189938e-18 0.0000000000000000e+00  9.8630505493460088e-20 8.7442567556888847e-19 0.0000000000000000e+00  -4.2732455960589863e-16 -3.7885192299388834e-15 0.0000000000000000e+00  3.4829173655129701e-16 3.0878401718130099e-15 0.0000000000000000e+00  -1.5806494657618626e-16 -1.4013519144217224e-15 0.0000000000000000e+00  -4.0130931260713301e-17 -3.5578765923676720e-16 0.0000000000000000e+00  1.6206907397654210e-16 1.4368511931651650e-15 0.0000000000000000e+00  -1.8791410405187003e-16 -1.6659847433852377e-15 0.0000000000000000e+00  1.5049068417960981e-16 1.3342009910849014e-15 0.0000000000000000e+00  -9.4900220132543296e-17 -8.4135419042881866e-16 0.0000000000000000e+00  4.9577465762458541e-17 4.3953753228209620e-16 0.0000000000000000e+00  -2.2093964246024490e-17 -1.9587783227072523e-16 0.0000000000000000e+00  8.5863192964574876e-18 7.6123487493966637e-17 0.0000000000000000e+00  -2.9667234095150725e-18 -2.6301995600775498e-17 0.0000000000000000e+00  9.2782689565794671e-19 8.2258085973257029e-18 0.0000000000000000e+00  -2.6771017343440872e-19 -2.3734304928364063e-18 0.0000000000000000e+00  7.5856268414938976e-20 6.7251676773841663e-19 0.0000000000000000e+00  -3.6166554403120564e-20 -3.2064079575304021e-19 0.0000000000000000e+00  6.4312542278097213e-17 5.7017388228641724e-16 0.0000000000000000e+00  -5.3368584263104507e-17 -4.7314834406394417e-16 0.0000000000000000e+00  2.6529705323981769e-17 2.3520365615589998e-16 0.0000000000000000e+00  2.6552963804225390e-18 2.3540985820461645e-17 0.0000000000000000e+00  -2.2315270699952102e-17 -1.9783986262345585e-16 0.0000000000000000e+00  2.8496322548227964e-17 2.5263903871115563e-16 0.0000000000000000e+00  -2.4624339107904305e-17 -2.1831130492679371e-16 0.0000000000000000e+00  1.6773860067183894e-17 1.4871153552100385e-16 0.0000000000000000e+00  -9.5099665021684612e-18 -8.4312240332657947e-17 0.0000000000000000e+00  4.6187471949582453e-18 4.0948296026943352e-17 0.0000000000000000e+00  -1.9604699253059465e-18 -1.7380882621369187e-17 0.0000000000000000e+00  7.3948499181774556e-19 6.5560311214886916e-18 0.0000000000000000e+00  -2.5173967092257554e-19 -2.2318412616120940e-18 0.0000000000000000e+00  7.8750656434008722e-20 6.9817746151942270e-19 0.0000000000000000e+00  -2.4190556777891603e-20 -2.1446553322489040e-19 0.0000000000000000e+00  1.2244848121968163e-20 1.0855880275297185e-19 0.0000000000000000e+00  -9.7817191644842080e-18 -8.6721510204532127e-17 0.0000000000000000e+00  8.2404080454682821e-18 7.3056751925495360e-17 0.0000000000000000e+00  -4.4003496226612996e-18 -3.9012054863594534e-17 0.0000000000000000e+00  7.3367572375174409e-20 6.5045280583379943e-19 0.0000000000000000e+00  3.0582627455192056e-18 2.7113553296095601e-17 0.0000000000000000e+00  -4.2980005570240196e-18 -3.8104661654809987e-17 0.0000000000000000e+00  3.9755816152072592e-18 3.5246201185568891e-17 0.0000000000000000e+00  -2.8962734594221987e-18 -2.5677409476071491e-17 0.0000000000000000e+00  1.7627519197950064e-18 1.5627979706839342e-17 0.0000000000000000e+00  -9.2295433393437932e-19 -8.1826100650301844e-18 0.0000000000000000e+00  4.2367446525273347e-19 3.7561586919421545e-18 0.0000000000000000e+00  -1.7306402211991958e-19 -1.5343287931228742e-18 0.0000000000000000e+00  6.3765057801585265e-20 5.6532006468868295e-19 0.0000000000000000e+00  -2.1557977340122113e-20 -1.9112594835869517e-19 0.0000000000000000e+00  7.1734013277688493e-21 6.3597020726786731e-20 0.0000000000000000e+00  -3.8505360059421831e-21 -3.4137587873577075e-20 0.0000000000000000e+00  1.5011784631606274e-18 1.3308955330110727e-17 0.0000000000000000e+00  -1.2809472074803923e-18 -1.1356457331990427e-17 0.0000000000000000e+00  7.2479869241207667e-19 6.4258272133250333e-18 0.0000000000000000e+00  -7.8995075879771087e-20 -7.0034440406844819e-19 0.0000000000000000e+00  -4.1651243513552199e-19 -3.6926624846343225e-18 0.0000000000000000e+00  6.4590078229430895e-19 5.7263442489973136e-18 0.0000000000000000e+00  -6.3575797118341824e-19 -5.6364214161634458e-18 0.0000000000000000e+00  4.9145963702951791e-19 4.3571197670975244e-18 0.0000000000000000e+00  -3.1828680413425207e-19 -2.8218262933693456e-18 0.0000000000000000e+00  1.7802465577004520e-19 1.5783081422001057e-18 0.0000000000000000e+00  -8.7601647001960494e-20 -7.7664743759947276e-19 0.0000000000000000e+00  3.8448327806123206e-20 3.4087024950503353e-19 0.0000000000000000e+00  -1.5235690770899586e-20 -1.3507463161066242e-19 0.0000000000000000e+00  5.5429200794814798e-21 4.9141709361373278e-20 0.0000000000000000e+00  -1.9933757663650108e-21 -1.7672615003295813e-20 0.0000000000000000e+00  1.1319207614281854e-21 1.0035237795348421e-20 0.0000000000000000e+00  -2.3216985590200001e-19 -2.0583417075490894e-18 0.0000000000000000e+00  2.0030700343349288e-19 1.7758561199924731e-18 0.0000000000000000e+00  -1.1889875745448789e-19 -1.0541173422084545e-18 0.0000000000000000e+00  2.1899439309259263e-20 1.9415323805522922e-19 0.0000000000000000e+00  5.6230047884971943e-20 4.9851714095034660e-19 0.0000000000000000e+00  -9.6817638817580897e-20 -8.5835339489019512e-19 0.0000000000000000e+00  1.0097029130811247e-19 8.9516944831371459e-19 0.0000000000000000e+00  -8.2306886193489961e-20 -7.2970582684974811e-19 0.0000000000000000e+00  5.6315768649378549e-20 4.9927711310046168e-19 0.0000000000000000e+00  -3.3391873721077977e-20 -2.9604138791522952e-19 0.0000000000000000e+00  1.7478890280799204e-20 1.5496210189245898e-19 0.0000000000000000e+00  -8.1832080601115673e-21 -7.2549635637407182e-20 0.0000000000000000e+00  3.4656293305466114e-21 3.0725131676786471e-20 0.0000000000000000e+00  -1.3502640295615662e-21 -1.1970997515814521e-20 0.0000000000000000e+00  5.2305795168380464e-22 4.6372600492564295e-21 0.0000000000000000e+00  -3.1314384186970596e-22 -2.7762304786657594e-21 0.0000000000000000e+00  3.6149312673723558e-20 3.2048793624167101e-19 0.0000000000000000e+00  -3.1488992446273458e-20 -2.7917106735950133e-19 0.0000000000000000e+00  1.9460001325069691e-20 1.7252598189688810e-19 0.0000000000000000e+00  -4.8036599594284396e-21 -4.2587671879112775e-20 0.0000000000000000e+00  -7.4968487597958064e-21 -6.6464599452517683e-20 0.0000000000000000e+00  1.4484327516827550e-20 1.2841329171635171e-19 0.0000000000000000e+00  -1.5955733805089132e-20 -1.4145829671974565e-19 0.0000000000000000e+00  1.3646949787339070e-20 1.2098937572655850e-19 0.0000000000000000e+00  -9.8070107462650496e-21 -8.6945737063902268e-20 0.0000000000000000e+00  6.1251300055276516e-21 5.4303391392290047e-20 0.0000000000000000e+00  -3.3881128962051084e-21 -3.0037896423072235e-20 0.0000000000000000e+00  1.6811309219717771e-21 1.4904354741063256e-20 0.0000000000000000e+00  -7.5641833517709597e-22 -6.7061565835103911e-21 0.0000000000000000e+00  3.1408005622914441e-22 2.7845306477628698e-21 0.0000000000000000e+00  -1.3053311940008031e-22 -1.1572637749798198e-21 0.0000000000000000e+00  8.2068235614998237e-23 7.2759002918371777e-22 0.0000000000000000e+00  -5.6618591192817451e-21 -5.0196183833632582e-20 0.0000000000000000e+00  4.9736740848112451e-21 4.4094961289222432e-20 0.0000000000000000e+00  -3.1813329856969972e-21 -2.8204653634388577e-20 0.0000000000000000e+00  9.5443458261718780e-22 8.4617036130540423e-21 0.0000000000000000e+00  9.8161660551673345e-22 8.7026905026408160e-21 0.0000000000000000e+00  -2.1633362528038450e-21 -1.9179428868141539e-20 0.0000000000000000e+00  2.5120994020331744e-21 2.2271448429965773e-20 0.0000000000000000e+00  -2.2453492499989693e-21 -1.9906529171632688e-20 0.0000000000000000e+00  1.686474696285