<?xml version="1.0"?>
<VTKFile type="UnstructuredGrid"  version="0.1"  >
<UnstructuredGrid>
<Piece  NumberOfPoints="1876" NumberOfCells="3600">
<Points>
<DataArray  type="Float64"  NumberOfComponents="3"  format="ascii">-0.75 -3 0  -0.65 -3 0  -0.55 -3 0  -0.45 -3 0  -0.35 -3 0  -0.25 -3 0  -0.15 -3 0  -0.05000000000000004 -3 0  0.05000000000000004 -3 0  0.15 -3 0  0.25 -3 0  0.3500000000000001 -3 0  0.45 -3 0  0.55 -3 0  0.6499999999999999 -3 0  0.75 -3 0  -0.75 -2.95 0  -0.65 -2.95 0  -0.55 -2.95 0  -0.45 -2.95 0  -0.35 -2.95 0  -0.25 -2.95 0  -0.15 -2.95 0  -0.05000000000000004 -2.95 0  0.05000000000000004 -2.95 0  0.15 -2.95 0  0.25 -2.95 0  0.3500000000000001 -2.95 0  0.45 -2.95 0  0.55 -2.95 0  0.6499999999999999 -2.95 0  0.75 -2.95 0  -0.75 -2.9 0  -0.65 -2.9 0  -0.55 -2.9 0  -0.45 -2.9 0  -0.35 -2.9 0  -0.25 -2.9 0  -0.15 -2.9 0  -0.05000000000000004 -2.9 0  0.05000000000000004 -2.9 0  0.15 -2.9 0  0.25 -2.9 0  0.3500000000000001 -2.9 0  0.45 -2.9 0  0.55 -2.9 0  0.6499999999999999 -2.9 0  0.75 -2.9 0  -0.75 -2.85 0  -0.65 -2.85 0  -0.55 -2.85 0  -0.45 -2.85 0  -0.35 -2.85 0  -0.25 -2.85 0  -0.15 -2.85 0  -0.05000000000000004 -2.85 0  0.05000000000000004 -2.85 0  0.15 -2.85 0  0.25 -2.85 0  0.3500000000000001 -2.85 0  0.45 -2.85 0  0.55 -2.85 0  0.6499999999999999 -2.85 0  0.75 -2.85 0  -0.75 -2.8 0  -0.65 -2.8 0  -0.55 -2.8 0  -0.45 -2.8 0  -0.35 -2.8 0  -0.25 -2.8 0  -0.15 -2.8 0  -0.05000000000000004 -2.8 0  0.05000000000000004 -2.8 0  0.15 -2.8 0  0.25 -2.8 0  0.3500000000000001 -2.8 0  0.45 -2.8 0  0.55 -2.8 0  0.6499999999999999 -2.8 0  0.75 -2.8 0  -0.75 -2.75 0  -0.65 -2.75 0  -0.55 -2.75 0  -0.45 -2.75 0  -0.35 -2.75 0  -0.25 -2.75 0  -0.15 -2.75 0  -0.05000000000000004 -2.75 0  0.05000000000000004 -2.75 0  0.15 -2.75 0  0.25 -2.75 0  0.3500000000000001 -2.75 0  0.45 -2.75 0  0.55 -2.75 0  0.6499999999999999 -2.75 0  0.75 -2.75 0  -0.75 -2.7 0  -0.65 -2.7 0  -0.55 -2.7 0  -0.45 -2.7 0  -0.35 -2.7 0  -0.25 -2.7 0  -0.15 -2.7 0  -0.05000000000000004 -2.7 0  0.05000000000000004 -2.7 0  0.15 -2.7 0  0.25 -2.7 0  0.3500000000000001 -2.7 0  0.45 -2.7 0  0.55 -2.7 0  0.6499999999999999 -2.7 0  0.75 -2.7 0  -0.75 -2.65 0  -0.65 -2.65 0  -0.55 -2.65 0  -0.45 -2.65 0  -0.35 -2.65 0  -0.25 -2.65 0  -0.15 -2.65 0  -0.05000000000000004 -2.65 0  0.05000000000000004 -2.65 0  0.15 -2.65 0  0.25 -2.65 0  0.3500000000000001 -2.65 0  0.45 -2.65 0  0.55 -2.65 0  0.6499999999999999 -2.65 0  0.75 -2.65 0  -0.75 -2.6 0  -0.65 -2.6 0  -0.55 -2.6 0  -0.45 -2.6 0  -0.35 -2.6 0  -0.25 -2.6 0  -0.15 -2.6 0  -0.05000000000000004 -2.6 0  0.05000000000000004 -2.6 0  0.15 -2.6 0  0.25 -2.6 0  0.3500000000000001 -2.6 0  0.45 -2.6 0  0.55 -2.6 0  0.6499999999999999 -2.6 0  0.75 -2.6 0  -0.75 -2.55 0  -0.65 -2.55 0  -0.55 -2.55 0  -0.45 -2.55 0  -0.35 -2.55 0  -0.25 -2.55 0  -0.15 -2.55 0  -0.05000000000000004 -2.55 0  0.05000000000000004 -2.55 0  0.15 -2.55 0  0.25 -2.55 0  0.3500000000000001 -2.55 0  0.45 -2.55 0  0.55 -2.55 0  0.6499999999999999 -2.55 0  0.75 -2.55 0  -0.75 -2.5 0  -0.65 -2.5 0  -0.55 -2.5 0  -0.45 -2.5 0  -0.35 -2.5 0  -0.25 -2.5 0  -0.15 -2.5 0  -0.05000000000000004 -2.5 0  0.05000000000000004 -2.5 0  0.15 -2.5 0  0.25 -2.5 0  0.3500000000000001 -2.5 0  0.45 -2.5 0  0.55 -2.5 0  0.6499999999999999 -2.5 0  0.75 -2.5 0  -0.75 -2.45 0  -0.65 -2.45 0  -0.55 -2.45 0  -0.45 -2.45 0  -0.35 -2.45 0  -0.25 -2.45 0  -0.15 -2.45 0  -0.05000000000000004 -2.45 0  0.05000000000000004 -2.45 0  0.15 -2.45 0  0.25 -2.45 0  0.3500000000000001 -2.45 0  0.45 -2.45 0  0.55 -2.45 0  0.6499999999999999 -2.45 0  0.75 -2.45 0  -0.75 -2.4 0  -0.65 -2.4 0  -0.55 -2.4 0  -0.45 -2.4 0  -0.35 -2.4 0  -0.25 -2.4 0  -0.15 -2.4 0  -0.05000000000000004 -2.4 0  0.05000000000000004 -2.4 0  0.15 -2.4 0  0.25 -2.4 0  0.3500000000000001 -2.4 0  0.45 -2.4 0  0.55 -2.4 0  0.6499999999999999 -2.4 0  0.75 -2.4 0  -0.75 -2.35 0  -0.65 -2.35 0  -0.55 -2.35 0  -0.45 -2.35 0  -0.35 -2.35 0  -0.25 -2.35 0  -0.15 -2.35 0  -0.05000000000000004 -2.35 0  0.05000000000000004 -2.35 0  0.15 -2.35 0  0.25 -2.35 0  0.3500000000000001 -2.35 0  0.45 -2.35 0  0.55 -2.35 0  0.6499999999999999 -2.35 0  0.75 -2.35 0  -0.75 -2.3 0  -0.65 -2.3 0  -0.55 -2.3 0  -0.45 -2.3 0  -0.35 -2.3 0  -0.25 -2.3 0  -0.15 -2.3 0  -0.05000000000000004 -2.3 0  0.05000000000000004 -2.3 0  0.15 -2.3 0  0.25 -2.3 0  0.3500000000000001 -2.3 0  0.45 -2.3 0  0.55 -2.3 0  0.6499999999999999 -2.3 0  0.75 -2.3 0  -0.75 -2.25 0  -0.65 -2.25 0  -0.55 -2.25 0  -0.45 -2.25 0  -0.35 -2.25 0  -0.25 -2.25 0  -0.15 -2.25 0  -0.05000000000000004 -2.25 0  0.05000000000000004 -2.25 0  0.15 -2.25 0  0.25 -2.25 0  0.3500000000000001 -2.25 0  0.45 -2.25 0  0.55 -2.25 0  0.6499999999999999 -2.25 0  0.75 -2.25 0  -0.75 -2.2 0  -0.65 -2.2 0  -0.55 -2.2 0  -0.45 -2.2 0  -0.35 -2.2 0  -0.25 -2.2 0  -0.15 -2.2 0  -0.05000000000000004 -2.2 0  0.05000000000000004 -2.2 0  0.15 -2.2 0  0.25 -2.2 0  0.3500000000000001 -2.2 0  0.45 -2.2 0  0.55 -2.2 0  0.6499999999999999 -2.2 0  0.75 -2.2 0  -0.75 -2.15 0  -0.65 -2.15 0  -0.55 -2.15 0  -0.45 -2.15 0  -0.35 -2.15 0  -0.25 -2.15 0  -0.15 -2.15 0  -0.05000000000000004 -2.15 0  0.05000000000000004 -2.15 0  0.15 -2.15 0  0.25 -2.15 0  0.3500000000000001 -2.15 0  0.45 -2.15 0  0.55 -2.15 0  0.6499999999999999 -2.15 0  0.75 -2.15 0  -0.75 -2.1 0  -0.65 -2.1 0  -0.55 -2.1 0  -0.45 -2.1 0  -0.35 -2.1 0  -0.25 -2.1 0  -0.15 -2.1 0  -0.05000000000000004 -2.1 0  0.05000000000000004 -2.1 0  0.15 -2.1 0  0.25 -2.1 0  0.3500000000000001 -2.1 0  0.45 -2.1 0  0.55 -2.1 0  0.6499999999999999 -2.1 0  0.75 -2.1 0  -0.75 -2.05 0  -0.65 -2.05 0  -0.55 -2.05 0  -0.45 -2.05 0  -0.35 -2.05 0  -0.25 -2.05 0  -0.15 -2.05 0  -0.05000000000000004 -2.05 0  0.05000000000000004 -2.05 0  0.15 -2.05 0  0.25 -2.05 0  0.3500000000000001 -2.05 0  0.45 -2.05 0  0.55 -2.05 0  0.6499999999999999 -2.05 0  0.75 -2.05 0  -0.75 -2 0  -0.65 -2 0  -0.55 -2 0  -0.45 -2 0  -0.35 -2 0  -0.25 -2 0  -0.15 -2 0  -0.05000000000000004 -2 0  0.05000000000000004 -2 0  0.15 -2 0  0.25 -2 0  0.3500000000000001 -2 0  0.45 -2 0  0.55 -2 0  0.6499999999999999 -2 0  0.75 -2 0  -0.75 -1.95 0  -0.65 -1.95 0  -0.55 -1.95 0  -0.45 -1.95 0  -0.35 -1.95 0  -0.25 -1.95 0  -0.15 -1.95 0  -0.05000000000000004 -1.95 0  0.05000000000000004 -1.95 0  0.15 -1.95 0  0.25 -1.95 0  0.3500000000000001 -1.95 0  0.45 -1.95 0  0.55 -1.95 0  0.6499999999999999 -1.95 0  0.75 -1.95 0  -0.75 -1.9 0  -0.65 -1.9 0  -0.55 -1.9 0  -0.45 -1.9 0  -0.35 -1.9 0  -0.25 -1.9 0  -0.15 -1.9 0  -0.05000000000000004 -1.9 0  0.05000000000000004 -1.9 0  0.15 -1.9 0  0.25 -1.9 0  0.3500000000000001 -1.9 0  0.45 -1.9 0  0.55 -1.9 0  0.6499999999999999 -1.9 0  0.75 -1.9 0  -0.75 -1.85 0  -0.65 -1.85 0  -0.55 -1.85 0  -0.45 -1.85 0  -0.35 -1.85 0  -0.25 -1.85 0  -0.15 -1.85 0  -0.05000000000000004 -1.85 0  0.05000000000000004 -1.85 0  0.15 -1.85 0  0.25 -1.85 0  0.3500000000000001 -1.85 0  0.45 -1.85 0  0.55 -1.85 0  0.6499999999999999 -1.85 0  0.75 -1.85 0  -0.75 -1.8 0  -0.65 -1.8 0  -0.55 -1.8 0  -0.45 -1.8 0  -0.35 -1.8 0  -0.25 -1.8 0  -0.15 -1.8 0  -0.05000000000000004 -1.8 0  0.05000000000000004 -1.8 0  0.15 -1.8 0  0.25 -1.8 0  0.3500000000000001 -1.8 0  0.45 -1.8 0  0.55 -1.8 0  0.6499999999999999 -1.8 0  0.75 -1.8 0  -0.75 -1.75 0  -0.65 -1.75 0  -0.55 -1.75 0  -0.45 -1.75 0  -0.35 -1.75 0  -0.25 -1.75 0  -0.15 -1.75 0  -0.05000000000000004 -1.75 0  0.05000000000000004 -1.75 0  0.15 -1.75 0  0.25 -1.75 0  0.3500000000000001 -1.75 0  0.45 -1.75 0  0.55 -1.75 0  0.6499999999999999 -1.75 0  0.75 -1.75 0  -0.75 -1.7 0  -0.65 -1.7 0  -0.55 -1.7 0  -0.45 -1.7 0  -0.35 -1.7 0  -0.25 -1.7 0  -0.15 -1.7 0  -0.05000000000000004 -1.7 0  0.05000000000000004 -1.7 0  0.15 -1.7 0  0.25 -1.7 0  0.3500000000000001 -1.7 0  0.45 -1.7 0  0.55 -1.7 0  0.6499999999999999 -1.7 0  0.75 -1.7 0  -0.75 -1.65 0  -0.65 -1.65 0  -0.55 -1.65 0  -0.45 -1.65 0  -0.35 -1.65 0  -0.25 -1.65 0  -0.15 -1.65 0  -0.05000000000000004 -1.65 0  0.05000000000000004 -1.65 0  0.15 -1.65 0  0.25 -1.65 0  0.3500000000000001 -1.65 0  0.45 -1.65 0  0.55 -1.65 0  0.6499999999999999 -1.65 0  0.75 -1.65 0  -0.75 -1.6 0  -0.65 -1.6 0  -0.55 -1.6 0  -0.45 -1.6 0  -0.35 -1.6 0  -0.25 -1.6 0  -0.15 -1.6 0  -0.05000000000000004 -1.6 0  0.05000000000000004 -1.6 0  0.15 -1.6 0  0.25 -1.6 0  0.3500000000000001 -1.6 0  0.45 -1.6 0  0.55 -1.6 0  0.6499999999999999 -1.6 0  0.75 -1.6 0  -0.75 -1.55 0  -0.65 -1.55 0  -0.55 -1.55 0  -0.45 -1.55 0  -0.35 -1.55 0  -0.25 -1.55 0  -0.15 -1.55 0  -0.05000000000000004 -1.55 0  0.05000000000000004 -1.55 0  0.15 -1.55 0  0.25 -1.55 0  0.3500000000000001 -1.55 0  0.45 -1.55 0  0.55 -1.55 0  0.6499999999999999 -1.55 0  0.75 -1.55 0  -0.75 -1.5 0  -0.65 -1.5 0  -0.55 -1.5 0  -0.45 -1.5 0  -0.35 -1.5 0  -0.25 -1.5 0  -0.15 -1.5 0  -0.05000000000000004 -1.5 0  0.05000000000000004 -1.5 0  0.15 -1.5 0  0.25 -1.5 0  0.3500000000000001 -1.5 0  0.45 -1.5 0  0.55 -1.5 0  0.6499999999999999 -1.5 0  0.75 -1.5 0  -0.75 -1.45 0  -0.65 -1.45 0  -0.55 -1.45 0  -0.45 -1.45 0  -0.35 -1.45 0  -0.25 -1.45 0  -0.15 -1.45 0  -0.05000000000000004 -1.45 0  0.05000000000000004 -1.45 0  0.15 -1.45 0  0.25 -1.45 0  0.3500000000000001 -1.45 0  0.45 -1.45 0  0.55 -1.45 0  0.6499999999999999 -1.45 0  0.75 -1.45 0  -0.75 -1.4 0  -0.65 -1.4 0  -0.55 -1.4 0  -0.45 -1.4 0  -0.35 -1.4 0  -0.25 -1.4 0  -0.15 -1.4 0  -0.05000000000000004 -1.4 0  0.05000000000000004 -1.4 0  0.15 -1.4 0  0.25 -1.4 0  0.3500000000000001 -1.4 0  0.45 -1.4 0  0.55 -1.4 0  0.6499999999999999 -1.4 0  0.75 -1.4 0  -0.75 -1.35 0  -0.65 -1.35 0  -0.55 -1.35 0  -0.45 -1.35 0  -0.35 -1.35 0  -0.25 -1.35 0  -0.15 -1.35 0  -0.05000000000000004 -1.35 0  0.05000000000000004 -1.35 0  0.15 -1.35 0  0.25 -1.35 0  0.3500000000000001 -1.35 0  0.45 -1.35 0  0.55 -1.35 0  0.6499999999999999 -1.35 0  0.75 -1.35 0  -0.75 -1.3 0  -0.65 -1.3 0  -0.55 -1.3 0  -0.45 -1.3 0  -0.35 -1.3 0  -0.25 -1.3 0  -0.15 -1.3 0  -0.05000000000000004 -1.3 0  0.05000000000000004 -1.3 0  0.15 -1.3 0  0.25 -1.3 0  0.3500000000000001 -1.3 0  0.45 -1.3 0  0.55 -1.3 0  0.6499999999999999 -1.
[...]
<PointData  Vectors="flow"> 
<DataArray  type="Float64"  Name="flow"  NumberOfComponents="3" format="ascii">-2.3296121326663475e-11 2.9819035298129364e-10 0.0000000000000000e+00  -1.0528467741182373e-11 1.3476438708713481e-10 0.0000000000000000e+00  9.7125238882668551e-13 -1.2432030576981614e-11 0.0000000000000000e+00  -1.2686148034789353e-13 1.6238269484530424e-12 0.0000000000000000e+00  1.8232228372938140e-14 -2.3337252317360897e-13 0.0000000000000000e+00  -2.7433178967755146e-15 3.5114469078726695e-14 0.0000000000000000e+00  4.2408833901122079e-16 -5.4283307393436443e-15 0.0000000000000000e+00  -6.6739296598432692e-17 8.5426299645994148e-16 0.0000000000000000e+00  1.0636459487575995e-17 -1.3614668144097318e-16 0.0000000000000000e+00  -1.7112212166089546e-18 2.1903631572594691e-17 0.0000000000000000e+00  2.7732190968565213e-19 -3.5497204439763578e-18 0.0000000000000000e+00  -4.5205129759536267e-20 5.7862566092206597e-19 0.0000000000000000e+00  7.4038743166246672e-21 -9.4769591252796053e-20 0.0000000000000000e+00  -1.2182896764617795e-21 1.5594107858710831e-20 0.0000000000000000e+00  2.0634709852539200e-22 -2.6412428611250274e-21 0.0000000000000000e+00  -6.6454692320895153e-23 8.5062006170746111e-22 0.0000000000000000e+00  4.7511643189281160e-12 -6.0814903282280115e-11 0.0000000000000000e+00  1.6801038735251884e-12 -2.1505329581122479e-11 0.0000000000000000e+00  -5.8411730384373069e-13 7.4767014891997745e-12 0.0000000000000000e+00  9.3865740830696577e-14 -1.2014814826329203e-12 0.0000000000000000e+00  -1.4727322165763093e-14 1.8850972372176817e-13 0.0000000000000000e+00  2.3260138142423391e-15 -2.9772976822302041e-14 0.0000000000000000e+00  -3.7078404866010984e-16 4.7460358228494217e-15 0.0000000000000000e+00  5.9597641220590147e-17 -7.6284980762355622e-16 0.0000000000000000e+00  -9.6460227779721050e-18 1.2346909155804331e-16 0.0000000000000000e+00  1.5702282344879380e-18 -2.0098921401445667e-17 0.0000000000000000e+00  -2.5683638831575985e-19 3.2875057704417360e-18 0.0000000000000000e+00  4.2179378111186002e-20 -5.3989603982318266e-19 0.0000000000000000e+00  -6.9508880930985746e-21 8.8971367591662053e-20 0.0000000000000000e+00  1.1496666993643443e-21 -1.4715733751863659e-20 0.0000000000000000e+00  -1.9561256348759891e-22 2.5038408126412746e-21 0.0000000000000000e+00  6.3223184233275473e-23 -8.0925675818592893e-22 0.0000000000000000e+00  -2.2690372257279965e-13 2.9043676489318460e-12 0.0000000000000000e+00  3.8532043182534802e-14 -4.9321015273644813e-13 0.0000000000000000e+00  1.0548489247635845e-13 -1.3502066236973927e-12 0.0000000000000000e+00  -3.7073537958940737e-14 4.7454128587444323e-13 0.0000000000000000e+00  7.7119449508711402e-15 -9.8712895371150946e-14 0.0000000000000000e+00  -1.4148285002609268e-15 1.8109804803339925e-14 0.0000000000000000e+00  2.4761991304579810e-16 -3.1695348869862251e-15 0.0000000000000000e+00  -4.2428253808312136e-17 5.4308164874639702e-16 0.0000000000000000e+00  7.1939989422776109e-18 -9.2083186461153735e-17 0.0000000000000000e+00  -1.2132103900016536e-18 1.5529092992021227e-17 0.0000000000000000e+00  2.0402868032608505e-19 -2.6115671081738974e-18 0.0000000000000000e+00  -3.4265731249419979e-20 4.3860135999257727e-19 0.0000000000000000e+00  5.7518479492164422e-21 -7.3623653749970725e-20 0.0000000000000000e+00  -9.6618176855952699e-22 1.2367126637561990e-20 0.0000000000000000e+00  1.6665401462017803e-22 -2.1331713871382862e-21 0.0000000000000000e+00  -5.4443646824194092e-23 6.9687867934968682e-22 0.0000000000000000e+00  2.0369935681765201e-14 -2.6073517672659554e-13 0.0000000000000000e+00  -8.1576485694150019e-15 1.0441790168851248e-13 0.0000000000000000e+00  -7.4649519365190207e-15 9.5551384787443755e-14 0.0000000000000000e+00  7.5175224382378980e-15 -9.6224287209445445e-14 0.0000000000000000e+00  -2.5892835119957604e-15 3.3142828953545862e-14 0.0000000000000000e+00  6.1523726729355935e-16 -7.8750370213575847e-15 0.0000000000000000e+00  -1.2617638998126672e-16 1.6150577917602189e-15 0.0000000000000000e+00  2.4074457104617125e-17 -3.0815305093910014e-16 0.0000000000000000e+00  -4.4126245868244659e-18 5.6481594711353334e-17 0.0000000000000000e+00  7.8942069785691749e-19 -1.0104584932568579e-17 0.0000000000000000e+00  -1.3905405703687032e-19 1.7798919300719463e-18 0.0000000000000000e+00  2.4241605466931601e-20 -3.1029254997672549e-19 0.0000000000000000e+00  -4.1961178311910670e-21 5.3710308239245845e-20 0.0000000000000000e+00  7.2325441604032497e-22 -9.2576565253161949e-21 0.0000000000000000e+00  -1.2762487340691513e-22 1.6335983796085195e-21 0.0000000000000000e+00  4.2442405170571573e-23 -5.4326278618331804e-22 0.0000000000000000e+00  -2.2390459856241636e-15 2.8659788615989410e-14 0.0000000000000000e+00  1.1889906649250526e-15 -1.5219080511040741e-14 0.0000000000000000e+00  4.9575132385672714e-16 -6.3456169453661211e-15 0.0000000000000000e+00  -9.8511477297623304e-16 1.2609469094095825e-14 0.0000000000000000e+00  5.7226315871188202e-16 -7.3249684315121145e-15 0.0000000000000000e+00  -1.9252147347460055e-16 2.4642748604748935e-15 0.0000000000000000e+00  4.9195710165765646e-17 -6.2970509012180222e-16 0.0000000000000000e+00  -1.0905996712154863e-17 1.3959675791558266e-16 0.0000000000000000e+00  2.2286465983230172e-18 -2.8526676458534708e-17 0.0000000000000000e+00  -4.3298083446719104e-19 5.5421546811800664e-18 0.0000000000000000e+00  8.1365582406658511e-20 -1.0414794548052329e-18 0.0000000000000000e+00  -1.4943509200927468e-20 1.9127691777187224e-19 0.0000000000000000e+00  2.7000117553069415e-21 -3.4560150467928974e-20 0.0000000000000000e+00  -4.8243787945257463e-22 6.1752048569929779e-21 0.0000000000000000e+00  8.7885224765383041e-23 -1.1249308769969067e-21 0.0000000000000000e+00  -2.9961039364417145e-23 3.8350130386454079e-22 0.0000000000000000e+00  2.7310212697840714e-16 -3.4957072253236265e-15 0.0000000000000000e+00  -1.6797609072952568e-16 2.1500939613379387e-15 0.0000000000000000e+00  -2.4185898147092124e-17 3.0957949628277928e-16 0.0000000000000000e+00  1.1861540446038081e-16 -1.5182771770928793e-15 0.0000000000000000e+00  -9.6487646138822476e-17 1.2350418705769318e-15 0.0000000000000000e+00  4.5178524769994158e-17 -5.7828511705592719e-16 0.0000000000000000e+00  -1.4904387290550538e-17 1.9077615731904743e-16 0.0000000000000000e+00  3.9731405561201614e-18 -5.0856199118338203e-17 0.0000000000000000e+00  -9.3059723204221250e-19 1.1911644570140355e-17 0.0000000000000000e+00  2.0068766347269668e-19 -2.5688020924505272e-18 0.0000000000000000e+00  -4.0946405059212305e-20 5.2411398475791941e-19 0.0000000000000000e+00  8.0367290614904043e-21 -1.0287013198707753e-19 0.0000000000000000e+00  -1.5338203179194887e-21 1.9632900069369533e-20 0.0000000000000000e+00  2.8696974515087516e-22 -3.6732127379312155e-21 0.0000000000000000e+00  -5.4455319627551895e-23 6.9702809123266657e-22 0.0000000000000000e+00  1.9161503366034987e-23 -2.4526724308524868e-22 0.0000000000000000e+00  -3.5515184283874209e-17 4.5459435883359151e-16 0.0000000000000000e+00  2.3925761405562086e-17 -3.0624974599119628e-16 0.0000000000000000e+00  -8.5538405155034271e-19 1.0948915859844723e-17 0.0000000000000000e+00  -1.3936294400898864e-17 1.7838456833150586e-16 0.0000000000000000e+00  1.4623003047512642e-17 -1.8717443900816218e-16 0.0000000000000000e+00  -8.7213690557586827e-18 1.1163352391371145e-16 0.0000000000000000e+00  3.6470697152122265e-18 -4.6682492354716642e-17 0.0000000000000000e+00  -1.1851144787166809e-18 1.5169465327573560e-17 0.0000000000000000e+00  3.2431766513510974e-19 -4.1512661137294158e-18 0.0000000000000000e+00  -7.9045505741240167e-20 1.0117824734878775e-18 0.0000000000000000e+00  1.7784776751015475e-20 -2.2764514241299897e-19 0.0000000000000000e+00  -3.7799888648651052e-21 4.8383857470273516e-20 0.0000000000000000e+00  7.7059592290150515e-22 -9.8636278131392982e-21 0.0000000000000000e+00  -1.5241998680115606e-22 1.9509758310548053e-21 0.0000000000000000e+00  3.0392953649133878e-23 -3.8902980670891505e-22 0.0000000000000000e+00  -1.1111190090452027e-23 1.4222323315778648e-22 0.0000000000000000e+00  4.8243987060632615e-18 -6.1752303437610018e-17 0.0000000000000000e+00  -3.4584407491213127e-18 4.4268041588753030e-17 0.0000000000000000e+00  5.7049219022101567e-19 -7.3023000348290841e-18 0.0000000000000000e+00  1.6164956704406700e-18 -2.0691144581640602e-17 0.0000000000000000e+00  -2.1141528759094218e-18 2.7061156811640659e-17 0.0000000000000000e+00  1.5147354867614814e-18 -1.9388614230547023e-17 0.0000000000000000e+00  -7.6548121700098691e-19 9.7981595776126607e-18 0.0000000000000000e+00  2.9884712901323015e-19 -3.8252432513693566e-18 0.0000000000000000e+00  -9.5989533512009671e-20 1.2286660289537268e-18 0.0000000000000000e+00  2.6725775152724173e-20 -3.4208992195487036e-19 0.0000000000000000e+00  -6.7092291182055322e-21 8.5878132713031072e-20 0.0000000000000000e+00  1.5613237744778195e-21 -1.9984944313316152e-20 0.0000000000000000e+00  -3.4338270111535928e-22 4.3952985742766126e-21 0.0000000000000000e+00  7.2439518720903630e-23 -9.2722583962756948e-22 0.0000000000000000e+00  -1.5305010925143032e-23 1.9590413984183152e-22 0.0000000000000000e+00  5.8489200493310174e-24 -7.4866176631437323e-23 0.0000000000000000e+00  -6.7643205399684833e-19 8.6583302911596997e-18 0.0000000000000000e+00  5.0732264320959051e-19 -6.4937298330827906e-18 0.0000000000000000e+00  -1.3339069586300825e-19 1.7074009070465210e-18 0.0000000000000000e+00  -1.8444797387240270e-19 2.3609340655667549e-18 0.0000000000000000e+00  2.9884435131989309e-19 -3.8252076968946388e-18 0.0000000000000000e+00  -2.4801198286419617e-19 3.1745533806617189e-18 0.0000000000000000e+00  1.4564625220997418e-19 -1.8642720282876750e-18 0.0000000000000000e+00  -6.6381392294163169e-20 8.4968182136529090e-19 0.0000000000000000e+00  2.4752736765418610e-20 -3.1683503059735902e-19 0.0000000000000000e+00  -7.8789494512109305e-21 1.0085055297550021e-19 0.0000000000000000e+00  2.2200899793984095e-21 -2.8417151736299727e-20 0.0000000000000000e+00  -5.7003993720651671e-22 7.2965111962434379e-21 0.0000000000000000e+00  1.3632178927837102e-22 -1.7449189027631550e-21 0.0000000000000000e+00  -3.0904831600072200e-23 3.9558184448092549e-22 0.0000000000000000e+00  6.9707974728247981e-24 -8.9226207652157730e-23 0.0000000000000000e+00  -2.7999176279373500e-24 3.5838945637598213e-23 0.0000000000000000e+00  9.7152673137756149e-20 -1.2435542161632847e-18 0.0000000000000000e+00  -7.5411341214394746e-20 9.6526516754425783e-19 0.0000000000000000e+00  2.5640760055413344e-20 -3.2820172870929347e-19 0.0000000000000000e+00  2.0432174958029759e-20 -2.6153183946278059e-19 0.0000000000000000e+00  -4.1760341083128763e-20 5.3453236586404914e-19 0.0000000000000000e+00  3.9232157338550608e-20 -5.0217161393344900e-19 0.0000000000000000e+00  -2.6024590944175449e-20 3.3311476408544663e-19 0.0000000000000000e+00  1.3481922558982496e-20 -1.7256860875497643e-19 0.0000000000000000e+00  -5.7275616841904544e-21 7.3312789557638033e-20 0.0000000000000000e+00  2.0669288236372476e-21 -2.6456688942556866e-20 0.0000000000000000e+00  -6.5319887714406781e-22 8.3609456274440963e-21 0.0000000000000000e+00  1.8565690478231060e-22 -2.3764083812135851e-21 0.0000000000000000e+00  -4.8522649443704767e-23 6.2108991287942323e-22 0.0000000000000000e+00  1.1889663082061112e-23 -1.5218768745038278e-22 0.0000000000000000e+00  -2.8813862094945540e-24 3.6881743481530424e-23 0.0000000000000000e+00  1.2219346615047635e-24 -1.5640763667261030e-23 0.0000000000000000e+00  -1.4219997578453778e-20 1.8201596900420935e-19 0.0000000000000000e+00  1.1340046714901808e-20 -1.4515259795074392e-19 0.0000000000000000e+00  -4.5625603294146758e-21 5.8400772216508295e-20 0.0000000000000000e+00  -2.1382793980931109e-21 2.7369976295591727e-20 0.0000000000000000e+00  5.7981351009396659e-21 -7.4216129292027815e-20 0.0000000000000000e+00  -6.0776767580853201e-21 7.7794262503492265e-20 0.0000000000000000e+00  4.4624835494369247e-21 -5.7119789432792771e-20 0.0000000000000000e+00  -2.5718632065782577e-21 3.2919849044201787e-20 0.0000000000000000e+00  1.2215428684649588e-21 -1.5635748716351522e-20 0.0000000000000000e+00  -4.9326017237341966e-22 6.3137302063797896e-21 0.0000000000000000e+00  1.7369707872317899e-22 -2.2233226076566987e-21 0.0000000000000000e+00  -5.4573426160719186e-23 6.9853985485720819e-22 0.0000000000000000e+00  1.5614706594708443e-23 -1.9986824441226883e-22 0.0000000000000000e+00  -4.1498619815219289e-24 5.3118233363480868e-23 0.0000000000000000e+00  1.0858144822192050e-24 -1.3898425372405870e-23 0.0000000000000000e+00  -4.8778325909619823e-25 6.2436257164313598e-24 0.0000000000000000e+00  2.1133600130462127e-21 -2.7051008166991670e-20 0.0000000000000000e+00  -1.7224983033523194e-21 2.2047978282909818e-20 0.0000000000000000e+00  7.8171995980403232e-22 -1.0006015485491694e-20 0.0000000000000000e+00  1.9847000015845903e-22 -2.5404160020282504e-21 0.0000000000000000e+00  -8.0152261926937197e-22 1.0259489526647973e-20 0.0000000000000000e+00  9.2934081241873889e-22 -1.1895562398959884e-20 0.0000000000000000e+00  -7.4426097712349321e-22 9.5265405071807347e-21 0.0000000000000000e+00  4.6933490235703984e-22 -6.0074867501701274e-21 0.0000000000000000e+00  -2.4518842021899305e-22 3.1384117788031212e-21 0.0000000000000000e+00  1.0926706531981926e-22 -1.3986184360936911e-21 0.0000000000000000e+00  -4.2464172611832733e-23 5.4354140943146079e-22 0.0000000000000000e+00  1.4672113929561084e-23 -1.8780305829838250e-22 0.0000000000000000e+00  -4.5886252410127881e-24 5.8734403084963895e-23 0.0000000000000000e+00  1.3239772039868838e-24 -1.6946908211032177e-23 0.0000000000000000e+00  -3.7515186245059231e-25 4.8019438393676003e-24 0.0000000000000000e+00  1.7886392945845607e-25 -2.2894582970682458e-24 0.0000000000000000e+00  -3.1806165157748755e-22 4.0711891401918645e-21 0.0000000000000000e+00  2.6393763100943857e-22 -3.3784016769208328e-21 0.0000000000000000e+00  -1.3120429689627538e-22 1.6794150002723380e-21 0.0000000000000000e+00  -1.3131932314740801e-23 1.6808873362867701e-22 0.0000000000000000e+00  1.1036155006179350e-22 -1.4126278407909576e-21 0.0000000000000000e+00  -1.4093032389206158e-22 1.8039081458183920e-21 0.0000000000000000e+00  1.2178119054596100e-22 -1.5587992389883037e-21 0.0000000000000000e+00  -8.2956161384948547e-23 1.0618388657273441e-21 0.0000000000000000e+00  4.7032126937958211e-23 -6.0201122480586698e-22 0.0000000000000000e+00  -2.2842299635659280e-23 2.9238143533643977e-22 0.0000000000000000e+00  9.6956251490490676e-24 -1.2410400190782850e-22 0.0000000000000000e+00  -3.6571687183079762e-24 4.6811759594342229e-23 0.0000000000000000e+00  1.2449940970297519e-24 -1.5935924441980870e-23 0.0000000000000000e+00  -3.8946623723724931e-25 4.9851678366368093e-24 0.0000000000000000e+00  1.1963589323035554e-25 -1.5313394333485567e-24 0.0000000000000000e+00  -6.0557652971449427e-26 7.7513795803455562e-25 0.0000000000000000e+00  4.8376096520485102e-23 -6.1921403546221284e-22 0.0000000000000000e+00  -4.0753447146913281e-23 5.2164412348049290e-22 0.0000000000000000e+00  2.1762200947523170e-23 -2.7855617212829868e-22 0.0000000000000000e+00  -3.6284386241456838e-25 4.6444014389074597e-24 0.0000000000000000e+00  -1.5124827371798810e-23 1.9359779035902468e-22 0.0000000000000000e+00  2.1256027319473287e-23 -2.7207714968925836e-22 0.0000000000000000e+00  -1.9661484521107990e-23 2.5166700187018275e-22 0.0000000000000000e+00  1.4323699348417671e-23 -1.8334335165974657e-22 0.0000000000000000e+00  -8.7177985362013690e-24 1.1158782126337782e-22 0.0000000000000000e+00  4.5645276859432047e-24 -5.8425954380073187e-23 0.0000000000000000e+00  -2.0953082458907220e-24 2.6819945547401332e-23 0.0000000000000000e+00  8.5589881466792599e-25 -1.0955504827749489e-23 0.0000000000000000e+00  -3.1535403327094469e-25 4.0365316258681041e-24 0.0000000000000000e+00  1.0661630895913851e-25 -1.3646887546769780e-24 0.0000000000000000e+00  -3.5476499496356095e-26 4.5409919355335968e-25 0.0000000000000000e+00  1.9043063734173753e-26 -2.4375121579742498e-25 0.0000000000000000e+00  -7.4241708443243133e-24 9.5029386807351794e-23 0.0000000000000000e+00  6.3350035617164358e-24 -8.1088045589970924e-23 0.0000000000000000e+00  -3.5845367171606992e-24 4.5882069979657291e-23 0.0000000000000000e+00  3.9067502870846438e-25 -5.0006403674685091e-24 0.0000000000000000e+00  2.0598879834187703e-24 -2.6366566187760247e-23 0.0000000000000000e+00  -3.1943422277318864e-24 4.0887580514968226e-23 0.0000000000000000e+00  3.1441803286793141e-24 -4.0245508207095308e-23 0.0000000000000000e+00  -2.4305440012206779e-24 3.1110963215624754e-23 0.0000000000000000e+00  1.5741070561400817e-24 -2.0148570318593099e-23 0.0000000000000000e+00  -8.8043193489208383e-25 1.1269528766618701e-23 0.0000000000000000e+00  4.3323935797575634e-25 -5.5454637820896980e-24 0.0000000000000000e+00  -1.9014858080914222e-25 2.4339018343570272e-24 0.0000000000000000e+00  7.5349050089822767e-26 -9.6446784114973476e-25 0.0000000000000000e+00  -2.7412853738831453e-26 3.5088452785704374e-25 0.0000000000000000e+00  9.8583630191916544e-27 -1.2618704664565358e-25 0.0000000000000000e+00  -5.5979840647242814e-27 7.1654196028471055e-26 0.0000000000000000e+00  1.1482103676664405e-24 -1.4697092706130532e-23 0.0000000000000000e+00  -9.9063066204260290e-25 1.2680072474145399e-23 0.0000000000000000e+00  5.8802115150352181e-25 -7.5266707392451404e-24 0.0000000000000000e+00  -1.0830503022574970e-25 1.3863043868896263e-24 0.0000000000000000e+00  -2.7808917615539719e-25 3.5595414547890776e-24 0.0000000000000000e+00  4.7881761493729236e-25 -6.1288654711973491e-24 0.0000000000000000e+00  -4.9935481441316640e-25 6.3917416244885433e-24 0.0000000000000000e+00  4.0705379124496600e-25 -5.2102885279355774e-24 0.0000000000000000e+00  -2.7851311349228349e-25 3.5649678527012387e-24 0.0000000000000000e+00  1.6514157470353948e-25 -2.1138121562053107e-24 0.0000000000000000e+00  -8.6442931868765680e-26 1.1064695279202039e-24 0.0000000000000000e+00  4.0470561085060741e-26 -5.1802318188877888e-25 0.0000000000000000e+00  -1.7139483988404490e-26 2.1938539505157816e-25 0.0000000000000000e+00  6.6778141882642782e-27 -8.5476021609783018e-26 0.0000000000000000e+00  -2.5868154187390365e-27 3.3111237359859775e-26 0.0000000000000000e+00  1.5486722184875936e-27 -1.9823004396641263e-26 0.0000000000000000e+00  -1.7877865942039255e-25 2.2883668405810388e-24 0.0000000000000000e+00  1.5573075778383158e-25 -1.9933536996330576e-24 0.0000000000000000e+00  -9.6240638947027317e-26 1.2318801785219599e-24 0.0000000000000000e+00  2.3756797137730678e-26 -3.0408700336295826e-25 0.0000000000000000e+00  3.7076128756603906e-26 -4.7457444808452828e-25 0.0000000000000000e+00  -7.1633136691602360e-26 9.1690414965251098e-25 0.0000000000000000e+00  7.8910067405401410e-26 -1.0100488627891396e-24 0.0000000000000000e+00  -6.7491833390550789e-26 8.6389546739905209e-25 0.0000000000000000e+00  4.8501177600897466e-26 -6.2081507329148887e-25 0.0000000000000000e+00  -3.0292208901659725e-26 3.8774027394124549e-25 0.0000000000000000e+00  1.6756121672785804e-26 -2.1447835741165881e-25 0.0000000000000000e+00  -8.3141368482711787e-27 1.0642095165787138e-25 0.0000000000000000e+00  3.7409136141684828e-27 -4.7883694261356704e-26 0.0000000000000000e+00  -1.5533023244489770e-27 1.9882269752946972e-26 0.0000000000000000e+00  6.4555960736900211e-28 -8.2631629743232554e-27 0.0000000000000000e+00  -4.0587353006330152e-28 5.1951811848102769e-27 0.0000000000000000e+00  2.8001074109165100e-26 -3.5841374859731567e-25 0.0000000000000000e+00  -2.4597612499637924e-26 3.1484943999536768e-25 0.0000000000000000e+00  1.5733478848858027e-26 -2.0138852926538447e-25 0.0000000000000000e+00  -4.7202152009046470e-27 6.0418754571580488e-26 0.0000000000000000e+00  -4.8546455746761062e-27 6.2139463355853773e-26 0.0000000000000000e+00  1.0698913106387582e-26 -1.3694608776176108e-25 0.0000000000000000e+00  -1.2423742810266753e-26 1.5902390797141464e-25 0.0000000000000000e+00  1.1104513451432355e-26 -1.4213777217833439e-25 0.0000000000000000e+00  -8.340564814