<?xml version="1.0"?>
<VTKFile type="UnstructuredGrid"  version="0.1"  >
<UnstructuredGrid>
<Piece  NumberOfPoints="1411" NumberOfCells="2700">
<Points>
<DataArray  type="Float64"  NumberOfComponents="3"  format="ascii">-0.75 -4.5 0  -0.65 -4.5 0  -0.55 -4.5 0  -0.45 -4.5 0  -0.35 -4.5 0  -0.25 -4.5 0  -0.15 -4.5 0  -0.05000000000000004 -4.5 0  0.05000000000000004 -4.5 0  0.15 -4.5 0  0.25 -4.5 0  0.3500000000000001 -4.5 0  0.45 -4.5 0  0.55 -4.5 0  0.6499999999999999 -4.5 0  0.75 -4.5 0  -0.75 -4.4 0  -0.65 -4.4 0  -0.55 -4.4 0  -0.45 -4.4 0  -0.35 -4.4 0  -0.25 -4.4 0  -0.15 -4.4 0  -0.05000000000000004 -4.4 0  0.05000000000000004 -4.4 0  0.15 -4.4 0  0.25 -4.4 0  0.3500000000000001 -4.4 0  0.45 -4.4 0  0.55 -4.4 0  0.6499999999999999 -4.4 0  0.75 -4.4 0  -0.75 -4.3 0  -0.65 -4.3 0  -0.55 -4.3 0  -0.45 -4.3 0  -0.35 -4.3 0  -0.25 -4.3 0  -0.15 -4.3 0  -0.05000000000000004 -4.3 0  0.05000000000000004 -4.3 0  0.15 -4.3 0  0.25 -4.3 0  0.3500000000000001 -4.3 0  0.45 -4.3 0  0.55 -4.3 0  0.6499999999999999 -4.3 0  0.75 -4.3 0  -0.75 -4.2 0  -0.65 -4.2 0  -0.55 -4.2 0  -0.45 -4.2 0  -0.35 -4.2 0  -0.25 -4.2 0  -0.15 -4.2 0  -0.05000000000000004 -4.2 0  0.05000000000000004 -4.2 0  0.15 -4.2 0  0.25 -4.2 0  0.3500000000000001 -4.2 0  0.45 -4.2 0  0.55 -4.2 0  0.6499999999999999 -4.2 0  0.75 -4.2 0  -0.75 -4.1 0  -0.65 -4.1 0  -0.55 -4.1 0  -0.45 -4.1 0  -0.35 -4.1 0  -0.25 -4.1 0  -0.15 -4.1 0  -0.05000000000000004 -4.1 0  0.05000000000000004 -4.1 0  0.15 -4.1 0  0.25 -4.1 0  0.3500000000000001 -4.1 0  0.45 -4.1 0  0.55 -4.1 0  0.6499999999999999 -4.1 0  0.75 -4.1 0  -0.75 -4 0  -0.65 -4 0  -0.55 -4 0  -0.45 -4 0  -0.35 -4 0  -0.25 -4 0  -0.15 -4 0  -0.05000000000000004 -4 0  0.05000000000000004 -4 0  0.15 -4 0  0.25 -4 0  0.3500000000000001 -4 0  0.45 -4 0  0.55 -4 0  0.6499999999999999 -4 0  0.75 -4 0  -0.75 -3.9 0  -0.65 -3.9 0  -0.55 -3.9 0  -0.45 -3.9 0  -0.35 -3.9 0  -0.25 -3.9 0  -0.15 -3.9 0  -0.05000000000000004 -3.9 0  0.05000000000000004 -3.9 0  0.15 -3.9 0  0.25 -3.9 0  0.3500000000000001 -3.9 0  0.45 -3.9 0  0.55 -3.9 0  0.6499999999999999 -3.9 0  0.75 -3.9 0  -0.75 -3.8 0  -0.65 -3.8 0  -0.55 -3.8 0  -0.45 -3.8 0  -0.35 -3.8 0  -0.25 -3.8 0  -0.15 -3.8 0  -0.05000000000000004 -3.8 0  0.05000000000000004 -3.8 0  0.15 -3.8 0  0.25 -3.8 0  0.3500000000000001 -3.8 0  0.45 -3.8 0  0.55 -3.8 0  0.6499999999999999 -3.8 0  0.75 -3.8 0  -0.75 -3.7 0  -0.65 -3.7 0  -0.55 -3.7 0  -0.45 -3.7 0  -0.35 -3.7 0  -0.25 -3.7 0  -0.15 -3.7 0  -0.05000000000000004 -3.7 0  0.05000000000000004 -3.7 0  0.15 -3.7 0  0.25 -3.7 0  0.3500000000000001 -3.7 0  0.45 -3.7 0  0.55 -3.7 0  0.6499999999999999 -3.7 0  0.75 -3.7 0  -0.75 -3.6 0  -0.65 -3.6 0  -0.55 -3.6 0  -0.45 -3.6 0  -0.35 -3.6 0  -0.25 -3.6 0  -0.15 -3.6 0  -0.05000000000000004 -3.6 0  0.05000000000000004 -3.6 0  0.15 -3.6 0  0.25 -3.6 0  0.3500000000000001 -3.6 0  0.45 -3.6 0  0.55 -3.6 0  0.6499999999999999 -3.6 0  0.75 -3.6 0  -0.75 -3.5 0  -0.65 -3.5 0  -0.55 -3.5 0  -0.45 -3.5 0  -0.35 -3.5 0  -0.25 -3.5 0  -0.15 -3.5 0  -0.05000000000000004 -3.5 0  0.05000000000000004 -3.5 0  0.15 -3.5 0  0.25 -3.5 0  0.3500000000000001 -3.5 0  0.45 -3.5 0  0.55 -3.5 0  0.6499999999999999 -3.5 0  0.75 -3.5 0  -0.75 -3.4 0  -0.65 -3.4 0  -0.55 -3.4 0  -0.45 -3.4 0  -0.35 -3.4 0  -0.25 -3.4 0  -0.15 -3.4 0  -0.05000000000000004 -3.4 0  0.05000000000000004 -3.4 0  0.15 -3.4 0  0.25 -3.4 0  0.3500000000000001 -3.4 0  0.45 -3.4 0  0.55 -3.4 0  0.6499999999999999 -3.4 0  0.75 -3.4 0  -0.75 -3.3 0  -0.65 -3.3 0  -0.55 -3.3 0  -0.45 -3.3 0  -0.35 -3.3 0  -0.25 -3.3 0  -0.15 -3.3 0  -0.05000000000000004 -3.3 0  0.05000000000000004 -3.3 0  0.15 -3.3 0  0.25 -3.3 0  0.3500000000000001 -3.3 0  0.45 -3.3 0  0.55 -3.3 0  0.6499999999999999 -3.3 0  0.75 -3.3 0  -0.75 -3.2 0  -0.65 -3.2 0  -0.55 -3.2 0  -0.45 -3.2 0  -0.35 -3.2 0  -0.25 -3.2 0  -0.15 -3.2 0  -0.05000000000000004 -3.2 0  0.05000000000000004 -3.2 0  0.15 -3.2 0  0.25 -3.2 0  0.3500000000000001 -3.2 0  0.45 -3.2 0  0.55 -3.2 0  0.6499999999999999 -3.2 0  0.75 -3.2 0  -0.75 -3.1 0  -0.65 -3.1 0  -0.55 -3.1 0  -0.45 -3.1 0  -0.35 -3.1 0  -0.25 -3.1 0  -0.15 -3.1 0  -0.05000000000000004 -3.1 0  0.05000000000000004 -3.1 0  0.15 -3.1 0  0.25 -3.1 0  0.3500000000000001 -3.1 0  0.45 -3.1 0  0.55 -3.1 0  0.6499999999999999 -3.1 0  0.75 -3.1 0  -0.75 -3 0  -0.65 -3 0  -0.55 -3 0  -0.45 -3 0  -0.35 -3 0  -0.25 -3 0  -0.15 -3 0  -0.05000000000000004 -3 0  0.05000000000000004 -3 0  0.15 -3 0  0.25 -3 0  0.3500000000000001 -3 0  0.45 -3 0  0.55 -3 0  0.6499999999999999 -3 0  0.75 -3 0  -0.75 -2.9 0  -0.65 -2.9 0  -0.55 -2.9 0  -0.45 -2.9 0  -0.35 -2.9 0  -0.25 -2.9 0  -0.15 -2.9 0  -0.05000000000000004 -2.9 0  0.05000000000000004 -2.9 0  0.15 -2.9 0  0.25 -2.9 0  0.3500000000000001 -2.9 0  0.45 -2.9 0  0.55 -2.9 0  0.6499999999999999 -2.9 0  0.75 -2.9 0  -0.75 -2.8 0  -0.65 -2.8 0  -0.55 -2.8 0  -0.45 -2.8 0  -0.35 -2.8 0  -0.25 -2.8 0  -0.15 -2.8 0  -0.05000000000000004 -2.8 0  0.05000000000000004 -2.8 0  0.15 -2.8 0  0.25 -2.8 0  0.3500000000000001 -2.8 0  0.45 -2.8 0  0.55 -2.8 0  0.6499999999999999 -2.8 0  0.75 -2.8 0  -0.75 -2.7 0  -0.65 -2.7 0  -0.55 -2.7 0  -0.45 -2.7 0  -0.35 -2.7 0  -0.25 -2.7 0  -0.15 -2.7 0  -0.05000000000000004 -2.7 0  0.05000000000000004 -2.7 0  0.15 -2.7 0  0.25 -2.7 0  0.3500000000000001 -2.7 0  0.45 -2.7 0  0.55 -2.7 0  0.6499999999999999 -2.7 0  0.75 -2.7 0  -0.75 -2.6 0  -0.65 -2.6 0  -0.55 -2.6 0  -0.45 -2.6 0  -0.35 -2.6 0  -0.25 -2.6 0  -0.15 -2.6 0  -0.05000000000000004 -2.6 0  0.05000000000000004 -2.6 0  0.15 -2.6 0  0.25 -2.6 0  0.3500000000000001 -2.6 0  0.45 -2.6 0  0.55 -2.6 0  0.6499999999999999 -2.6 0  0.75 -2.6 0  -0.75 -2.5 0  -0.65 -2.5 0  -0.55 -2.5 0  -0.45 -2.5 0  -0.35 -2.5 0  -0.25 -2.5 0  -0.15 -2.5 0  -0.05000000000000004 -2.5 0  0.05000000000000004 -2.5 0  0.15 -2.5 0  0.25 -2.5 0  0.3500000000000001 -2.5 0  0.45 -2.5 0  0.55 -2.5 0  0.6499999999999999 -2.5 0  0.75 -2.5 0  -0.75 -2.4 0  -0.65 -2.4 0  -0.55 -2.4 0  -0.45 -2.4 0  -0.35 -2.4 0  -0.25 -2.4 0  -0.15 -2.4 0  -0.05000000000000004 -2.4 0  0.05000000000000004 -2.4 0  0.15 -2.4 0  0.25 -2.4 0  0.3500000000000001 -2.4 0  0.45 -2.4 0  0.55 -2.4 0  0.6499999999999999 -2.4 0  0.75 -2.4 0  -0.75 -2.3 0  -0.65 -2.3 0  -0.55 -2.3 0  -0.45 -2.3 0  -0.35 -2.3 0  -0.25 -2.3 0  -0.15 -2.3 0  -0.05000000000000004 -2.3 0  0.05000000000000004 -2.3 0  0.15 -2.3 0  0.25 -2.3 0  0.3500000000000001 -2.3 0  0.45 -2.3 0  0.55 -2.3 0  0.6499999999999999 -2.3 0  0.75 -2.3 0  -0.75 -2.2 0  -0.65 -2.2 0  -0.55 -2.2 0  -0.45 -2.2 0  -0.35 -2.2 0  -0.25 -2.2 0  -0.15 -2.2 0  -0.05000000000000004 -2.2 0  0.05000000000000004 -2.2 0  0.15 -2.2 0  0.25 -2.2 0  0.3500000000000001 -2.2 0  0.45 -2.2 0  0.55 -2.2 0  0.6499999999999999 -2.2 0  0.75 -2.2 0  -0.75 -2.1 0  -0.65 -2.1 0  -0.55 -2.1 0  -0.45 -2.1 0  -0.35 -2.1 0  -0.25 -2.1 0  -0.15 -2.1 0  -0.05000000000000004 -2.1 0  0.05000000000000004 -2.1 0  0.15 -2.1 0  0.25 -2.1 0  0.3500000000000001 -2.1 0  0.45 -2.1 0  0.55 -2.1 0  0.6499999999999999 -2.1 0  0.75 -2.1 0  -0.75 -2 0  -0.65 -2 0  -0.55 -2 0  -0.45 -2 0  -0.35 -2 0  -0.25 -2 0  -0.15 -2 0  -0.05000000000000004 -2 0  0.05000000000000004 -2 0  0.15 -2 0  0.25 -2 0  0.3500000000000001 -2 0  0.45 -2 0  0.55 -2 0  0.6499999999999999 -2 0  0.75 -2 0  -0.75 -1.9 0  -0.65 -1.9 0  -0.55 -1.9 0  -0.45 -1.9 0  -0.35 -1.9 0  -0.25 -1.9 0  -0.15 -1.9 0  -0.05000000000000004 -1.9 0  0.05000000000000004 -1.9 0  0.15 -1.9 0  0.25 -1.9 0  0.3500000000000001 -1.9 0  0.45 -1.9 0  0.55 -1.9 0  0.6499999999999999 -1.9 0  0.75 -1.9 0  -0.75 -1.8 0  -0.65 -1.8 0  -0.55 -1.8 0  -0.45 -1.8 0  -0.35 -1.8 0  -0.25 -1.8 0  -0.15 -1.8 0  -0.05000000000000004 -1.8 0  0.05000000000000004 -1.8 0  0.15 -1.8 0  0.25 -1.8 0  0.3500000000000001 -1.8 0  0.45 -1.8 0  0.55 -1.8 0  0.6499999999999999 -1.8 0  0.75 -1.8 0  -0.75 -1.7 0  -0.65 -1.7 0  -0.55 -1.7 0  -0.45 -1.7 0  -0.35 -1.7 0  -0.25 -1.7 0  -0.15 -1.7 0  -0.05000000000000004 -1.7 0  0.05000000000000004 -1.7 0  0.15 -1.7 0  0.25 -1.7 0  0.3500000000000001 -1.7 0  0.45 -1.7 0  0.55 -1.7 0  0.6499999999999999 -1.7 0  0.75 -1.7 0  -0.75 -1.6 0  -0.65 -1.6 0  -0.55 -1.6 0  -0.45 -1.6 0  -0.35 -1.6 0  -0.25 -1.6 0  -0.15 -1.6 0  -0.05000000000000004 -1.6 0  0.05000000000000004 -1.6 0  0.15 -1.6 0  0.25 -1.6 0  0.3500000000000001 -1.6 0  0.45 -1.6 0  0.55 -1.6 0  0.6499999999999999 -1.6 0  0.75 -1.6 0  -0.75 -1.5 0  -0.65 -1.5 0  -0.55 -1.5 0  -0.45 -1.5 0  -0.35 -1.5 0  -0.25 -1.5 0  -0.15 -1.5 0  -0.05000000000000004 -1.5 0  0.05000000000000004 -1.5 0  0.15 -1.5 0  0.25 -1.5 0  0.3500000000000001 -1.5 0  0.45 -1.5 0  0.55 -1.5 0  0.6499999999999999 -1.5 0  0.75 -1.5 0  -0.75 -1.4 0  -0.65 -1.4 0  -0.55 -1.4 0  -0.45 -1.4 0  -0.35 -1.4 0  -0.25 -1.4 0  -0.15 -1.4 0  -0.05000000000000004 -1.4 0  0.05000000000000004 -1.4 0  0.15 -1.4 0  0.25 -1.4 0  0.3500000000000001 -1.4 0  0.45 -1.4 0  0.55 -1.4 0  0.6499999999999999 -1.4 0  0.75 -1.4 0  -0.75 -1.3 0  -0.65 -1.3 0  -0.55 -1.3 0  -0.45 -1.3 0  -0.35 -1.3 0  -0.25 -1.3 0  -0.15 -1.3 0  -0.05000000000000004 -1.3 0  0.05000000000000004 -1.3 0  0.15 -1.3 0  0.25 -1.3 0  0.3500000000000001 -1.3 0  0.45 -1.3 0  0.55 -1.3 0  0.6499999999999999 -1.3 0  0.75 -1.3 0  -0.75 -1.2 0  -0.65 -1.2 0  -0.55 -1.2 0  -0.45 -1.2 0  -0.35 -1.2 0  -0.25 -1.2 0  -0.15 -1.2 0  -0.05000000000000004 -1.2 0  0.05000000000000004 -1.2 0  0.15 -1.2 0  0.25 -1.2 0  0.3500000000000001 -1.2 0  0.45 -1.2 0  0.55 -1.2 0  0.6499999999999999 -1.2 0  0.75 -1.2 0  -0.75 -1.1 0  -0.65 -1.1 0  -0.55 -1.1 0  -0.45 -1.1 0  -0.35 -1.1 0  -0.25 -1.1 0  -0.15 -1.1 0  -0.05000000000000004 -1.1 0  0.05000000000000004 -1.1 0  0.15 -1.1 0  0.25 -1.1 0  0.3500000000000001 -1.1 0  0.45 -1.1 0  0.55 -1.1 0  0.6499999999999999 -1.1 0  0.75 -1.1 0  -0.75 -1 0  -0.65 -1 0  -0.55 -1 0  -0.45 -1 0  -0.35 -1 0  -0.25 -1 0  -0.15 -1 0  -0.05000000000000004 -1 0  0.05000000000000004 -1 0  0.15 -1 0  0.25 -1 0  0.3500000000000001 -1 0  0.45 -1 0  0.55 -1 0  0.6499999999999999 -1 0  0.75 -1 0  -0.75 -0.8999999999999999 0  -0.65 -0.899999
[...]
<PointData  Vectors="flow"> 
<DataArray  type="Float64"  Name="flow"  NumberOfComponents="3" format="ascii">-7.4682825775541976e-10 1.4936820258389311e-09 0.0000000000000000e+00  5.7912011570663847e-14 1.4936820258360374e-09 0.0000000000000000e+00  -4.4772084664621364e-18 1.4936820258399771e-09 0.0000000000000000e+00  1.3971268712776151e-21 1.4936820258413727e-09 0.0000000000000000e+00  -8.4842744879714998e-22 1.4936820258409898e-09 0.0000000000000000e+00  -6.6841550566628371e-22 1.4936820258365482e-09 0.0000000000000000e+00  -2.1329847192304872e-21 1.4936820258396830e-09 0.0000000000000000e+00  -3.5581438990694538e-21 1.4936820258381089e-09 0.0000000000000000e+00  1.2012173855836411e-21 1.4936820258436342e-09 0.0000000000000000e+00  3.6496092396773194e-21 1.4936820258408129e-09 0.0000000000000000e+00  1.8565854793055905e-22 1.4936820258370650e-09 0.0000000000000000e+00  2.6903996705844185e-21 1.4936820258393643e-09 0.0000000000000000e+00  2.1955495506470376e-21 1.4936820258387866e-09 0.0000000000000000e+00  4.4733426659002379e-18 1.4936820258342360e-09 0.0000000000000000e+00  -5.7912015286168772e-14 1.4936820258385624e-09 0.0000000000000000e+00  7.4682825775315453e-10 1.4936820258404008e-09 0.0000000000000000e+00  -7.4590180873960378e-10 4.4789360074595315e-09 0.0000000000000000e+00  5.7840416859181781e-14 4.4789360074590212e-09 0.0000000000000000e+00  -4.4688662185297147e-18 4.4789360074606226e-09 0.0000000000000000e+00  -7.8628373301580059e-22 4.4789360074627517e-09 0.0000000000000000e+00  -2.0818240256049345e-21 4.4789360074592040e-09 0.0000000000000000e+00  -1.1415297970261280e-21 4.4789360074575000e-09 0.0000000000000000e+00  -2.4973834712446310e-21 4.4789360074584388e-09 0.0000000000000000e+00  -2.8678714765625674e-22 4.4789360074605696e-09 0.0000000000000000e+00  1.3826190879776103e-21 4.4789360074597176e-09 0.0000000000000000e+00  -1.2038366934012507e-22 4.4789360074568928e-09 0.0000000000000000e+00  4.0010513063015426e-21 4.4789360074578796e-09 0.0000000000000000e+00  2.8366525262151964e-21 4.4789360074573809e-09 0.0000000000000000e+00  -2.6288488523807301e-21 4.4789360074581725e-09 0.0000000000000000e+00  4.4693903097056109e-18 4.4789360074566058e-09 0.0000000000000000e+00  -5.7840417272039267e-14 4.4789360074596713e-09 0.0000000000000000e+00  7.4590180873533202e-10 4.4789360074607682e-09 0.0000000000000000e+00  -7.4312475239262631e-10 8.9467596547771774e-09 0.0000000000000000e+00  5.7625801053187219e-14 8.9467596547790452e-09 0.0000000000000000e+00  -4.4525458221768451e-18 8.9467596547770120e-09 0.0000000000000000e+00  -5.9550535365962577e-22 8.9467596547757795e-09 0.0000000000000000e+00  -4.0939144454202378e-21 8.9467596547750202e-09 0.0000000000000000e+00  -1.8869645514608113e-21 8.9467596547782875e-09 0.0000000000000000e+00  1.7999709728287587e-22 8.9467596547735445e-09 0.0000000000000000e+00  -1.1250942382688063e-21 8.9467596547768515e-09 0.0000000000000000e+00  -2.9735762984985855e-21 8.9467596547726726e-09 0.0000000000000000e+00  2.4345640475336232e-22 8.9467596547721019e-09 0.0000000000000000e+00  1.7073428171833678e-21 8.9467596547725154e-09 0.0000000000000000e+00  1.7054999677186475e-21 8.9467596547720423e-09 0.0000000000000000e+00  1.5282850458971016e-21 8.9467596547718173e-09 0.0000000000000000e+00  4.4549434769855297e-18 8.9467596547766547e-09 0.0000000000000000e+00  -5.7625801125104058e-14 8.9467596547760889e-09 0.0000000000000000e+00  7.4312475239483095e-10 8.9467596547751211e-09 0.0000000000000000e+00  -7.3850395537389693e-10 1.3392386058319814e-08 0.0000000000000000e+00  5.7268683535982274e-14 1.3392386058319950e-08 0.0000000000000000e+00  -4.4291604184749312e-18 1.3392386058319634e-08 0.0000000000000000e+00  -1.1751564745503468e-21 1.3392386058316550e-08 0.0000000000000000e+00  -2.9920907415665563e-22 1.3392386058320419e-08 0.0000000000000000e+00  -3.2682815681434997e-21 1.3392386058320752e-08 0.0000000000000000e+00  -3.5269627914981913e-21 1.3392386058320224e-08 0.0000000000000000e+00  -1.6462969580141636e-21 1.3392386058317068e-08 0.0000000000000000e+00  -5.3579130768501787e-21 1.3392386058315630e-08 0.0000000000000000e+00  1.1205937311330226e-21 1.3392386058314897e-08 0.0000000000000000e+00  6.2619508804384197e-21 1.3392386058317554e-08 0.0000000000000000e+00  1.4521965709684522e-21 1.3392386058321278e-08 0.0000000000000000e+00  7.8594448165162249e-22 1.3392386058317991e-08 0.0000000000000000e+00  4.4310290679377368e-18 1.3392386058320510e-08 0.0000000000000000e+00  -5.7268684330199620e-14 1.3392386058317432e-08 0.0000000000000000e+00  7.3850395537301330e-10 1.3392386058318105e-08 0.0000000000000000e+00  -7.3205084380543871e-10 1.7804785221613720e-08 0.0000000000000000e+00  5.6769913126316211e-14 1.7804785221612814e-08 0.0000000000000000e+00  -4.3948183775965880e-18 1.7804785221613853e-08 0.0000000000000000e+00  1.0034770473929970e-21 1.7804785221609906e-08 0.0000000000000000e+00  -1.8948784115525609e-21 1.7804785221612665e-08 0.0000000000000000e+00  -3.4959663256994610e-21 1.7804785221607550e-08 0.0000000000000000e+00  -1.2113108054650609e-21 1.7804785221610544e-08 0.0000000000000000e+00  -4.5628501047810436e-21 1.7804785221610485e-08 0.0000000000000000e+00  -5.1306739638902539e-21 1.7804785221609221e-08 0.0000000000000000e+00  2.9972576363150333e-21 1.7804785221608168e-08 0.0000000000000000e+00  6.7326958847417723e-21 1.7804785221606799e-08 0.0000000000000000e+00  2.4751705208504034e-21 1.7804785221605366e-08 0.0000000000000000e+00  1.2714872850164946e-21 1.7804785221611117e-08 0.0000000000000000e+00  4.3916080993068795e-18 1.7804785221608168e-08 0.0000000000000000e+00  -5.6769917296392766e-14 1.7804785221611378e-08 0.0000000000000000e+00  7.3205084380793235e-10 1.7804785221610243e-08 0.0000000000000000e+00  -7.2378137586298448e-10 2.2173009314301828e-08 0.0000000000000000e+00  5.6130696983485314e-14 2.2173009314302447e-08 0.0000000000000000e+00  -4.3439804665473284e-18 2.2173009314301960e-08 0.0000000000000000e+00  -1.6668119385928949e-21 2.2173009314303267e-08 0.0000000000000000e+00  -9.1989295082935108e-22 2.2173009314303045e-08 0.0000000000000000e+00  -4.1756141814507211e-21 2.2173009314308723e-08 0.0000000000000000e+00  -1.2683672186471238e-21 2.2173009314304438e-08 0.0000000000000000e+00  -6.1851984068507499e-21 2.2173009314301633e-08 0.0000000000000000e+00  -5.3791497627688634e-21 2.2173009314305328e-08 0.0000000000000000e+00  -3.4147159849887387e-21 2.2173009314303115e-08 0.0000000000000000e+00  2.5003912850852511e-21 2.2173009314294509e-08 0.0000000000000000e+00  5.2976192095491245e-21 2.2173009314289208e-08 0.0000000000000000e+00  2.2352794916624229e-21 2.2173009314297682e-08 0.0000000000000000e+00  4.3460141023583355e-18 2.2173009314294525e-08 0.0000000000000000e+00  -5.6130693550554039e-14 2.2173009314297507e-08 0.0000000000000000e+00  7.2378137585750669e-10 2.2173009314298469e-08 0.0000000000000000e+00  -7.1371600347005385e-10 2.6486219753949612e-08 0.0000000000000000e+00  5.5352560659842949e-14 2.6486219753950442e-08 0.0000000000000000e+00  -4.2872146795652690e-18 2.6486219753943682e-08 0.0000000000000000e+00  -1.8938090152892317e-21 2.6486219753944334e-08 0.0000000000000000e+00  2.5716948574567641e-21 2.6486219753940843e-08 0.0000000000000000e+00  8.4095799189175168e-23 2.6486219753946114e-08 0.0000000000000000e+00  -6.2349803904398974e-21 2.6486219753949165e-08 0.0000000000000000e+00  -5.4375858792011400e-21 2.6486219753948989e-08 0.0000000000000000e+00  -3.9927942834848625e-21 2.6486219753945572e-08 0.0000000000000000e+00  -7.8265828961521976e-21 2.6486219753941204e-08 0.0000000000000000e+00  -4.8653601485262426e-21 2.6486219753944552e-08 0.0000000000000000e+00  7.0605728010939465e-21 2.6486219753942663e-08 0.0000000000000000e+00  8.0725532862406037e-21 2.6486219753944308e-08 0.0000000000000000e+00  4.2831835944782391e-18 2.6486219753950287e-08 0.0000000000000000e+00  -5.5352562208259845e-14 2.6486219753939881e-08 0.0000000000000000e+00  7.1371600346388040e-10 2.6486219753942336e-08 0.0000000000000000e+00  -7.0187962314760413e-10 3.0733714025400894e-08 0.0000000000000000e+00  5.4437382940424603e-14 3.0733714025400219e-08 0.0000000000000000e+00  -4.2221369088898677e-18 3.0733714025400563e-08 0.0000000000000000e+00  -2.7505193460818399e-21 3.0733714025402297e-08 0.0000000000000000e+00  3.1957434060660232e-22 3.0733714025402032e-08 0.0000000000000000e+00  3.8120553752747724e-21 3.0733714025394733e-08 0.0000000000000000e+00  -3.8222406361191751e-21 3.0733714025396434e-08 0.0000000000000000e+00  -6.4972413285982825e-21 3.0733714025391868e-08 0.0000000000000000e+00  -9.3591423625448414e-21 3.0733714025394449e-08 0.0000000000000000e+00  -2.7866060310561829e-21 3.0733714025400047e-08 0.0000000000000000e+00  5.9352528325754414e-22 3.0733714025400160e-08 0.0000000000000000e+00  5.7238743751922311e-21 3.0733714025405586e-08 0.0000000000000000e+00  7.4494527398995643e-21 3.0733714025399935e-08 0.0000000000000000e+00  4.2119788841173590e-18 3.0733714025392093e-08 0.0000000000000000e+00  -5.4437389322917538e-14 3.0733714025392550e-08 0.0000000000000000e+00  7.0187962314009354e-10 3.0733714025392424e-08 0.0000000000000000e+00  -6.8830151611970334e-10 3.4904952173024186e-08 0.0000000000000000e+00  5.3387369181596254e-14 3.4904952173021705e-08 0.0000000000000000e+00  -4.1365649403243736e-18 3.4904952173025152e-08 0.0000000000000000e+00  -2.3218854204321650e-21 3.4904952173031671e-08 0.0000000000000000e+00  -5.7913275382951358e-21 3.4904952173027382e-08 0.0000000000000000e+00  -4.6028145753970866e-21 3.4904952173019329e-08 0.0000000000000000e+00  -6.9914310173361725e-21 3.4904952173016629e-08 0.0000000000000000e+00  -7.5497504517776629e-21 3.4904952173017430e-08 0.0000000000000000e+00  -2.8177134366082193e-21 3.4904952173013539e-08 0.0000000000000000e+00  -5.6958429107549706e-21 3.4904952173013969e-08 0.0000000000000000e+00  2.8582684891594671e-21 3.4904952173013433e-08 0.0000000000000000e+00  9.0475196315280015e-21 3.4904952173014783e-08 0.0000000000000000e+00  -3.3367644863601783e-21 3.4904952173012778e-08 0.0000000000000000e+00  4.1307642328657568e-18 3.4904952173011302e-08 0.0000000000000000e+00  -5.3387374359310642e-14 3.4904952173014478e-08 0.0000000000000000e+00  6.8830151611824791e-10 3.4904952173005849e-08 0.0000000000000000e+00  -6.7301527781319480e-10 3.8989582901622288e-08 0.0000000000000000e+00  5.2205047661773477e-14 3.8989582901624624e-08 0.0000000000000000e+00  -4.0451368452377638e-18 3.8989582901622592e-08 0.0000000000000000e+00  2.2207265964305767e-22 3.8989582901621891e-08 0.0000000000000000e+00  -4.9898553508983945e-21 3.8989582901622261e-08 0.0000000000000000e+00  -1.0027087669298471e-20 3.8989582901624445e-08 0.0000000000000000e+00  -7.0020641518434200e-21 3.8989582901622169e-08 0.0000000000000000e+00  -9.7861273406510260e-21 3.8989582901625583e-08 0.0000000000000000e+00  -5.7735537829002435e-21 3.8989582901620554e-08 0.0000000000000000e+00  1.4094152806519521e-21 3.8989582901625570e-08 0.0000000000000000e+00  -3.4428066687933751e-22 3.8989582901637793e-08 0.0000000000000000e+00  8.8131490660449748e-22 3.8989582901623281e-08 0.0000000000000000e+00  -6.7173447496418321e-22 3.8989582901610549e-08 0.0000000000000000e+00  4.0481056979550173e-18 3.8989582901617113e-08 0.0000000000000000e+00  -5.2205054053603704e-14 3.8989582901625663e-08 0.0000000000000000e+00  6.7301527780183544e-10 3.8989582901629488e-08 0.0000000000000000e+00  -6.5605873675817473e-10 4.2977469222633315e-08 0.0000000000000000e+00  5.0893278966256608e-14 4.2977469222635499e-08 0.0000000000000000e+00  -3.9500558596804653e-18 4.2977469222629292e-08 0.0000000000000000e+00  -3.0031206631013259e-21 4.2977469222625705e-08 0.0000000000000000e+00  -1.3109625927273581e-20 4.2977469222620067e-08 0.0000000000000000e+00  -4.7699248765807526e-21 4.2977469222619306e-08 0.0000000000000000e+00  1.0838875847567683e-21 4.2977469222625420e-08 0.0000000000000000e+00  -8.8310063196489305e-21 4.2977469222626459e-08 0.0000000000000000e+00  -8.9675182222253923e-21 4.2977469222627730e-08 0.0000000000000000e+00  9.1791870651448944e-21 4.2977469222630006e-08 0.0000000000000000e+00  2.1069517524241450e-21 4.2977469222624441e-08 0.0000000000000000e+00  -1.2675114338248723e-20 4.2977469222626558e-08 0.0000000000000000e+00  -7.1606120304153479e-21 4.2977469222626870e-08 0.0000000000000000e+00  3.9511159430561661e-18 4.2977469222624639e-08 0.0000000000000000e+00  -5.0893279977181322e-14 4.2977469222616096e-08 0.0000000000000000e+00  6.5605873675456243e-10 4.2977469222612662e-08 0.0000000000000000e+00  -6.3747386323968058e-10 4.6858713582774332e-08 0.0000000000000000e+00  4.9455230970550609e-14 4.6858713582777072e-08 0.0000000000000000e+00  -3.8505388675141966e-18 4.6858713582768694e-08 0.0000000000000000e+00  -2.6965941089733804e-21 4.6858713582767040e-08 0.0000000000000000e+00  -4.2538128784535273e-21 4.6858713582776165e-08 0.0000000000000000e+00  4.4016023768489223e-22 4.6858713582798664e-08 0.0000000000000000e+00  -9.8771219134258154e-21 4.6858713582784338e-08 0.0000000000000000e+00  -1.2061914555432761e-20 4.6858713582777363e-08 0.0000000000000000e+00  1.2661098664546380e-21 4.6858713582778812e-08 0.0000000000000000e+00  -5.1651600030811298e-22 4.6858713582768985e-08 0.0000000000000000e+00  -8.6303827945445232e-21 4.6858713582766722e-08 0.0000000000000000e+00  1.3262213542473978e-21 4.6858713582773763e-08 0.0000000000000000e+00  -3.6029604596449219e-22 4.6858713582779447e-08 0.0000000000000000e+00  3.8348645758734815e-18 4.6858713582774286e-08 0.0000000000000000e+00  -4.9455241654974464e-14 4.6858713582780493e-08 0.0000000000000000e+00  6.3747386325142065e-10 4.6858713582786932e-08 0.0000000000000000e+00  -6.1730666771010884e-10 5.0623682413862953e-08 0.0000000000000000e+00  4.7894398277871611e-14 5.0623682413849864e-08 0.0000000000000000e+00  -3.7304032839149948e-18 5.0623682413859340e-08 0.0000000000000000e+00  1.2446476696293697e-21 5.0623682413863754e-08 0.0000000000000000e+00  6.2064821703006358e-21 5.0623682413862603e-08 0.0000000000000000e+00  2.9402414162219389e-21 5.0623682413852001e-08 0.0000000000000000e+00  -1.2057207233012387e-20 5.0623682413859830e-08 0.0000000000000000e+00  -7.3444843973357179e-21 5.0623682413868611e-08 0.0000000000000000e+00  -2.0105672319894294e-20 5.0623682413864839e-08 0.0000000000000000e+00  1.2712679827778739e-22 5.0623682413849467e-08 0.0000000000000000e+00  1.1357467801841433e-20 5.0623682413863443e-08 0.0000000000000000e+00  -2.2159601932058719e-21 5.0623682413862325e-08 0.0000000000000000e+00  -9.3725012788941155e-21 5.0623682413859195e-08 0.0000000000000000e+00  3.7222800639190098e-18 5.0623682413860770e-08 0.0000000000000000e+00  -4.7894405101748315e-14 5.0623682413860624e-08 0.0000000000000000e+00  6.1730666770681925e-10 5.0623682413854423e-08 0.0000000000000000e+00  -5.9560708911927799e-10 5.4263030042766413e-08 0.0000000000000000e+00  4.6214578787971855e-14 5.4263030042774559e-08 0.0000000000000000e+00  -3.5906281217377269e-18 5.4263030042788502e-08 0.0000000000000000e+00  5.9598586929372638e-22 5.4263030042785769e-08 0.0000000000000000e+00  -4.1198645644048980e-21 5.4263030042791275e-08 0.0000000000000000e+00  -2.8005856020274945e-21 5.4263030042789653e-08 0.0000000000000000e+00  -3.6961679589504621e-21 5.4263030042786914e-08 0.0000000000000000e+00  -1.0205535187080625e-20 5.4263030042773242e-08 0.0000000000000000e+00  -1.6855438428670105e-20 5.4263030042776088e-08 0.0000000000000000e+00  -5.9493868159047966e-21 5.4263030042789183e-08 0.0000000000000000e+00  2.3605937033272562e-21 5.4263030042776597e-08 0.0000000000000000e+00  1.0299795449399941e-21 5.4263030042770972e-08 0.0000000000000000e+00  -4.0302408802552800e-21 5.4263030042778589e-08 0.0000000000000000e+00  3.5885624603940420e-18 5.4263030042768358e-08 0.0000000000000000e+00  -4.6214587503687480e-14 5.4263030042769430e-08 0.0000000000000000e+00  5.9560708910350138e-10 5.4263030042777709e-08 0.0000000000000000e+00  -5.7242887360451613e-10 5.7767721902617379e-08 0.0000000000000000e+00  4.4419866374484837e-14 5.7767721902618861e-08 0.0000000000000000e+00  -3.4544463143823686e-18 5.7767721902614771e-08 0.0000000000000000e+00  7.2242380850242218e-22 5.7767721902616975e-08 0.0000000000000000e+00  7.2596248140816935e-21 5.7767721902615215e-08 0.0000000000000000e+00  -3.1976601526897534e-21 5.7767721902613203e-08 0.0000000000000000e+00  -1.9843276440174161e-20 5.7767721902607545e-08 0.0000000000000000e+00  -1.6628141786873337e-20 5.7767721902608075e-08 0.0000000000000000e+00  -4.7594433122110984e-21 5.7767721902609120e-08 0.0000000000000000e+00  5.2839362262299423e-21 5.7767721902617868e-08 0.0000000000000000e+00  -6.4577675922191450e-21 5.7767721902625730e-08 0.0000000000000000e+00  -5.7231439352486091e-21 5.7767721902616591e-08 0.0000000000000000e+00  -6.0186426248398890e-21 5.7767721902609286e-08 0.0000000000000000e+00  3.4542666428538822e-18 5.7767721902616015e-08 0.0000000000000000e+00  -4.4419850252875027e-14 5.7767721902619741e-08 0.0000000000000000e+00  5.7242887361445118e-10 5.7767721902619417e-08 0.0000000000000000e+00  -5.4782944369983965e-10 6.1129056986971388e-08 0.0000000000000000e+00  4.2514602714173926e-14 6.1129056986958511e-08 0.0000000000000000e+00  -3.3092061673729498e-18 6.1129056986950967e-08 0.0000000000000000e+00  1.2301048181092403e-21 6.1129056986950557e-08 0.0000000000000000e+00  -7.5368125089066441e-21 6.1129056986944786e-08 0.0000000000000000e+00  -9.7827565978076373e-21 6.1129056986938103e-08 0.0000000000000000e+00  -1.0734025970201042e-20 6.1129056986943092e-08 0.0000000000000000e+00  -1.1382787594369804e-20 6.1129056986953971e-08 0.0000000000000000e+00  -5.3195656042542683e-21 6.1129056986948624e-08 0.0000000000000000e+00  3.7064442646603934e-21 6.1129056986949352e-08 0.0000000000000000e+00  1.0582016533930089e-21 6.1129056986945025e-08 0.0000000000000000e+00  -1.1293280564282639e-20 6.1129056986942669e-08 0.0000000000000000e+00  -4.3303033215687601e-21 6.1129056986942219e-08 0.0000000000000000e+00  3.3067597713796717e-18 6.1129056986939254e-08 0.0000000000000000e+00  -4.2514606577999399e-14 6.1129056986936223e-08 0.0000000000000000e+00  5.4782944368819254e-10 6.1129056986944694e-08 0.0000000000000000e+00  -5.2186975794630683e-10 6.4338689490805474e-08 0.0000000000000000e+00  4.0503494681840829e-14 6.4338689490826372e-08 0.0000000000000000e+00  -3.1620450833524501e-18 6.4338689490828489e-08 0.0000000000000000e+00  -4.5327381178480753e-21 6.4338689490820919e-08 0.0000000000000000e+00  -4.9634392245652295e-21 6.4338689490814156e-08 0.0000000000000000e+00  -6.5220737531333726e-21 6.4338689490829575e-08 0.0000000000000000e+00  -2.2464593931685617e-22 6.4338689490832552e-08 0.0000000000000000e+00  -1.4478254039850749e-20 6.4338689490846581e-08 0.0000000000000000e+00  -7.5436303585270282e-21 6.4338689490840282e-08 0.0000000000000000e+00  4.3106851976828970e-21 6.4338689490833108e-08 0.0000000000000000e+00  -5.6580763473183929e-21 6.4338689490824095e-08 0.0000000000000000e+00  -1.9520965093587841e-20 6.4338689490830117e-08 0.0000000000000000e+00  -1.0340722097217658e-20 6.4338689490823632e-08 0.0000000000000000e+00  3.1518502181866932e-18 6.4338689490815162e-08 0.0000000000000000e+00  -4.0503489256828272e-14 6.4338689490820654e-08 0.0000000000000000e+00  5.2186975795380822e-10 6.4338689490813613e-08 0.0000000000000000e+00  -4.9461416201608776e-10 6.7388649583836788e-08 0.0000000000000000e+00  3.8391467922764133e-14 6.7388649583828357e-08 0.0000000000000000e+00  -2.9984191111559159e-18 6.7388649583837264e-08 0.0000000000000000e+00  -1.2355340097662627e-20 6.7388649583837145e-08 0.0000000000000000e+00  1.6143940371654610e-22 6.7388649583840785e-08 0.0000000000000000e+00  9.0648781139510798e-21 6.7388649583841089e-08 0.0000000000000000e+00  5.2759486241395436e-21 6.7388649583840401e-08 0.0000000000000000e+00  -1.9540277650879608e-21 6.7388649583830197e-08 0.0000000000000000e+00  -1.8505319570575530e-20 6.7388649583846476e-08 0.0000000000000000e+00  -1.4324873286399912e-20 6.7388649583851174e-08 0.00000000