<?xml version="1.0"?>
<VTKFile type="UnstructuredGrid"  version="0.1"  >
<UnstructuredGrid>
<Piece  NumberOfPoints="1876" NumberOfCells="3600">
<Points>
<DataArray  type="Float64"  NumberOfComponents="3"  format="ascii">-0.75 -3 0  -0.65 -3 0  -0.55 -3 0  -0.45 -3 0  -0.35 -3 0  -0.25 -3 0  -0.15 -3 0  -0.05000000000000004 -3 0  0.05000000000000004 -3 0  0.15 -3 0  0.25 -3 0  0.3500000000000001 -3 0  0.45 -3 0  0.55 -3 0  0.6499999999999999 -3 0  0.75 -3 0  -0.75 -2.95 0  -0.65 -2.95 0  -0.55 -2.95 0  -0.45 -2.95 0  -0.35 -2.95 0  -0.25 -2.95 0  -0.15 -2.95 0  -0.05000000000000004 -2.95 0  0.05000000000000004 -2.95 0  0.15 -2.95 0  0.25 -2.95 0  0.3500000000000001 -2.95 0  0.45 -2.95 0  0.55 -2.95 0  0.6499999999999999 -2.95 0  0.75 -2.95 0  -0.75 -2.9 0  -0.65 -2.9 0  -0.55 -2.9 0  -0.45 -2.9 0  -0.35 -2.9 0  -0.25 -2.9 0  -0.15 -2.9 0  -0.05000000000000004 -2.9 0  0.05000000000000004 -2.9 0  0.15 -2.9 0  0.25 -2.9 0  0.3500000000000001 -2.9 0  0.45 -2.9 0  0.55 -2.9 0  0.6499999999999999 -2.9 0  0.75 -2.9 0  -0.75 -2.85 0  -0.65 -2.85 0  -0.55 -2.85 0  -0.45 -2.85 0  -0.35 -2.85 0  -0.25 -2.85 0  -0.15 -2.85 0  -0.05000000000000004 -2.85 0  0.05000000000000004 -2.85 0  0.15 -2.85 0  0.25 -2.85 0  0.3500000000000001 -2.85 0  0.45 -2.85 0  0.55 -2.85 0  0.6499999999999999 -2.85 0  0.75 -2.85 0  -0.75 -2.8 0  -0.65 -2.8 0  -0.55 -2.8 0  -0.45 -2.8 0  -0.35 -2.8 0  -0.25 -2.8 0  -0.15 -2.8 0  -0.05000000000000004 -2.8 0  0.05000000000000004 -2.8 0  0.15 -2.8 0  0.25 -2.8 0  0.3500000000000001 -2.8 0  0.45 -2.8 0  0.55 -2.8 0  0.6499999999999999 -2.8 0  0.75 -2.8 0  -0.75 -2.75 0  -0.65 -2.75 0  -0.55 -2.75 0  -0.45 -2.75 0  -0.35 -2.75 0  -0.25 -2.75 0  -0.15 -2.75 0  -0.05000000000000004 -2.75 0  0.05000000000000004 -2.75 0  0.15 -2.75 0  0.25 -2.75 0  0.3500000000000001 -2.75 0  0.45 -2.75 0  0.55 -2.75 0  0.6499999999999999 -2.75 0  0.75 -2.75 0  -0.75 -2.7 0  -0.65 -2.7 0  -0.55 -2.7 0  -0.45 -2.7 0  -0.35 -2.7 0  -0.25 -2.7 0  -0.15 -2.7 0  -0.05000000000000004 -2.7 0  0.05000000000000004 -2.7 0  0.15 -2.7 0  0.25 -2.7 0  0.3500000000000001 -2.7 0  0.45 -2.7 0  0.55 -2.7 0  0.6499999999999999 -2.7 0  0.75 -2.7 0  -0.75 -2.65 0  -0.65 -2.65 0  -0.55 -2.65 0  -0.45 -2.65 0  -0.35 -2.65 0  -0.25 -2.65 0  -0.15 -2.65 0  -0.05000000000000004 -2.65 0  0.05000000000000004 -2.65 0  0.15 -2.65 0  0.25 -2.65 0  0.3500000000000001 -2.65 0  0.45 -2.65 0  0.55 -2.65 0  0.6499999999999999 -2.65 0  0.75 -2.65 0  -0.75 -2.6 0  -0.65 -2.6 0  -0.55 -2.6 0  -0.45 -2.6 0  -0.35 -2.6 0  -0.25 -2.6 0  -0.15 -2.6 0  -0.05000000000000004 -2.6 0  0.05000000000000004 -2.6 0  0.15 -2.6 0  0.25 -2.6 0  0.3500000000000001 -2.6 0  0.45 -2.6 0  0.55 -2.6 0  0.6499999999999999 -2.6 0  0.75 -2.6 0  -0.75 -2.55 0  -0.65 -2.55 0  -0.55 -2.55 0  -0.45 -2.55 0  -0.35 -2.55 0  -0.25 -2.55 0  -0.15 -2.55 0  -0.05000000000000004 -2.55 0  0.05000000000000004 -2.55 0  0.15 -2.55 0  0.25 -2.55 0  0.3500000000000001 -2.55 0  0.45 -2.55 0  0.55 -2.55 0  0.6499999999999999 -2.55 0  0.75 -2.55 0  -0.75 -2.5 0  -0.65 -2.5 0  -0.55 -2.5 0  -0.45 -2.5 0  -0.35 -2.5 0  -0.25 -2.5 0  -0.15 -2.5 0  -0.05000000000000004 -2.5 0  0.05000000000000004 -2.5 0  0.15 -2.5 0  0.25 -2.5 0  0.3500000000000001 -2.5 0  0.45 -2.5 0  0.55 -2.5 0  0.6499999999999999 -2.5 0  0.75 -2.5 0  -0.75 -2.45 0  -0.65 -2.45 0  -0.55 -2.45 0  -0.45 -2.45 0  -0.35 -2.45 0  -0.25 -2.45 0  -0.15 -2.45 0  -0.05000000000000004 -2.45 0  0.05000000000000004 -2.45 0  0.15 -2.45 0  0.25 -2.45 0  0.3500000000000001 -2.45 0  0.45 -2.45 0  0.55 -2.45 0  0.6499999999999999 -2.45 0  0.75 -2.45 0  -0.75 -2.4 0  -0.65 -2.4 0  -0.55 -2.4 0  -0.45 -2.4 0  -0.35 -2.4 0  -0.25 -2.4 0  -0.15 -2.4 0  -0.05000000000000004 -2.4 0  0.05000000000000004 -2.4 0  0.15 -2.4 0  0.25 -2.4 0  0.3500000000000001 -2.4 0  0.45 -2.4 0  0.55 -2.4 0  0.6499999999999999 -2.4 0  0.75 -2.4 0  -0.75 -2.35 0  -0.65 -2.35 0  -0.55 -2.35 0  -0.45 -2.35 0  -0.35 -2.35 0  -0.25 -2.35 0  -0.15 -2.35 0  -0.05000000000000004 -2.35 0  0.05000000000000004 -2.35 0  0.15 -2.35 0  0.25 -2.35 0  0.3500000000000001 -2.35 0  0.45 -2.35 0  0.55 -2.35 0  0.6499999999999999 -2.35 0  0.75 -2.35 0  -0.75 -2.3 0  -0.65 -2.3 0  -0.55 -2.3 0  -0.45 -2.3 0  -0.35 -2.3 0  -0.25 -2.3 0  -0.15 -2.3 0  -0.05000000000000004 -2.3 0  0.05000000000000004 -2.3 0  0.15 -2.3 0  0.25 -2.3 0  0.3500000000000001 -2.3 0  0.45 -2.3 0  0.55 -2.3 0  0.6499999999999999 -2.3 0  0.75 -2.3 0  -0.75 -2.25 0  -0.65 -2.25 0  -0.55 -2.25 0  -0.45 -2.25 0  -0.35 -2.25 0  -0.25 -2.25 0  -0.15 -2.25 0  -0.05000000000000004 -2.25 0  0.05000000000000004 -2.25 0  0.15 -2.25 0  0.25 -2.25 0  0.3500000000000001 -2.25 0  0.45 -2.25 0  0.55 -2.25 0  0.6499999999999999 -2.25 0  0.75 -2.25 0  -0.75 -2.2 0  -0.65 -2.2 0  -0.55 -2.2 0  -0.45 -2.2 0  -0.35 -2.2 0  -0.25 -2.2 0  -0.15 -2.2 0  -0.05000000000000004 -2.2 0  0.05000000000000004 -2.2 0  0.15 -2.2 0  0.25 -2.2 0  0.3500000000000001 -2.2 0  0.45 -2.2 0  0.55 -2.2 0  0.6499999999999999 -2.2 0  0.75 -2.2 0  -0.75 -2.15 0  -0.65 -2.15 0  -0.55 -2.15 0  -0.45 -2.15 0  -0.35 -2.15 0  -0.25 -2.15 0  -0.15 -2.15 0  -0.05000000000000004 -2.15 0  0.05000000000000004 -2.15 0  0.15 -2.15 0  0.25 -2.15 0  0.3500000000000001 -2.15 0  0.45 -2.15 0  0.55 -2.15 0  0.6499999999999999 -2.15 0  0.75 -2.15 0  -0.75 -2.1 0  -0.65 -2.1 0  -0.55 -2.1 0  -0.45 -2.1 0  -0.35 -2.1 0  -0.25 -2.1 0  -0.15 -2.1 0  -0.05000000000000004 -2.1 0  0.05000000000000004 -2.1 0  0.15 -2.1 0  0.25 -2.1 0  0.3500000000000001 -2.1 0  0.45 -2.1 0  0.55 -2.1 0  0.6499999999999999 -2.1 0  0.75 -2.1 0  -0.75 -2.05 0  -0.65 -2.05 0  -0.55 -2.05 0  -0.45 -2.05 0  -0.35 -2.05 0  -0.25 -2.05 0  -0.15 -2.05 0  -0.05000000000000004 -2.05 0  0.05000000000000004 -2.05 0  0.15 -2.05 0  0.25 -2.05 0  0.3500000000000001 -2.05 0  0.45 -2.05 0  0.55 -2.05 0  0.6499999999999999 -2.05 0  0.75 -2.05 0  -0.75 -2 0  -0.65 -2 0  -0.55 -2 0  -0.45 -2 0  -0.35 -2 0  -0.25 -2 0  -0.15 -2 0  -0.05000000000000004 -2 0  0.05000000000000004 -2 0  0.15 -2 0  0.25 -2 0  0.3500000000000001 -2 0  0.45 -2 0  0.55 -2 0  0.6499999999999999 -2 0  0.75 -2 0  -0.75 -1.95 0  -0.65 -1.95 0  -0.55 -1.95 0  -0.45 -1.95 0  -0.35 -1.95 0  -0.25 -1.95 0  -0.15 -1.95 0  -0.05000000000000004 -1.95 0  0.05000000000000004 -1.95 0  0.15 -1.95 0  0.25 -1.95 0  0.3500000000000001 -1.95 0  0.45 -1.95 0  0.55 -1.95 0  0.6499999999999999 -1.95 0  0.75 -1.95 0  -0.75 -1.9 0  -0.65 -1.9 0  -0.55 -1.9 0  -0.45 -1.9 0  -0.35 -1.9 0  -0.25 -1.9 0  -0.15 -1.9 0  -0.05000000000000004 -1.9 0  0.05000000000000004 -1.9 0  0.15 -1.9 0  0.25 -1.9 0  0.3500000000000001 -1.9 0  0.45 -1.9 0  0.55 -1.9 0  0.6499999999999999 -1.9 0  0.75 -1.9 0  -0.75 -1.85 0  -0.65 -1.85 0  -0.55 -1.85 0  -0.45 -1.85 0  -0.35 -1.85 0  -0.25 -1.85 0  -0.15 -1.85 0  -0.05000000000000004 -1.85 0  0.05000000000000004 -1.85 0  0.15 -1.85 0  0.25 -1.85 0  0.3500000000000001 -1.85 0  0.45 -1.85 0  0.55 -1.85 0  0.6499999999999999 -1.85 0  0.75 -1.85 0  -0.75 -1.8 0  -0.65 -1.8 0  -0.55 -1.8 0  -0.45 -1.8 0  -0.35 -1.8 0  -0.25 -1.8 0  -0.15 -1.8 0  -0.05000000000000004 -1.8 0  0.05000000000000004 -1.8 0  0.15 -1.8 0  0.25 -1.8 0  0.3500000000000001 -1.8 0  0.45 -1.8 0  0.55 -1.8 0  0.6499999999999999 -1.8 0  0.75 -1.8 0  -0.75 -1.75 0  -0.65 -1.75 0  -0.55 -1.75 0  -0.45 -1.75 0  -0.35 -1.75 0  -0.25 -1.75 0  -0.15 -1.75 0  -0.05000000000000004 -1.75 0  0.05000000000000004 -1.75 0  0.15 -1.75 0  0.25 -1.75 0  0.3500000000000001 -1.75 0  0.45 -1.75 0  0.55 -1.75 0  0.6499999999999999 -1.75 0  0.75 -1.75 0  -0.75 -1.7 0  -0.65 -1.7 0  -0.55 -1.7 0  -0.45 -1.7 0  -0.35 -1.7 0  -0.25 -1.7 0  -0.15 -1.7 0  -0.05000000000000004 -1.7 0  0.05000000000000004 -1.7 0  0.15 -1.7 0  0.25 -1.7 0  0.3500000000000001 -1.7 0  0.45 -1.7 0  0.55 -1.7 0  0.6499999999999999 -1.7 0  0.75 -1.7 0  -0.75 -1.65 0  -0.65 -1.65 0  -0.55 -1.65 0  -0.45 -1.65 0  -0.35 -1.65 0  -0.25 -1.65 0  -0.15 -1.65 0  -0.05000000000000004 -1.65 0  0.05000000000000004 -1.65 0  0.15 -1.65 0  0.25 -1.65 0  0.3500000000000001 -1.65 0  0.45 -1.65 0  0.55 -1.65 0  0.6499999999999999 -1.65 0  0.75 -1.65 0  -0.75 -1.6 0  -0.65 -1.6 0  -0.55 -1.6 0  -0.45 -1.6 0  -0.35 -1.6 0  -0.25 -1.6 0  -0.15 -1.6 0  -0.05000000000000004 -1.6 0  0.05000000000000004 -1.6 0  0.15 -1.6 0  0.25 -1.6 0  0.3500000000000001 -1.6 0  0.45 -1.6 0  0.55 -1.6 0  0.6499999999999999 -1.6 0  0.75 -1.6 0  -0.75 -1.55 0  -0.65 -1.55 0  -0.55 -1.55 0  -0.45 -1.55 0  -0.35 -1.55 0  -0.25 -1.55 0  -0.15 -1.55 0  -0.05000000000000004 -1.55 0  0.05000000000000004 -1.55 0  0.15 -1.55 0  0.25 -1.55 0  0.3500000000000001 -1.55 0  0.45 -1.55 0  0.55 -1.55 0  0.6499999999999999 -1.55 0  0.75 -1.55 0  -0.75 -1.5 0  -0.65 -1.5 0  -0.55 -1.5 0  -0.45 -1.5 0  -0.35 -1.5 0  -0.25 -1.5 0  -0.15 -1.5 0  -0.05000000000000004 -1.5 0  0.05000000000000004 -1.5 0  0.15 -1.5 0  0.25 -1.5 0  0.3500000000000001 -1.5 0  0.45 -1.5 0  0.55 -1.5 0  0.6499999999999999 -1.5 0  0.75 -1.5 0  -0.75 -1.45 0  -0.65 -1.45 0  -0.55 -1.45 0  -0.45 -1.45 0  -0.35 -1.45 0  -0.25 -1.45 0  -0.15 -1.45 0  -0.05000000000000004 -1.45 0  0.05000000000000004 -1.45 0  0.15 -1.45 0  0.25 -1.45 0  0.3500000000000001 -1.45 0  0.45 -1.45 0  0.55 -1.45 0  0.6499999999999999 -1.45 0  0.75 -1.45 0  -0.75 -1.4 0  -0.65 -1.4 0  -0.55 -1.4 0  -0.45 -1.4 0  -0.35 -1.4 0  -0.25 -1.4 0  -0.15 -1.4 0  -0.05000000000000004 -1.4 0  0.05000000000000004 -1.4 0  0.15 -1.4 0  0.25 -1.4 0  0.3500000000000001 -1.4 0  0.45 -1.4 0  0.55 -1.4 0  0.6499999999999999 -1.4 0  0.75 -1.4 0  -0.75 -1.35 0  -0.65 -1.35 0  -0.55 -1.35 0  -0.45 -1.35 0  -0.35 -1.35 0  -0.25 -1.35 0  -0.15 -1.35 0  -0.05000000000000004 -1.35 0  0.05000000000000004 -1.35 0  0.15 -1.35 0  0.25 -1.35 0  0.3500000000000001 -1.35 0  0.45 -1.35 0  0.55 -1.35 0  0.6499999999999999 -1.35 0  0.75 -1.35 0  -0.75 -1.3 0  -0.65 -1.3 0  -0.55 -1.3 0  -0.45 -1.3 0  -0.35 -1.3 0  -0.25 -1.3 0  -0.15 -1.3 0  -0.05000000000000004 -1.3 0  0.05000000000000004 -1.3 0  0.15 -1.3 0  0.25 -1.3 0  0.3500000000000001 -1.3 0  0.45 -1.3 0  0.55 -1.3 0  0.6499999999999999 -1.
[...]
<PointData  Vectors="flow"> 
<DataArray  type="Float64"  Name="flow"  NumberOfComponents="3" format="ascii">1.7926761394930099e-09 1.8912308466878922e-08 0.0000000000000000e+00  8.1018349107914368e-10 8.5472438442757327e-09 0.0000000000000000e+00  -7.4739522449274452e-11 -7.8848425105253776e-10 0.0000000000000000e+00  9.7622065772869964e-12 1.0298896607128398e-10 0.0000000000000000e+00  -1.4030009680858242e-12 -1.4801327748621108e-11 0.0000000000000000e+00  2.1110297579730043e-13 2.2270863702596782e-12 0.0000000000000000e+00  -3.2634318637089767e-14 -3.4428432837043621e-13 0.0000000000000000e+00  5.1357023300536147e-15 5.4180442590992330e-14 0.0000000000000000e+00  -8.1849363955010163e-16 -8.6349139414148431e-15 0.0000000000000000e+00  1.3168138169412728e-16 1.3892073727541623e-15 0.0000000000000000e+00  -2.1340392397557388e-17 -2.2513608282920804e-16 0.0000000000000000e+00  3.4786115837169067e-18 3.6698527892672313e-17 0.0000000000000000e+00  -5.6974071525060643e-19 -6.0106295362457524e-18 0.0000000000000000e+00  9.3749461696183947e-20 9.8903460538249332e-19 0.0000000000000000e+00  -1.5878760021596413e-20 -1.6751715548850107e-19 0.0000000000000000e+00  5.1138015470698291e-21 5.3949394520272402e-20 0.0000000000000000e+00  -3.6561017132086064e-10 -3.8571006699537363e-09 0.0000000000000000e+00  -1.2928684924434826e-10 -1.3639456228337441e-09 0.0000000000000000e+00  4.4948819530191599e-11 4.7419939466448734e-10 0.0000000000000000e+00  -7.2231283286815167e-12 -7.6202292225806165e-11 0.0000000000000000e+00  1.1332924771031519e-12 1.1955967080718596e-11 0.0000000000000000e+00  -1.7899071722943225e-13 -1.8883096519086129e-12 0.0000000000000000e+00  2.8532462877278181e-14 3.0101072210815836e-13 0.0000000000000000e+00  -4.5861398079144861e-15 -4.8382688210510316e-14 0.0000000000000000e+00  7.4227785100367571e-16 7.8308554328634472e-15 0.0000000000000000e+00  -1.2083173203184543e-16 -1.2747461398241173e-15 0.0000000000000000e+00  1.9763996702757852e-17 2.0850548180255509e-16 0.0000000000000000e+00  -3.2457748505985530e-18 -3.4242155532854972e-17 0.0000000000000000e+00  5.3488265527369371e-19 5.6428852636931078e-18 0.0000000000000000e+00  -8.8468806949475220e-20 -9.3332494914470374e-19 0.0000000000000000e+00  1.5052719301728668e-20 1.5880262163814276e-19 0.0000000000000000e+00  -4.8651315061637451e-21 -5.1325984515263168e-20 0.0000000000000000e+00  1.7460627188305305e-11 1.8420547924724044e-10 0.0000000000000000e+00  -2.9651062273694624e-12 -3.1281168066940479e-11 0.0000000000000000e+00  -8.1172418003729915e-12 -8.5634977476921028e-11 0.0000000000000000e+00  2.8528717709550221e-12 3.0097121147610881e-11 0.0000000000000000e+00  -5.9344727427595110e-13 -6.2607281162951211e-12 0.0000000000000000e+00  1.0887345830352875e-13 1.1485891857045304e-12 0.0000000000000000e+00  -1.9054773262726335e-14 -2.0102334257264910e-13 0.0000000000000000e+00  3.2649262585810915e-15 3.4444198348822438e-14 0.0000000000000000e+00  -5.5359044840646370e-16 -5.8402480481175031e-15 0.0000000000000000e+00  9.3358601968290242e-17 9.8491112787400375e-16 0.0000000000000000e+00  -1.5700353799848795e-17 -1.6563501212541963e-16 0.0000000000000000e+00  2.6368062713859923e-18 2.7817681327512973e-17 0.0000000000000000e+00  -4.4261447783371905e-19 -4.6694778561983966e-18 0.0000000000000000e+00  7.4349329599662173e-20 7.8436780895188879e-19 0.0000000000000000e+00  -1.2824309736847558e-20 -1.3529342878778556e-19 0.0000000000000000e+00  4.1895311773213379e-21 4.4198561140840420e-20 0.0000000000000000e+00  -1.5675011796024907e-12 -1.6536765999029174e-11 0.0000000000000000e+00  6.2774492541905243e-13 6.6225602084493609e-12 0.0000000000000000e+00  5.7444074193343085e-13 6.0602137039991519e-12 0.0000000000000000e+00  -5.7848613141055168e-13 -6.1028916043596770e-12 0.0000000000000000e+00  1.9924976803004434e-13 2.1020378371321322e-12 0.0000000000000000e+00  -4.7343553621593800e-14 -4.9946327185624702e-13 0.0000000000000000e+00  9.7094877089214405e-15 1.0243279450265022e-13 0.0000000000000000e+00  -1.8525704007773652e-15 -1.9544178730475959e-14 0.0000000000000000e+00  3.3955896341794017e-16 3.5822665998499393e-15 0.0000000000000000e+00  -6.0747264715276175e-17 -6.4086924765974062e-16 0.0000000000000000e+00  1.0700446080884136e-17 1.1288717050259794e-16 0.0000000000000000e+00  -1.8654327514096805e-18 -1.9679873481696513e-17 0.0000000000000000e+00  3.2289840051046567e-19 3.4065016091767731e-18 0.0000000000000000e+00  -5.5655656846810290e-20 -5.8715399118957420e-19 0.0000000000000000e+00  9.8209509709469125e-21 1.0360870550392372e-19 0.0000000000000000e+00  -3.2660152299642732e-21 -3.4455686738864919e-20 0.0000000000000000e+00  1.7229839497195495e-13 1.8177072379505824e-12 0.0000000000000000e+00  -9.1494852950113169e-14 -9.6524901737892228e-13 0.0000000000000000e+00  -3.8148907148025743e-14 -4.0246193038628217e-13 0.0000000000000000e+00  7.5806256475635226e-14 7.9973804225006898e-13 0.0000000000000000e+00  -4.4036622910249158e-14 -4.6457593648443082e-13 0.0000000000000000e+00  1.4814854670375410e-14 1.5629320614339232e-13 0.0000000000000000e+00  -3.7856935299629483e-15 -3.9938169657334347e-14 0.0000000000000000e+00  8.3923498719472732e-16 8.8537302440543526e-15 0.0000000000000000e+00  -1.7149814444017324e-16 -1.8092647844731132e-15 0.0000000000000000e+00  3.3318611279668950e-17 3.5150345359499205e-16 0.0000000000000000e+00  -6.2612198876824671e-18 -6.6054386113655076e-17 0.0000000000000000e+00  1.1499284369770099e-18 1.2131472515217223e-17 0.0000000000000000e+00  -2.0777049459085316e-19 -2.1919294832191514e-18 0.0000000000000000e+00  3.7124414968270693e-20 3.9165378066052541e-19 0.0000000000000000e+00  -6.7629174505783274e-21 -7.1347176516527993e-20 0.0000000000000000e+00  2.3055529128588192e-21 2.4323036891107815e-20 0.0000000000000000e+00  -2.1015672944604301e-14 -2.2171036954829056e-13 0.0000000000000000e+00  1.2926045740991242e-14 1.3636671952344351e-13 0.0000000000000000e+00  1.8611459784455967e-15 1.9634649042748382e-14 0.0000000000000000e+00  -9.1276570194138924e-15 -9.6294618602916495e-14 0.0000000000000000e+00  7.4248883993808295e-15 7.8330813161240624e-14 0.0000000000000000e+00  -3.4765642845431579e-15 -3.6676929371531258e-14 0.0000000000000000e+00  1.1469179394662570e-15 1.2099712479866815e-14 0.0000000000000000e+00  -3.0573992013239184e-16 -3.2254837071787031e-15 0.0000000000000000e+00  7.1611039020942689e-17 7.5547949223042157e-16 0.0000000000000000e+00  -1.5443256873251921e-17 -1.6292270047326485e-16 0.0000000000000000e+00  3.1508954781949881e-18 3.3241200637260998e-17 0.0000000000000000e+00  -6.1843996372109128e-19 -6.5243950675031018e-18 0.0000000000000000e+00  1.1803008095844510e-19 1.2451893848981035e-18 0.0000000000000000e+00  -2.2082809737926608e-20 -2.3296840984182381e-19 0.0000000000000000e+00  4.1904294193834846e-21 4.4208037381742531e-20 0.0000000000000000e+00  -1.4745102585721146e-21 -1.5555733817921990e-20 0.0000000000000000e+00  2.7329538064574032e-15 2.8832015038740251e-14 0.0000000000000000e+00  -1.8411280139523927e-15 -1.9423464260938573e-14 0.0000000000000000e+00  6.5823256919686291e-17 6.9441976257451057e-16 0.0000000000000000e+00  1.0724215458496490e-15 1.1313793180385436e-14 0.0000000000000000e+00  -1.1252649436112788e-15 -1.1871278504638449e-14 0.0000000000000000e+00  6.7112417516802519e-16 7.0802010138579589e-15 0.0000000000000000e+00  -2.8064821460409656e-16 -2.9607721597569734e-15 0.0000000000000000e+00  9.1196573831862360e-17 9.6210224336363189e-16 0.0000000000000000e+00  -2.4956795672177423e-17 -2.6328828040884881e-16 0.0000000000000000e+00  6.0826860441481922e-18 6.4170896370966447e-17 0.0000000000000000e+00  -1.3685688051111182e-18 -1.4438076588518292e-17 0.0000000000000000e+00  2.9087656913244018e-19 3.0686788762503043e-18 0.0000000000000000e+00  -5.9298666280339760e-20 -6.2558687744093259e-19 0.0000000000000000e+00  1.1728977098326523e-20 1.2373792900888597e-19 0.0000000000000000e+00  -2.3387894513220560e-21 -2.4673674495937995e-20 0.0000000000000000e+00  8.5502496648343731e-22 9.0203107838489987e-21 0.0000000000000000e+00  -3.7124568190936831e-16 -3.9165539712334410e-15 0.0000000000000000e+00  2.6613289499415865e-16 2.8076389775213203e-15 0.0000000000000000e+00  -4.3900343874230538e-17 -4.6313822494804492e-16 0.0000000000000000e+00  -1.2439208988304928e-16 -1.3123070714676240e-15 0.0000000000000000e+00  1.6268765786111904e-16 1.7163162388571186e-15 0.0000000000000000e+00  -1.1656147075662351e-16 -1.2296958952807802e-15 0.0000000000000000e+00  5.8905080966294831e-17 6.2143464564442055e-16 0.0000000000000000e+00  -2.2996794617687368e-17 -2.4261073373920506e-16 0.0000000000000000e+00  7.3865577859561112e-18 7.7926434272693645e-17 0.0000000000000000e+00  -2.0565938318198845e-18 -2.1696577581189943e-17 0.0000000000000000e+00  5.1628658633541676e-19 5.4467011430456933e-18 0.0000000000000000e+00  -1.2014651869648486e-19 -1.2675173015088914e-18 0.0000000000000000e+00  2.6423882601418803e-20 2.7876569986141452e-19 0.0000000000000000e+00  -5.5743441127553605e-21 -5.8808009454945363e-20 0.0000000000000000e+00  1.1777466092083292e-21 1.2424947640273695e-20 0.0000000000000000e+00  -4.5008434096010587e-22 -4.7482831420720350e-21 0.0000000000000000e+00  5.2052596489549296e-17 5.4914255822624183e-16 0.0000000000000000e+00  -3.9039339843471456e-17 -4.1185578432022591e-16 0.0000000000000000e+00  1.0264640810841455e-17 1.0828952817503856e-16 0.0000000000000000e+00  1.4193585151036971e-17 1.4973895993463692e-16 0.0000000000000000e+00  -2.2996580869463012e-17 -2.4260847874608926e-16 0.0000000000000000e+00  1.9084943701770764e-17 2.0134163355517469e-16 0.0000000000000000e+00  -1.1207726706186268e-17 -1.1823886089085646e-16 0.0000000000000000e+00  5.1081609854027546e-18 5.3889887931310755e-17 0.0000000000000000e+00  -1.9047651737514618e-18 -2.0094821216923070e-17 0.0000000000000000e+00  6.0629855448474799e-19 6.3963060771708702e-18 0.0000000000000000e+00  -1.7083969806767255e-19 -1.8023183312731774e-18 0.0000000000000000e+00  4.3865542235934722e-20 4.6277107591085786e-19 0.0000000000000000e+00  -1.0490193432012427e-20 -1.1066905487990398e-19 0.0000000000000000e+00  2.3781793298392758e-21 2.5089228380200225e-20 0.0000000000000000e+00  -5.3641471588957220e-22 -5.6590481401430883e-21 0.0000000000000000e+00  2.1545842132974666e-22 2.2730352885308897e-21 0.0000000000000000e+00  -7.4760633574946733e-18 -7.8870696842574314e-17 0.0000000000000000e+00  5.8030309057277408e-18 6.1220600929620773e-17 0.0000000000000000e+00  -1.9731000755561518e-18 -2.0815738237857839e-17 0.0000000000000000e+00  -1.5722905977178188e-18 -1.6587293225212685e-17 0.0000000000000000e+00  3.2135292389265995e-18 3.3901971970856087e-17 0.0000000000000000e+00  -3.0189812018689459e-18 -3.1849536281328396e-17 0.0000000000000000e+00  2.0026365149589058e-18 2.1127340674400647e-17 0.0000000000000000e+00  -1.0374568601820533e-18 -1.0944924032062834e-17 0.0000000000000000e+00  4.4074560845331844e-19 4.6497617270952128e-18 0.0000000000000000e+00  -1.5905368675788644e-19 -1.6779787048486082e-18 0.0000000000000000e+00  5.0264764034327180e-20 5.3028134948062852e-19 0.0000000000000000e+00  -1.4286614439736943e-20 -1.5072039688556658e-19 0.0000000000000000e+00  3.7339003631971379e-21 3.9391764021217302e-20 0.0000000000000000e+00  -9.1492978659184224e-22 -9.6522924405376675e-21 0.0000000000000000e+00  2.2172756717716217e-22 2.3391732916415383e-21 0.0000000000000000e+00  -9.4029949491716132e-23 -9.9199368515905611e-22 0.0000000000000000e+00  1.0942529876579020e-18 1.1544109718135051e-17 0.0000000000000000e+00  -8.7263587279110944e-19 -9.2061016721943818e-18 0.0000000000000000e+00  3.5109677370101944e-19 3.7039877642581562e-18 0.0000000000000000e+00  1.6454423475824161e-19 1.7359026851746321e-18 0.0000000000000000e+00  -4.4617635284697893e-19 -4.7070547935420762e-18 0.0000000000000000e+00  4.6768755858515376e-19 4.9339929166377059e-18 0.0000000000000000e+00  -3.4339569535120516e-19 -3.6227432125677035e-18 0.0000000000000000e+00  1.9790924591364796e-19 2.0878956464634218e-18 0.0000000000000000e+00  -9.3999800351254962e-20 -9.9167561887153650e-19 0.0000000000000000e+00  3.7957208806427692e-20 4.0043955830856991e-19 0.0000000000000000e+00  -1.3366285492782460e-20 -1.4101114458262485e-19 0.0000000000000000e+00  4.1995179178918156e-21 4.4303918887332744e-20 0.0000000000000000e+00  -1.2015782174640263e-21 -1.2676365460070762e-20 0.0000000000000000e+00  3.1933893424348111e-22 3.3689500835355030e-21 0.0000000000000000e+00  -8.3555270291387599e-23 -8.8148830174705889e-22 0.0000000000000000e+00  3.7535751018992918e-23 3.9599327852264706e-22 0.0000000000000000e+00  -1.6262664571592827e-19 -1.7156725751832098e-18 0.0000000000000000e+00  1.3254917269007670e-19 1.3983623621237511e-18 0.0000000000000000e+00  -6.0154679830851974e-20 -6.3461761755202286e-19 0.0000000000000000e+00  -1.5272603911193687e-20 -1.6112235216264128e-19 0.0000000000000000e+00  6.1678528141230917e-20 6.5069385612502617e-19 0.0000000000000000e+00  -7.1514355395003055e-20 -7.5445950288757021e-19 0.0000000000000000e+00  5.7272147433313875e-20 6.0420758382254549e-19 0.0000000000000000e+00  -3.6116118605708214e-20 -3.8101649296827841e-19 0.0000000000000000e+00  1.8867665756165888e-20 1.9904940271670808e-19 0.0000000000000000e+00  -8.4082864303711392e-21 -8.8705429355479685e-20 0.0000000000000000e+00  3.2676902715739714e-21 3.4473358030917916e-20 0.0000000000000000e+00  -1.1290441094734059e-21 -1.1911147808946957e-20 0.0000000000000000e+00  3.5310251295884386e-22 3.7251478381345432e-21 0.0000000000000000e+00  -1.0188229660803753e-22 -1.0748340864904846e-21 0.0000000000000000e+00  2.8868573573739252e-23 3.0455661030873836e-22 0.0000000000000000e+00  -1.3763883440508276e-23 -1.4520570871360911e-22 0.0000000000000000e+00  2.4475384793695355e-20 2.5820950971927021e-19 0.0000000000000000e+00  -2.0310449400149013e-20 -2.1427042826887119e-19 0.0000000000000000e+00  1.0096393693473117e-20 1.0651456095578775e-19 0.0000000000000000e+00  1.0105245159042381e-21 1.0660794182004039e-20 0.0000000000000000e+00  -8.4925088918901117e-21 -8.9593956366575630e-20 0.0000000000000000e+00  1.0844828005044745e-20 1.1441036558876632e-19 0.0000000000000000e+00  -9.3712696405356191e-21 -9.8864674027641505e-20 0.0000000000000000e+00  6.3836176440461406e-21 6.7345653439084168e-20 0.0000000000000000e+00  -3.6192021224916789e-21 -3.8181724761452637e-20 0.0000000000000000e+00  1.7577537888733627e-21 1.8543885943280180e-20 0.0000000000000000e+00  -7.4609483778207953e-22 -7.8711237388763694e-21 0.0000000000000000e+00  2.8142535006061993e-22 2.9689707546679716e-21 0.0000000000000000e+00  -9.5804412256404341e-23 -1.0107138468377095e-21 0.0000000000000000e+00  2.9970089048009653e-23 3.1617733753966674e-22 0.0000000000000000e+00  -9.2061853650943546e-24 -9.7123074041232667e-23 0.0000000000000000e+00  4.6600143441630863e-24 4.9162047062118781e-23 0.0000000000000000e+00  -3.7226228666154133e-21 -3.9272789104672672e-20 0.0000000000000000e+00  3.1360470388151262e-21 3.3084553120390945e-20 0.0000000000000000e+00  -1.6746383586535190e-21 -1.7667037850060389e-20 0.0000000000000000e+00  2.7921452047367529e-23 2.9456470264188758e-22 0.0000000000000000e+00  1.1638811784664496e-21 1.2278670631593964e-20 0.0000000000000000e+00  -1.6356874374799095e-21 -1.7256114861754952e-20 0.0000000000000000e+00  1.5129846584229446e-21 1.5961629619191880e-20 0.0000000000000000e+00  -1.1022330151496313e-21 -1.1628297117171029e-20 0.0000000000000000e+00  6.7084941761820676e-22 7.0773023868157976e-21 0.0000000000000000e+00  -3.5124816513039571e-22 -3.7055849079633314e-21 0.0000000000000000e+00  1.6123753154530911e-22 1.7010177498571524e-21 0.0000000000000000e+00  -6.5862868816681858e-23 -6.9483765870111030e-22 0.0000000000000000e+00  2.4267028962055752e-23 2.5601140506889233e-22 0.0000000000000000e+00  -8.2043062221309430e-24 -8.6553486495087827e-23 0.0000000000000000e+00  2.7299769462937468e-24 2.8800609869430797e-23 0.0000000000000000e+00  -1.4653961275530194e-24 -1.5459581895417206e-23 0.0000000000000000e+00  5.7130256756119182e-22 6.0271067080152380e-21 0.0000000000000000e+00  -4.8748929358013505e-22 -5.1428965284804876e-21 0.0000000000000000e+00  2.7583619409793501e-22 2.9100064837061833e-21 0.0000000000000000e+00  -3.0063107606665148e-23 -3.1715866129116845e-22 0.0000000000000000e+00  -1.5851188213364608e-22 -1.6722627944525955e-21 0.0000000000000000e+00  2.4581006480575565e-22 2.5932379348702085e-21 0.0000000000000000e+00  -2.4195002139843179e-22 -2.5525153916251709e-21 0.0000000000000000e+00  1.8703449281873310e-22 1.9731695782677786e-21 0.0000000000000000e+00  -1.2113021395197467e-22 -1.2778950533511686e-21 0.0000000000000000e+00  6.7750734124235162e-23 7.1475419033435050e-22 0.0000000000000000e+00  -3.3338505103143007e-23 -3.5171332871846710e-22 0.0000000000000000e+00  1.4632256545850872e-23 1.5436683919935615e-22 0.0000000000000000e+00  -5.7982374977970165e-24 -6.1170031611830326e-23 0.0000000000000000e+00  2.1094656970544362e-24 2.2254363230536442e-23 0.0000000000000000e+00  -7.5861779354393059e-25 -8.0032379546388347e-24 0.0000000000000000e+00  4.3077439035344367e-25 4.5445677389894251e-24 0.0000000000000000e+00  -8.8356739749557707e-23 -9.3214266674178133e-22 0.0000000000000000e+00  7.6230713516303821e-23 8.0421596344688445e-22 0.0000000000000000e+00  -4.5249227244153587e-23 -4.7736862486012372e-22 0.0000000000000000e+00  8.3342561944228324e-24 8.7924427908934689e-23 0.0000000000000000e+00  2.1399434856757265e-23 2.2575896678266288e-22 0.0000000000000000e+00  -3.6845829459370029e-23 -3.8871476955714686e-22 0.0000000000000000e+00  3.8426201872277639e-23 4.0538732401748956e-22 0.0000000000000000e+00  -3.1323481227745229e-23 -3.3045530432682991e-22 0.0000000000000000e+00  2.1432057555524143e-23 2.2610312852415591e-22 0.0000000000000000e+00  -1.2707924914114352e-23 -1.3406559648729210e-22 0.0000000000000000e+00  6.6519305602856961e-24 7.0176291124151683e-23 0.0000000000000000e+00  -3.1142784754492683e-24 -3.2854899935308511e-23 0.0000000000000000e+00  1.3189124300305065e-24 1.3914213598331359e-23 0.0000000000000000e+00  -5.1386915407105620e-25 -5.4211978055079393e-24 0.0000000000000000e+00  1.9905984405818073e-25 2.1000341842346526e-24 0.0000000000000000e+00  -1.1917295995539177e-25 -1.2572464874914830e-24 0.0000000000000000e+00  1.3757321766120229e-23 1.4513648460371414e-22 0.0000000000000000e+00  -1.1983746553754080e-23 -1.2642568639173760e-22 0.0000000000000000e+00  7.4058807760599664e-24 7.8130287239381606e-23 0.0000000000000000e+00  -1.8281259263035129e-24 -1.9286295317306260e-23 0.0000000000000000e+00  -2.8530711372395541e-24 -3.0099224414669553e-23 0.0000000000000000e+00  5.5122916447511737e-24 5.8153370621877527e-23 0.0000000000000000e+00  -6.0722638339602255e-24 -6.4060944523201453e-23 0.0000000000000000e+00  5.1936113155196428e-24 5.4791368665150533e-23 0.0000000000000000e+00  -3.7322480683909777e-24 -3.9374332702551394e-23 0.0000000000000000e+00  2.3310369717378483e-24 2.4591887673405047e-23 0.0000000000000000e+00  -1.2894120481277111e-24 -1.3602991559868688e-23 0.0000000000000000e+00  6.3978696450710928e-25 6.7496008672645968e-24 0.0000000000000000e+00  -2.8786966216340881e-25 -3.0369567202642187e-24 0.0000000000000000e+00  1.1952925448030034e-25 1.2610053102992864e-24 0.0000000000000000e+00  -4.9676909238377254e-26 -5.2407962068544123e-25 0.0000000000000000e+00  3.1232658123372166e-26 3.2949714209775668e-25 0.0000000000000000e+00  -2.1547302545262422e-24 -2.2731893585665517e-23 0.0000000000000000e+00  1.8928280977883888e-24 1.9968887894203613e-23 0.0000000000000000e+00  -1.2107179443336695e-24 -1.2772787412733429e-23 0.0000000000000000e+00  3.6322858407545472e-25 3.8319754888718613e-24 0.0000000000000000e+00  3.7357322986880277e-25 3.9411090506538343e-24 0.0000000000000000e+00  -8.2329955168880457e-25 -8.6856151756364269e-24 0.0000000000000000e+00  9.5602812961280345e-25 1.0085870220464966e-23 0.0000000000000000e+00  -8.5451118776058625e-25 -9.0148905400714287e-24 0.0000000000000000e+00  6.418206414221