<?xml version="1.0"?>
<VTKFile type="UnstructuredGrid"  version="0.1"  >
<UnstructuredGrid>
<Piece  NumberOfPoints="431" NumberOfCells="800">
<Points>
<DataArray  type="Float64"  NumberOfComponents="3"  format="ascii">-0.75 -3 0  -0.6 -3 0  -0.45 -3 0  -0.3 -3 0  -0.15 -3 0  0 -3 0  0.15 -3 0  0.3 -3 0  0.45 -3 0  0.6000000000000001 -3 0  0.75 -3 0  -0.75 -2.85 0  -0.6 -2.85 0  -0.45 -2.85 0  -0.3 -2.85 0  -0.15 -2.85 0  0 -2.85 0  0.15 -2.85 0  0.3 -2.85 0  0.45 -2.85 0  0.6000000000000001 -2.85 0  0.75 -2.85 0  -0.75 -2.7 0  -0.6 -2.7 0  -0.45 -2.7 0  -0.3 -2.7 0  -0.15 -2.7 0  0 -2.7 0  0.15 -2.7 0  0.3 -2.7 0  0.45 -2.7 0  0.6000000000000001 -2.7 0  0.75 -2.7 0  -0.75 -2.55 0  -0.6 -2.55 0  -0.45 -2.55 0  -0.3 -2.55 0  -0.15 -2.55 0  0 -2.55 0  0.15 -2.55 0  0.3 -2.55 0  0.45 -2.55 0  0.6000000000000001 -2.55 0  0.75 -2.55 0  -0.75 -2.4 0  -0.6 -2.4 0  -0.45 -2.4 0  -0.3 -2.4 0  -0.15 -2.4 0  0 -2.4 0  0.15 -2.4 0  0.3 -2.4 0  0.45 -2.4 0  0.6000000000000001 -2.4 0  0.75 -2.4 0  -0.75 -2.25 0  -0.6 -2.25 0  -0.45 -2.25 0  -0.3 -2.25 0  -0.15 -2.25 0  0 -2.25 0  0.15 -2.25 0  0.3 -2.25 0  0.45 -2.25 0  0.6000000000000001 -2.25 0  0.75 -2.25 0  -0.75 -2.1 0  -0.6 -2.1 0  -0.45 -2.1 0  -0.3 -2.1 0  -0.15 -2.1 0  0 -2.1 0  0.15 -2.1 0  0.3 -2.1 0  0.45 -2.1 0  0.6000000000000001 -2.1 0  0.75 -2.1 0  -0.75 -1.95 0  -0.6 -1.95 0  -0.45 -1.95 0  -0.3 -1.95 0  -0.15 -1.95 0  0 -1.95 0  0.15 -1.95 0  0.3 -1.95 0  0.45 -1.95 0  0.6000000000000001 -1.95 0  0.75 -1.95 0  -0.75 -1.8 0  -0.6 -1.8 0  -0.45 -1.8 0  -0.3 -1.8 0  -0.15 -1.8 0  0 -1.8 0  0.15 -1.8 0  0.3 -1.8 0  0.45 -1.8 0  0.6000000000000001 -1.8 0  0.75 -1.8 0  -0.75 -1.65 0  -0.6 -1.65 0  -0.45 -1.65 0  -0.3 -1.65 0  -0.15 -1.65 0  0 -1.65 0  0.15 -1.65 0  0.3 -1.65 0  0.45 -1.65 0  0.6000000000000001 -1.65 0  0.75 -1.65 0  -0.75 -1.5 0  -0.6 -1.5 0  -0.45 -1.5 0  -0.3 -1.5 0  -0.15 -1.5 0  0 -1.5 0  0.15 -1.5 0  0.3 -1.5 0  0.45 -1.5 0  0.6000000000000001 -1.5 0  0.75 -1.5 0  -0.75 -1.35 0  -0.6 -1.35 0  -0.45 -1.35 0  -0.3 -1.35 0  -0.15 -1.35 0  0 -1.35 0  0.15 -1.35 0  0.3 -1.35 0  0.45 -1.35 0  0.6000000000000001 -1.35 0  0.75 -1.35 0  -0.75 -1.2 0  -0.6 -1.2 0  -0.45 -1.2 0  -0.3 -1.2 0  -0.15 -1.2 0  0 -1.2 0  0.15 -1.2 0  0.3 -1.2 0  0.45 -1.2 0  0.6000000000000001 -1.2 0  0.75 -1.2 0  -0.75 -1.05 0  -0.6 -1.05 0  -0.45 -1.05 0  -0.3 -1.05 0  -0.15 -1.05 0  0 -1.05 0  0.15 -1.05 0  0.3 -1.05 0  0.45 -1.05 0  0.6000000000000001 -1.05 0  0.75 -1.05 0  -0.75 -0.8999999999999999 0  -0.6 -0.8999999999999999 0  -0.45 -0.8999999999999999 0  -0.3 -0.8999999999999999 0  -0.15 -0.8999999999999999 0  0 -0.8999999999999999 0  0.15 -0.8999999999999999 0  0.3 -0.8999999999999999 0  0.45 -0.8999999999999999 0  0.6000000000000001 -0.8999999999999999 0  0.75 -0.8999999999999999 0  -0.75 -0.75 0  -0.6 -0.75 0  -0.45 -0.75 0  -0.3 -0.75 0  -0.15 -0.75 0  0 -0.75 0  0.15 -0.75 0  0.3 -0.75 0  0.45 -0.75 0  0.6000000000000001 -0.75 0  0.75 -0.75 0  -0.75 -0.6000000000000001 0  -0.6 -0.6000000000000001 0  -0.45 -0.6000000000000001 0  -0.3 -0.6000000000000001 0  -0.15 -0.6000000000000001 0  0 -0.6000000000000001 0  0.15 -0.6000000000000001 0  0.3 -0.6000000000000001 0  0.45 -0.6000000000000001 0  0.6000000000000001 -0.6000000000000001 0  0.75 -0.6000000000000001 0  -0.75 -0.4500000000000002 0  -0.6 -0.4500000000000002 0  -0.45 -0.4500000000000002 0  -0.3 -0.4500000000000002 0  -0.15 -0.4500000000000002 0  0 -0.4500000000000002 0  0.15 -0.4500000000000002 0  0.3 -0.4500000000000002 0  0.45 -0.4500000000000002 0  0.6000000000000001 -0.4500000000000002 0  0.75 -0.4500000000000002 0  -0.75 -0.2999999999999998 0  -0.6 -0.2999999999999998 0  -0.45 -0.2999999999999998 0  -0.3 -0.2999999999999998 0  -0.15 -0.2999999999999998 0  0 -0.2999999999999998 0  0.15 -0.2999999999999998 0  0.3 -0.2999999999999998 0  0.45 -0.2999999999999998 0  0.6000000000000001 -0.2999999999999998 0  0.75 -0.2999999999999998 0  -0.75 -0.1499999999999999 0  -0.6 -0.1499999999999999 0  -0.45 -0.1499999999999999 0  -0.3 -0.1499999999999999 0  -0.15 -0.1499999999999999 0  0 -0.1499999999999999 0  0.15 -0.1499999999999999 0  0.3 -0.1499999999999999 0  0.45 -0.1499999999999999 0  0.6000000000000001 -0.1499999999999999 0  0.75 -0.1499999999999999 0  -0.75 0 0  -0.6 0 0  -0.45 0 0  -0.3 0 0  -0.15 0 0  0 0 0  0.15 0 0  0.3 0 0  0.45 0 0  0.6000000000000001 0 0  0.75 0 0  -0.675 -2.925 0  -0.525 -2.925 0  -0.375 -2.925 0  -0.225 -2.925 0  -0.07499999999999996 -2.925 0  0.07499999999999996 -2.925 0  0.225 -2.925 0  0.375 -2.925 0  0.5249999999999999 -2.925 0  0.675 -2.925 0  -0.675 -2.775 0  -0.525 -2.775 0  -0.375 -2.775 0  -0.225 -2.775 0  -0.07499999999999996 -2.775 0  0.07499999999999996 -2.775 0  0.225 -2.775 0  0.375 -2.775 0  0.5249999999999999 -2.775 0  0.675 -2.775 0  -0.675 -2.625 0  -0.525 -2.625 0  -0.375 -2.625 0  -0.225 -2.625 0  -0.07499999999999996 -2.625 0  0.07499999999999996 -2.625 0  0.225 -2.625 0  0.375 -2.625 0  0.5249999999999999 -2.625 0  0.675 -2.625 0  -0.675 -2.475 0  -0.525 -2.475 0  -0.375 -2.475 0  -0.225 -2.475 0  -0.07499999999999996 -2.475 0  0.07499999999999996 -2.475 0  0.225 -2.475 0  0.375 -2.475 0  0.5249999999999999 -2.475 0  0.675 -2.475 0  -0.675 -2.325 0  -0.525 -2.325 0  -0.375 -2.325 0  -0.225 -2.325 0  -0.07499999999999996 -2.325 0  0.07499999999999996 -2.325 0  0.225 -2.325 0  0.375 -2.325 0  0.5249999999999999 -2.325 0  0.675 -2.325 0  -0.675 -2.175 0  -0.525 -2.175 0  -0.375 -2.175 0  -0.225 -2.175 0  -0.07499999999999996 -2.175 0  0.07499999999999996 -2.175 0  0.225 -2.175 0  0.375 -2.175 0  0.5249999999999999 -2.175 0  0.675 -2.175 0  -0.675 -2.025 0  -0.525 -2.025 0  -0.375 -2.025 0  -0.225 -2.025 0  -0.07499999999999996 -2.025 0  0.07499999999999996 -2.025 0  0.225 -2.025 0  0.375 -2.025 0  0.5249999999999999 -2.025 0  0.675 -2.025 0  -0.675 -1.875 0  -0.525 -1.875 0  -0.375 -1.875 0  -0.225 -1.875 0  -0.07499999999999996 -1.875 0  0.07499999999999996 -1.875 0  0.225 -1.875 0  0.375 -1.875 0  0.5249999999999999 -1.875 0  0.675 -1.875 0  -0.675 -1.725 0  -0.525 -1.725 0  -0.375 -1.725 0  -0.225 -1.725 0  -0.07499999999999996 -1.725 0  0.07499999999999996 -1.725 0  0.225 -1.725 0  0.375 -1.725 0  0.5249999999999999 -1.725 0  0.675 -1.725 0  -0.675 -1.575 0  -0.525 -1.575 0  -0.375 -1.575 0  -0.225 -1.575 0  -0.07499999999999996 -1.575 0  0.07499999999999996 -1.575 0  0.225 -1.575 0  0.375 -1.575 0  0.5249999999999999 -1.575 0  0.675 -1.575 0  -0.675 -1.425 0  -0.525 -1.425 0  -0.375 -1.425 0  -0.225 -1.425 0  -0.07499999999999996 -1.425 0  0.07499999999999996 -1.425 0  0.225 -1.425 0  0.375 -1.425 0  0.5249999999999999 -1.425 0  0.675 -1.425 0  -0.675 -1.275 0  -0.525 -1.275 0  -0.375 -1.275 0  -0.225 -1.275 0  -0.07499999999999996 -1.275 0  0.07499999999999996 -1.275 0  0.225 -1.275 0  0.375 -1.275 0  0.5249999999999999 -1.275 0  0.675 -1.275 0  -0.675 -1.125 0  -0.525 -1.125 0  -0.375 -1.125 0  -0.225 -1.125 0  -0.07499999999999996 -1.125 0  0.07499999999999996 -1.125 0  0.225 -1.125 0  0.375 -1.125 0  0.5249999999999999 -1.125 0  0.675 -1.125 0  -0.675 -0.9750000000000001 0  -0.525 -0.9750000000000001 0  -0.375 -0.9750000000000001 0  -0.225 -0.9750000000000001 0  -0.07499999999999996 -0.9750000000000001 0  0.07499999999999996 -0.9750000000000001 0  0.225 -0.9750000000000001 0  0.375 -0.9750000000000001 0  0.5249999999999999 -0.9750000000000001 0  0.675 -0.9750000000000001 0  -0.675 -0.8250000000000002 0  -0.525 -0.8250000000000002 0  -0.375 -0.8250000000000002 0  -0.225 -0.8250000000000002 0  -0.07499999999999996 -0.8250000000000002 0  0.07499999999999996 -0.8250000000000002 0  0.225 -0.8250000000000002 0  0.375 -0.8250000000000002 0  0.5249999999999999 -0.8250000000000002 0  0.675 -0.8250000000000002 0  -0.675 -0.6749999999999998 0  -0.525 -0.6749999999999998 0  -0.375 -0.6749999999999998 0  -0.225 -0.6749999999999998 0  -0.07499999999999996 -0.6749999999999998 0  0.07499999999999996 -0.6749999999999998 0  0.225 -0.6749999999999998 0  0.375 -0.6749999999999998 0  0.5249999999999999 -0.6749999999999998 0  0.675 -0.6749999999999998 0  -0.675 -0.5249999999999999 0  -0.525 -0.5249999999999999 0  -0.375 -0.5249999999999999 0  -0.225 -0.5249999999999999 0  -0.07499999999999996 -0.5249999999999999 0  0.07499999999999996 -0.5249999999999999 0  0.225 -0.5249999999999999 0  0.375 -0.5249999999999999 0  0.5249999999999999 -0.5249999999999999 0  0.675 -0.5249999999999999 0  -0.675 -0.375 0  -0.525 -0.375 0  -0.375 -0.375 0  -0.225 -0.375 0  -0.07499999999999996 -0.375 0  0.07499999999999996 -0.375 0  0.225 -0.375 0  0.375 -0.375 0  0.5249999999999999 -0.375 0  0.675 -0.375 0  -0.675 -0.2250000000000001 0  -0.525 -0.2250000000000001 0  -0.375 -0.2250000000000001 0  -0.225 -0.2250000000000001 0  -0.07499999999999996 -0.2250000000000001 0  0.07499999999999996 -0.2250000000000001 0  0.225 -0.2250000000000001 0  0.375 -0.2250000000000001 0  0.5249999999999999 -0.2250000000000001 0  0.675 -0.2250000000000001 0  -0.675 -0.07500000000000018 0  -0.525 -0.07500000000000018 0  -0.375 -0.07500000000000018 0  -0.225 -0.07500000000000018 0  -0.07499999999999996 -0.07500000000000018 0  0.07499999999999996 -0.07500000000000018 0  0.225 -0.07500000000000018 0  0.375 -0.07500000000000018 0  0.5249999999999999 -0.07500000000000018 0  0.675 -0.07500000000000018 0  </DataArray>
</Points>
<Cells>
[...]
<PointData  Vectors="flow"> 
<DataArray  type="Float64"  Name="flow"  NumberOfComponents="3" format="ascii">-6.8644430717970954e-04 -7.7352121977541239e+00 0.0000000000000000e+00  -3.1023219028259417e-04 -3.4958579994191155e+00 0.0000000000000000e+00  2.8618956082693331e-05 3.2249331207562026e-01 0.0000000000000000e+00  -3.7381047155759893e-06 -4.2122912070178646e-02 0.0000000000000000e+00  5.3723146450401755e-07 6.0538041233414450e-03 0.0000000000000000e+00  -8.0834699881098338e-08 -9.1088752573538414e-04 0.0000000000000000e+00  1.2496207408795765e-08 1.4081377755366378e-04 0.0000000000000000e+00  -1.9665782656267834e-09 -2.2160428790812317e-05 0.0000000000000000e+00  3.1363243708828588e-10 3.5341737524841001e-06 0.0000000000000000e+00  -5.1754917979083508e-11 -5.8320138816558683e-07 0.0000000000000000e+00  1.6343153486623853e-11 1.8416317081700964e-07 0.0000000000000000e+00  1.3999797019732845e-04 1.5775700889419555e+00 0.0000000000000000e+00  4.9505998156524321e-05 5.5785938756731146e-01 0.0000000000000000e+00  -1.7211620437856763e-05 -1.9394950903011746e-01 0.0000000000000000e+00  2.7658511272987167e-06 3.1167051941843854e-02 0.0000000000000000e+00  -4.3395577841233261e-07 -4.8900398697343615e-03 0.0000000000000000e+00  6.8538403475781537e-08 7.7232644955370637e-04 0.0000000000000000e+00  -1.0925541058668401e-08 -1.2311469055850213e-04 0.0000000000000000e+00  1.7561399832973713e-09 1.9789100554386652e-05 0.0000000000000000e+00  -2.8443484762779124e-10 -3.2051600979492552e-06 0.0000000000000000e+00  4.7511257077185148e-11 5.3538160551437332e-07 0.0000000000000000e+00  -1.5135899350098343e-11 -1.7055920203910775e-07 0.0000000000000000e+00  -6.6859528439915081e-06 -7.5340801069404967e-02 0.0000000000000000e+00  1.1353865012870182e-06 1.2794126809797404e-02 0.0000000000000000e+00  3.1082214467638795e-06 3.5025059129865567e-02 0.0000000000000000e+00  -1.0924101365460430e-06 -1.2309846734513016e-02 0.0000000000000000e+00  2.2724043362058456e-07 2.5606636337137060e-03 0.0000000000000000e+00  -4.1689385743986529e-08 -4.6977772522970013e-04 0.0000000000000000e+00  7.2963815963135932e-09 8.2219430379073695e-05 0.0000000000000000e+00  -1.2502208236272281e-09 -1.4088139800503537e-05 0.0000000000000000e+00  2.1214809902835315e-10 2.3905953420702693e-06 0.0000000000000000e+00  -3.6758173362676127e-11 -4.1421025418700944e-07 0.0000000000000000e+00  1.2023831918622990e-11 1.3549080434915594e-07 0.0000000000000000e+00  6.0022122096163660e-07 6.7636055265847539e-03 0.0000000000000000e+00  -2.4037355154163690e-07 -2.7086544508491055e-03 0.0000000000000000e+00  -2.1996252888677396e-07 -2.4786524102506395e-03 0.0000000000000000e+00  2.2151157310218194e-07 2.4961078477632806e-03 0.0000000000000000e+00  -7.6295916562624281e-08 -8.5974214988942751e-04 0.0000000000000000e+00  1.8128602969725635e-08 2.0428254609000901e-04 0.0000000000000000e+00  -3.7179214731876659e-09 -4.1895476776332564e-05 0.0000000000000000e+00  7.0940006903658931e-10 7.9938896858865822e-06 0.0000000000000000e+00  -1.3014618672672402e-10 -1.4665550584807857e-06 0.0000000000000000e+00  2.3975400693909794e-11 2.7016730993884118e-07 0.0000000000000000e+00  -8.1947430141763934e-12 -9.2342635021842751e-08 0.0000000000000000e+00  -6.5975805533898262e-08 -7.4344976043170673e-04 0.0000000000000000e+00  3.5034839567212093e-08 3.9479083085426506e-04 0.0000000000000000e+00  1.4607825453889071e-08 1.6460859016783160e-04 0.0000000000000000e+00  -2.9027425581221954e-08 -3.2709615926130187e-04 0.0000000000000000e+00  1.6862325869404537e-08 1.9001347579589682e-04 0.0000000000000000e+00  -5.6728447584329689e-09 -6.3924571174145395e-05 0.0000000000000000e+00  1.4496049895516079e-09 1.6334904492360075e-05 0.0000000000000000e+00  -3.2137067395302820e-10 -3.6213722383032772e-06 0.0000000000000000e+00  6.5748933141642819e-11 7.4089324407990223e-07 0.0000000000000000e+00  -1.3198553604351163e-11 -1.4872818051699699e-07 0.0000000000000000e+00  4.7950419249996038e-12 5.4033031374953340e-08 0.0000000000000000e+00  8.0472366069842848e-09 9.0680455951777913e-05 0.0000000000000000e+00  -4.9495892298945086e-09 -5.5774550949738229e-05 0.0000000000000000e+00  -7.1266250298943856e-10 -8.0306524919037720e-06 0.0000000000000000e+00  3.4951255706973836e-09 3.9384896435688431e-05 0.0000000000000000e+00  -2.8431083294815806e-09 -3.2037626359081780e-05 0.0000000000000000e+00  1.3312322372006688e-09 1.5001018628219616e-05 0.0000000000000000e+00  -4.3917473906477183e-10 -4.9488498382578238e-06 0.0000000000000000e+00  1.1708114220527422e-10 1.3193313278889590e-06 0.0000000000000000e+00  -2.7466203835399168e-11 -3.0950349898955471e-07 0.0000000000000000e+00  6.1502797912225581e-12 6.9304557941669628e-08 0.0000000000000000e+00  -2.4130562419833711e-12 -2.7191575312999019e-08 0.0000000000000000e+00  -1.0464916338090015e-09 -1.1792413114976601e-05 0.0000000000000000e+00  7.0499730307183934e-10 7.9442770244686337e-06 0.0000000000000000e+00  -2.5204774670753353e-11 -2.8402053660533004e-07 0.0000000000000000e+00  -4.1064733272391617e-10 -4.6273881563849119e-06 0.0000000000000000e+00  4.3088193807025915e-10 4.8554022348100646e-06 0.0000000000000000e+00  -2.5698432235984949e-10 -2.8958332732287897e-06 0.0000000000000000e+00  1.0746554591401300e-10 1.2109777776549546e-06 0.0000000000000000e+00  -3.4925109324649323e-11 -3.9355433329451200e-07 0.0000000000000000e+00  9.5790607847190723e-12 1.0794184910559541e-07 0.0000000000000000e+00  -2.4405386634315508e-12 -2.7501261560501295e-08 0.0000000000000000e+00  1.0480936125397660e-12 1.1810465046195416e-08 0.0000000000000000e+00  1.4215589711017855e-10 1.6018867340121437e-06 0.0000000000000000e+00  -1.0190653319338611e-10 -1.1483359252070384e-06 0.0000000000000000e+00  1.6810141771198313e-11 1.8942543818126205e-07 0.0000000000000000e+00  4.7631719868786445e-11 5.3673904303002313e-07 0.0000000000000000e+00  -6.2295717638489454e-11 -7.0198061212697615e-07 0.0000000000000000e+00  4.4633333792752971e-11 5.0295166609889162e-07 0.0000000000000000e+00  -2.2556129935558597e-11 -2.5417422737250904e-07 0.0000000000000000e+00  8.8079710240122743e-12 9.9252807824026391e-08 0.0000000000000000e+00  -2.8385483984147469e-12 -3.1986242679386033e-08 0.0000000000000000e+00  8.3350850783566252e-13 9.3924082541110720e-09 0.0000000000000000e+00  -3.9538870765203636e-13 -4.4554460169535463e-09 0.0000000000000000e+00  -1.9931769996935425e-11 -2.2460157188361910e-07 0.0000000000000000e+00  1.4948786277950575e-11 1.6845071442707819e-07 0.0000000000000000e+00  -3.9304944757858570e-12 -4.4290860153268737e-08 0.0000000000000000e+00  -5.4349519745990257e-12 -6.1243871306693158e-08 0.0000000000000000e+00  8.8057662706869181e-12 9.9227963514536257e-08 0.0000000000000000e+00  -7.3079708143682226e-12 -8.2350023727901903e-08 0.0000000000000000e+00  4.2918144455916526e-12 4.8362401877049517e-08 0.0000000000000000e+00  -1.9569053440336102e-12 -2.2051429269200958e-08 0.0000000000000000e+00  7.3338152270724439e-13 8.2641252039219418e-09 0.0000000000000000e+00  -2.4895814494992642e-13 -2.8053901232846210e-09 0.0000000000000000e+00  1.3083447053593789e-13 1.4743109991461293e-09 0.0000000000000000e+00  2.8627039741198986e-12 3.2258440295250795e-08 0.0000000000000000e+00  -2.2220731235106082e-12 -2.5039478002082159e-08 0.0000000000000000e+00  7.5553134788373735e-13 8.5137209775211995e-09 0.0000000000000000e+00  6.0205597097337945e-13 6.7842804459077421e-09 0.0000000000000000e+00  -1.2305155000437783e-12 -1.3866089944820952e-08 0.0000000000000000e+00  1.1560340917201937e-12 1.3026794619410571e-08 0.0000000000000000e+00  -7.6692252671513544e-13 -8.6420827171726687e-09 0.0000000000000000e+00  3.9760832672982535e-13 4.4804578414894975e-09 0.0000000000000000e+00  -1.7019813417064335e-13 -1.9178812755848125e-09 0.0000000000000000e+00  6.6374734087245964e-14 7.4794509527477053e-10 0.0000000000000000e+00  -3.8494348028333399e-14 -4.3377437513718609e-10 0.0000000000000000e+00  -4.1900692818522686e-13 -4.7215884346948777e-09 0.0000000000000000e+00  3.3414618758614509e-13 3.7653333839546595e-09 0.0000000000000000e+00  -1.3444048230979248e-13 -1.5149454191079838e-09 0.0000000000000000e+00  -6.3006971458800566e-14 -7.0999539084831763e-10 0.0000000000000000e+00  1.7084967822762251e-13 1.9252232135748378e-09 0.0000000000000000e+00  -1.7909221758351506e-13 -2.0181044426844805e-09 0.0000000000000000e+00  1.3152205623792026e-13 1.4820590731753641e-09 0.0000000000000000e+00  -7.5904531479254251e-14 -8.5533181879739687e-10 0.0000000000000000e+00  3.6454051101004736e-14 4.1078324604740678e-10 0.0000000000000000e+00  -1.6142467064581567e-14 -1.8190173162453830e-10 0.0000000000000000e+00  1.0236321671729434e-14 1.1534820731577175e-10 0.0000000000000000e+00  6.2272335353060288e-14 7.0171712834894591e-10 0.0000000000000000e+00  -5.0755186437323015e-14 -5.7193589213710754e-10 0.0000000000000000e+00  2.3034154169470071e-14 2.5956085356534008e-10 0.0000000000000000e+00  5.8482706614649981e-15 6.5901361673742568e-11 0.0000000000000000e+00  -2.3618327750497488e-14 -2.6614362592182506e-10 0.0000000000000000e+00  2.7386623345211593e-14 3.0860674455228473e-10 0.0000000000000000e+00  -2.1940838767115541e-14 -2.4724080582391272e-10 0.0000000000000000e+00  1.3868303776498325e-14 1.5627527450095870e-10 0.0000000000000000e+00  -7.3599060757281108e-15 -8.2935257319269417e-11 0.0000000000000000e+00  3.6519886541491905e-15 4.1152511410133961e-11 0.0000000000000000e+00  -2.5024985053203590e-15 -2.8199457349637264e-11 0.0000000000000000e+00  -9.3720141742115066e-15 -1.0560873999484785e-10 0.0000000000000000e+00  7.7771921226159149e-15 8.7637453966657575e-11 0.0000000000000000e+00  -3.8660571132326763e-15 -4.3564746370112293e-11 0.0000000000000000e+00  -3.8700190256394371e-16 -4.3609391263885633e-12 0.0000000000000000e+00  3.2521458316390918e-15 3.6646874105671835e-11 0.0000000000000000e+00  -4.1535499371745549e-15 -4.6804365338850915e-11 0.0000000000000000e+00  3.5917052921383726e-15 4.0473207069970471e-11 0.0000000000000000e+00  -2.4558091757548284e-15 -2.7673337651676536e-11 0.0000000000000000e+00  1.4225221151847014e-15 1.6029720549595897e-11 0.0000000000000000e+00  -7.8083110712277392e-16 -8.7988118497437150e-12 0.0000000000000000e+00  5.7138192275290868e-16 6.4386292846003951e-12 0.0000000000000000e+00  1.4254511713665026e-15 1.6062726681147130e-11 0.0000000000000000e+00  -1.2008412319794575e-15 -1.3531704827354360e-11 0.0000000000000000e+00  6.4124082585527894e-16 7.2258358121325794e-12 0.0000000000000000e+00  -1.0671731922748204e-17 -1.2025463694083988e-13 0.0000000000000000e+00  -4.4574522072096697e-16 -5.0228894498046576e-12 0.0000000000000000e+00  6.2661138922675360e-16 7.0609836959861628e-12 0.0000000000000000e+00  -5.8031478612187556e-16 -6.5392894444557446e-12 0.0000000000000000e+00  4.2518433660411547e-16 4.7911986921513340e-12 0.0000000000000000e+00  -2.6616625131859632e-16 -2.9993000339517643e-12 0.0000000000000000e+00  1.5971723807136931e-16 1.7997770761580789e-12 0.0000000000000000e+00  -1.2348030675424771e-16 -1.3914404489887093e-12 0.0000000000000000e+00  -2.1876066307197761e-16 -2.4651091598901399e-12 0.0000000000000000e+00  1.8666697527274416e-16 2.1034607599558498e-12 0.0000000000000000e+00  -1.0562035468780605e-16 -1.1901852012858877e-12 0.0000000000000000e+00  1.1505064977733268e-17 1.2964506810079422e-13 0.0000000000000000e+00  6.0720677540646038e-17 6.8423223946314616e-13 0.0000000000000000e+00  -9.4207072458831559e-17 -1.0615743890312226e-12 0.0000000000000000e+00  9.2913064078546878e-17 1.0469928282221627e-12 0.0000000000000000e+00  -7.2419661928741483e-17 -8.1606249254213332e-13 0.0000000000000000e+00  4.8601203265539018e-17 5.4766368719655640e-13 0.0000000000000000e+00  -3.1545305862909988e-17 -3.5546894648335270e-13 0.0000000000000000e+00  2.5531482678137112e-17 2.8770205269831405e-13 0.0000000000000000e+00  3.3833130533500261e-17 3.8124934718473056e-13 0.0000000000000000e+00  -2.9189798582737575e-17 -3.2892586286401624e-13 0.0000000000000000e+00  1.7326083237594187e-17 1.9523933551051421e-13 0.0000000000000000e+00  -3.1892700869232763e-18 -3.5938357446153016e-14 0.0000000000000000e+00  -8.2012273090380837e-18 -9.2415703435672476e-14 0.0000000000000000e+00  1.4131672898798951e-17 1.5924305502739594e-13 0.0000000000000000e+00  -1.4783187205910435e-17 -1.6658465778040802e-13 0.0000000000000000e+00  1.2188980038925270e-17 1.3735177943662805e-13 0.0000000000000000e+00  -8.7111413841243730e-18 -9.8161680978438199e-14 0.0000000000000000e+00  6.0584157319376095e-18 6.8269385846156730e-14 0.0000000000000000e+00  -5.0941852105448014e-18 -5.7403933816744165e-14 0.0000000000000000e+00  -5.2678742863984213e-18 -5.9361152842537342e-14 0.0000000000000000e+00  4.5887176724091454e-18 5.1708062169676802e-14 0.0000000000000000e+00  -2.8356548379758162e-18 -3.1953636532364253e-14 0.0000000000000000e+00  6.9941633886574852e-19 7.8813878112423578e-15 0.0000000000000000e+00  1.0944440415942141e-18 1.2332765836577302e-14 0.0000000000000000e+00  -2.1167247226021878e-18 -2.3852357317712706e-14 0.0000000000000000e+00  2.3422321128194307e-18 2.6393492115171898e-14 0.0000000000000000e+00  -2.0338843971363731e-18 -2.2918869357645282e-14 0.0000000000000000e+00  1.5391918011773285e-18 1.7344415374447945e-14 0.0000000000000000e+00  -1.1375248915364995e-18 -1.2818223305563111e-14 0.0000000000000000e+00  9.8744805116844564e-19 1.1127079254875466e-14 0.0000000000000000e+00  8.2508554077125215e-19 9.2974938715508962e-15 0.0000000000000000e+00  -7.2479000775056105e-19 -8.1673115358719172e-15 0.0000000000000000e+00  4.6356008586562295e-19 5.2236366345754828e-15 0.0000000000000000e+00  -1.3892211644209731e-19 -1.5654468081405529e-15 0.0000000000000000e+00  -1.4356452567469783e-19 -1.6177598947921386e-15 0.0000000000000000e+00  3.1675203230597414e-19 3.5693269771922521e-15 0.0000000000000000e+00  -3.7011102120092734e-19 -4.1706038724087691e-15 0.0000000000000000e+00  3.3727949521405616e-19 3.8006411272475057e-15 0.0000000000000000e+00  -2.6895661231056593e-19 -3.0307432758221779e-15 0.0000000000000000e+00  2.0968059667265694e-19 2.3627902395730478e-15 0.0000000000000000e+00  -1.8694139413017397e-19 -2.1065530546563573e-15 0.0000000000000000e+00  -1.2998559046957668e-19 -1.4647453761595743e-15 0.0000000000000000e+00  1.1504000601928331e-19 1.2963307415951885e-15 0.0000000000000000e+00  -7.5798892041315256e-20 -8.5414141855609045e-16 0.0000000000000000e+00  2.6176678523697986e-20 2.9497245573367046e-16 0.0000000000000000e+00  1.8367583204932319e-20 2.0697549992626141e-16 0.0000000000000000e+00  -4.7391932352755968e-20 -5.3403699233273027e-16 0.0000000000000000e+00  5.8428763287572125e-20 6.5840575521503299e-16 0.0000000000000000e+00  -5.5722734280593340e-20 -6.2791281010160101e-16 0.0000000000000000e+00  4.6623658852333334e-20 5.2537968613975336e-16 0.0000000000000000e+00  -3.8102017909636928e-20 -4.2935339489458550e-16 0.0000000000000000e+00  3.4743363862541645e-20 3.9150633070977572e-16 0.0000000000000000e+00  2.1068031514700675e-20 2.3740555883511317e-16 0.0000000000000000e+00  -1.8774674498991936e-20 -2.1156281678572638e-16 0.0000000000000000e+00  1.2708180867462700e-20 1.4320240495712669e-16 0.0000000000000000e+00  -4.9122759130403838e-21 -5.5354085049373239e-17 0.0000000000000000e+00  -2.2881447778869556e-21 -2.5784007837222839e-17 0.0000000000000000e+00  7.2388412239821014e-21 8.1571035476142019e-17 0.0000000000000000e+00  -9.4359741787322844e-21 -1.0632947465891732e-16 0.0000000000000000e+00  9.4116792819873249e-21 1.0605570710096802e-16 0.0000000000000000e+00  -8.2457588944877774e-21 -9.2917508548415058e-17 0.0000000000000000e+00  7.0364299060637739e-21 7.9290159257999761e-17 0.0000000000000000e+00  -6.5446375474137957e-21 -7.3748386660276570e-17 0.0000000000000000e+00  -6.5275252165822966e-21 -7.3555555998276179e-17 0.0000000000000000e+00  5.8499705023835187e-21 6.5920516367094396e-17 0.0000000000000000e+00  -4.0465004366398013e-21 -4.5598075777353901e-17 0.0000000000000000e+00  1.6977234636160551e-21 1.9130832766507724e-17 0.0000000000000000e+00  5.2295986167152038e-22 5.8929842648958622e-18 0.0000000000000000e+00  -2.1163066603017169e-21 -2.3847646373835401e-17 0.0000000000000000e+00  2.9035319779691013e-21 3.2718511520375877e-17 0.0000000000000000e+00  -3.0106721678317230e-21 -3.3925823016482566e-17 0.0000000000000000e+00  2.7407867344803406e-21 3.0884613301111974e-17 0.0000000000000000e+00  -2.4207151378664292e-21 -2.7277879743287589e-17 0.0000000000000000e+00  2.2859689416205703e-21 2.5759489380223407e-17 0.0000000000000000e+00  -2.1694439843120098e-04 -2.4446425433609598e+00 0.0000000000000000e+00  6.2329714120308466e-05 7.0236370220157707e-01 0.0000000000000000e+00  -2.6087705141398425e-06 -2.9396985729292207e-02 0.0000000000000000e+00  2.1724447554639934e-07 2.4480239686819538e-03 0.0000000000000000e+00  -2.2744847421592392e-08 -2.5630079435635537e-04 0.0000000000000000e+00  2.6814075137974113e-09 3.0215497296629621e-05 0.0000000000000000e+00  -3.4005701694949555e-10 -3.8319396896840841e-06 0.0000000000000000e+00  4.5310173217230689e-11 5.1057864547272026e-07 0.0000000000000000e+00  -6.2384821396492753e-12 -7.0298467970910178e-08 0.0000000000000000e+00  7.5910169134323837e-13 8.5539534683282371e-09 0.0000000000000000e+00  -4.5988350502787162e-05 -5.1822070056241598e-01 0.0000000000000000e+00  -9.1344964166796297e-06 -1.0293226611921440e-01 0.0000000000000000e+00  3.1074895000850602e-06 3.5016811173230349e-02 0.0000000000000000e+00  -3.6668141149023285e-07 -4.1319572428275622e-03 0.0000000000000000e+00  4.4966581764988506e-08 5.0670687792416522e-04 0.0000000000000000e+00  -5.8049645673600883e-09 -6.5413366036144868e-05 0.0000000000000000e+00  7.8081007567117242e-10 8.7985748563863980e-06 0.0000000000000000e+00  -1.0840810276767736e-10 -1.2215989995010449e-06 0.0000000000000000e+00  1.5383416221232428e-11 1.7334835113790737e-07 0.0000000000000000e+00  -1.9102540707584406e-12 -2.1525738409353282e-08 0.0000000000000000e+00  1.2976796683211229e-06 1.4622930795967982e-02 0.0000000000000000e+00  -9.4581796690562250e-07 -1.0657969769640816e-02 0.0000000000000000e+00  -5.0434008860831156e-07 -5.6831669582163040e-03 0.0000000000000000e+00  1.7998851159647540e-07 2.0282043507313663e-03 0.0000000000000000e+00  -3.1845933570924891e-08 -3.5885657617114715e-04 0.0000000000000000e+00  4.9955806627837439e-09 5.6292806384237510e-05 0.0000000000000000e+00  -7.5940984213382249e-10 -8.5574258720310483e-06 0.0000000000000000e+00  1.1470471057225258e-10 1.2925524577568694e-06 0.0000000000000000e+00  -1.7304784908215704e-11 -1.9499933483532881e-07 0.0000000000000000e+00  2.2384209410799377e-12 2.5223693730213776e-08 0.0000000000000000e+00  -8.2226675863328231e-08 -9.2657303653955023e-04 0.0000000000000000e+00  1.0267335385182732e-07 1.1569768600194108e-03 0.0000000000000000e+00  3.2176389779812439e-09 3.6258032895207545e-05 0.0000000000000000e+00  -3.3262639206935051e-08 -3.7482075360211186e-04 0.0000000000000000e+00  1.1744458120481761e-08 1.3234267479441663e-04 0.0000000000000000e+00  -2.5468604319141457e-09 -2.8699350657972715e-05 0.0000000000000000e+00  4.7007177213812296e-10 5.2970137090972791e-06 0.0000000000000000e+00  -8.0908035374619713e-11 -9.1171390829560237e-07 0.0000000000000000e+00  1.3405101623880586e-11 1.5105567124475917e-07 0.0000000000000000e+00  -1.8442865000954537e-12 -2.0782381443738627e-08 0.0000000000000000e+00  6.9608296473990825e-09 7.8438256143850335e-05 0.0000000000000000e+00  -1.0995103322054291e-08 -1.2389855439511353e-04 0.0000000000000000e+00  2.9092842649062279e-09 3.2783331287421345e-05 0.0000000000000000e+00  2.8782706176504039e-09 3.2433853347199597e-05 0.0000000000000000e+00  -2.4194012546726632e-09 -2.7263074222722315e-05 0.0000000000000000e+00  8.3279556768636411e-10 9.3843744729558606e-06 0.0000000000000000e+00  -2.0153517968477002e-10 -2.2710034359219778e-06 0.0000000000000000e+00  4.1501700610377496e-11 4.6766279133099163e-07 0.0000000000000000e+00  -7.8086138732787329e-12 -8.7991530628754728e-08 0.0000000000000000e+00  1.16657203