<?xml version="1.0"?>
<VTKFile type="UnstructuredGrid"  version="0.1"  >
<UnstructuredGrid>
<Piece  NumberOfPoints="1876" NumberOfCells="3600">
<Points>
<DataArray  type="Float64"  NumberOfComponents="3"  format="ascii">-0.75 -3 0  -0.65 -3 0  -0.55 -3 0  -0.45 -3 0  -0.35 -3 0  -0.25 -3 0  -0.15 -3 0  -0.05000000000000004 -3 0  0.05000000000000004 -3 0  0.15 -3 0  0.25 -3 0  0.3500000000000001 -3 0  0.45 -3 0  0.55 -3 0  0.6499999999999999 -3 0  0.75 -3 0  -0.75 -2.95 0  -0.65 -2.95 0  -0.55 -2.95 0  -0.45 -2.95 0  -0.35 -2.95 0  -0.25 -2.95 0  -0.15 -2.95 0  -0.05000000000000004 -2.95 0  0.05000000000000004 -2.95 0  0.15 -2.95 0  0.25 -2.95 0  0.3500000000000001 -2.95 0  0.45 -2.95 0  0.55 -2.95 0  0.6499999999999999 -2.95 0  0.75 -2.95 0  -0.75 -2.9 0  -0.65 -2.9 0  -0.55 -2.9 0  -0.45 -2.9 0  -0.35 -2.9 0  -0.25 -2.9 0  -0.15 -2.9 0  -0.05000000000000004 -2.9 0  0.05000000000000004 -2.9 0  0.15 -2.9 0  0.25 -2.9 0  0.3500000000000001 -2.9 0  0.45 -2.9 0  0.55 -2.9 0  0.6499999999999999 -2.9 0  0.75 -2.9 0  -0.75 -2.85 0  -0.65 -2.85 0  -0.55 -2.85 0  -0.45 -2.85 0  -0.35 -2.85 0  -0.25 -2.85 0  -0.15 -2.85 0  -0.05000000000000004 -2.85 0  0.05000000000000004 -2.85 0  0.15 -2.85 0  0.25 -2.85 0  0.3500000000000001 -2.85 0  0.45 -2.85 0  0.55 -2.85 0  0.6499999999999999 -2.85 0  0.75 -2.85 0  -0.75 -2.8 0  -0.65 -2.8 0  -0.55 -2.8 0  -0.45 -2.8 0  -0.35 -2.8 0  -0.25 -2.8 0  -0.15 -2.8 0  -0.05000000000000004 -2.8 0  0.05000000000000004 -2.8 0  0.15 -2.8 0  0.25 -2.8 0  0.3500000000000001 -2.8 0  0.45 -2.8 0  0.55 -2.8 0  0.6499999999999999 -2.8 0  0.75 -2.8 0  -0.75 -2.75 0  -0.65 -2.75 0  -0.55 -2.75 0  -0.45 -2.75 0  -0.35 -2.75 0  -0.25 -2.75 0  -0.15 -2.75 0  -0.05000000000000004 -2.75 0  0.05000000000000004 -2.75 0  0.15 -2.75 0  0.25 -2.75 0  0.3500000000000001 -2.75 0  0.45 -2.75 0  0.55 -2.75 0  0.6499999999999999 -2.75 0  0.75 -2.75 0  -0.75 -2.7 0  -0.65 -2.7 0  -0.55 -2.7 0  -0.45 -2.7 0  -0.35 -2.7 0  -0.25 -2.7 0  -0.15 -2.7 0  -0.05000000000000004 -2.7 0  0.05000000000000004 -2.7 0  0.15 -2.7 0  0.25 -2.7 0  0.3500000000000001 -2.7 0  0.45 -2.7 0  0.55 -2.7 0  0.6499999999999999 -2.7 0  0.75 -2.7 0  -0.75 -2.65 0  -0.65 -2.65 0  -0.55 -2.65 0  -0.45 -2.65 0  -0.35 -2.65 0  -0.25 -2.65 0  -0.15 -2.65 0  -0.05000000000000004 -2.65 0  0.05000000000000004 -2.65 0  0.15 -2.65 0  0.25 -2.65 0  0.3500000000000001 -2.65 0  0.45 -2.65 0  0.55 -2.65 0  0.6499999999999999 -2.65 0  0.75 -2.65 0  -0.75 -2.6 0  -0.65 -2.6 0  -0.55 -2.6 0  -0.45 -2.6 0  -0.35 -2.6 0  -0.25 -2.6 0  -0.15 -2.6 0  -0.05000000000000004 -2.6 0  0.05000000000000004 -2.6 0  0.15 -2.6 0  0.25 -2.6 0  0.3500000000000001 -2.6 0  0.45 -2.6 0  0.55 -2.6 0  0.6499999999999999 -2.6 0  0.75 -2.6 0  -0.75 -2.55 0  -0.65 -2.55 0  -0.55 -2.55 0  -0.45 -2.55 0  -0.35 -2.55 0  -0.25 -2.55 0  -0.15 -2.55 0  -0.05000000000000004 -2.55 0  0.05000000000000004 -2.55 0  0.15 -2.55 0  0.25 -2.55 0  0.3500000000000001 -2.55 0  0.45 -2.55 0  0.55 -2.55 0  0.6499999999999999 -2.55 0  0.75 -2.55 0  -0.75 -2.5 0  -0.65 -2.5 0  -0.55 -2.5 0  -0.45 -2.5 0  -0.35 -2.5 0  -0.25 -2.5 0  -0.15 -2.5 0  -0.05000000000000004 -2.5 0  0.05000000000000004 -2.5 0  0.15 -2.5 0  0.25 -2.5 0  0.3500000000000001 -2.5 0  0.45 -2.5 0  0.55 -2.5 0  0.6499999999999999 -2.5 0  0.75 -2.5 0  -0.75 -2.45 0  -0.65 -2.45 0  -0.55 -2.45 0  -0.45 -2.45 0  -0.35 -2.45 0  -0.25 -2.45 0  -0.15 -2.45 0  -0.05000000000000004 -2.45 0  0.05000000000000004 -2.45 0  0.15 -2.45 0  0.25 -2.45 0  0.3500000000000001 -2.45 0  0.45 -2.45 0  0.55 -2.45 0  0.6499999999999999 -2.45 0  0.75 -2.45 0  -0.75 -2.4 0  -0.65 -2.4 0  -0.55 -2.4 0  -0.45 -2.4 0  -0.35 -2.4 0  -0.25 -2.4 0  -0.15 -2.4 0  -0.05000000000000004 -2.4 0  0.05000000000000004 -2.4 0  0.15 -2.4 0  0.25 -2.4 0  0.3500000000000001 -2.4 0  0.45 -2.4 0  0.55 -2.4 0  0.6499999999999999 -2.4 0  0.75 -2.4 0  -0.75 -2.35 0  -0.65 -2.35 0  -0.55 -2.35 0  -0.45 -2.35 0  -0.35 -2.35 0  -0.25 -2.35 0  -0.15 -2.35 0  -0.05000000000000004 -2.35 0  0.05000000000000004 -2.35 0  0.15 -2.35 0  0.25 -2.35 0  0.3500000000000001 -2.35 0  0.45 -2.35 0  0.55 -2.35 0  0.6499999999999999 -2.35 0  0.75 -2.35 0  -0.75 -2.3 0  -0.65 -2.3 0  -0.55 -2.3 0  -0.45 -2.3 0  -0.35 -2.3 0  -0.25 -2.3 0  -0.15 -2.3 0  -0.05000000000000004 -2.3 0  0.05000000000000004 -2.3 0  0.15 -2.3 0  0.25 -2.3 0  0.3500000000000001 -2.3 0  0.45 -2.3 0  0.55 -2.3 0  0.6499999999999999 -2.3 0  0.75 -2.3 0  -0.75 -2.25 0  -0.65 -2.25 0  -0.55 -2.25 0  -0.45 -2.25 0  -0.35 -2.25 0  -0.25 -2.25 0  -0.15 -2.25 0  -0.05000000000000004 -2.25 0  0.05000000000000004 -2.25 0  0.15 -2.25 0  0.25 -2.25 0  0.3500000000000001 -2.25 0  0.45 -2.25 0  0.55 -2.25 0  0.6499999999999999 -2.25 0  0.75 -2.25 0  -0.75 -2.2 0  -0.65 -2.2 0  -0.55 -2.2 0  -0.45 -2.2 0  -0.35 -2.2 0  -0.25 -2.2 0  -0.15 -2.2 0  -0.05000000000000004 -2.2 0  0.05000000000000004 -2.2 0  0.15 -2.2 0  0.25 -2.2 0  0.3500000000000001 -2.2 0  0.45 -2.2 0  0.55 -2.2 0  0.6499999999999999 -2.2 0  0.75 -2.2 0  -0.75 -2.15 0  -0.65 -2.15 0  -0.55 -2.15 0  -0.45 -2.15 0  -0.35 -2.15 0  -0.25 -2.15 0  -0.15 -2.15 0  -0.05000000000000004 -2.15 0  0.05000000000000004 -2.15 0  0.15 -2.15 0  0.25 -2.15 0  0.3500000000000001 -2.15 0  0.45 -2.15 0  0.55 -2.15 0  0.6499999999999999 -2.15 0  0.75 -2.15 0  -0.75 -2.1 0  -0.65 -2.1 0  -0.55 -2.1 0  -0.45 -2.1 0  -0.35 -2.1 0  -0.25 -2.1 0  -0.15 -2.1 0  -0.05000000000000004 -2.1 0  0.05000000000000004 -2.1 0  0.15 -2.1 0  0.25 -2.1 0  0.3500000000000001 -2.1 0  0.45 -2.1 0  0.55 -2.1 0  0.6499999999999999 -2.1 0  0.75 -2.1 0  -0.75 -2.05 0  -0.65 -2.05 0  -0.55 -2.05 0  -0.45 -2.05 0  -0.35 -2.05 0  -0.25 -2.05 0  -0.15 -2.05 0  -0.05000000000000004 -2.05 0  0.05000000000000004 -2.05 0  0.15 -2.05 0  0.25 -2.05 0  0.3500000000000001 -2.05 0  0.45 -2.05 0  0.55 -2.05 0  0.6499999999999999 -2.05 0  0.75 -2.05 0  -0.75 -2 0  -0.65 -2 0  -0.55 -2 0  -0.45 -2 0  -0.35 -2 0  -0.25 -2 0  -0.15 -2 0  -0.05000000000000004 -2 0  0.05000000000000004 -2 0  0.15 -2 0  0.25 -2 0  0.3500000000000001 -2 0  0.45 -2 0  0.55 -2 0  0.6499999999999999 -2 0  0.75 -2 0  -0.75 -1.95 0  -0.65 -1.95 0  -0.55 -1.95 0  -0.45 -1.95 0  -0.35 -1.95 0  -0.25 -1.95 0  -0.15 -1.95 0  -0.05000000000000004 -1.95 0  0.05000000000000004 -1.95 0  0.15 -1.95 0  0.25 -1.95 0  0.3500000000000001 -1.95 0  0.45 -1.95 0  0.55 -1.95 0  0.6499999999999999 -1.95 0  0.75 -1.95 0  -0.75 -1.9 0  -0.65 -1.9 0  -0.55 -1.9 0  -0.45 -1.9 0  -0.35 -1.9 0  -0.25 -1.9 0  -0.15 -1.9 0  -0.05000000000000004 -1.9 0  0.05000000000000004 -1.9 0  0.15 -1.9 0  0.25 -1.9 0  0.3500000000000001 -1.9 0  0.45 -1.9 0  0.55 -1.9 0  0.6499999999999999 -1.9 0  0.75 -1.9 0  -0.75 -1.85 0  -0.65 -1.85 0  -0.55 -1.85 0  -0.45 -1.85 0  -0.35 -1.85 0  -0.25 -1.85 0  -0.15 -1.85 0  -0.05000000000000004 -1.85 0  0.05000000000000004 -1.85 0  0.15 -1.85 0  0.25 -1.85 0  0.3500000000000001 -1.85 0  0.45 -1.85 0  0.55 -1.85 0  0.6499999999999999 -1.85 0  0.75 -1.85 0  -0.75 -1.8 0  -0.65 -1.8 0  -0.55 -1.8 0  -0.45 -1.8 0  -0.35 -1.8 0  -0.25 -1.8 0  -0.15 -1.8 0  -0.05000000000000004 -1.8 0  0.05000000000000004 -1.8 0  0.15 -1.8 0  0.25 -1.8 0  0.3500000000000001 -1.8 0  0.45 -1.8 0  0.55 -1.8 0  0.6499999999999999 -1.8 0  0.75 -1.8 0  -0.75 -1.75 0  -0.65 -1.75 0  -0.55 -1.75 0  -0.45 -1.75 0  -0.35 -1.75 0  -0.25 -1.75 0  -0.15 -1.75 0  -0.05000000000000004 -1.75 0  0.05000000000000004 -1.75 0  0.15 -1.75 0  0.25 -1.75 0  0.3500000000000001 -1.75 0  0.45 -1.75 0  0.55 -1.75 0  0.6499999999999999 -1.75 0  0.75 -1.75 0  -0.75 -1.7 0  -0.65 -1.7 0  -0.55 -1.7 0  -0.45 -1.7 0  -0.35 -1.7 0  -0.25 -1.7 0  -0.15 -1.7 0  -0.05000000000000004 -1.7 0  0.05000000000000004 -1.7 0  0.15 -1.7 0  0.25 -1.7 0  0.3500000000000001 -1.7 0  0.45 -1.7 0  0.55 -1.7 0  0.6499999999999999 -1.7 0  0.75 -1.7 0  -0.75 -1.65 0  -0.65 -1.65 0  -0.55 -1.65 0  -0.45 -1.65 0  -0.35 -1.65 0  -0.25 -1.65 0  -0.15 -1.65 0  -0.05000000000000004 -1.65 0  0.05000000000000004 -1.65 0  0.15 -1.65 0  0.25 -1.65 0  0.3500000000000001 -1.65 0  0.45 -1.65 0  0.55 -1.65 0  0.6499999999999999 -1.65 0  0.75 -1.65 0  -0.75 -1.6 0  -0.65 -1.6 0  -0.55 -1.6 0  -0.45 -1.6 0  -0.35 -1.6 0  -0.25 -1.6 0  -0.15 -1.6 0  -0.05000000000000004 -1.6 0  0.05000000000000004 -1.6 0  0.15 -1.6 0  0.25 -1.6 0  0.3500000000000001 -1.6 0  0.45 -1.6 0  0.55 -1.6 0  0.6499999999999999 -1.6 0  0.75 -1.6 0  -0.75 -1.55 0  -0.65 -1.55 0  -0.55 -1.55 0  -0.45 -1.55 0  -0.35 -1.55 0  -0.25 -1.55 0  -0.15 -1.55 0  -0.05000000000000004 -1.55 0  0.05000000000000004 -1.55 0  0.15 -1.55 0  0.25 -1.55 0  0.3500000000000001 -1.55 0  0.45 -1.55 0  0.55 -1.55 0  0.6499999999999999 -1.55 0  0.75 -1.55 0  -0.75 -1.5 0  -0.65 -1.5 0  -0.55 -1.5 0  -0.45 -1.5 0  -0.35 -1.5 0  -0.25 -1.5 0  -0.15 -1.5 0  -0.05000000000000004 -1.5 0  0.05000000000000004 -1.5 0  0.15 -1.5 0  0.25 -1.5 0  0.3500000000000001 -1.5 0  0.45 -1.5 0  0.55 -1.5 0  0.6499999999999999 -1.5 0  0.75 -1.5 0  -0.75 -1.45 0  -0.65 -1.45 0  -0.55 -1.45 0  -0.45 -1.45 0  -0.35 -1.45 0  -0.25 -1.45 0  -0.15 -1.45 0  -0.05000000000000004 -1.45 0  0.05000000000000004 -1.45 0  0.15 -1.45 0  0.25 -1.45 0  0.3500000000000001 -1.45 0  0.45 -1.45 0  0.55 -1.45 0  0.6499999999999999 -1.45 0  0.75 -1.45 0  -0.75 -1.4 0  -0.65 -1.4 0  -0.55 -1.4 0  -0.45 -1.4 0  -0.35 -1.4 0  -0.25 -1.4 0  -0.15 -1.4 0  -0.05000000000000004 -1.4 0  0.05000000000000004 -1.4 0  0.15 -1.4 0  0.25 -1.4 0  0.3500000000000001 -1.4 0  0.45 -1.4 0  0.55 -1.4 0  0.6499999999999999 -1.4 0  0.75 -1.4 0  -0.75 -1.35 0  -0.65 -1.35 0  -0.55 -1.35 0  -0.45 -1.35 0  -0.35 -1.35 0  -0.25 -1.35 0  -0.15 -1.35 0  -0.05000000000000004 -1.35 0  0.05000000000000004 -1.35 0  0.15 -1.35 0  0.25 -1.35 0  0.3500000000000001 -1.35 0  0.45 -1.35 0  0.55 -1.35 0  0.6499999999999999 -1.35 0  0.75 -1.35 0  -0.75 -1.3 0  -0.65 -1.3 0  -0.55 -1.3 0  -0.45 -1.3 0  -0.35 -1.3 0  -0.25 -1.3 0  -0.15 -1.3 0  -0.05000000000000004 -1.3 0  0.05000000000000004 -1.3 0  0.15 -1.3 0  0.25 -1.3 0  0.3500000000000001 -1.3 0  0.45 -1.3 0  0.55 -1.3 0  0.6499999999999999 -1.
[...]
<PointData  Vectors="flow"> 
<DataArray  type="Float64"  Name="flow"  NumberOfComponents="3" format="ascii">1.1614251841110719e-05 1.4514742247991329e-04 0.0000000000000000e+00  5.2489542843832492e-06 6.5598042432345362e-05 0.0000000000000000e+00  -4.8421665078652462e-07 -6.0514271384009254e-06 0.0000000000000000e+00  6.3246630674531159e-08 7.9041556430287316e-07 0.0000000000000000e+00  -9.0896544097916493e-09 -1.1359663341760815e-07 0.0000000000000000e+00  1.3676776698836117e-09 1.7092352678651325e-08 0.0000000000000000e+00  -2.1142870536638369e-10 -2.6422994818804223e-09 0.0000000000000000e+00  3.3272791960677735e-11 4.1582187624931765e-10 0.0000000000000000e+00  -5.3027934330462207e-12 -6.6270889359022284e-11 0.0000000000000000e+00  8.5312717455677660e-13 1.0661832731762500e-11 0.0000000000000000e+00  -1.3825848753888801e-13 -1.7278653310415583e-12 0.0000000000000000e+00  2.2536960302332778e-14 2.8165238219105934e-13 0.0000000000000000e+00  -3.6911921820560898e-15 -4.6130137217018609e-14 0.0000000000000000e+00  6.0737677828186914e-16 7.5906029116496259e-15 0.0000000000000000e+00  -1.0287408514710169e-16 -1.2856539106743646e-15 0.0000000000000000e+00  3.3130902857851194e-17 4.1404863783198288e-16 0.0000000000000000e+00  -2.3686869657299128e-06 -2.9602320703989805e-05 0.0000000000000000e+00  -8.3761366249468666e-07 -1.0467954872023575e-05 0.0000000000000000e+00  2.9121094350701984e-07 3.6393663945163133e-06 0.0000000000000000e+00  -4.6796646444847389e-08 -5.8483427990862382e-07 0.0000000000000000e+00  7.3422878504059724e-09 9.1759174088142663e-08 0.0000000000000000e+00  -1.1596312470090572e-09 -1.4492322780081493e-08 0.0000000000000000e+00  1.8485391878846028e-10 2.3101849533245744e-09 0.0000000000000000e+00  -2.9712328699106713e-11 -3.7132550469465763e-10 0.0000000000000000e+00  4.8090124633852009e-12 6.0099933537121069e-11 0.0000000000000000e+00  -7.8283530153547313e-13 -9.7833702763322393e-12 0.0000000000000000e+00  1.2804545675362723e-13 1.6002294648257595e-12 0.0000000000000000e+00  -2.1028475642597845e-14 -2.6280031464453059e-13 0.0000000000000000e+00  3.4653564728917446e-15 4.3307788301430304e-14 0.0000000000000000e+00  -5.7316487978938581e-16 -7.1630446881615554e-15 0.0000000000000000e+00  9.7522396272462215e-17 1.2187719576484468e-15 0.0000000000000000e+00  -3.1519838585394623e-17 -3.9391459650107045e-16 0.0000000000000000e+00  1.1312256408236385e-07 1.4137327849870079e-06 0.0000000000000000e+00  -1.9210101424150108e-08 -2.4007544742773990e-07 0.0000000000000000e+00  -5.2589359811184436e-08 -6.5722787234930138e-07 0.0000000000000000e+00  1.8482965488477928e-08 2.3098817187187840e-07 0.0000000000000000e+00  -3.8447804073583904e-09 -4.8049583715241013e-08 0.0000000000000000e+00  7.0536096046186092e-10 8.8151459714863564e-09 0.0000000000000000e+00  -1.2345059465741254e-10 -1.5428058443429067e-09 0.0000000000000000e+00  2.1152552306821199e-11 2.6435094470217909e-10 0.0000000000000000e+00  -3.5865590794578398e-12 -4.4822500241690196e-11 0.0000000000000000e+00  6.0484450643739150e-13 7.5589562127255220e-12 0.0000000000000000e+00  -1.0171824068431779e-13 -1.2712089126791502e-12 0.0000000000000000e+00  1.7083137002514048e-14 2.1349401904729245e-13 0.0000000000000000e+00  -2.8675765247460509e-15 -3.5837120378043347e-14 0.0000000000000000e+00  4.8168869946159689e-16 6.0198344345412449e-15 0.0000000000000000e+00  -8.3085148338215294e-17 -1.0383445522479639e-15 0.0000000000000000e+00  2.7142811307432388e-17 3.3921333496378575e-16 0.0000000000000000e+00  -1.0155405686545331e-08 -1.2691570492920730e-07 0.0000000000000000e+00  4.0669853830140517e-09 5.0826558067085963e-08 0.0000000000000000e+00  3.7216423522523130e-09 4.6510683788465516e-08 0.0000000000000000e+00  -3.7478513094351435e-09 -4.6838226417385389e-08 0.0000000000000000e+00  1.2908840220511278e-09 1.6132635238543780e-08 0.0000000000000000e+00  -3.0672576194929807e-10 -3.8332605805515601e-09 0.0000000000000000e+00  6.2905079738203575e-11 7.8614708117268448e-10 0.0000000000000000e+00  -1.2002290159393084e-11 -1.4999687490204531e-10 0.0000000000000000e+00  2.1999084102038597e-12 2.7493035264029277e-11 0.0000000000000000e+00  -3.9356469108880434e-13 -4.9185174621786178e-12 0.0000000000000000e+00  6.9325224371403636e-14 8.6638190457807349e-13 0.0000000000000000e+00  -1.2085621764149441e-14 -1.5103829950751889e-13 0.0000000000000000e+00  2.0919692408473680e-15 2.6144081200431210e-14 0.0000000000000000e+00  -3.6057757492332230e-16 -4.5062657776131741e-15 0.0000000000000000e+00  6.3627219319177570e-17 7.9517191551268722e-16 0.0000000000000000e+00  -2.1159607450588333e-17 -2.6443911533486660e-16 0.0000000000000000e+00  1.1162735459787996e-09 1.3950466220116077e-08 0.0000000000000000e+00  -5.9276979311418374e-10 -7.4080542398714794e-09 0.0000000000000000e+00  -2.4715619587909851e-10 -3.0887985961186823e-09 0.0000000000000000e+00  4.9112772488222813e-10 6.1377972813324162e-09 0.0000000000000000e+00  -2.8530107443517623e-10 -3.5655086656925327e-09 0.0000000000000000e+00  9.5981337253619590e-11 1.1995127967886257e-09 0.0000000000000000e+00  -2.4526459119764805e-11 -3.0651585418457500e-10 0.0000000000000000e+00  5.4371708756649600e-12 6.7950251895876649e-11 0.0000000000000000e+00  -1.1110889445846396e-12 -1.3885672418565760e-11 0.0000000000000000e+00  2.1586204773584336e-13 2.6977045330797018e-12 0.0000000000000000e+00  -4.0564708262743457e-14 -5.0695153924127179e-13 0.0000000000000000e+00  7.4500676235267601e-15 9.3106136120477610e-14 0.0000000000000000e+00  -1.3460874477934176e-15 -1.6822532019513560e-14 0.0000000000000000e+00  2.4051879499960151e-16 3.0058486443865644e-15 0.0000000000000000e+00  -4.3815067719857627e-17 -5.4757243362065619e-16 0.0000000000000000e+00  1.4937038304376415e-17 1.8667346283035555e-16 0.0000000000000000e+00  -1.3615472020399623e-10 -1.7015738048774648e-09 0.0000000000000000e+00  8.3744267711426186e-11 1.0465818007110578e-09 0.0000000000000000e+00  1.2057848950257629e-11 1.5069121280692242e-10 0.0000000000000000e+00  -5.9135559963851675e-11 -7.3903805626782012e-10 0.0000000000000000e+00  4.8103794022125246e-11 6.0117016656222335e-10 0.0000000000000000e+00  -2.2523696418425275e-11 -2.8148661873185552e-10 0.0000000000000000e+00  7.4305634445584321e-12 9.2862385481730579e-11 0.0000000000000000e+00  -1.9808042022040435e-12 -2.4754812304793477e-11 0.0000000000000000e+00  4.6394807375974350e-13 5.7981235461403086e-12 0.0000000000000000e+00  -1.0005258095510633e-13 -1.2503925725712268e-12 0.0000000000000000e+00  2.0413778486014307e-14 2.5511822637019016e-13 0.0000000000000000e+00  -4.0067011151805095e-15 -5.0073164201356582e-14 0.0000000000000000e+00  7.6468418074987941e-16 9.5565292853503758e-15 0.0000000000000000e+00  -1.4306840371521098e-16 -1.7879765585996269e-15 0.0000000000000000e+00  2.7148630768791989e-17 3.3928606283538042e-16 0.0000000000000000e+00  -9.5529432829964912e-18 -1.1938651870072904e-16 0.0000000000000000e+00  1.7706050233532516e-11 2.2127878651642359e-10 0.0000000000000000e+00  -1.1928158106580541e-11 -1.4907042035843079e-10 0.0000000000000000e+00  4.2645063769496641e-13 5.3295047948971787e-12 0.0000000000000000e+00  6.9479219580920148e-12 8.6830643730229463e-11 0.0000000000000000e+00  -7.2902796858615767e-12 -9.1109209619074570e-11 0.0000000000000000e+00  4.3480275189380063e-12 5.4338841268421136e-11 0.0000000000000000e+00  -1.8182419966229367e-12 -2.2723214793774533e-11 0.0000000000000000e+00  5.9083732537949930e-13 7.3839035055364193e-12 0.0000000000000000e+00  -1.6168816201558017e-13 -2.0206742787344007e-12 0.0000000000000000e+00  3.9408036973776016e-14 4.9249620810613382e-13 0.0000000000000000e+00  -8.8665779692609527e-15 -1.1080876806028809e-13 0.0000000000000000e+00  1.8845086706725735e-15 2.3551372910733507e-14 0.0000000000000000e+00  -3.8417962332929893e-16 -4.8012289434063861e-15 0.0000000000000000e+00  7.5988791760853071e-17 9.4965886846103487e-16 0.0000000000000000e+00  -1.5152368625082288e-17 -1.8936452218224592e-16 0.0000000000000000e+00  5.5394697750505841e-18 6.9228717506187975e-17 0.0000000000000000e+00  -2.4051978768678698e-12 -3.0058610503502354e-11 0.0000000000000000e+00  1.7242012640053203e-12 2.1547954421061341e-11 0.0000000000000000e+00  -2.8441816033255644e-13 -3.5544745751614284e-12 0.0000000000000000e+00  -8.0590187324766988e-13 -1.0071641400058188e-11 0.0000000000000000e+00  1.0540082439954078e-12 1.3172314668344756e-11 0.0000000000000000e+00  -7.5516946229928207e-13 -9.4376204759307258e-12 0.0000000000000000e+00  3.8162969316758400e-13 4.7693615622319340e-12 0.0000000000000000e+00  -1.4898985842677473e-13 -1.8619790772700695e-12 0.0000000000000000e+00  4.7855460601642018e-14 5.9806665577290408e-13 0.0000000000000000e+00  -1.3324101421010842e-14 -1.6651601881707782e-13 0.0000000000000000e+00  3.3448776964157632e-15 4.1802122322402434e-14 0.0000000000000000e+00  -7.7839599425266603e-16 -9.7278906794963102e-15 0.0000000000000000e+00  1.7119301160532817e-16 2.1394597535015156e-15 0.0000000000000000e+00  -3.6114630494754844e-17 -4.5133733983392174e-16 0.0000000000000000e+00  7.6302938511962507e-18 9.5358487177384128e-17 0.0000000000000000e+00  -2.9159716975590381e-18 -3.6441932008647986e-17 0.0000000000000000e+00  3.3723434551001189e-13 4.2145371645219743e-12 0.0000000000000000e+00  -2.5292506251631979e-13 -3.1608941675320182e-12 0.0000000000000000e+00  6.6501762816662754e-14 8.3109610461883380e-13 0.0000000000000000e+00  9.1956304231847649e-14 1.1492105322519781e-12 0.0000000000000000e+00  -1.4898847361127279e-13 -1.8619617707398253e-12 0.0000000000000000e+00  1.2364606056979876e-13 1.5452486511421443e-12 0.0000000000000000e+00  -7.2611754942419880e-14 -9.0745484219045547e-13 0.0000000000000000e+00  3.3094359222175182e-14 4.1359193906231746e-13 0.0000000000000000e+00  -1.2340445626940164e-14 -1.5422292365519988e-13 0.0000000000000000e+00  3.9280402899091025e-15 4.9090111982885335e-14 0.0000000000000000e+00  -1.1068230530353430e-15 -1.3832360059626928e-14 0.0000000000000000e+00  2.8419269016382826e-16 3.5516567945342048e-15 0.0000000000000000e+00  -6.7963055733990234e-17 -8.4935840023113985e-16 0.0000000000000000e+00  1.5407564730508855e-17 1.9255379837810600e-16 0.0000000000000000e+00  -3.4752822689887981e-18 -4.3431834493923641e-17 0.0000000000000000e+00  1.3958953943122846e-18 1.7444999583945113e-17 0.0000000000000000e+00  -4.8435342391849394e-14 -6.0531364407168769e-13 0.0000000000000000e+00  3.7596228842501102e-14 4.6985339960840360e-13 0.0000000000000000e+00  -1.2783168515705540e-14 -1.5975578854019503e-13 0.0000000000000000e+00  -1.0186434999056641e-14 -1.2730348924746922e-13 0.0000000000000000e+00  2.0819565261922744e-14 2.6018948755905605e-13 0.0000000000000000e+00  -1.9559142451687546e-14 -2.4443753688299501e-13 0.0000000000000000e+00  1.2974526920135726e-14 1.6214726235640549e-13 0.0000000000000000e+00  -6.7213954506306114e-15 -8.3999661663436704e-14 0.0000000000000000e+00  2.8554686380151819e-15 3.5685803825353853e-14 0.0000000000000000e+00  -1.0304647524263175e-15 -1.2878083308100368e-14 0.0000000000000000e+00  3.2565147455679443e-16 4.0697819201224897e-15 0.0000000000000000e+00  -9.2559015208893350e-17 -1.1567428249915706e-15 0.0000000000000000e+00  2.4190905547530123e-17 3.0232232223950425e-16 0.0000000000000000e+00  -5.9275765010274319e-18 -7.4079024843528284e-17 0.0000000000000000e+00  1.4365114526713415e-18 1.7952592863543491e-17 0.0000000000000000e+00  -6.0919398096778806e-19 -7.6133131378090982e-18 0.0000000000000000e+00  7.0893618186611754e-15 8.8598267807819125e-14 0.0000000000000000e+00  -5.6535659558952325e-15 -7.0654617924998118e-14 0.0000000000000000e+00  2.2746586851534177e-15 2.8427215948848865e-14 0.0000000000000000e+00  1.0660364911341705e-15 1.3322635936819514e-14 0.0000000000000000e+00  -2.8906529257307081e-15 -3.6125514341671612e-14 0.0000000000000000e+00  3.0300180655600157e-15 3.7867209898691912e-14 0.0000000000000000e+00  -2.2247655329925739e-15 -2.7803683539304078e-14 0.0000000000000000e+00  1.2821991508044979e-15 1.6024097323810746e-14 0.0000000000000000e+00  -6.0899865304301968e-16 -7.6108720554900343e-15 0.0000000000000000e+00  2.4591423545591064e-16 3.0732773764384261e-15 0.0000000000000000e+00  -8.6596459044333459e-17 -1.0822266468926781e-15 0.0000000000000000e+00  2.7207512631615896e-17 3.4002193034855518e-16 0.0000000000000000e+00  -7.7846922358027619e-18 -9.7288058523630574e-17 0.0000000000000000e+00  2.0689084454622137e-18 2.5855882265511966e-17 0.0000000000000000e+00  -5.4133143764087929e-19 -6.7652108767606388e-18 0.0000000000000000e+00  2.4318372726437016e-19 3.0391532476108154e-18 0.0000000000000000e+00  -1.0536129632171302e-15 -1.3167374704332697e-14 0.0000000000000000e+00  8.5874935189844082e-16 1.0732095075048325e-14 0.0000000000000000e+00  -3.8972549786626895e-16 -4.8705377034927953e-15 0.0000000000000000e+00  -9.8946967712921116e-17 -1.2365753319466398e-15 0.0000000000000000e+00  3.9959808871215551e-16 4.9939189711011180e-15 0.0000000000000000e+00  -4.6332168734457566e-16 -5.7902953730576196e-15 0.0000000000000000e+00  3.7105036939904262e-16 4.6371480027541828e-15 0.0000000000000000e+00  -2.3398632233078584e-16 -2.9242100177000924e-15 0.0000000000000000e+00  1.2223837698201592e-16 1.5276563303255151e-15 0.0000000000000000e+00  -5.4474957301625378e-17 -6.8079285262666409e-16 0.0000000000000000e+00  2.1170459580915054e-17 2.6457473825461104e-16 0.0000000000000000e+00  -7.3147638540306753e-18 -9.1415196948256635e-17 0.0000000000000000e+00  2.2876533138846207e-18 2.8589614430663974e-17 0.0000000000000000e+00  -6.6006716154047540e-19 -8.2490933098339034e-18 0.0000000000000000e+00  1.8703148683278875e-19 2.3373987931166578e-18 0.0000000000000000e+00  -8.9172385947506460e-20 -1.1144189185609039e-18 0.0000000000000000e+00  1.5856923436402837e-16 1.9816959342213653e-15 0.0000000000000000e+00  -1.3158577232258950e-16 -1.6444740435235933e-15 0.0000000000000000e+00  6.5411736375406446e-17 8.1747365777096236e-16 0.0000000000000000e+00  6.5469082567518547e-18 8.1819033346280259e-17 0.0000000000000000e+00  -5.5020611286308019e-17 -6.8761208390613447e-16 0.0000000000000000e+00  7.0260634840457976e-17 8.7807206081038094e-16 0.0000000000000000e+00  -6.0713858615264036e-17 -7.5876261401721652e-16 0.0000000000000000e+00  4.1357689401878129e-17 5.1686170564675340e-16 0.0000000000000000e+00  -2.3447807436310638e-17 -2.9303556171727967e-16 0.0000000000000000e+00  1.1387999610691199e-17 1.4231986815054333e-16 0.0000000000000000e+00  -4.8337416627882291e-18 -6.0408983108496453e-17 0.0000000000000000e+00  1.8232768418511828e-18 2.2786137039431247e-17 0.0000000000000000e+00  -6.2069023340164418e-19 -7.7569858798660740e-18 0.0000000000000000e+00  1.9416790028930683e-19 2.4265850819224565e-18 0.0000000000000000e+00  -5.9644323350224750e-20 -7.4539625266259930e-19 0.0000000000000000e+00  3.0190941344042766e-20 3.7730689658533986e-19 0.0000000000000000e+00  -2.4117841772901762e-17 -3.0140921834706054e-16 0.0000000000000000e+00  2.0317579562736339e-17 2.5391599432372308e-16 0.0000000000000000e+00  -1.0849517774965617e-17 -1.3559026975909571e-16 0.0000000000000000e+00  1.8089534897209510e-19 2.2607133030278031e-18 0.0000000000000000e+00  7.5404635684285245e-18 9.4235846289037731e-17 0.0000000000000000e+00  -1.0597165552504884e-17 -1.3243653457680716e-16 0.0000000000000000e+00  9.8022082558819622e-18 1.2250167143065202e-16 0.0000000000000000e+00  -7.1410622049976563e-18 -8.9244385863515875e-17 0.0000000000000000e+00  4.3462474409258452e-18 5.4316595002470217e-17 0.0000000000000000e+00  -2.2756395082639902e-18 -2.8439473642960631e-17 0.0000000000000000e+00  1.0446132775191976e-18 1.3054902441800798e-17 0.0000000000000000e+00  -4.2670727219659321e-19 -5.3327120472399759e-18 0.0000000000000000e+00  1.5721935467973148e-19 1.9648260092779192e-18 0.0000000000000000e+00  -5.3153426068564035e-20 -6.6427720832777021e-19 0.0000000000000000e+00  1.7686763981612977e-20 2.2103775938925912e-19 0.0000000000000000e+00  -9.4938953542397675e-21 -1.1864857580272172e-19 0.0000000000000000e+00  3.7013109902859273e-18 4.6256595550557842e-17 0.0000000000000000e+00  -3.1583080182492161e-18 -3.9470494915897962e-17 0.0000000000000000e+00  1.7870662494860458e-18 2.2333600430085138e-17 0.0000000000000000e+00  -1.9477054174936042e-19 -2.4341165058837049e-18 0.0000000000000000e+00  -1.0269545504350228e-18 -1.2834215069457738e-17 0.0000000000000000e+00  1.5925352799871585e-18 1.9902477943543224e-17 0.0000000000000000e+00  -1.5675271286191380e-18 -1.9589942210573598e-17 0.0000000000000000e+00  1.2117446396009522e-18 1.5143602321362201e-17 0.0000000000000000e+00  -7.8476908316731903e-19 -9.8075374309058833e-18 0.0000000000000000e+00  4.3893822827448269e-19 5.4855666411869403e-18 0.0000000000000000e+00  -2.1599093430426490e-19 -2.6993152742152120e-18 0.0000000000000000e+00  9.4798334614591769e-20 1.1847283934373878e-18 0.0000000000000000e+00  -3.7565173681081867e-20 -4.6946529224717240e-19 0.0000000000000000e+00  1.3666643581647299e-20 1.7079688962884137e-19 0.0000000000000000e+00  -4.9148744222471451e-21 -6.1422927964803119e-20 0.0000000000000000e+00  2.7908678796164341e-21 3.4878465246846754e-20 0.0000000000000000e+00  -5.7243882746219725e-19 -7.1539709548450881e-18 0.0000000000000000e+00  4.9387766440418083e-19 6.1721642503845831e-18 0.0000000000000000e+00  -2.9315720182334366e-19 -3.6636894746388697e-18 0.0000000000000000e+00  5.3995335921487910e-20 6.7479885421460237e-19 0.0000000000000000e+00  1.3864100726755560e-19 1.7326458156929307e-18 0.0000000000000000e+00  -2.3871391670152235e-19 -2.9832924404708778e-18 0.0000000000000000e+00  2.4895271154119901e-19 3.1112502892080042e-18 0.0000000000000000e+00  -2.0293615310918576e-19 -2.5361650457349091e-18 0.0000000000000000e+00  1.3885236069100256e-19 1.7352871743499941e-18 0.0000000000000000e+00  -8.2331123329499170e-20 -1.0289212344141673e-18 0.0000000000000000e+00  4.3096014419307266e-20 5.3858616962118564e-19 0.0000000000000000e+00  -2.0176547074167820e-20 -2.5215346131843674e-19 0.0000000000000000e+00  8.5448680781113036e-21 1.0678824550528548e-19 0.0000000000000000e+00  -3.3292158228020236e-21 -4.1606390335758744e-20 0.0000000000000000e+00  1.2896535572776580e-21 1.6117257684073213e-20 0.0000000000000000e+00  -7.7208857700530604e-22 -9.6490646501933237e-21 0.0000000000000000e+00  8.9129874677810832e-20 1.1138876401533922e-18 0.0000000000000000e+00  -7.7639372449451073e-20 -9.7028676045293785e-19 0.0000000000000000e+00  4.7980648898872554e-20 5.9963117830231976e-19 0.0000000000000000e+00  -1.1843921184423821e-20 -1.4801768168047619e-19 0.0000000000000000e+00  -1.8484257127378291e-20 -2.3100431394109564e-19 0.0000000000000000e+00  3.5712609753313670e-20 4.4631314411284021e-19 0.0000000000000000e+00  -3.9340514362637719e-20 -4.9165235409815011e-19 0.0000000000000000e+00  3.3647968227181715e-20 4.2051058705081127e-19 0.0000000000000000e+00  -2.4180200787438944e-20 -3.0218854105783568e-19 0.0000000000000000e+00  1.5102142458570404e-20 1.8873682797430369e-19 0.0000000000000000e+00  -8.3537432802295684e-21 -1.0439969115292224e-19 0.0000000000000000e+00  4.1450024166366206e-21 5.1801564593099105e-20 0.0000000000000000e+00  -1.8650277538288889e-21 -2.3307912987004491e-20 0.0000000000000000e+00  7.7439691047989980e-22 9.6779127119234309e-21 0.0000000000000000e+00  -3.2184292626647249e-22 -4.0221851420180434e-21 0.0000000000000000e+00  2.0234773538891706e-22 2.5288113808921880e-21 0.0000000000000000e+00  -1.3959900103766536e-20 -1.7446182034442788e-19 0.0000000000000000e+00  1.2263108620312234e-20 1.5325641566760737e-19 0.0000000000000000e+00  -7.8439059929808578e-21 -9.8028073838206491e-20 0.0000000000000000e+00  2.3532573220589599e-21 2.9409490977266791e-20 0.0000000000000000e+00  2.4202774149827941e-21 3.0247064836980288e-20 0.0000000000000000e+00  -5.3339296057633785e-21 -6.6660009147159147e-20 0.0000000000000000e+00  6.1938412744475869e-21 7.7406630107117492e-20 0.0000000000000000e+00  -5.5361411451066015e-21 -6.9187118437787387e-20 0.0000000000000000e+00  4.158178045705