<?xml version="1.0"?>
<VTKFile type="UnstructuredGrid"  version="0.1"  >
<UnstructuredGrid>
<Piece  NumberOfPoints="1411" NumberOfCells="2700">
<Points>
<DataArray  type="Float64"  NumberOfComponents="3"  format="ascii">-0.75 -4.5 0  -0.65 -4.5 0  -0.55 -4.5 0  -0.45 -4.5 0  -0.35 -4.5 0  -0.25 -4.5 0  -0.15 -4.5 0  -0.05000000000000004 -4.5 0  0.05000000000000004 -4.5 0  0.15 -4.5 0  0.25 -4.5 0  0.3500000000000001 -4.5 0  0.45 -4.5 0  0.55 -4.5 0  0.6499999999999999 -4.5 0  0.75 -4.5 0  -0.75 -4.4 0  -0.65 -4.4 0  -0.55 -4.4 0  -0.45 -4.4 0  -0.35 -4.4 0  -0.25 -4.4 0  -0.15 -4.4 0  -0.05000000000000004 -4.4 0  0.05000000000000004 -4.4 0  0.15 -4.4 0  0.25 -4.4 0  0.3500000000000001 -4.4 0  0.45 -4.4 0  0.55 -4.4 0  0.6499999999999999 -4.4 0  0.75 -4.4 0  -0.75 -4.3 0  -0.65 -4.3 0  -0.55 -4.3 0  -0.45 -4.3 0  -0.35 -4.3 0  -0.25 -4.3 0  -0.15 -4.3 0  -0.05000000000000004 -4.3 0  0.05000000000000004 -4.3 0  0.15 -4.3 0  0.25 -4.3 0  0.3500000000000001 -4.3 0  0.45 -4.3 0  0.55 -4.3 0  0.6499999999999999 -4.3 0  0.75 -4.3 0  -0.75 -4.2 0  -0.65 -4.2 0  -0.55 -4.2 0  -0.45 -4.2 0  -0.35 -4.2 0  -0.25 -4.2 0  -0.15 -4.2 0  -0.05000000000000004 -4.2 0  0.05000000000000004 -4.2 0  0.15 -4.2 0  0.25 -4.2 0  0.3500000000000001 -4.2 0  0.45 -4.2 0  0.55 -4.2 0  0.6499999999999999 -4.2 0  0.75 -4.2 0  -0.75 -4.1 0  -0.65 -4.1 0  -0.55 -4.1 0  -0.45 -4.1 0  -0.35 -4.1 0  -0.25 -4.1 0  -0.15 -4.1 0  -0.05000000000000004 -4.1 0  0.05000000000000004 -4.1 0  0.15 -4.1 0  0.25 -4.1 0  0.3500000000000001 -4.1 0  0.45 -4.1 0  0.55 -4.1 0  0.6499999999999999 -4.1 0  0.75 -4.1 0  -0.75 -4 0  -0.65 -4 0  -0.55 -4 0  -0.45 -4 0  -0.35 -4 0  -0.25 -4 0  -0.15 -4 0  -0.05000000000000004 -4 0  0.05000000000000004 -4 0  0.15 -4 0  0.25 -4 0  0.3500000000000001 -4 0  0.45 -4 0  0.55 -4 0  0.6499999999999999 -4 0  0.75 -4 0  -0.75 -3.9 0  -0.65 -3.9 0  -0.55 -3.9 0  -0.45 -3.9 0  -0.35 -3.9 0  -0.25 -3.9 0  -0.15 -3.9 0  -0.05000000000000004 -3.9 0  0.05000000000000004 -3.9 0  0.15 -3.9 0  0.25 -3.9 0  0.3500000000000001 -3.9 0  0.45 -3.9 0  0.55 -3.9 0  0.6499999999999999 -3.9 0  0.75 -3.9 0  -0.75 -3.8 0  -0.65 -3.8 0  -0.55 -3.8 0  -0.45 -3.8 0  -0.35 -3.8 0  -0.25 -3.8 0  -0.15 -3.8 0  -0.05000000000000004 -3.8 0  0.05000000000000004 -3.8 0  0.15 -3.8 0  0.25 -3.8 0  0.3500000000000001 -3.8 0  0.45 -3.8 0  0.55 -3.8 0  0.6499999999999999 -3.8 0  0.75 -3.8 0  -0.75 -3.7 0  -0.65 -3.7 0  -0.55 -3.7 0  -0.45 -3.7 0  -0.35 -3.7 0  -0.25 -3.7 0  -0.15 -3.7 0  -0.05000000000000004 -3.7 0  0.05000000000000004 -3.7 0  0.15 -3.7 0  0.25 -3.7 0  0.3500000000000001 -3.7 0  0.45 -3.7 0  0.55 -3.7 0  0.6499999999999999 -3.7 0  0.75 -3.7 0  -0.75 -3.6 0  -0.65 -3.6 0  -0.55 -3.6 0  -0.45 -3.6 0  -0.35 -3.6 0  -0.25 -3.6 0  -0.15 -3.6 0  -0.05000000000000004 -3.6 0  0.05000000000000004 -3.6 0  0.15 -3.6 0  0.25 -3.6 0  0.3500000000000001 -3.6 0  0.45 -3.6 0  0.55 -3.6 0  0.6499999999999999 -3.6 0  0.75 -3.6 0  -0.75 -3.5 0  -0.65 -3.5 0  -0.55 -3.5 0  -0.45 -3.5 0  -0.35 -3.5 0  -0.25 -3.5 0  -0.15 -3.5 0  -0.05000000000000004 -3.5 0  0.05000000000000004 -3.5 0  0.15 -3.5 0  0.25 -3.5 0  0.3500000000000001 -3.5 0  0.45 -3.5 0  0.55 -3.5 0  0.6499999999999999 -3.5 0  0.75 -3.5 0  -0.75 -3.4 0  -0.65 -3.4 0  -0.55 -3.4 0  -0.45 -3.4 0  -0.35 -3.4 0  -0.25 -3.4 0  -0.15 -3.4 0  -0.05000000000000004 -3.4 0  0.05000000000000004 -3.4 0  0.15 -3.4 0  0.25 -3.4 0  0.3500000000000001 -3.4 0  0.45 -3.4 0  0.55 -3.4 0  0.6499999999999999 -3.4 0  0.75 -3.4 0  -0.75 -3.3 0  -0.65 -3.3 0  -0.55 -3.3 0  -0.45 -3.3 0  -0.35 -3.3 0  -0.25 -3.3 0  -0.15 -3.3 0  -0.05000000000000004 -3.3 0  0.05000000000000004 -3.3 0  0.15 -3.3 0  0.25 -3.3 0  0.3500000000000001 -3.3 0  0.45 -3.3 0  0.55 -3.3 0  0.6499999999999999 -3.3 0  0.75 -3.3 0  -0.75 -3.2 0  -0.65 -3.2 0  -0.55 -3.2 0  -0.45 -3.2 0  -0.35 -3.2 0  -0.25 -3.2 0  -0.15 -3.2 0  -0.05000000000000004 -3.2 0  0.05000000000000004 -3.2 0  0.15 -3.2 0  0.25 -3.2 0  0.3500000000000001 -3.2 0  0.45 -3.2 0  0.55 -3.2 0  0.6499999999999999 -3.2 0  0.75 -3.2 0  -0.75 -3.1 0  -0.65 -3.1 0  -0.55 -3.1 0  -0.45 -3.1 0  -0.35 -3.1 0  -0.25 -3.1 0  -0.15 -3.1 0  -0.05000000000000004 -3.1 0  0.05000000000000004 -3.1 0  0.15 -3.1 0  0.25 -3.1 0  0.3500000000000001 -3.1 0  0.45 -3.1 0  0.55 -3.1 0  0.6499999999999999 -3.1 0  0.75 -3.1 0  -0.75 -3 0  -0.65 -3 0  -0.55 -3 0  -0.45 -3 0  -0.35 -3 0  -0.25 -3 0  -0.15 -3 0  -0.05000000000000004 -3 0  0.05000000000000004 -3 0  0.15 -3 0  0.25 -3 0  0.3500000000000001 -3 0  0.45 -3 0  0.55 -3 0  0.6499999999999999 -3 0  0.75 -3 0  -0.75 -2.9 0  -0.65 -2.9 0  -0.55 -2.9 0  -0.45 -2.9 0  -0.35 -2.9 0  -0.25 -2.9 0  -0.15 -2.9 0  -0.05000000000000004 -2.9 0  0.05000000000000004 -2.9 0  0.15 -2.9 0  0.25 -2.9 0  0.3500000000000001 -2.9 0  0.45 -2.9 0  0.55 -2.9 0  0.6499999999999999 -2.9 0  0.75 -2.9 0  -0.75 -2.8 0  -0.65 -2.8 0  -0.55 -2.8 0  -0.45 -2.8 0  -0.35 -2.8 0  -0.25 -2.8 0  -0.15 -2.8 0  -0.05000000000000004 -2.8 0  0.05000000000000004 -2.8 0  0.15 -2.8 0  0.25 -2.8 0  0.3500000000000001 -2.8 0  0.45 -2.8 0  0.55 -2.8 0  0.6499999999999999 -2.8 0  0.75 -2.8 0  -0.75 -2.7 0  -0.65 -2.7 0  -0.55 -2.7 0  -0.45 -2.7 0  -0.35 -2.7 0  -0.25 -2.7 0  -0.15 -2.7 0  -0.05000000000000004 -2.7 0  0.05000000000000004 -2.7 0  0.15 -2.7 0  0.25 -2.7 0  0.3500000000000001 -2.7 0  0.45 -2.7 0  0.55 -2.7 0  0.6499999999999999 -2.7 0  0.75 -2.7 0  -0.75 -2.6 0  -0.65 -2.6 0  -0.55 -2.6 0  -0.45 -2.6 0  -0.35 -2.6 0  -0.25 -2.6 0  -0.15 -2.6 0  -0.05000000000000004 -2.6 0  0.05000000000000004 -2.6 0  0.15 -2.6 0  0.25 -2.6 0  0.3500000000000001 -2.6 0  0.45 -2.6 0  0.55 -2.6 0  0.6499999999999999 -2.6 0  0.75 -2.6 0  -0.75 -2.5 0  -0.65 -2.5 0  -0.55 -2.5 0  -0.45 -2.5 0  -0.35 -2.5 0  -0.25 -2.5 0  -0.15 -2.5 0  -0.05000000000000004 -2.5 0  0.05000000000000004 -2.5 0  0.15 -2.5 0  0.25 -2.5 0  0.3500000000000001 -2.5 0  0.45 -2.5 0  0.55 -2.5 0  0.6499999999999999 -2.5 0  0.75 -2.5 0  -0.75 -2.4 0  -0.65 -2.4 0  -0.55 -2.4 0  -0.45 -2.4 0  -0.35 -2.4 0  -0.25 -2.4 0  -0.15 -2.4 0  -0.05000000000000004 -2.4 0  0.05000000000000004 -2.4 0  0.15 -2.4 0  0.25 -2.4 0  0.3500000000000001 -2.4 0  0.45 -2.4 0  0.55 -2.4 0  0.6499999999999999 -2.4 0  0.75 -2.4 0  -0.75 -2.3 0  -0.65 -2.3 0  -0.55 -2.3 0  -0.45 -2.3 0  -0.35 -2.3 0  -0.25 -2.3 0  -0.15 -2.3 0  -0.05000000000000004 -2.3 0  0.05000000000000004 -2.3 0  0.15 -2.3 0  0.25 -2.3 0  0.3500000000000001 -2.3 0  0.45 -2.3 0  0.55 -2.3 0  0.6499999999999999 -2.3 0  0.75 -2.3 0  -0.75 -2.2 0  -0.65 -2.2 0  -0.55 -2.2 0  -0.45 -2.2 0  -0.35 -2.2 0  -0.25 -2.2 0  -0.15 -2.2 0  -0.05000000000000004 -2.2 0  0.05000000000000004 -2.2 0  0.15 -2.2 0  0.25 -2.2 0  0.3500000000000001 -2.2 0  0.45 -2.2 0  0.55 -2.2 0  0.6499999999999999 -2.2 0  0.75 -2.2 0  -0.75 -2.1 0  -0.65 -2.1 0  -0.55 -2.1 0  -0.45 -2.1 0  -0.35 -2.1 0  -0.25 -2.1 0  -0.15 -2.1 0  -0.05000000000000004 -2.1 0  0.05000000000000004 -2.1 0  0.15 -2.1 0  0.25 -2.1 0  0.3500000000000001 -2.1 0  0.45 -2.1 0  0.55 -2.1 0  0.6499999999999999 -2.1 0  0.75 -2.1 0  -0.75 -2 0  -0.65 -2 0  -0.55 -2 0  -0.45 -2 0  -0.35 -2 0  -0.25 -2 0  -0.15 -2 0  -0.05000000000000004 -2 0  0.05000000000000004 -2 0  0.15 -2 0  0.25 -2 0  0.3500000000000001 -2 0  0.45 -2 0  0.55 -2 0  0.6499999999999999 -2 0  0.75 -2 0  -0.75 -1.9 0  -0.65 -1.9 0  -0.55 -1.9 0  -0.45 -1.9 0  -0.35 -1.9 0  -0.25 -1.9 0  -0.15 -1.9 0  -0.05000000000000004 -1.9 0  0.05000000000000004 -1.9 0  0.15 -1.9 0  0.25 -1.9 0  0.3500000000000001 -1.9 0  0.45 -1.9 0  0.55 -1.9 0  0.6499999999999999 -1.9 0  0.75 -1.9 0  -0.75 -1.8 0  -0.65 -1.8 0  -0.55 -1.8 0  -0.45 -1.8 0  -0.35 -1.8 0  -0.25 -1.8 0  -0.15 -1.8 0  -0.05000000000000004 -1.8 0  0.05000000000000004 -1.8 0  0.15 -1.8 0  0.25 -1.8 0  0.3500000000000001 -1.8 0  0.45 -1.8 0  0.55 -1.8 0  0.6499999999999999 -1.8 0  0.75 -1.8 0  -0.75 -1.7 0  -0.65 -1.7 0  -0.55 -1.7 0  -0.45 -1.7 0  -0.35 -1.7 0  -0.25 -1.7 0  -0.15 -1.7 0  -0.05000000000000004 -1.7 0  0.05000000000000004 -1.7 0  0.15 -1.7 0  0.25 -1.7 0  0.3500000000000001 -1.7 0  0.45 -1.7 0  0.55 -1.7 0  0.6499999999999999 -1.7 0  0.75 -1.7 0  -0.75 -1.6 0  -0.65 -1.6 0  -0.55 -1.6 0  -0.45 -1.6 0  -0.35 -1.6 0  -0.25 -1.6 0  -0.15 -1.6 0  -0.05000000000000004 -1.6 0  0.05000000000000004 -1.6 0  0.15 -1.6 0  0.25 -1.6 0  0.3500000000000001 -1.6 0  0.45 -1.6 0  0.55 -1.6 0  0.6499999999999999 -1.6 0  0.75 -1.6 0  -0.75 -1.5 0  -0.65 -1.5 0  -0.55 -1.5 0  -0.45 -1.5 0  -0.35 -1.5 0  -0.25 -1.5 0  -0.15 -1.5 0  -0.05000000000000004 -1.5 0  0.05000000000000004 -1.5 0  0.15 -1.5 0  0.25 -1.5 0  0.3500000000000001 -1.5 0  0.45 -1.5 0  0.55 -1.5 0  0.6499999999999999 -1.5 0  0.75 -1.5 0  -0.75 -1.4 0  -0.65 -1.4 0  -0.55 -1.4 0  -0.45 -1.4 0  -0.35 -1.4 0  -0.25 -1.4 0  -0.15 -1.4 0  -0.05000000000000004 -1.4 0  0.05000000000000004 -1.4 0  0.15 -1.4 0  0.25 -1.4 0  0.3500000000000001 -1.4 0  0.45 -1.4 0  0.55 -1.4 0  0.6499999999999999 -1.4 0  0.75 -1.4 0  -0.75 -1.3 0  -0.65 -1.3 0  -0.55 -1.3 0  -0.45 -1.3 0  -0.35 -1.3 0  -0.25 -1.3 0  -0.15 -1.3 0  -0.05000000000000004 -1.3 0  0.05000000000000004 -1.3 0  0.15 -1.3 0  0.25 -1.3 0  0.3500000000000001 -1.3 0  0.45 -1.3 0  0.55 -1.3 0  0.6499999999999999 -1.3 0  0.75 -1.3 0  -0.75 -1.2 0  -0.65 -1.2 0  -0.55 -1.2 0  -0.45 -1.2 0  -0.35 -1.2 0  -0.25 -1.2 0  -0.15 -1.2 0  -0.05000000000000004 -1.2 0  0.05000000000000004 -1.2 0  0.15 -1.2 0  0.25 -1.2 0  0.3500000000000001 -1.2 0  0.45 -1.2 0  0.55 -1.2 0  0.6499999999999999 -1.2 0  0.75 -1.2 0  -0.75 -1.1 0  -0.65 -1.1 0  -0.55 -1.1 0  -0.45 -1.1 0  -0.35 -1.1 0  -0.25 -1.1 0  -0.15 -1.1 0  -0.05000000000000004 -1.1 0  0.05000000000000004 -1.1 0  0.15 -1.1 0  0.25 -1.1 0  0.3500000000000001 -1.1 0  0.45 -1.1 0  0.55 -1.1 0  0.6499999999999999 -1.1 0  0.75 -1.1 0  -0.75 -1 0  -0.65 -1 0  -0.55 -1 0  -0.45 -1 0  -0.35 -1 0  -0.25 -1 0  -0.15 -1 0  -0.05000000000000004 -1 0  0.05000000000000004 -1 0  0.15 -1 0  0.25 -1 0  0.3500000000000001 -1 0  0.45 -1 0  0.55 -1 0  0.6499999999999999 -1 0  0.75 -1 0  -0.75 -0.8999999999999999 0  -0.65 -0.899999
[...]
<PointData  Scalars="mean stress"> 
<DataArray  type="Float64"  Name="mean stress"  format="ascii">1.9554174573846722e+04  1.9554174307270285e+04  1.9554174276489277e+04  1.9554174273395423e+04  1.9554174273829492e+04  1.9554174273765311e+04  1.9554174273775170e+04  1.9554174273773653e+04  1.9554174273773686e+04  1.9554174273775177e+04  1.9554174273765373e+04  1.9554174273829613e+04  1.9554174273395638e+04  1.9554174276489470e+04  1.9554174307270547e+04  1.9554174573847013e+04  1.9591158003915607e+04  1.9591156601726445e+04  1.9591156533697638e+04  1.9591156535886301e+04  1.9591156535546947e+04  1.9591156535600523e+04  1.9591156535592014e+04  1.9591156535593353e+04  1.9591156535593323e+04  1.9591156535592076e+04  1.9591156535600567e+04  1.9591156535547099e+04  1.9591156535886494e+04  1.9591156533697915e+04  1.9591156601726732e+04  1.9591158003915942e+04  1.9702035460088464e+04  1.9702029200031990e+04  1.9702029146729074e+04  1.9702029146093500e+04  1.9702029146256391e+04  1.9702029146225308e+04  1.9702029146230820e+04  1.9702029146229990e+04  1.9702029146229976e+04  1.9702029146230914e+04  1.9702029146225421e+04  1.9702029146256617e+04  1.9702029146093715e+04  1.9702029146729383e+04  1.9702029200032332e+04  1.9702035460088875e+04  1.9886583481609814e+04  1.9886569429612806e+04  1.9886569378587581e+04  1.9886569378781438e+04  1.9886569378730477e+04  1.9886569378743239e+04  1.9886569378740616e+04  1.9886569378741049e+04  1.9886569378741115e+04  1.9886569378740591e+04  1.9886569378743334e+04  1.9886569378730495e+04  1.9886569378781642e+04  1.9886569378587894e+04  1.9886569429613126e+04  1.9886583481610149e+04  2.0144430056439476e+04  2.0144405400441276e+04  2.0144405355579103e+04  2.0144405355583545e+04  2.0144405355595765e+04  2.0144405355591902e+04  2.0144405355592880e+04  2.0144405355592713e+04  2.0144405355592717e+04  2.0144405355592844e+04  2.0144405355591953e+04  2.0144405355595940e+04  2.0144405355583902e+04  2.0144405355579391e+04  2.0144405400441639e+04  2.0144430056439793e+04  2.0475052865492024e+04  2.0475015118944950e+04  2.0475015080889872e+04  2.0475015080917095e+04  2.0475015080914600e+04  2.0475015080915622e+04  2.0475015080915233e+04  2.0475015080915295e+04  2.0475015080915306e+04  2.0475015080915335e+04  2.0475015080915618e+04  2.0475015080914745e+04  2.0475015080917321e+04  2.0475015080890233e+04  2.0475015118945321e+04  2.0475052865492366e+04  2.0877778142728152e+04  2.0877725177773558e+04  2.0877725147297500e+04  2.0877725147307199e+04  2.0877725147307912e+04  2.0877725147307610e+04  2.0877725147307770e+04  2.0877725147307563e+04  2.0877725147307567e+04  2.0877725147307749e+04  2.0877725147307643e+04  2.0877725147307901e+04  2.0877725147307454e+04  2.0877725147297817e+04  2.0877725177773798e+04  2.0877778142728483e+04  2.1351779108672679e+04  2.1351709199694513e+04  2.1351709177129214e+04  2.1351709177129545e+04  2.1351709177129476e+04  2.1351709177129389e+04  2.1351709177129331e+04  2.1351709177129389e+04  2.1351709177129422e+04  2.1351709177129207e+04  2.1351709177129356e+04  2.1351709177129269e+04  2.1351709177129524e+04  2.1351709177129225e+04  2.1351709199694687e+04  2.1351779108672821e+04  2.1896074243909698e+04  2.1895986087593752e+04  2.1895986072947348e+04  2.1895986072938376e+04  2.1895986072938475e+04  2.1895986072938511e+04  2.1895986072938485e+04  2.1895986072938416e+04  2.1895986072938362e+04  2.1895986072938358e+04  2.1895986072938427e+04  2.1895986072938507e+04  2.1895986072938307e+04  2.1895986072947457e+04  2.1895986087593996e+04  2.1896074243909901e+04  2.2509525452602105e+04  2.2509418171749185e+04  2.2509418164737206e+04  2.2509418164721072e+04  2.2509418164721475e+04  2.2509418164721355e+04  2.2509418164721261e+04  2.2509418164721290e+04  2.2509418164721286e+04  2.2509418164721115e+04  2.2509418164721286e+04  2.2509418164721268e+04  2.2509418164721235e+04  2.2509418164737512e+04  2.2509418171749170e+04  2.2509525452602171e+04  2.3190836220239402e+04  2.3190709352426395e+04  2.3190709352533577e+04  2.3190709352511971e+04  2.3190709352511920e+04  2.3190709352511982e+04  2.3190709352512171e+04  2.3190709352511916e+04  2.3190709352511883e+04  2.3190709352511894e+04  2.3190709352511953e+04  2.3190709352512069e+04  2.3190709352512142e+04  2.3190709352533602e+04  2.3190709352426718e+04  2.3190836220239747e+04  2.3938549871049214e+04  2.3938403345140090e+04  2.3938403351680081e+04  2.3938403351655008e+04  2.3938403351655070e+04  2.3938403351655110e+04  2.3938403351654870e+04  2.3938403351655084e+04  2.3938403351654953e+04  2.3938403351655146e+04  2.3938403351654953e+04  2.3938403351655019e+04  2.3938403351655121e+04  2.3938403351680132e+04  2.3938403345140228e+04  2.3938549871049461e+04  2.4751048038415982e+04  2.4750882141950049e+04  2.4750882154127321e+04  2.4750882154100895e+04  2.4750882154100880e+04  2.4750882154100782e+04  2.4750882154100884e+04  2.4750882154100811e+04  2.4750882154100902e+04  2.4750882154101069e+04  2.4750882154100884e+04  2.4750882154100731e+04  2.4750882154100633e+04  2.4750882154127507e+04  2.4750882141950064e+04  2.4751048038415822e+04  2.5626549465207205e+04  2.5626364805668683e+04  2.5626364822633244e+04  2.5626364822606378e+04  2.5626364822606432e+04  2.5626364822606403e+04  2.5626364822606116e+04  2.5626364822606185e+04  2.5626364822606181e+04  2.5626364822606040e+04  2.5626364822606178e+04  2.5626364822606232e+04  2.5626364822606422e+04  2.5626364822633215e+04  2.5626364805668531e+04  2.5626549465207303e+04  2.6563109251871811e+04  2.6562906714550423e+04  2.6562906735442655e+04  2.6562906735416513e+04  2.6562906735416604e+04  2.6562906735416454e+04  2.6562906735416567e+04  2.6562906735416516e+04  2.6562906735416374e+04  2.6562906735416254e+04  2.6562906735416389e+04  2.6562906735416789e+04  2.6562906735416575e+04  2.6562906735442706e+04  2.6562906714550478e+04  2.6563109251872320e+04  2.7558618668227879e+04  2.7558399372951935e+04  2.7558399396937133e+04  2.7558399396912537e+04  2.7558399396912791e+04  2.7558399396912715e+04  2.7558399396912897e+04  2.7558399396912395e+04  2.7558399396912737e+04  2.7558399396912697e+04  2.7558399396912922e+04  2.7558399396912850e+04  2.7558399396912842e+04  2.7558399396937351e+04  2.7558399372952230e+04  2.7558618668228195e+04  2.8610805640028226e+04  2.8610570898565664e+04  2.8610570924860782e+04  2.8610570924838266e+04  2.8610570924838190e+04  2.8610570924838721e+04  2.8610570924838034e+04  2.8610570924838506e+04  2.8610570924838354e+04  2.8610570924838328e+04  2.8610570924838426e+04  2.8610570924838357e+04  2.8610570924838492e+04  2.8610570924860964e+04  2.8610570898566220e+04  2.8610805640028004e+04  2.9717236013848837e+04  2.9716987289289307e+04  2.9716987317176689e+04  2.9716987317156578e+04  2.9716987317156490e+04  2.9716987317156458e+04  2.9716987317156458e+04  2.9716987317156520e+04  2.9716987317156465e+04  2.9716987317156756e+04  2.9716987317156440e+04  2.9716987317156611e+04  2.9716987317156432e+04  2.9716987317176259e+04  2.9716987289289282e+04  2.9717236013848695e+04  3.0875315693657009e+04  3.0875054562652611e+04  3.0875054591491094e+04  3.0875054591473468e+04  3.0875054591473625e+04  3.0875054591473599e+04  3.0875054591473745e+04  3.0875054591473574e+04  3.0875054591473821e+04  3.0875054591473421e+04  3.0875054591473487e+04  3.0875054591473614e+04  3.0875054591473472e+04  3.0875054591490974e+04  3.0875054562652003e+04  3.0875315693656397e+04  3.2082293729923400e+04  3.2082021848306351e+04  3.2082021877534251e+04  3.2082021877519419e+04  3.2082021877519284e+04  3.2082021877519543e+04  3.2082021877519452e+04  3.2082021877519535e+04  3.2082021877519270e+04  3.2082021877519204e+04  3.2082021877519655e+04  3.2082021877519641e+04  3.2082021877519619e+04  3.2082021877534324e+04  3.2082021848306245e+04  3.2082293729923887e+04  3.3335266427494884e+04  3.3334985499498354e+04  3.3334985528631245e+04  3.3334985528618541e+04  3.3334985528617995e+04  3.3334985528617945e+04  3.3334985528618330e+04  3.3334985528618141e+04  3.3334985528618556e+04  3.3334985528618658e+04  3.3334985528618505e+04  3.3334985528617879e+04  3.3334985528618061e+04  3.3334985528631209e+04  3.3334985499498100e+04  3.3335266427495153e+04  3.4631182522067960e+04  3.4630894273144368e+04  3.4630894301775319e+04  3.4630894301762513e+04  3.4630894301763998e+04  3.4630894301763015e+04  3.4630894301763110e+04  3.4630894301763008e+04  3.4630894301762790e+04  3.4630894301763125e+04  3.4630894301762237e+04  3.4630894301763525e+04  3.4630894301762462e+04  3.4630894301775530e+04  3.4630894273145379e+04  3.4631182522068113e+04  3.5966849457165110e+04  3.5966555610357624e+04  3.5966555638121332e+04  3.5966555638124635e+04  3.5966555638116653e+04  3.5966555638120626e+04  3.5966555638118130e+04  3.5966555638119324e+04  3.5966555638119346e+04  3.5966555638118843e+04  3.5966555638120728e+04  3.5966555638116617e+04  3.5966555638124410e+04  3.5966555638121368e+04  3.5966555610358184e+04  3.5966849457165044e+04  3.7338940775087511e+04  3.7338643030245934e+04  3.7338643056991947e+04  3.7338643056914181e+04  3.7338643056956447e+04  3.7338643056935813e+04  3.7338643056944296e+04  3.7338643056941502e+04  3.7338643056941772e+04  3.7338643056943554e+04  3.7338643056936315e+04  3.7338643056956716e+04  3.7338643056914923e+04  3.7338643056992492e+04  3.7338643030245599e+04  3.7338940775088580e+04  3.8744004612938217e+04  3.8743704631425695e+04  3.8743704656115573e+04  3.8743704656524023e+04  3.8743704656299247e+04  3.8743704656396752e+04  3.8743704656362817e+04  3.8743704656372065e+04  3.8743704656371476e+04  3.8743704656362170e+04  3.8743704656396578e+04  3.8743704656299589e+04  3.8743704656524256e+04  3.8743704656115631e+04  3.8743704631425622e+04  3.8744004612938035e+04  4.0178473292604882e+04  4.0178172668849875e+04  4.0178172696353933e+04  4.0178172693965527e+04  4.0178172695110436e+04  4.0178172694689427e+04  4.0178172694812012e+04  4.0178172694782777e+04  4.0178172694783185e+04  4.0178172694811525e+04  4.0178172694689070e+04  4.0178172695110698e+04  4.0178172693965498e+04  4.0178172696354333e+04  4.0178172668850704e+04  4.0178473292605202e+04  4.1638673861458454e+04  4.1638374198986297e+04  4.1638374197636585e+04  4.1638374210910806e+04  4.1638374205583401e+04  4.1638374207141700e+04  4.1638374206782071e+04  4.1638374206852939e+04  4.1638374206852655e+04  4.1638374206782421e+04  4.1638374207141344e+04  4.1638374205582710e+04  4.1638374210911468e+04  4.1638374197637102e+04  4.1638374198987411e+04  4.1638673861459909e+04  4.3120840159994572e+04  4.3120542474375528e+04  4.3120542641037719e+04  4.3120542572244442e+04  4.3120542592883932e+04  4.3120542588534488e+04  4.3120542589343910e+04  4.3120542589206198e+04  4.3120542589205332e+04  4.3120542589345227e+04  4.3120542588534408e+04  4.3120542592884587e+04  4.3120542572244733e+04  4.3120542641038453e+04  4.3120542474375899e+04  4.3120840159994608e+04  4.4621121911182767e+04  4.4620830703098218e+04  4.4620829823941524e+04  4.4620830117822457e+04  4.4620830065958900e+04  4.4620830074398735e+04  4.4620830073046047e+04  4.4620830073256533e+04  4.4620830073257697e+04  4.4620830073044512e+04  4.4620830074398633e+04  4.4620830065958631e+04  4.4620830117823556e+04  4.4620829823941698e+04  4.4620830703098625e+04  4.4621121911183523e+04  4.6135624822807033e+04  4.6135316698885894e+04  4.6135321487664085e+04  4.6135320918021956e+04  4.6135320994213274e+04  4.6135320983252692e+04  4.6135320984895057e+04  4.6135320984649021e+04  4.6135320984648708e+04  4.6135320984895239e+04  4.6135320983254423e+04  4.6135320994213791e+04  4.6135320918022349e+04  4.6135321487664980e+04  4.6135316698885319e+04  4.6135624822806793e+04  4.7494292613215002e+04  4.7494214598546430e+04  4.7494210949902714e+04  4.7494211384826209e+04  4.7494211323453899e+04  4.7494211332617109e+04  4.7494211331206709e+04  4.7494211331422608e+04  4.7494211331422441e+04  4.7494211331206920e+04  4.7494211332617189e+04  4.7494211323454256e+04  4.7494211384825467e+04  4.7494210949902787e+04  4.7494214598546409e+04  4.7494292613216523e+04  4.7812728507847569e+04  4.7812730248736501e+04  4.7812728797616954e+04  4.7812728747260386e+04  4.7812728768746914e+04  4.7812728764279898e+04  4.7812728765093932e+04  4.7812728764956017e+04  4.7812728764956642e+04  4.7812728765094274e+04  4.7812728764279957e+04  4.7812728768746892e+04  4.7812728747261353e+04  4.7812728797617223e+04  4.7812730248736938e+04  4.7812728507846892e+04  4.7966516664035320e+04  4.7966513196753382e+04  4.7966513480624351e+04  4.7966513410649444e+04  4.7966513413122178e+04  4.7966513413896835e+04  4.7966513413627865e+04  4.7966513413687091e+04  4.7966513413686065e+04  4.7966513413628229e+04  4.7966513413896064e+04  4.7966513413122368e+04  4.7966513410648513e+04  4.7966513480623515e+04  4.7966513196754575e+04  4.7966516664035473e+04  4.8120842890458247e+04  4.8120840117238949e+04  4.8120840067921177e+04  4.8120840087632765e+04  4.8120840083292424e+04  4.8120840083699019e+04  4.8120840083705523e+04  4.8120840083692587e+04  4.8120840083692085e+04  4.8120840083704279e+04  4.8120840083697913e+04  4.8120840083292584e+04  4.8120840087632263e+04  4.8120840067921505e+04  4.8120840117237502e+04  4.8120842890458407e+04  4.8275670802618391e+04  4.8275667919913059e+04  4.8275667928118477e+04  4.8275667923993911e+04  4.8275667925395559e+04  4.8275667925087546e+04  4.8275667925129193e+04  4.8275667925126174e+04  4.8275667925126138e+04  4.8275667925128291e+04  4.8275667925087022e+04  4.8275667925393136e+04  4.8275667923993657e+04  4.8275667928118914e+04  4.8275667919913962e+04  4.8275670802618821e+04  4.8430958762782066e+04  4.8430955888183555e+04  4.8430955886865144e+04  4.8430955887641321e+04  4.8430955887309312e+04  4.8430955887414289e+04  4.8430955887389959e+04  4.8430955887392985e+04  4.8430955887392840e+04  4.8430955887388925e+04  4.8430955887412834e+04  4.8430955887309923e+04  4.8430955887642122e+04  4.8430955886864569e+04  4.8430955888183773e+04  4.8430958762780821e+04  4.8586665617443723e+04  4.8586662735025413e+04  4.8586662735270365e+04  4.8586662735130885e+04  4.8586662735199745e+04  4.8586662735173173e+04  4.8586662735180915e+04  4.8586662735179874e+04  4.8586662735179452e+04  4.8586662735182108e+04  4.8586662735173464e+04  4.8586662735199323e+04  4.8586662735130456e+04  4.8586662735270787e+04  4.8586662735025493e+04  4.8586665617444603e+04  4.8742749950549514e+04  4.8742747064564392e+04  4.8742747064554191e+04  4.8742747064577801e+04  4.8742747064564042e+04  4.8742747064569528e+04  4.8742747064567811e+04  4.8742747064568262e+04  4.8742747064569361e+04  4.8742747064566916e+04  4.8742747064569958e+04  4.8742747064563788e+04  4.8742747064576164e+04  4.8742747064552212e+04  4.8742747064563860e+04  4.8742749950548656e+04  4.8899170207768118e+04  4.8899167319342800e+04  4.8899167319371365e+04  4.8899167319368047e+04  4.8899167319369699e+04  4.8899167319367996e+04  4.8899167319369037e+04  4.8899167319368244e+04  4.8899167319369029e+04  4.8899167319369277e+04  4.8899167319367705e+04  4.8899167319370368e+04  4.8899167319367989e+04  4.8899167319371634e+04  4.8899167319341897e+04  4.8899170207766219e+04  4.9055884696838235e+04  4.9055881807589583e+04  4.9055881807612706e+04  4.9055881807613667e+04  4.9055881807613820e+04  4.9055881807613347e+04  4.9055881807613725e+04  4.9055881807614336e+04  4.9055881807612437e+04  4.9055881807613376e+04  4.9055881807613812e+04  4.9055881807612692e+04  4.9055881807613492e+04  4.9055881807611891e+04  4.9055881807589612e+04  4.9055884696839566e+04  4.9212851606706885e+04  4.9212848718166002e+04  4.9212848718189161e+04  4.9212848718190173e+04  4.9212848718190013e+04  4.9212848718190202e+04  4.9212848718189853e+04  4.9212848718189962e+04  4.9212848718189220e+04  4.9212848718188681e+04  4.9212848718188900e+04  4.9212848718189038e+04  4.9212848718189642e+04  4.9212848718188972e+04  4.9212848718165551e+04  4.9212851606708689e+04  4.9370029023906318e+04  4.9370026137606379e+04  4.9370026137631350e+04  4.9370026137631248e+04  4.9370026137630528e+04  4.9370026137630652e+04  4.9370026137630375e+04  4.9370026137629175e+04  4.9370026137630244e+04  4.9370026137629917e+04  4.9370026137630848e+04  4.9370026137630332e+04  4.9370026137629371e+04  4.9370026137631314e+04  4.9370026137606408e+04  4.9370029023905336e+04  4.9527374949485100e+04  4.9527372066960263e+04  4.9527372066983444e+04  4.9527372066982571e+04  4.9527372066983859e+04  4.9527372066983560e+04  4.9527372066982956e+04  4.9527372066983160e+04  4.9527372066982149e+04  4.9527372066983473e+04  4.9527372066981989e+04  4.9527372066981945e+04  4.9527372066982054e+04  4.9527372066981770e+04  4.9527372066960059e+04  4.9527374949485267e+04  4.9684847316027335e+04  4.9684844438776818e+04  4.9684844438807020e+04  4.9684844438805900e+04  4.9684844438804401e+04  4.9684844438806154e+04  4.9684844438806074e+04  4.9684844438806147e+04  4.9684844438806307e+04  4.9684844438806627e+04  4.9684844438804459e+04  4.9684844438804881e+04  4.9684844438805419e+04  4.9684844438807500e+04  4.9684844438777392e+04  4.9684847316028063e+04  4.9842404004626304e+04  4.9842401134251719e+04  4.9842401134221080e+04  4.9842401134213382e+04  4.9842401134214066e+04  4.9842401134215208e+04  4.9842401134214859e+04  4.9842401134213695e+04  4.9842401134214146e+04  4.9842401134211876e+04  4.9842401134213549e+04  4.9842401134214233e+04  4.9842401134212974e+04  4.9842401134219130e+04  4.9842401134251537e+04  4.9842404004628690e+04  4.9962060871334048e+04  4.9962058006723579e+04  4.9962058006470877e+04  4.9962058006489468e+04  4.9962058006485226e+04  4.9962058006487743e+04  4.9962058006485182e+04  4.9962058006483596e+04  4.9962058006484855e+04  4.9962058006487779e+04  4.9962058006486150e+04  4.9962058006484993e+04  4.9962058006488813e+04  4.9962058006471125e+04  4.9962058006723870e+04  4.9962060871330243e+04  1.9554862515248664e+04  1.9554862665927907e+04  1.9554862690455640e+04  1.9554862690657712e+04  1.9554862690636728e+04  1.9554862690639078e+04  1.9554862690638784e+04  1.9554862690638831e+04  1.9554862690638824e+04  1.9554862690639104e+04  1.9554862690636772e+04  1.9554862690657854e+04  1.9554862690455808e+04  1.9554862665928133e+04  1.9554862515248911e+04  1.9628825159864798e+04  1.9628825820854385e+04  1.9628825850746984e+04  1.9628825850402685e+04  1.9628825850441208e+04  1.9628825850436348e+04  1.9628825850437068e+04  1.9628825850436995e+04  1.9628825850437017e+04  1.9628825850436438e+04  1.9628825850441310e+04  1.9628825850402856e+04  1.9628825850747216e+04  1.9628825820854694e+04  1.9628825159865126e+04  1.9776602089733482e+04  1.9776603789956069e+04  1.9776603816147075e+04  1.9776603816229443e+04  1.9776603816206083e+04  1.9776603816209987e+04  1.9776603816209346e+04  1.9776603816209437e+04  1.9776603816209405e+04  1.9776603816209979e+04  1.9776603816206174e+04  1.9776603816229668e+04  1.9776603816147359e+04  1.9776603789956444e+04  1.9776602089733897e+04  1.9997896220597839e+04  1.9997899451636542e+04  1.9997899475558719e+04  1.9997899475518872e+04  1.9997899475526439e+04  1.9997899475524679e+04  1.9997899475525017e+04  1.9997899475524908e+04  1.9997899475525024e+04  1.9997899475524668e+04  1.9997899475526563e+04  1.9997899475519182e+04  1.9997899475559083e+04  1.9997899451636855e+04  1.9997896220598122e+04  2.0292260946019196e+04  2.0292266145007481e+04  2.0292266165728899e+04  2.0292266165718615e+04  2.0292266165716868e+04  2.0292266165717443e+04  2.0292266165717541e+04  2.0292266165717610e+04  2.0292266165717265e+04  2.0292266165717498e+04  2.0292266165717036e+04  2.0292266165718727e+04  2.0292266165729096e+04  2.0292266145007747e+04  2.0292260946019444e+04  2.0659098962282958e+04  2.0659106513765801e+04  2.0659106530889283e+04  2.0659106530880596e+04  2.0659106530880843e+04  2.0659106530880654e+04  2.0659106530880603e+04  2.0659106530880570e+04  2.0659106530880959e+04  2.0659106530880905e+04  2.0659106530881003e+04  2.0659106530880708e+04  2.0659106530889410e+04  2.0659106513765946e+04  2.0659098962283060e+04  2.1097660841675224e+04  2.1097671066404928e+04  2.1097671079662516e+04  2.109