<?xml version="1.0"?>
<VTKFile type="UnstructuredGrid"  version="0.1"  >
<UnstructuredGrid>
<Piece  NumberOfPoints="431" NumberOfCells="800">
<Points>
<DataArray  type="Float64"  NumberOfComponents="3"  format="ascii">-0.25 -1 0  -0.2 -1 0  -0.15 -1 0  -0.1 -1 0  -0.04999999999999999 -1 0  0 -1 0  0.04999999999999999 -1 0  0.09999999999999998 -1 0  0.15 -1 0  0.2 -1 0  0.25 -1 0  -0.25 -0.95 0  -0.2 -0.95 0  -0.15 -0.95 0  -0.1 -0.95 0  -0.04999999999999999 -0.95 0  0 -0.95 0  0.04999999999999999 -0.95 0  0.09999999999999998 -0.95 0  0.15 -0.95 0  0.2 -0.95 0  0.25 -0.95 0  -0.25 -0.9 0  -0.2 -0.9 0  -0.15 -0.9 0  -0.1 -0.9 0  -0.04999999999999999 -0.9 0  0 -0.9 0  0.04999999999999999 -0.9 0  0.09999999999999998 -0.9 0  0.15 -0.9 0  0.2 -0.9 0  0.25 -0.9 0  -0.25 -0.85 0  -0.2 -0.85 0  -0.15 -0.85 0  -0.1 -0.85 0  -0.04999999999999999 -0.85 0  0 -0.85 0  0.04999999999999999 -0.85 0  0.09999999999999998 -0.85 0  0.15 -0.85 0  0.2 -0.85 0  0.25 -0.85 0  -0.25 -0.8 0  -0.2 -0.8 0  -0.15 -0.8 0  -0.1 -0.8 0  -0.04999999999999999 -0.8 0  0 -0.8 0  0.04999999999999999 -0.8 0  0.09999999999999998 -0.8 0  0.15 -0.8 0  0.2 -0.8 0  0.25 -0.8 0  -0.25 -0.75 0  -0.2 -0.75 0  -0.15 -0.75 0  -0.1 -0.75 0  -0.04999999999999999 -0.75 0  0 -0.75 0  0.04999999999999999 -0.75 0  0.09999999999999998 -0.75 0  0.15 -0.75 0  0.2 -0.75 0  0.25 -0.75 0  -0.25 -0.7 0  -0.2 -0.7 0  -0.15 -0.7 0  -0.1 -0.7 0  -0.04999999999999999 -0.7 0  0 -0.7 0  0.04999999999999999 -0.7 0  0.09999999999999998 -0.7 0  0.15 -0.7 0  0.2 -0.7 0  0.25 -0.7 0  -0.25 -0.65 0  -0.2 -0.65 0  -0.15 -0.65 0  -0.1 -0.65 0  -0.04999999999999999 -0.65 0  0 -0.65 0  0.04999999999999999 -0.65 0  0.09999999999999998 -0.65 0  0.15 -0.65 0  0.2 -0.65 0  0.25 -0.65 0  -0.25 -0.6 0  -0.2 -0.6 0  -0.15 -0.6 0  -0.1 -0.6 0  -0.04999999999999999 -0.6 0  0 -0.6 0  0.04999999999999999 -0.6 0  0.09999999999999998 -0.6 0  0.15 -0.6 0  0.2 -0.6 0  0.25 -0.6 0  -0.25 -0.55 0  -0.2 -0.55 0  -0.15 -0.55 0  -0.1 -0.55 0  -0.04999999999999999 -0.55 0  0 -0.55 0  0.04999999999999999 -0.55 0  0.09999999999999998 -0.55 0  0.15 -0.55 0  0.2 -0.55 0  0.25 -0.55 0  -0.25 -0.5 0  -0.2 -0.5 0  -0.15 -0.5 0  -0.1 -0.5 0  -0.04999999999999999 -0.5 0  0 -0.5 0  0.04999999999999999 -0.5 0  0.09999999999999998 -0.5 0  0.15 -0.5 0  0.2 -0.5 0  0.25 -0.5 0  -0.25 -0.45 0  -0.2 -0.45 0  -0.15 -0.45 0  -0.1 -0.45 0  -0.04999999999999999 -0.45 0  0 -0.45 0  0.04999999999999999 -0.45 0  0.09999999999999998 -0.45 0  0.15 -0.45 0  0.2 -0.45 0  0.25 -0.45 0  -0.25 -0.4 0  -0.2 -0.4 0  -0.15 -0.4 0  -0.1 -0.4 0  -0.04999999999999999 -0.4 0  0 -0.4 0  0.04999999999999999 -0.4 0  0.09999999999999998 -0.4 0  0.15 -0.4 0  0.2 -0.4 0  0.25 -0.4 0  -0.25 -0.35 0  -0.2 -0.35 0  -0.15 -0.35 0  -0.1 -0.35 0  -0.04999999999999999 -0.35 0  0 -0.35 0  0.04999999999999999 -0.35 0  0.09999999999999998 -0.35 0  0.15 -0.35 0  0.2 -0.35 0  0.25 -0.35 0  -0.25 -0.3 0  -0.2 -0.3 0  -0.15 -0.3 0  -0.1 -0.3 0  -0.04999999999999999 -0.3 0  0 -0.3 0  0.04999999999999999 -0.3 0  0.09999999999999998 -0.3 0  0.15 -0.3 0  0.2 -0.3 0  0.25 -0.3 0  -0.25 -0.25 0  -0.2 -0.25 0  -0.15 -0.25 0  -0.1 -0.25 0  -0.04999999999999999 -0.25 0  0 -0.25 0  0.04999999999999999 -0.25 0  0.09999999999999998 -0.25 0  0.15 -0.25 0  0.2 -0.25 0  0.25 -0.25 0  -0.25 -0.2 0  -0.2 -0.2 0  -0.15 -0.2 0  -0.1 -0.2 0  -0.04999999999999999 -0.2 0  0 -0.2 0  0.04999999999999999 -0.2 0  0.09999999999999998 -0.2 0  0.15 -0.2 0  0.2 -0.2 0  0.25 -0.2 0  -0.25 -0.15 0  -0.2 -0.15 0  -0.15 -0.15 0  -0.1 -0.15 0  -0.04999999999999999 -0.15 0  0 -0.15 0  0.04999999999999999 -0.15 0  0.09999999999999998 -0.15 0  0.15 -0.15 0  0.2 -0.15 0  0.25 -0.15 0  -0.25 -0.09999999999999998 0  -0.2 -0.09999999999999998 0  -0.15 -0.09999999999999998 0  -0.1 -0.09999999999999998 0  -0.04999999999999999 -0.09999999999999998 0  0 -0.09999999999999998 0  0.04999999999999999 -0.09999999999999998 0  0.09999999999999998 -0.09999999999999998 0  0.15 -0.09999999999999998 0  0.2 -0.09999999999999998 0  0.25 -0.09999999999999998 0  -0.25 -0.05000000000000004 0  -0.2 -0.05000000000000004 0  -0.15 -0.05000000000000004 0  -0.1 -0.05000000000000004 0  -0.04999999999999999 -0.05000000000000004 0  0 -0.05000000000000004 0  0.04999999999999999 -0.05000000000000004 0  0.09999999999999998 -0.05000000000000004 0  0.15 -0.05000000000000004 0  0.2 -0.05000000000000004 0  0.25 -0.05000000000000004 0  -0.25 0 0  -0.2 0 0  -0.15 0 0  -0.1 0 0  -0.04999999999999999 0 0  0 0 0  0.04999999999999999 0 0  0.09999999999999998 0 0  0.15 0 0  0.2 0 0  0.25 0 0  -0.225 -0.975 0  -0.175 -0.975 0  -0.125 -0.975 0  -0.07500000000000001 -0.975 0  -0.02499999999999999 -0.975 0  0.02500000000000002 -0.975 0  0.07500000000000001 -0.975 0  0.125 -0.975 0  0.175 -0.975 0  0.225 -0.975 0  -0.225 -0.925 0  -0.175 -0.925 0  -0.125 -0.925 0  -0.07500000000000001 -0.925 0  -0.02499999999999999 -0.925 0  0.02500000000000002 -0.925 0  0.07500000000000001 -0.925 0  0.125 -0.925 0  0.175 -0.925 0  0.225 -0.925 0  -0.225 -0.875 0  -0.175 -0.875 0  -0.125 -0.875 0  -0.07500000000000001 -0.875 0  -0.02499999999999999 -0.875 0  0.02500000000000002 -0.875 0  0.07500000000000001 -0.875 0  0.125 -0.875 0  0.175 -0.875 0  0.225 -0.875 0  -0.225 -0.825 0  -0.175 -0.825 0  -0.125 -0.825 0  -0.07500000000000001 -0.825 0  -0.02499999999999999 -0.825 0  0.02500000000000002 -0.825 0  0.07500000000000001 -0.825 0  0.125 -0.825 0  0.175 -0.825 0  0.225 -0.825 0  -0.225 -0.775 0  -0.175 -0.775 0  -0.125 -0.775 0  -0.07500000000000001 -0.775 0  -0.02499999999999999 -0.775 0  0.02500000000000002 -0.775 0  0.07500000000000001 -0.775 0  0.125 -0.775 0  0.175 -0.775 0  0.225 -0.775 0  -0.225 -0.725 0  -0.175 -0.725 0  -0.125 -0.725 0  -0.07500000000000001 -0.725 0  -0.02499999999999999 -0.725 0  0.02500000000000002 -0.725 0  0.07500000000000001 -0.725 0  0.125 -0.725 0  0.175 -0.725 0  0.225 -0.725 0  -0.225 -0.675 0  -0.175 -0.675 0  -0.125 -0.675 0  -0.07500000000000001 -0.675 0  -0.02499999999999999 -0.675 0  0.02500000000000002 -0.675 0  0.07500000000000001 -0.675 0  0.125 -0.675 0  0.175 -0.675 0  0.225 -0.675 0  -0.225 -0.625 0  -0.175 -0.625 0  -0.125 -0.625 0  -0.07500000000000001 -0.625 0  -0.02499999999999999 -0.625 0  0.02500000000000002 -0.625 0  0.07500000000000001 -0.625 0  0.125 -0.625 0  0.175 -0.625 0  0.225 -0.625 0  -0.225 -0.575 0  -0.175 -0.575 0  -0.125 -0.575 0  -0.07500000000000001 -0.575 0  -0.02499999999999999 -0.575 0  0.02500000000000002 -0.575 0  0.07500000000000001 -0.575 0  0.125 -0.575 0  0.175 -0.575 0  0.225 -0.575 0  -0.225 -0.525 0  -0.175 -0.525 0  -0.125 -0.525 0  -0.07500000000000001 -0.525 0  -0.02499999999999999 -0.525 0  0.02500000000000002 -0.525 0  0.07500000000000001 -0.525 0  0.125 -0.525 0  0.175 -0.525 0  0.225 -0.525 0  -0.225 -0.475 0  -0.175 -0.475 0  -0.125 -0.475 0  -0.07500000000000001 -0.475 0  -0.02499999999999999 -0.475 0  0.02500000000000002 -0.475 0  0.07500000000000001 -0.475 0  0.125 -0.475 0  0.175 -0.475 0  0.225 -0.475 0  -0.225 -0.425 0  -0.175 -0.425 0  -0.125 -0.425 0  -0.07500000000000001 -0.425 0  -0.02499999999999999 -0.425 0  0.02500000000000002 -0.425 0  0.07500000000000001 -0.425 0  0.125 -0.425 0  0.175 -0.425 0  0.225 -0.425 0  -0.225 -0.375 0  -0.175 -0.375 0  -0.125 -0.375 0  -0.07500000000000001 -0.375 0  -0.02499999999999999 -0.375 0  0.02500000000000002 -0.375 0  0.07500000000000001 -0.375 0  0.125 -0.375 0  0.175 -0.375 0  0.225 -0.375 0  -0.225 -0.325 0  -0.175 -0.325 0  -0.125 -0.325 0  -0.07500000000000001 -0.325 0  -0.02499999999999999 -0.325 0  0.02500000000000002 -0.325 0  0.07500000000000001 -0.325 0  0.125 -0.325 0  0.175 -0.325 0  0.225 -0.325 0  -0.225 -0.275 0  -0.175 -0.275 0  -0.125 -0.275 0  -0.07500000000000001 -0.275 0  -0.02499999999999999 -0.275 0  0.02500000000000002 -0.275 0  0.07500000000000001 -0.275 0  0.125 -0.275 0  0.175 -0.275 0  0.225 -0.275 0  -0.225 -0.225 0  -0.175 -0.225 0  -0.125 -0.225 0  -0.07500000000000001 -0.225 0  -0.02499999999999999 -0.225 0  0.02500000000000002 -0.225 0  0.07500000000000001 -0.225 0  0.125 -0.225 0  0.175 -0.225 0  0.225 -0.225 0  -0.225 -0.175 0  -0.175 -0.175 0  -0.125 -0.175 0  -0.07500000000000001 -0.175 0  -0.02499999999999999 -0.175 0  0.02500000000000002 -0.175 0  0.07500000000000001 -0.175 0  0.125 -0.175 0  0.175 -0.175 0  0.225 -0.175 0  -0.225 -0.125 0  -0.175 -0.125 0  -0.125 -0.125 0  -0.07500000000000001 -0.125 0  -0.02499999999999999 -0.125 0  0.02500000000000002 -0.125 0  0.07500000000000001 -0.125 0  0.125 -0.125 0  0.175 -0.125 0  0.225 -0.125 0  -0.225 -0.07499999999999996 0  -0.175 -0.07499999999999996 0  -0.125 -0.07499999999999996 0  -0.07500000000000001 -0.07499999999999996 0  -0.02499999999999999 -0.07499999999999996 0  0.02500000000000002 -0.07499999999999996 0  0.07500000000000001 -0.07499999999999996 0  0.125 -0.07499999999999996 0  0.175 -0.07499999999999996 0  0.225 -0.07499999999999996 0  -0.225 -0.02500000000000002 0  -0.175 -0.02500000000000002 0  -0.125 -0.02500000000000002 0  -0.07500000000000001 -0.02500000000000002 0  -0.02499999999999999 -0.02500000000000002 0  0.02500000000000002 -0.02500000000000002 0  0.07500000000000001 -0.02500000000000002 0  0.125 -0.02500000000000002 0  0.175 -0.02500000000000002 0  0.225 -0.02500000000000002 0  </DataArray>
</Points>
<Cells>
[...]
<PointData  Scalars="mean stress"> 
<DataArray  type="Float64"  Name="mean stress"  format="ascii">4.4019655941351809e+07  4.4019655911880158e+07  4.4019655908483692e+07  4.4019655908141032e+07  4.4019655908189021e+07  4.4019655908180900e+07  4.4019655908189021e+07  4.4019655908140883e+07  4.4019655908483587e+07  4.4019655911879994e+07  4.4019655941351674e+07  4.4038091474472299e+07  4.4038091319643699e+07  4.4038091312117644e+07  4.4038091312358879e+07  4.4038091312321298e+07  4.4038091312328011e+07  4.4038091312321201e+07  4.4038091312358707e+07  4.4038091312117420e+07  4.4038091319643520e+07  4.4038091474472240e+07  4.4093284561883502e+07  4.4093283870393418e+07  4.4093283864463285e+07  4.4093283864392467e+07  4.4093283864410572e+07  4.4093283864406429e+07  4.4093283864410453e+07  4.4093283864392370e+07  4.4093283864463076e+07  4.4093283870393299e+07  4.4093284561883405e+07  4.4184894842493244e+07  4.4184893289834939e+07  4.4184893284110874e+07  4.4184893284132510e+07  4.4184893284126624e+07  4.4184893284128457e+07  4.4184893284126528e+07  4.4184893284132257e+07  4.4184893284110762e+07  4.4184893289834671e+07  4.4184894842493020e+07  4.4312357499317609e+07  4.4312354774258696e+07  4.4312354769172184e+07  4.4312354769173168e+07  4.4312354769174606e+07  4.4312354769173801e+07  4.4312354769174531e+07  4.4312354769173205e+07  4.4312354769171990e+07  4.4312354774258271e+07  4.4312357499317273e+07  4.4474886653884090e+07  4.4474882481758542e+07  4.4474882477396563e+07  4.4474882477400236e+07  4.4474882477400094e+07  4.4474882477400191e+07  4.4474882477399871e+07  4.4474882477400325e+07  4.4474882477396391e+07  4.4474882481758498e+07  4.4474886653883986e+07  4.4671480227576010e+07  4.4671474375308514e+07  4.4671474371786498e+07  4.4671474371788733e+07  4.4671474371788837e+07  4.4671474371788949e+07  4.4671474371788777e+07  4.4671474371788725e+07  4.4671474371786185e+07  4.4671474375308380e+07  4.4671480227575853e+07  4.4900926118042111e+07  4.4900918400925800e+07  4.4900918398321703e+07  4.4900918398323074e+07  4.4900918398323074e+07  4.4900918398323260e+07  4.4900918398323461e+07  4.4900918398322992e+07  4.4900918398321629e+07  4.4900918400926039e+07  4.4900926118042387e+07  4.5161809674031332e+07  4.5161799960319281e+07  4.5161799958681688e+07  4.5161799958682537e+07  4.5161799958682172e+07  4.5161799958682008e+07  4.5161799958681867e+07  4.5161799958682284e+07  4.5161799958681740e+07  4.5161799960319005e+07  4.5161809674031243e+07  4.5452522418454103e+07  4.5452510632340595e+07  4.5452510631687909e+07  4.5452510631687589e+07  4.5452510631687492e+07  4.5452510631687656e+07  4.5452510631687485e+07  4.5452510631687634e+07  4.5452510631687976e+07  4.5452510632340267e+07  4.5452522418454207e+07  4.5771271966583431e+07  4.5771258089414746e+07  4.5771258089734532e+07  4.5771258089733139e+07  4.5771258089733116e+07  4.5771258089733131e+07  4.5771258089733191e+07  4.5771258089732796e+07  4.5771258089734584e+07  4.5771258089414552e+07  4.5771271966583245e+07  4.6116093078054845e+07  4.6116077147810146e+07  4.6116077149062753e+07  4.6116077149060197e+07  4.6116077149060734e+07  4.6116077149060734e+07  4.6116077149060711e+07  4.6116077149061032e+07  4.6116077149063028e+07  4.6116077147810712e+07  4.6116093078054212e+07  4.6484859774496429e+07  4.6484841883639470e+07  4.6484841885756537e+07  4.6484841885753311e+07  4.6484841885753520e+07  4.6484841885752954e+07  4.6484841885753080e+07  4.6484841885753103e+07  4.6484841885756247e+07  4.6484841883639790e+07  4.6484859774497353e+07  4.6875298448044248e+07  4.6875278739862181e+07  4.6875278742754161e+07  4.6875278742751256e+07  4.6875278742751025e+07  4.6875278742750905e+07  4.6875278742751092e+07  4.6875278742751002e+07  4.6875278742754266e+07  4.6875278739862248e+07  4.6875298448044248e+07  4.7285001879877448e+07  4.7284980543517292e+07  4.7284980547077544e+07  4.7284980547073737e+07  4.7284980547073476e+07  4.7284980547074065e+07  4.7284980547074020e+07  4.7284980547073677e+07  4.7284980547077157e+07  4.7284980543517128e+07  4.7285001879878476e+07  4.7711444082338892e+07  4.7711421346742190e+07  4.7711421350847341e+07  4.7711421350843623e+07  4.7711421350843720e+07  4.7711421350843407e+07  4.7711421350843810e+07  4.7711421350843571e+07  4.7711421350847699e+07  4.7711421346742257e+07  4.7711444082338288e+07  4.8151995873112068e+07  4.8151972000070684e+07  4.8151972004597232e+07  4.8151972004590243e+07  4.8151972004591510e+07  4.8151972004590467e+07  4.8151972004590772e+07  4.8151972004590370e+07  4.8151972004596643e+07  4.8151972000070937e+07  4.8151995873112015e+07  4.8603941085384518e+07  4.8603916362067714e+07  4.8603916366833985e+07  4.8603916366843238e+07  4.8603916366840221e+07  4.8603916366841055e+07  4.8603916366839454e+07  4.8603916366842471e+07  4.8603916366833463e+07  4.8603916362067804e+07  4.8603941085385635e+07  4.9064493314479157e+07  4.9064468044970676e+07  4.9064468050102875e+07  4.9064468050044261e+07  4.9064468050039485e+07  4.9064468050040476e+07  4.9064468050039113e+07  4.9064468050043903e+07  4.9064468050102733e+07  4.9064468044969194e+07  4.9064493314478524e+07  4.9530813095632739e+07  4.9530787596272729e+07  4.9530787599738248e+07  4.9530787599554539e+07  4.9530787599586360e+07  4.9530787599581324e+07  4.9530787599586859e+07  4.9530787599554695e+07  4.9530787599739149e+07  4.9530787596273825e+07  4.9530813095633700e+07  4.9886962165944785e+07  4.9886936682846196e+07  4.9886936680397101e+07  4.9886936680852108e+07  4.9886936680800281e+07  4.9886936680808984e+07  4.9886936680800267e+07  4.9886936680853158e+07  4.9886936680396318e+07  4.9886936682846405e+07  4.9886962165942855e+07  4.4020002745697409e+07  4.4020002762352213e+07  4.4020002765064113e+07  4.4020002765086770e+07  4.4020002765084438e+07  4.4020002765084468e+07  4.4020002765086755e+07  4.4020002765064076e+07  4.4020002762352131e+07  4.4020002745697178e+07  4.4056871358465232e+07  4.4056871431603231e+07  4.4056871434918910e+07  4.4056871434881046e+07  4.4056871434885234e+07  4.4056871434885226e+07  4.4056871434881084e+07  4.4056871434918746e+07  4.4056871431602955e+07  4.4056871358464949e+07  4.4130381275848873e+07  4.4130381464037135e+07  4.4130381466962792e+07  4.4130381466971934e+07  4.4130381466969460e+07  4.4130381466969498e+07  4.4130381466971904e+07  4.4130381466962717e+07  4.4130381464037105e+07  4.4130381275848798e+07  4.4240079287326321e+07  4.4240079645037808e+07  4.4240079647734560e+07  4.4240079647729836e+07  4.4240079647730403e+07  4.4240079647730537e+07  4.4240079647729769e+07  4.4240079647734292e+07  4.4240079645037472e+07  4.4240079287325963e+07  4.4385289073682882e+07  4.4385289649306953e+07  4.4385289651667789e+07  4.4385289651666462e+07  4.4385289651666239e+07  4.4385289651665866e+07  4.4385289651666172e+07  4.4385289651667625e+07  4.4385289649306647e+07  4.4385289073682912e+07  4.4565115373298019e+07  4.4565116209173292e+07  4.4565116211142831e+07  4.4565116211141348e+07  4.4565116211141475e+07  4.4565116211141504e+07  4.4565116211140998e+07  4.4565116211142384e+07  4.4565116209173232e+07  4.4565115373297706e+07  4.4778449503566451e+07  4.4778450634461768e+07  4.4778450635992065e+07  4.4778450635990947e+07  4.4778450635991022e+07  4.4778450635990739e+07  4.4778450635990895e+07  4.4778450635992460e+07  4.4778450634461559e+07  4.4778449503565989e+07  4.5023976195609361e+07  4.5023977647885188e+07  4.5023977648944981e+07  4.5023977648944065e+07  4.5023977648944058e+07  4.5023977648944370e+07  4.5023977648944408e+07  4.5023977648944840e+07  4.5023977647885375e+07  4.5023976195609622e+07  4.5300181703194596e+07  4.5300183494149595e+07  4.5300183494722039e+07  4.5300183494722098e+07  4.5300183494721651e+07  4.5300183494721957e+07  4.5300183494721919e+07  4.5300183494721457e+07  4.5300183494149528e+07  4.5300181703195088e+07  4.5605363135209598e+07  4.5605365272736698e+07  4.5605365272819929e+07  4.5605365272820435e+07  4.5605365272820823e+07  4.5605365272820286e+07  4.5605365272820346e+07  4.5605365272820726e+07  4.5605365272736832e+07  4.5605363135209084e+07  4.5937638954306565e+07  4.5937641436829738e+07  4.5937641436437450e+07  4.5937641436438799e+07  4.5937641436438471e+07  4.5937641436438881e+07  4.5937641436438493e+07  4.5937641436436795e+07  4.5937641436829843e+07  4.5937638954306833e+07  4.6294960576960981e+07  4.6294963393660910e+07  4.6294963392820522e+07  4.6294963392820008e+07  4.6294963392820209e+07  4.6294963392819650e+07  4.6294963392820075e+07  4.6294963392819941e+07  4.6294963393660001e+07  4.6294960576961398e+07  4.6675125003457747e+07  4.6675128134740762e+07  4.6675128133489206e+07  4.6675128133492179e+07  4.6675128133491732e+07  4.6675128133492395e+07  4.6675128133493192e+07  4.6675128133490473e+07  4.6675128134741314e+07  4.6675125003457256e+07  4.7075788399915271e+07  4.7075791818148062e+07  4.7075791816536061e+07  4.7075791816537432e+07  4.7075791816537961e+07  4.7075791816536888e+07  4.7075791816536024e+07  4.7075791816535659e+07  4.7075791818147957e+07  4.7075788399915338e+07  4.7494480548653282e+07  4.7494484219057895e+07  4.7494484217143603e+07  4.7494484217145883e+07  4.7494484217145436e+07  4.7494484217146084e+07  4.7494484217146233e+07  4.7494484217143841e+07  4.7494484219058461e+07  4.7494480548653446e+07  4.7928620077775761e+07  4.7928623959527999e+07  4.7928623957371846e+07  4.7928623957374446e+07  4.7928623957374647e+07  4.7928623957374603e+07  4.7928623957374811e+07  4.7928623957371525e+07  4.7928623959527507e+07  4.7928620077775724e+07  4.8375530376113698e+07  4.8375534423529379e+07  4.8375534421205707e+07  4.8375534421205260e+07  4.8375534421206072e+07  4.8375534421206869e+07  4.8375534421206988e+07  4.8375534421207130e+07  4.8375534423529893e+07  4.8375530376113720e+07  4.8832456095357537e+07  4.8832460259228058e+07  4.8832460256765746e+07  4.8832460256779686e+07  4.8832460256781071e+07  4.8832460256780237e+07  4.8832460256779246e+07  4.8832460256766275e+07  4.8832460259228297e+07  4.8832456095357955e+07  4.9296580137391418e+07  4.9296584366114415e+07  4.9296584364025369e+07  4.9296584364079729e+07  4.9296584364072993e+07  4.9296584364073262e+07  4.9296584364078552e+07  4.9296584364024058e+07  4.9296584366114199e+07  4.9296580137391254e+07  4.9821572665524088e+07  4.9821576923241325e+07  4.9821576922918625e+07  4.9821576922855631e+07  4.9821576922860123e+07  4.9821576922859147e+07  4.9821576922854535e+07  4.9821576922917590e+07  4.9821576923240274e+07  4.9821572665523335e+07  </DataArray> 
</PointData> 
</Piece>
</UnstructuredGrid>
</VTKFile>