<?xml version="1.0"?>
<VTKFile type="UnstructuredGrid"  version="0.1"  >
<UnstructuredGrid>
<Piece  NumberOfPoints="431" NumberOfCells="800">
<Points>
<DataArray  type="Float64"  NumberOfComponents="3"  format="ascii">-0.75 -3 0  -0.6 -3 0  -0.45 -3 0  -0.3 -3 0  -0.15 -3 0  0 -3 0  0.15 -3 0  0.3 -3 0  0.45 -3 0  0.6000000000000001 -3 0  0.75 -3 0  -0.75 -2.85 0  -0.6 -2.85 0  -0.45 -2.85 0  -0.3 -2.85 0  -0.15 -2.85 0  0 -2.85 0  0.15 -2.85 0  0.3 -2.85 0  0.45 -2.85 0  0.6000000000000001 -2.85 0  0.75 -2.85 0  -0.75 -2.7 0  -0.6 -2.7 0  -0.45 -2.7 0  -0.3 -2.7 0  -0.15 -2.7 0  0 -2.7 0  0.15 -2.7 0  0.3 -2.7 0  0.45 -2.7 0  0.6000000000000001 -2.7 0  0.75 -2.7 0  -0.75 -2.55 0  -0.6 -2.55 0  -0.45 -2.55 0  -0.3 -2.55 0  -0.15 -2.55 0  0 -2.55 0  0.15 -2.55 0  0.3 -2.55 0  0.45 -2.55 0  0.6000000000000001 -2.55 0  0.75 -2.55 0  -0.75 -2.4 0  -0.6 -2.4 0  -0.45 -2.4 0  -0.3 -2.4 0  -0.15 -2.4 0  0 -2.4 0  0.15 -2.4 0  0.3 -2.4 0  0.45 -2.4 0  0.6000000000000001 -2.4 0  0.75 -2.4 0  -0.75 -2.25 0  -0.6 -2.25 0  -0.45 -2.25 0  -0.3 -2.25 0  -0.15 -2.25 0  0 -2.25 0  0.15 -2.25 0  0.3 -2.25 0  0.45 -2.25 0  0.6000000000000001 -2.25 0  0.75 -2.25 0  -0.75 -2.1 0  -0.6 -2.1 0  -0.45 -2.1 0  -0.3 -2.1 0  -0.15 -2.1 0  0 -2.1 0  0.15 -2.1 0  0.3 -2.1 0  0.45 -2.1 0  0.6000000000000001 -2.1 0  0.75 -2.1 0  -0.75 -1.95 0  -0.6 -1.95 0  -0.45 -1.95 0  -0.3 -1.95 0  -0.15 -1.95 0  0 -1.95 0  0.15 -1.95 0  0.3 -1.95 0  0.45 -1.95 0  0.6000000000000001 -1.95 0  0.75 -1.95 0  -0.75 -1.8 0  -0.6 -1.8 0  -0.45 -1.8 0  -0.3 -1.8 0  -0.15 -1.8 0  0 -1.8 0  0.15 -1.8 0  0.3 -1.8 0  0.45 -1.8 0  0.6000000000000001 -1.8 0  0.75 -1.8 0  -0.75 -1.65 0  -0.6 -1.65 0  -0.45 -1.65 0  -0.3 -1.65 0  -0.15 -1.65 0  0 -1.65 0  0.15 -1.65 0  0.3 -1.65 0  0.45 -1.65 0  0.6000000000000001 -1.65 0  0.75 -1.65 0  -0.75 -1.5 0  -0.6 -1.5 0  -0.45 -1.5 0  -0.3 -1.5 0  -0.15 -1.5 0  0 -1.5 0  0.15 -1.5 0  0.3 -1.5 0  0.45 -1.5 0  0.6000000000000001 -1.5 0  0.75 -1.5 0  -0.75 -1.35 0  -0.6 -1.35 0  -0.45 -1.35 0  -0.3 -1.35 0  -0.15 -1.35 0  0 -1.35 0  0.15 -1.35 0  0.3 -1.35 0  0.45 -1.35 0  0.6000000000000001 -1.35 0  0.75 -1.35 0  -0.75 -1.2 0  -0.6 -1.2 0  -0.45 -1.2 0  -0.3 -1.2 0  -0.15 -1.2 0  0 -1.2 0  0.15 -1.2 0  0.3 -1.2 0  0.45 -1.2 0  0.6000000000000001 -1.2 0  0.75 -1.2 0  -0.75 -1.05 0  -0.6 -1.05 0  -0.45 -1.05 0  -0.3 -1.05 0  -0.15 -1.05 0  0 -1.05 0  0.15 -1.05 0  0.3 -1.05 0  0.45 -1.05 0  0.6000000000000001 -1.05 0  0.75 -1.05 0  -0.75 -0.8999999999999999 0  -0.6 -0.8999999999999999 0  -0.45 -0.8999999999999999 0  -0.3 -0.8999999999999999 0  -0.15 -0.8999999999999999 0  0 -0.8999999999999999 0  0.15 -0.8999999999999999 0  0.3 -0.8999999999999999 0  0.45 -0.8999999999999999 0  0.6000000000000001 -0.8999999999999999 0  0.75 -0.8999999999999999 0  -0.75 -0.75 0  -0.6 -0.75 0  -0.45 -0.75 0  -0.3 -0.75 0  -0.15 -0.75 0  0 -0.75 0  0.15 -0.75 0  0.3 -0.75 0  0.45 -0.75 0  0.6000000000000001 -0.75 0  0.75 -0.75 0  -0.75 -0.6000000000000001 0  -0.6 -0.6000000000000001 0  -0.45 -0.6000000000000001 0  -0.3 -0.6000000000000001 0  -0.15 -0.6000000000000001 0  0 -0.6000000000000001 0  0.15 -0.6000000000000001 0  0.3 -0.6000000000000001 0  0.45 -0.6000000000000001 0  0.6000000000000001 -0.6000000000000001 0  0.75 -0.6000000000000001 0  -0.75 -0.4500000000000002 0  -0.6 -0.4500000000000002 0  -0.45 -0.4500000000000002 0  -0.3 -0.4500000000000002 0  -0.15 -0.4500000000000002 0  0 -0.4500000000000002 0  0.15 -0.4500000000000002 0  0.3 -0.4500000000000002 0  0.45 -0.4500000000000002 0  0.6000000000000001 -0.4500000000000002 0  0.75 -0.4500000000000002 0  -0.75 -0.2999999999999998 0  -0.6 -0.2999999999999998 0  -0.45 -0.2999999999999998 0  -0.3 -0.2999999999999998 0  -0.15 -0.2999999999999998 0  0 -0.2999999999999998 0  0.15 -0.2999999999999998 0  0.3 -0.2999999999999998 0  0.45 -0.2999999999999998 0  0.6000000000000001 -0.2999999999999998 0  0.75 -0.2999999999999998 0  -0.75 -0.1499999999999999 0  -0.6 -0.1499999999999999 0  -0.45 -0.1499999999999999 0  -0.3 -0.1499999999999999 0  -0.15 -0.1499999999999999 0  0 -0.1499999999999999 0  0.15 -0.1499999999999999 0  0.3 -0.1499999999999999 0  0.45 -0.1499999999999999 0  0.6000000000000001 -0.1499999999999999 0  0.75 -0.1499999999999999 0  -0.75 0 0  -0.6 0 0  -0.45 0 0  -0.3 0 0  -0.15 0 0  0 0 0  0.15 0 0  0.3 0 0  0.45 0 0  0.6000000000000001 0 0  0.75 0 0  -0.675 -2.925 0  -0.525 -2.925 0  -0.375 -2.925 0  -0.225 -2.925 0  -0.07499999999999996 -2.925 0  0.07499999999999996 -2.925 0  0.225 -2.925 0  0.375 -2.925 0  0.5249999999999999 -2.925 0  0.675 -2.925 0  -0.675 -2.775 0  -0.525 -2.775 0  -0.375 -2.775 0  -0.225 -2.775 0  -0.07499999999999996 -2.775 0  0.07499999999999996 -2.775 0  0.225 -2.775 0  0.375 -2.775 0  0.5249999999999999 -2.775 0  0.675 -2.775 0  -0.675 -2.625 0  -0.525 -2.625 0  -0.375 -2.625 0  -0.225 -2.625 0  -0.07499999999999996 -2.625 0  0.07499999999999996 -2.625 0  0.225 -2.625 0  0.375 -2.625 0  0.5249999999999999 -2.625 0  0.675 -2.625 0  -0.675 -2.475 0  -0.525 -2.475 0  -0.375 -2.475 0  -0.225 -2.475 0  -0.07499999999999996 -2.475 0  0.07499999999999996 -2.475 0  0.225 -2.475 0  0.375 -2.475 0  0.5249999999999999 -2.475 0  0.675 -2.475 0  -0.675 -2.325 0  -0.525 -2.325 0  -0.375 -2.325 0  -0.225 -2.325 0  -0.07499999999999996 -2.325 0  0.07499999999999996 -2.325 0  0.225 -2.325 0  0.375 -2.325 0  0.5249999999999999 -2.325 0  0.675 -2.325 0  -0.675 -2.175 0  -0.525 -2.175 0  -0.375 -2.175 0  -0.225 -2.175 0  -0.07499999999999996 -2.175 0  0.07499999999999996 -2.175 0  0.225 -2.175 0  0.375 -2.175 0  0.5249999999999999 -2.175 0  0.675 -2.175 0  -0.675 -2.025 0  -0.525 -2.025 0  -0.375 -2.025 0  -0.225 -2.025 0  -0.07499999999999996 -2.025 0  0.07499999999999996 -2.025 0  0.225 -2.025 0  0.375 -2.025 0  0.5249999999999999 -2.025 0  0.675 -2.025 0  -0.675 -1.875 0  -0.525 -1.875 0  -0.375 -1.875 0  -0.225 -1.875 0  -0.07499999999999996 -1.875 0  0.07499999999999996 -1.875 0  0.225 -1.875 0  0.375 -1.875 0  0.5249999999999999 -1.875 0  0.675 -1.875 0  -0.675 -1.725 0  -0.525 -1.725 0  -0.375 -1.725 0  -0.225 -1.725 0  -0.07499999999999996 -1.725 0  0.07499999999999996 -1.725 0  0.225 -1.725 0  0.375 -1.725 0  0.5249999999999999 -1.725 0  0.675 -1.725 0  -0.675 -1.575 0  -0.525 -1.575 0  -0.375 -1.575 0  -0.225 -1.575 0  -0.07499999999999996 -1.575 0  0.07499999999999996 -1.575 0  0.225 -1.575 0  0.375 -1.575 0  0.5249999999999999 -1.575 0  0.675 -1.575 0  -0.675 -1.425 0  -0.525 -1.425 0  -0.375 -1.425 0  -0.225 -1.425 0  -0.07499999999999996 -1.425 0  0.07499999999999996 -1.425 0  0.225 -1.425 0  0.375 -1.425 0  0.5249999999999999 -1.425 0  0.675 -1.425 0  -0.675 -1.275 0  -0.525 -1.275 0  -0.375 -1.275 0  -0.225 -1.275 0  -0.07499999999999996 -1.275 0  0.07499999999999996 -1.275 0  0.225 -1.275 0  0.375 -1.275 0  0.5249999999999999 -1.275 0  0.675 -1.275 0  -0.675 -1.125 0  -0.525 -1.125 0  -0.375 -1.125 0  -0.225 -1.125 0  -0.07499999999999996 -1.125 0  0.07499999999999996 -1.125 0  0.225 -1.125 0  0.375 -1.125 0  0.5249999999999999 -1.125 0  0.675 -1.125 0  -0.675 -0.9750000000000001 0  -0.525 -0.9750000000000001 0  -0.375 -0.9750000000000001 0  -0.225 -0.9750000000000001 0  -0.07499999999999996 -0.9750000000000001 0  0.07499999999999996 -0.9750000000000001 0  0.225 -0.9750000000000001 0  0.375 -0.9750000000000001 0  0.5249999999999999 -0.9750000000000001 0  0.675 -0.9750000000000001 0  -0.675 -0.8250000000000002 0  -0.525 -0.8250000000000002 0  -0.375 -0.8250000000000002 0  -0.225 -0.8250000000000002 0  -0.07499999999999996 -0.8250000000000002 0  0.07499999999999996 -0.8250000000000002 0  0.225 -0.8250000000000002 0  0.375 -0.8250000000000002 0  0.5249999999999999 -0.8250000000000002 0  0.675 -0.8250000000000002 0  -0.675 -0.6749999999999998 0  -0.525 -0.6749999999999998 0  -0.375 -0.6749999999999998 0  -0.225 -0.6749999999999998 0  -0.07499999999999996 -0.6749999999999998 0  0.07499999999999996 -0.6749999999999998 0  0.225 -0.6749999999999998 0  0.375 -0.6749999999999998 0  0.5249999999999999 -0.6749999999999998 0  0.675 -0.6749999999999998 0  -0.675 -0.5249999999999999 0  -0.525 -0.5249999999999999 0  -0.375 -0.5249999999999999 0  -0.225 -0.5249999999999999 0  -0.07499999999999996 -0.5249999999999999 0  0.07499999999999996 -0.5249999999999999 0  0.225 -0.5249999999999999 0  0.375 -0.5249999999999999 0  0.5249999999999999 -0.5249999999999999 0  0.675 -0.5249999999999999 0  -0.675 -0.375 0  -0.525 -0.375 0  -0.375 -0.375 0  -0.225 -0.375 0  -0.07499999999999996 -0.375 0  0.07499999999999996 -0.375 0  0.225 -0.375 0  0.375 -0.375 0  0.5249999999999999 -0.375 0  0.675 -0.375 0  -0.675 -0.2250000000000001 0  -0.525 -0.2250000000000001 0  -0.375 -0.2250000000000001 0  -0.225 -0.2250000000000001 0  -0.07499999999999996 -0.2250000000000001 0  0.07499999999999996 -0.2250000000000001 0  0.225 -0.2250000000000001 0  0.375 -0.2250000000000001 0  0.5249999999999999 -0.2250000000000001 0  0.675 -0.2250000000000001 0  -0.675 -0.07500000000000018 0  -0.525 -0.07500000000000018 0  -0.375 -0.07500000000000018 0  -0.225 -0.07500000000000018 0  -0.07499999999999996 -0.07500000000000018 0  0.07499999999999996 -0.07500000000000018 0  0.225 -0.07500000000000018 0  0.375 -0.07500000000000018 0  0.5249999999999999 -0.07500000000000018 0  0.675 -0.07500000000000018 0  </DataArray>
</Points>
<Cells>
[...]
<PointData  Scalars="mean stress"> 
<DataArray  type="Float64"  Name="mean stress"  format="ascii">5.3436164427714786e+06  5.3436164427709645e+06  5.3436164427724471e+06  5.3436164427733282e+06  5.3436164427699279e+06  5.3436164427735778e+06  5.3436164427736318e+06  5.3436164427701449e+06  5.3436164427715186e+06  5.3436164427720569e+06  5.3436164427716052e+06  5.3436164418667443e+06  5.3436164418661082e+06  5.3436164418664575e+06  5.3436164418657823e+06  5.3436164418672705e+06  5.3436164418660887e+06  5.3436164418645371e+06  5.3436164418673785e+06  5.3436164418657878e+06  5.3436164418662675e+06  5.3436164418671327e+06  5.3436164378250223e+06  5.3436164378268309e+06  5.3436164378252272e+06  5.3436164378257543e+06  5.3436164378267443e+06  5.3436164378252374e+06  5.3436164378250623e+06  5.3436164378261985e+06  5.3436164378251275e+06  5.3436164378251871e+06  5.3436164378247429e+06  5.3436164247655403e+06  5.3436164247651026e+06  5.3436164247625684e+06  5.3436164247621894e+06  5.3436164247631421e+06  5.3436164247635594e+06  5.3436164247623123e+06  5.3436164247641126e+06  5.3436164247657396e+06  5.3436164247625759e+06  5.3436164247653140e+06  5.3436163836478442e+06  5.3436163836480128e+06  5.3436163836522503e+06  5.3436163836554866e+06  5.3436163836551663e+06  5.3436163836528650e+06  5.3436163836533055e+06  5.3436163836515974e+06  5.3436163836504957e+06  5.3436163836533083e+06  5.3436163836508254e+06  5.3436162545908559e+06  5.3436162545914799e+06  5.3436162545940131e+06  5.3436162545915740e+06  5.3436162545864657e+06  5.3436162545912564e+06  5.3436162545923851e+06  5.3436162545915060e+06  5.3436162545912368e+06  5.3436162545903791e+06  5.3436162545870328e+06  5.3436158495531185e+06  5.3436158495542658e+06  5.3436158495584456e+06  5.3436158495538495e+06  5.3436158495559031e+06  5.3436158495566212e+06  5.3436158495526565e+06  5.3436158495546160e+06  5.3436158495505936e+06  5.3436158495561378e+06  5.3436158495476516e+06  5.3436145784231443e+06  5.3436145784083838e+06  5.3436145784237925e+06  5.3436145784078222e+06  5.3436145784190027e+06  5.3436145784075977e+06  5.3436145784192942e+06  5.3436145784080615e+06  5.3436145784169994e+06  5.3436145784049565e+06  5.3436145784260975e+06  5.3436105891712997e+06  5.3436105892515173e+06  5.3436105891639702e+06  5.3436105892502740e+06  5.3436105891882908e+06  5.3436105892388886e+06  5.3436105891806865e+06  5.3436105892402278e+06  5.3436105891749999e+06  5.3436105892592501e+06  5.3436105891631264e+06  5.3435980702648405e+06  5.3435980696376171e+06  5.3435980701582031e+06  5.3435980697320737e+06  5.3435980700509800e+06  5.3435980697928853e+06  5.3435980700556617e+06  5.3435980697445488e+06  5.3435980701639485e+06  5.3435980696394509e+06  5.3435980702685360e+06  5.3435587792338785e+06  5.3435587824857207e+06  5.3435587792908503e+06  5.3435587817395432e+06  5.3435587799669262e+06  5.3435587813281668e+06  5.3435587799669728e+06  5.3435587817450464e+06  5.3435587792836782e+06  5.3435587824856769e+06  5.3435587792391302e+06  5.3434354950474268e+06  5.3434354693574356e+06  5.3434354881206164e+06  5.3434354737631762e+06  5.3434354834940722e+06  5.3434354764817562e+06  5.3434354834911395e+06  5.3434354737540027e+06  5.3434354881179417e+06  5.3434354693581741e+06  5.3434354950413704e+06  5.3430484928432005e+06  5.3430485930042136e+06  5.3430484751504920e+06  5.3430485574711105e+06  5.3430485048258323e+06  5.3430485396256233e+06  5.3430485048376741e+06  5.3430485574788218e+06  5.3430484751471411e+06  5.3430485930065019e+06  5.3430484928388428e+06  5.3418349711958719e+06  5.3418337817438683e+06  5.3418344482708834e+06  5.3418339665039377e+06  5.3418342430639546e+06  5.3418340790856658e+06  5.3418342430588016e+06  5.3418339664970543e+06  5.3418344482796025e+06  5.3418337817465151e+06  5.3418349711890602e+06  5.3380240942045543e+06  5.3380258817975931e+06  5.3380213793606330e+06  5.3380240516866958e+06  5.3380226279196991e+06  5.3380233377562352e+06  5.3380226279149149e+06  5.3380240516923442e+06  5.3380213793544844e+06  5.3380258817833550e+06  5.3380240942131337e+06  5.3261178152945554e+06  5.3260507714623371e+06  5.3260736239973651e+06  5.3260578957218835e+06  5.3260646323003741e+06  5.3260619312048685e+06  5.3260646323099947e+06  5.3260578957098480e+06  5.3260736239930131e+06  5.3260507714617066e+06  5.3261178153150072e+06  5.2887841182295857e+06  5.2886597569928104e+06  5.2884748123574397e+06  5.2885524165797718e+06  5.2885222973240651e+06  5.2885299916780787e+06  5.2885222973165894e+06  5.2885524165763492e+06  5.2884748123533605e+06  5.2886597569854334e+06  5.2887841182109714e+06  5.1752303086061124e+06  5.1704573813281162e+06  5.1711280702909185e+06  5.1706631982789785e+06  5.1707438224597080e+06  5.1707290392746497e+06  5.1707438224584702e+06  5.1706631982856300e+06  5.1711280702786436e+06  5.1704573813600726e+06  5.1752303086084304e+06  4.8335119500878286e+06  4.8095322304827124e+06  4.8002492430577697e+06  4.8011554275415335e+06  4.8010415917196507e+06  4.8010602821886288e+06  4.8010415917144092e+06  4.8011554275593897e+06  4.8002492430630242e+06  4.8095322304632384e+06  4.8335119500831841e+06  4.0902602621326470e+06  3.6373541119156838e+06  3.6413434940257487e+06  3.6408313439077633e+06  3.6409148931620689e+06  3.6408983069298211e+06  3.6409148931618067e+06  3.6408313438969008e+06  3.6413434940241692e+06  3.6373541119220690e+06  4.0902602621492543e+06  1.5135227633218396e+07  1.4720709069611380e+07  1.4725605261365471e+07  1.4725616737418802e+07  1.4725565168568620e+07  1.4725579389687767e+07  1.4725565168565793e+07  1.4725616737419412e+07  1.4725605261347931e+07  1.4720709069594754e+07  1.5135227633177891e+07  5.3436164471545229e+06  5.3436164471542817e+06  5.3436164471536707e+06  5.3436164471542174e+06  5.3436164471540088e+06  5.3436164471537853e+06  5.3436164471537508e+06  5.3436164471542882e+06  5.3436164471541513e+06  5.3436164471535450e+06  5.3436164517240236e+06  5.3436164517249102e+06  5.3436164517245367e+06  5.3436164517249279e+06  5.3436164517251616e+06  5.3436164517257726e+06  5.3436164517261619e+06  5.3436164517244268e+06  5.3436164517249493e+06  5.3436164517251244e+06  5.3436164675255166e+06  5.3436164675261574e+06  5.3436164675257355e+06  5.3436164675271269e+06  5.3436164675260987e+06  5.3436164675253872e+06  5.3436164675244810e+06  5.3436164675258752e+06  5.3436164675256182e+06  5.3436164675248768e+06  5.3436165175781511e+06  5.3436165175776659e+06  5.3436165175775075e+06  5.3436165175768547e+06  5.3436165175774945e+06  5.3436165175787183e+06  5.3436165175788226e+06  5.3436165175760211e+06  5.3436165175748551e+06  5.3436165175757650e+06  5.3436166748008300e+06  5.3436166747982679e+06  5.3436166747992234e+06  5.3436166747978870e+06  5.3436166747948742e+06  5.3436166747956071e+06  5.3436166747968066e+06  5.3436166747994404e+06  5.3436166748002665e+06  5.3436166748022744e+06  5.3436171682618260e+06  5.3436171682641190e+06  5.3436171682619099e+06  5.3436171682650307e+06  5.3436171682662657e+06  5.3436171682647187e+06  5.3436171682625003e+06  5.3436171682599382e+06  5.3436171682605520e+06  5.3436171682591122e+06  5.3436187168973889e+06  5.3436187168960143e+06  5.3436187168987365e+06  5.3436187169011412e+06  5.3436187169008180e+06  5.3436187168999724e+06  5.3436187169021517e+06  5.3436187169013489e+06  5.3436187169028465e+06  5.3436187169009745e+06  5.3436235769902943e+06  5.3436235769914277e+06  5.3436235769947013e+06  5.3436235769890454e+06  5.3436235769904396e+06  5.3436235769927520e+06  5.3436235769905308e+06  5.3436235769931516e+06  5.3436235769908568e+06  5.3436235769912004e+06  5.3436388293760410e+06  5.3436388293901924e+06  5.3436388293634253e+06  5.3436388293869486e+06  5.3436388293734314e+06  5.3436388293736419e+06  5.3436388293877570e+06  5.3436388293678984e+06  5.3436388293845430e+06  5.3436388293738943e+06  5.3436866958468538e+06  5.3436866957912380e+06  5.3436866959504262e+06  5.3436866958050989e+06  5.3436866958914828e+06  5.3436866958912406e+06  5.3436866958020208e+06  5.3436866959456354e+06  5.3436866957886089e+06  5.3436866958409641e+06  5.3438369142930424e+06  5.3438369152775137e+06  5.3438369143584305e+06  5.3438369153493093e+06  5.3438369147751192e+06  5.3438369147746367e+06  5.3438369153502546e+06  5.3438369143692805e+06  5.3438369152848395e+06  5.3438369142919676e+06  5.3443083431716096e+06  5.3443083422025722e+06  5.3443083499804670e+06  5.3443083437152673e+06  5.3443083474966837e+06  5.3443083474963512e+06  5.3443083437145390e+06  5.3443083499691319e+06  5.3443083422028450e+06  5.3443083431827342e+06  5.3457877832552139e+06  5.3457878480552174e+06  5.3457878106323835e+06  5.3457878545103576e+06  5.3457878308260534e+06  5.3457878308239058e+06  5.3457878545072684e+06  5.3457878106271587e+06  5.3457878480533678e+06  5.3457877832519291e+06  5.3504305305546978e+06  5.3504306495955344e+06  5.3504310596460570e+06  5.3504307988162870e+06  5.3504309491574643e+06  5.3504309491598597e+06  5.3504307988206614e+06  5.3504310596554168e+06  5.3504306495882394e+06  5.3504305305498568e+06  5.3649974003969049e+06  5.3650022771711498e+06  5.3650009429436782e+06  5.3650028786487980e+06  5.3650020482464079e+06  5.3650020482467338e+06  5.3650028786450475e+06  5.3650009429397741e+06  5.3650022771787941e+06  5.3649974004028393e+06  5.4106901945916414e+06  5.4107121454580203e+06  5.4107370557557223e+06  5.4107274323321478e+06  5.4107320296132257e+06  5.4107320296121342e+06  5.4107274323325837e+06  5.4107370557590788e+06  5.4107121454506731e+06  5.4106901945834048e+06  5.5537671105425553e+06  5.5541937761339238e+06  5.5541684461266650e+06  5.5542526117156213e+06  5.5542417569706095e+06  5.5542417569725364e+06  5.5542526117182374e+06  5.5541684461326599e+06  5.5541937761367727e+06  5.5537671105456632e+06  5.9995077622062955e+06  6.0027011412091954e+06  6.0047192162859635e+06  6.0046170626512226e+06  6.0046243876395198e+06  6.0046243876336487e+06  6.0046170626432570e+06  6.0047192162866294e+06  6.0027011412108876e+06  5.9995077622063188e+06  7.3682271947435392e+06  7.4169333193301810e+06  7.4181361255051652e+06  7.4180450213388428e+06  7.4180520652212696e+06  7.4180520652237991e+06  7.4180450213450314e+06  7.4181361255005458e+06  7.4169333193334769e+06  7.3682271947395708e+06  4.4645417125421967e+06  4.4930729867989011e+06  4.4909053893213701e+06  4.4910222423496787e+06  4.4910148352413103e+06  4.4910148352376940e+06  4.4910222423484428e+06  4.4909053893152466e+06  4.4930729867895823e+06  4.4645417125269305e+06  </DataArray> 
</PointData> 
</Piece>
</UnstructuredGrid>
</VTKFile>