<?xml version="1.0"?>
<VTKFile type="UnstructuredGrid"  version="0.1"  >
<UnstructuredGrid>
<Piece  NumberOfPoints="431" NumberOfCells="800">
<Points>
<DataArray  type="Float64"  NumberOfComponents="3"  format="ascii">-0.75 -3 0  -0.6 -3 0  -0.45 -3 0  -0.3 -3 0  -0.15 -3 0  0 -3 0  0.15 -3 0  0.3 -3 0  0.45 -3 0  0.6000000000000001 -3 0  0.75 -3 0  -0.75 -2.85 0  -0.6 -2.85 0  -0.45 -2.85 0  -0.3 -2.85 0  -0.15 -2.85 0  0 -2.85 0  0.15 -2.85 0  0.3 -2.85 0  0.45 -2.85 0  0.6000000000000001 -2.85 0  0.75 -2.85 0  -0.75 -2.7 0  -0.6 -2.7 0  -0.45 -2.7 0  -0.3 -2.7 0  -0.15 -2.7 0  0 -2.7 0  0.15 -2.7 0  0.3 -2.7 0  0.45 -2.7 0  0.6000000000000001 -2.7 0  0.75 -2.7 0  -0.75 -2.55 0  -0.6 -2.55 0  -0.45 -2.55 0  -0.3 -2.55 0  -0.15 -2.55 0  0 -2.55 0  0.15 -2.55 0  0.3 -2.55 0  0.45 -2.55 0  0.6000000000000001 -2.55 0  0.75 -2.55 0  -0.75 -2.4 0  -0.6 -2.4 0  -0.45 -2.4 0  -0.3 -2.4 0  -0.15 -2.4 0  0 -2.4 0  0.15 -2.4 0  0.3 -2.4 0  0.45 -2.4 0  0.6000000000000001 -2.4 0  0.75 -2.4 0  -0.75 -2.25 0  -0.6 -2.25 0  -0.45 -2.25 0  -0.3 -2.25 0  -0.15 -2.25 0  0 -2.25 0  0.15 -2.25 0  0.3 -2.25 0  0.45 -2.25 0  0.6000000000000001 -2.25 0  0.75 -2.25 0  -0.75 -2.1 0  -0.6 -2.1 0  -0.45 -2.1 0  -0.3 -2.1 0  -0.15 -2.1 0  0 -2.1 0  0.15 -2.1 0  0.3 -2.1 0  0.45 -2.1 0  0.6000000000000001 -2.1 0  0.75 -2.1 0  -0.75 -1.95 0  -0.6 -1.95 0  -0.45 -1.95 0  -0.3 -1.95 0  -0.15 -1.95 0  0 -1.95 0  0.15 -1.95 0  0.3 -1.95 0  0.45 -1.95 0  0.6000000000000001 -1.95 0  0.75 -1.95 0  -0.75 -1.8 0  -0.6 -1.8 0  -0.45 -1.8 0  -0.3 -1.8 0  -0.15 -1.8 0  0 -1.8 0  0.15 -1.8 0  0.3 -1.8 0  0.45 -1.8 0  0.6000000000000001 -1.8 0  0.75 -1.8 0  -0.75 -1.65 0  -0.6 -1.65 0  -0.45 -1.65 0  -0.3 -1.65 0  -0.15 -1.65 0  0 -1.65 0  0.15 -1.65 0  0.3 -1.65 0  0.45 -1.65 0  0.6000000000000001 -1.65 0  0.75 -1.65 0  -0.75 -1.5 0  -0.6 -1.5 0  -0.45 -1.5 0  -0.3 -1.5 0  -0.15 -1.5 0  0 -1.5 0  0.15 -1.5 0  0.3 -1.5 0  0.45 -1.5 0  0.6000000000000001 -1.5 0  0.75 -1.5 0  -0.75 -1.35 0  -0.6 -1.35 0  -0.45 -1.35 0  -0.3 -1.35 0  -0.15 -1.35 0  0 -1.35 0  0.15 -1.35 0  0.3 -1.35 0  0.45 -1.35 0  0.6000000000000001 -1.35 0  0.75 -1.35 0  -0.75 -1.2 0  -0.6 -1.2 0  -0.45 -1.2 0  -0.3 -1.2 0  -0.15 -1.2 0  0 -1.2 0  0.15 -1.2 0  0.3 -1.2 0  0.45 -1.2 0  0.6000000000000001 -1.2 0  0.75 -1.2 0  -0.75 -1.05 0  -0.6 -1.05 0  -0.45 -1.05 0  -0.3 -1.05 0  -0.15 -1.05 0  0 -1.05 0  0.15 -1.05 0  0.3 -1.05 0  0.45 -1.05 0  0.6000000000000001 -1.05 0  0.75 -1.05 0  -0.75 -0.8999999999999999 0  -0.6 -0.8999999999999999 0  -0.45 -0.8999999999999999 0  -0.3 -0.8999999999999999 0  -0.15 -0.8999999999999999 0  0 -0.8999999999999999 0  0.15 -0.8999999999999999 0  0.3 -0.8999999999999999 0  0.45 -0.8999999999999999 0  0.6000000000000001 -0.8999999999999999 0  0.75 -0.8999999999999999 0  -0.75 -0.75 0  -0.6 -0.75 0  -0.45 -0.75 0  -0.3 -0.75 0  -0.15 -0.75 0  0 -0.75 0  0.15 -0.75 0  0.3 -0.75 0  0.45 -0.75 0  0.6000000000000001 -0.75 0  0.75 -0.75 0  -0.75 -0.6000000000000001 0  -0.6 -0.6000000000000001 0  -0.45 -0.6000000000000001 0  -0.3 -0.6000000000000001 0  -0.15 -0.6000000000000001 0  0 -0.6000000000000001 0  0.15 -0.6000000000000001 0  0.3 -0.6000000000000001 0  0.45 -0.6000000000000001 0  0.6000000000000001 -0.6000000000000001 0  0.75 -0.6000000000000001 0  -0.75 -0.4500000000000002 0  -0.6 -0.4500000000000002 0  -0.45 -0.4500000000000002 0  -0.3 -0.4500000000000002 0  -0.15 -0.4500000000000002 0  0 -0.4500000000000002 0  0.15 -0.4500000000000002 0  0.3 -0.4500000000000002 0  0.45 -0.4500000000000002 0  0.6000000000000001 -0.4500000000000002 0  0.75 -0.4500000000000002 0  -0.75 -0.2999999999999998 0  -0.6 -0.2999999999999998 0  -0.45 -0.2999999999999998 0  -0.3 -0.2999999999999998 0  -0.15 -0.2999999999999998 0  0 -0.2999999999999998 0  0.15 -0.2999999999999998 0  0.3 -0.2999999999999998 0  0.45 -0.2999999999999998 0  0.6000000000000001 -0.2999999999999998 0  0.75 -0.2999999999999998 0  -0.75 -0.1499999999999999 0  -0.6 -0.1499999999999999 0  -0.45 -0.1499999999999999 0  -0.3 -0.1499999999999999 0  -0.15 -0.1499999999999999 0  0 -0.1499999999999999 0  0.15 -0.1499999999999999 0  0.3 -0.1499999999999999 0  0.45 -0.1499999999999999 0  0.6000000000000001 -0.1499999999999999 0  0.75 -0.1499999999999999 0  -0.75 0 0  -0.6 0 0  -0.45 0 0  -0.3 0 0  -0.15 0 0  0 0 0  0.15 0 0  0.3 0 0  0.45 0 0  0.6000000000000001 0 0  0.75 0 0  -0.675 -2.925 0  -0.525 -2.925 0  -0.375 -2.925 0  -0.225 -2.925 0  -0.07499999999999996 -2.925 0  0.07499999999999996 -2.925 0  0.225 -2.925 0  0.375 -2.925 0  0.5249999999999999 -2.925 0  0.675 -2.925 0  -0.675 -2.775 0  -0.525 -2.775 0  -0.375 -2.775 0  -0.225 -2.775 0  -0.07499999999999996 -2.775 0  0.07499999999999996 -2.775 0  0.225 -2.775 0  0.375 -2.775 0  0.5249999999999999 -2.775 0  0.675 -2.775 0  -0.675 -2.625 0  -0.525 -2.625 0  -0.375 -2.625 0  -0.225 -2.625 0  -0.07499999999999996 -2.625 0  0.07499999999999996 -2.625 0  0.225 -2.625 0  0.375 -2.625 0  0.5249999999999999 -2.625 0  0.675 -2.625 0  -0.675 -2.475 0  -0.525 -2.475 0  -0.375 -2.475 0  -0.225 -2.475 0  -0.07499999999999996 -2.475 0  0.07499999999999996 -2.475 0  0.225 -2.475 0  0.375 -2.475 0  0.5249999999999999 -2.475 0  0.675 -2.475 0  -0.675 -2.325 0  -0.525 -2.325 0  -0.375 -2.325 0  -0.225 -2.325 0  -0.07499999999999996 -2.325 0  0.07499999999999996 -2.325 0  0.225 -2.325 0  0.375 -2.325 0  0.5249999999999999 -2.325 0  0.675 -2.325 0  -0.675 -2.175 0  -0.525 -2.175 0  -0.375 -2.175 0  -0.225 -2.175 0  -0.07499999999999996 -2.175 0  0.07499999999999996 -2.175 0  0.225 -2.175 0  0.375 -2.175 0  0.5249999999999999 -2.175 0  0.675 -2.175 0  -0.675 -2.025 0  -0.525 -2.025 0  -0.375 -2.025 0  -0.225 -2.025 0  -0.07499999999999996 -2.025 0  0.07499999999999996 -2.025 0  0.225 -2.025 0  0.375 -2.025 0  0.5249999999999999 -2.025 0  0.675 -2.025 0  -0.675 -1.875 0  -0.525 -1.875 0  -0.375 -1.875 0  -0.225 -1.875 0  -0.07499999999999996 -1.875 0  0.07499999999999996 -1.875 0  0.225 -1.875 0  0.375 -1.875 0  0.5249999999999999 -1.875 0  0.675 -1.875 0  -0.675 -1.725 0  -0.525 -1.725 0  -0.375 -1.725 0  -0.225 -1.725 0  -0.07499999999999996 -1.725 0  0.07499999999999996 -1.725 0  0.225 -1.725 0  0.375 -1.725 0  0.5249999999999999 -1.725 0  0.675 -1.725 0  -0.675 -1.575 0  -0.525 -1.575 0  -0.375 -1.575 0  -0.225 -1.575 0  -0.07499999999999996 -1.575 0  0.07499999999999996 -1.575 0  0.225 -1.575 0  0.375 -1.575 0  0.5249999999999999 -1.575 0  0.675 -1.575 0  -0.675 -1.425 0  -0.525 -1.425 0  -0.375 -1.425 0  -0.225 -1.425 0  -0.07499999999999996 -1.425 0  0.07499999999999996 -1.425 0  0.225 -1.425 0  0.375 -1.425 0  0.5249999999999999 -1.425 0  0.675 -1.425 0  -0.675 -1.275 0  -0.525 -1.275 0  -0.375 -1.275 0  -0.225 -1.275 0  -0.07499999999999996 -1.275 0  0.07499999999999996 -1.275 0  0.225 -1.275 0  0.375 -1.275 0  0.5249999999999999 -1.275 0  0.675 -1.275 0  -0.675 -1.125 0  -0.525 -1.125 0  -0.375 -1.125 0  -0.225 -1.125 0  -0.07499999999999996 -1.125 0  0.07499999999999996 -1.125 0  0.225 -1.125 0  0.375 -1.125 0  0.5249999999999999 -1.125 0  0.675 -1.125 0  -0.675 -0.9750000000000001 0  -0.525 -0.9750000000000001 0  -0.375 -0.9750000000000001 0  -0.225 -0.9750000000000001 0  -0.07499999999999996 -0.9750000000000001 0  0.07499999999999996 -0.9750000000000001 0  0.225 -0.9750000000000001 0  0.375 -0.9750000000000001 0  0.5249999999999999 -0.9750000000000001 0  0.675 -0.9750000000000001 0  -0.675 -0.8250000000000002 0  -0.525 -0.8250000000000002 0  -0.375 -0.8250000000000002 0  -0.225 -0.8250000000000002 0  -0.07499999999999996 -0.8250000000000002 0  0.07499999999999996 -0.8250000000000002 0  0.225 -0.8250000000000002 0  0.375 -0.8250000000000002 0  0.5249999999999999 -0.8250000000000002 0  0.675 -0.8250000000000002 0  -0.675 -0.6749999999999998 0  -0.525 -0.6749999999999998 0  -0.375 -0.6749999999999998 0  -0.225 -0.6749999999999998 0  -0.07499999999999996 -0.6749999999999998 0  0.07499999999999996 -0.6749999999999998 0  0.225 -0.6749999999999998 0  0.375 -0.6749999999999998 0  0.5249999999999999 -0.6749999999999998 0  0.675 -0.6749999999999998 0  -0.675 -0.5249999999999999 0  -0.525 -0.5249999999999999 0  -0.375 -0.5249999999999999 0  -0.225 -0.5249999999999999 0  -0.07499999999999996 -0.5249999999999999 0  0.07499999999999996 -0.5249999999999999 0  0.225 -0.5249999999999999 0  0.375 -0.5249999999999999 0  0.5249999999999999 -0.5249999999999999 0  0.675 -0.5249999999999999 0  -0.675 -0.375 0  -0.525 -0.375 0  -0.375 -0.375 0  -0.225 -0.375 0  -0.07499999999999996 -0.375 0  0.07499999999999996 -0.375 0  0.225 -0.375 0  0.375 -0.375 0  0.5249999999999999 -0.375 0  0.675 -0.375 0  -0.675 -0.2250000000000001 0  -0.525 -0.2250000000000001 0  -0.375 -0.2250000000000001 0  -0.225 -0.2250000000000001 0  -0.07499999999999996 -0.2250000000000001 0  0.07499999999999996 -0.2250000000000001 0  0.225 -0.2250000000000001 0  0.375 -0.2250000000000001 0  0.5249999999999999 -0.2250000000000001 0  0.675 -0.2250000000000001 0  -0.675 -0.07500000000000018 0  -0.525 -0.07500000000000018 0  -0.375 -0.07500000000000018 0  -0.225 -0.07500000000000018 0  -0.07499999999999996 -0.07500000000000018 0  0.07499999999999996 -0.07500000000000018 0  0.225 -0.07500000000000018 0  0.375 -0.07500000000000018 0  0.5249999999999999 -0.07500000000000018 0  0.675 -0.07500000000000018 0  </DataArray>
</Points>
<Cells>
[...]
<PointData  Scalars="mean stress"> 
<DataArray  type="Float64"  Name="mean stress"  format="ascii">5.3436164427716443e+06  5.3436164427714394e+06  5.3436164427721817e+06  5.3436164427724415e+06  5.3436164427710464e+06  5.3436164427725105e+06  5.3436164427724034e+06  5.3436164427711535e+06  5.3436164427717123e+06  5.3436164427718902e+06  5.3436164427717645e+06  5.3436164418658493e+06  5.3436164418656221e+06  5.3436164418657999e+06  5.3436164418654460e+06  5.3436164418661343e+06  5.3436164418656565e+06  5.3436164418650167e+06  5.3436164418660197e+06  5.3436164418654805e+06  5.3436164418656565e+06  5.3436164418659722e+06  5.3436164378248490e+06  5.3436164378255950e+06  5.3436164378248705e+06  5.3436164378250437e+06  5.3436164378253892e+06  5.3436164378248062e+06  5.3436164378248630e+06  5.3436164378253063e+06  5.3436164378248388e+06  5.3436164378248500e+06  5.3436164378246367e+06  5.3436164247642430e+06  5.3436164247640055e+06  5.3436164247630611e+06  5.3436164247628693e+06  5.3436164247632539e+06  5.3436164247634597e+06  5.3436164247627845e+06  5.3436164247636646e+06  5.3436164247643808e+06  5.3436164247631487e+06  5.3436164247641405e+06  5.3436163836499387e+06  5.3436163836500822e+06  5.3436163836517250e+06  5.3436163836531546e+06  5.3436163836531127e+06  5.3436163836519103e+06  5.3436163836523732e+06  5.3436163836514913e+06  5.3436163836509390e+06  5.3436163836521963e+06  5.3436163836512715e+06  5.3436162545914175e+06  5.3436162545913411e+06  5.3436162545927456e+06  5.3436162545915022e+06  5.3436162545894813e+06  5.3436162545914846e+06  5.3436162545919055e+06  5.3436162545915730e+06  5.3436162545916755e+06  5.3436162545908177e+06  5.3436162545897011e+06  5.3436158495516805e+06  5.3436158495538216e+06  5.3436158495542416e+06  5.3436158495536018e+06  5.3436158495532060e+06  5.3436158495544605e+06  5.3436158495513247e+06  5.3436158495536428e+06  5.3436158495506849e+06  5.3436158495545406e+06  5.3436158495495329e+06  5.3436145784232989e+06  5.3436145784074590e+06  5.3436145784223098e+06  5.3436145784084909e+06  5.3436145784192672e+06  5.3436145784093030e+06  5.3436145784192150e+06  5.3436145784085933e+06  5.3436145784196164e+06  5.3436145784058524e+06  5.3436145784243960e+06  5.3436105891675893e+06  5.3436105892556328e+06  5.3436105891675912e+06  5.3436105892458223e+06  5.3436105891861040e+06  5.3436105892357426e+06  5.3436105891837385e+06  5.3436105892418912e+06  5.3436105891723735e+06  5.3436105892592724e+06  5.3436105891640605e+06  5.3435980702653872e+06  5.3435980696358364e+06  5.3435980701590767e+06  5.3435980697342018e+06  5.3435980700543327e+06  5.3435980697960146e+06  5.3435980700561786e+06  5.3435980697395112e+06  5.3435980701618716e+06  5.3435980696367277e+06  5.3435980702673281e+06  5.3435587792360401e+06  5.3435587824850045e+06  5.3435587792879939e+06  5.3435587817427469e+06  5.3435587799662948e+06  5.3435587813285422e+06  5.3435587799665276e+06  5.3435587817447614e+06  5.3435587792846859e+06  5.3435587824849002e+06  5.3435587792380778e+06  5.3434354950451199e+06  5.3434354693556475e+06  5.3434354881168427e+06  5.3434354737594826e+06  5.3434354834911246e+06  5.3434354764786260e+06  5.3434354834899632e+06  5.3434354737557499e+06  5.3434354881155239e+06  5.3434354693558328e+06  5.3434354950424219e+06  5.3430484928393774e+06  5.3430485930067906e+06  5.3430484751502536e+06  5.3430485574728819e+06  5.3430485048310366e+06  5.3430485396248046e+06  5.3430485048354110e+06  5.3430485574761257e+06  5.3430484751492795e+06  5.3430485930079818e+06  5.3430484928376945e+06  5.3418349711944954e+06  5.3418337817437397e+06  5.3418344482702501e+06  5.3418339665040411e+06  5.3418342430617120e+06  5.3418340790837109e+06  5.3418342430598894e+06  5.3418339665004993e+06  5.3418344482731968e+06  5.3418337817437788e+06  5.3418349711910300e+06  5.3380240942065567e+06  5.3380258817947013e+06  5.3380213793595601e+06  5.3380240516864099e+06  5.3380226279178029e+06  5.3380233377585439e+06  5.3380226279159728e+06  5.3380240516893705e+06  5.3380213793579172e+06  5.3380258817895269e+06  5.3380240942105269e+06  5.3261178152993545e+06  5.3260507714631697e+06  5.3260736239948627e+06  5.3260578957207333e+06  5.3260646323036058e+06  5.3260619312040703e+06  5.3260646323070275e+06  5.3260578957155012e+06  5.3260736239918331e+06  5.3260507714625644e+06  5.3261178153083576e+06  5.2887841182252634e+06  5.2886597569864905e+06  5.2884748123558629e+06  5.2885524165782733e+06  5.2885222973225899e+06  5.2885299916773718e+06  5.2885222973192874e+06  5.2885524165766276e+06  5.2884748123549232e+06  5.2886597569837701e+06  5.2887841182176024e+06  5.1752303086117366e+06  5.1704573813315555e+06  5.1711280702864118e+06  5.1706631982792169e+06  5.1707438224577792e+06  5.1707290392752169e+06  5.1707438224574449e+06  5.1706631982822744e+06  5.1711280702809049e+06  5.1704573813452898e+06  5.1752303086121893e+06  4.8335119500847124e+06  4.8095322304760888e+06  4.8002492430555271e+06  4.8011554275490493e+06  4.8010415917195240e+06  4.8010602821918335e+06  4.8010415917179342e+06  4.8011554275567979e+06  4.8002492430583201e+06  4.8095322304682890e+06  4.8335119500827966e+06  4.0902602621381958e+06  3.6373541119186194e+06  3.6413434940277054e+06  3.6408313439070783e+06  3.6409148931685910e+06  3.6408983069362449e+06  3.6409148931683246e+06  3.6408313439025721e+06  3.6413434940270642e+06  3.6373541119209379e+06  4.0902602621459849e+06  1.5135227633212276e+07  1.4720709069602512e+07  1.4725605261359343e+07  1.4725616737413023e+07  1.4725565168562554e+07  1.4725579389677856e+07  1.4725565168561121e+07  1.4725616737413103e+07  1.4725605261350736e+07  1.4720709069594420e+07  1.5135227633195594e+07  5.3436164471539464e+06  5.3436164471538225e+06  5.3436164471535664e+06  5.3436164471537909e+06  5.3436164471537080e+06  5.3436164471536148e+06  5.3436164471536390e+06  5.3436164471538598e+06  5.3436164471537611e+06  5.3436164471535217e+06  5.3436164517241567e+06  5.3436164517245293e+06  5.3436164517243635e+06  5.3436164517245637e+06  5.3436164517246671e+06  5.3436164517248953e+06  5.3436164517249949e+06  5.3436164517242992e+06  5.3436164517245358e+06  5.3436164517246066e+06  5.3436164675251786e+06  5.3436164675254375e+06  5.3436164675252736e+06  5.3436164675258445e+06  5.3436164675254095e+06  5.3436164675251460e+06  5.3436164675247557e+06  5.3436164675253229e+06  5.3436164675252186e+06  5.3436164675249308e+06  5.3436165175771052e+06  5.3436165175768314e+06  5.3436165175767876e+06  5.3436165175764272e+06  5.3436165175767206e+06  5.3436165175772198e+06  5.3436165175773101e+06  5.3436165175761171e+06  5.3436165175756104e+06  5.3436165175759960e+06  5.3436166748001100e+06  5.3436166747991322e+06  5.3436166747995606e+06  5.3436166747990781e+06  5.3436166747976961e+06  5.3436166747979652e+06  5.3436166747984085e+06  5.3436166747994553e+06  5.3436166747999145e+06  5.3436166748007359e+06  5.3436171682611415e+06  5.3436171682619415e+06  5.3436171682609720e+06  5.3436171682622274e+06  5.3436171682628598e+06  5.3436171682621324e+06  5.3436171682613129e+06  5.3436171682602102e+06  5.3436171682604644e+06  5.3436171682596793e+06  5.3436187168985391e+06  5.3436187168982942e+06  5.3436187168991473e+06  5.3436187169004204e+06  5.3436187169002416e+06  5.3436187168999538e+06  5.3436187169010798e+06  5.3436187169003990e+06  5.3436187169014523e+06  5.3436187169006746e+06  5.3436235769902645e+06  5.3436235769896554e+06  5.3436235769931301e+06  5.3436235769890165e+06  5.3436235769904945e+06  5.3436235769913848e+06  5.3436235769893657e+06  5.3436235769922603e+06  5.3436235769892484e+06  5.3436235769904656e+06  5.3436388293741057e+06  5.3436388293904467e+06  5.3436388293667100e+06  5.3436388293892918e+06  5.3436388293759301e+06  5.3436388293758370e+06  5.3436388293894287e+06  5.3436388293684740e+06  5.3436388293878809e+06  5.3436388293732237e+06  5.3436866958445478e+06  5.3436866957868058e+06  5.3436866959459819e+06  5.3436866958013847e+06  5.3436866958890436e+06  5.3436866958890269e+06  5.3436866958003519e+06  5.3436866959443046e+06  5.3436866957857888e+06  5.3436866958420565e+06  5.3438369142921027e+06  5.3438369152830048e+06  5.3438369143651966e+06  5.3438369153533503e+06  5.3438369147783164e+06  5.3438369147781478e+06  5.3438369153540563e+06  5.3438369143701270e+06  5.3438369152861256e+06  5.3438369142914861e+06  5.3443083431743309e+06  5.3443083422012683e+06  5.3443083499747897e+06  5.3443083437096328e+06  5.3443083474915149e+06  5.3443083474912969e+06  5.3443083437090442e+06  5.3443083499692427e+06  5.3443083422007607e+06  5.3443083431787472e+06  5.3457877832539044e+06  5.3457878480536034e+06  5.3457878106288612e+06  5.3457878545087734e+06  5.3457878308258820e+06  5.3457878308249414e+06  5.3457878545076856e+06  5.3457878106270796e+06  5.3457878480532365e+06  5.3457877832528213e+06  5.3504305305519886e+06  5.3504306495933849e+06  5.3504310596516207e+06  5.3504307988169957e+06  5.3504309491554033e+06  5.3504309491566466e+06  5.3504307988188053e+06  5.3504310596553218e+06  5.3504306495903321e+06  5.3504305305498783e+06  5.3649974003979387e+06  5.3650022771762125e+06  5.3650009429428959e+06  5.3650028786526117e+06  5.3650020482559009e+06  5.3650020482561039e+06  5.3650028786512539e+06  5.3650009429413192e+06  5.3650022771791806e+06  5.3649974004000863e+06  5.4106901945889955e+06  5.4107121454518251e+06  5.4107370557538653e+06  5.4107274323258149e+06  5.4107320296044396e+06  5.4107320296036890e+06  5.4107274323256789e+06  5.4107370557553014e+06  5.4107121454489734e+06  5.4106901945863236e+06  5.5537671105431719e+06  5.5541937761357622e+06  5.5541684461306902e+06  5.5542526117165601e+06  5.5542417569722924e+06  5.5542417569731539e+06  5.5542526117180027e+06  5.5541684461333724e+06  5.5541937761372328e+06  5.5537671105442038e+06  5.9995077622065581e+06  6.0027011412086813e+06  6.0047192162861973e+06  6.0046170626504384e+06  6.0046243876374960e+06  6.0046243876348808e+06  6.0046170626469897e+06  6.0047192162865875e+06  6.0027011412092270e+06  5.9995077622066475e+06  7.3682271947403019e+06  7.4169333193354122e+06  7.4181361255010804e+06  7.4180450213403404e+06  7.4180520652258024e+06  7.4180520652270401e+06  7.4180450213432116e+06  7.4181361254994730e+06  7.4169333193372069e+06  7.3682271947385352e+06  4.4645417125382954e+06  4.4930729867939651e+06  4.4909053893190408e+06  4.4910222423499534e+06  4.4910148352402281e+06  4.4910148352385806e+06  4.4910222423494635e+06  4.4909053893162264e+06  4.4930729867888279e+06  4.4645417125322791e+06  </DataArray> 
</PointData> 
</Piece>
</UnstructuredGrid>
</VTKFile>