<?xml version="1.0"?>
<VTKFile type="UnstructuredGrid"  version="0.1"  >
<UnstructuredGrid>
<Piece  NumberOfPoints="431" NumberOfCells="800">
<Points>
<DataArray  type="Float64"  NumberOfComponents="3"  format="ascii">-0.75 -3 0  -0.6 -3 0  -0.45 -3 0  -0.3 -3 0  -0.15 -3 0  0 -3 0  0.15 -3 0  0.3 -3 0  0.45 -3 0  0.6000000000000001 -3 0  0.75 -3 0  -0.75 -2.85 0  -0.6 -2.85 0  -0.45 -2.85 0  -0.3 -2.85 0  -0.15 -2.85 0  0 -2.85 0  0.15 -2.85 0  0.3 -2.85 0  0.45 -2.85 0  0.6000000000000001 -2.85 0  0.75 -2.85 0  -0.75 -2.7 0  -0.6 -2.7 0  -0.45 -2.7 0  -0.3 -2.7 0  -0.15 -2.7 0  0 -2.7 0  0.15 -2.7 0  0.3 -2.7 0  0.45 -2.7 0  0.6000000000000001 -2.7 0  0.75 -2.7 0  -0.75 -2.55 0  -0.6 -2.55 0  -0.45 -2.55 0  -0.3 -2.55 0  -0.15 -2.55 0  0 -2.55 0  0.15 -2.55 0  0.3 -2.55 0  0.45 -2.55 0  0.6000000000000001 -2.55 0  0.75 -2.55 0  -0.75 -2.4 0  -0.6 -2.4 0  -0.45 -2.4 0  -0.3 -2.4 0  -0.15 -2.4 0  0 -2.4 0  0.15 -2.4 0  0.3 -2.4 0  0.45 -2.4 0  0.6000000000000001 -2.4 0  0.75 -2.4 0  -0.75 -2.25 0  -0.6 -2.25 0  -0.45 -2.25 0  -0.3 -2.25 0  -0.15 -2.25 0  0 -2.25 0  0.15 -2.25 0  0.3 -2.25 0  0.45 -2.25 0  0.6000000000000001 -2.25 0  0.75 -2.25 0  -0.75 -2.1 0  -0.6 -2.1 0  -0.45 -2.1 0  -0.3 -2.1 0  -0.15 -2.1 0  0 -2.1 0  0.15 -2.1 0  0.3 -2.1 0  0.45 -2.1 0  0.6000000000000001 -2.1 0  0.75 -2.1 0  -0.75 -1.95 0  -0.6 -1.95 0  -0.45 -1.95 0  -0.3 -1.95 0  -0.15 -1.95 0  0 -1.95 0  0.15 -1.95 0  0.3 -1.95 0  0.45 -1.95 0  0.6000000000000001 -1.95 0  0.75 -1.95 0  -0.75 -1.8 0  -0.6 -1.8 0  -0.45 -1.8 0  -0.3 -1.8 0  -0.15 -1.8 0  0 -1.8 0  0.15 -1.8 0  0.3 -1.8 0  0.45 -1.8 0  0.6000000000000001 -1.8 0  0.75 -1.8 0  -0.75 -1.65 0  -0.6 -1.65 0  -0.45 -1.65 0  -0.3 -1.65 0  -0.15 -1.65 0  0 -1.65 0  0.15 -1.65 0  0.3 -1.65 0  0.45 -1.65 0  0.6000000000000001 -1.65 0  0.75 -1.65 0  -0.75 -1.5 0  -0.6 -1.5 0  -0.45 -1.5 0  -0.3 -1.5 0  -0.15 -1.5 0  0 -1.5 0  0.15 -1.5 0  0.3 -1.5 0  0.45 -1.5 0  0.6000000000000001 -1.5 0  0.75 -1.5 0  -0.75 -1.35 0  -0.6 -1.35 0  -0.45 -1.35 0  -0.3 -1.35 0  -0.15 -1.35 0  0 -1.35 0  0.15 -1.35 0  0.3 -1.35 0  0.45 -1.35 0  0.6000000000000001 -1.35 0  0.75 -1.35 0  -0.75 -1.2 0  -0.6 -1.2 0  -0.45 -1.2 0  -0.3 -1.2 0  -0.15 -1.2 0  0 -1.2 0  0.15 -1.2 0  0.3 -1.2 0  0.45 -1.2 0  0.6000000000000001 -1.2 0  0.75 -1.2 0  -0.75 -1.05 0  -0.6 -1.05 0  -0.45 -1.05 0  -0.3 -1.05 0  -0.15 -1.05 0  0 -1.05 0  0.15 -1.05 0  0.3 -1.05 0  0.45 -1.05 0  0.6000000000000001 -1.05 0  0.75 -1.05 0  -0.75 -0.8999999999999999 0  -0.6 -0.8999999999999999 0  -0.45 -0.8999999999999999 0  -0.3 -0.8999999999999999 0  -0.15 -0.8999999999999999 0  0 -0.8999999999999999 0  0.15 -0.8999999999999999 0  0.3 -0.8999999999999999 0  0.45 -0.8999999999999999 0  0.6000000000000001 -0.8999999999999999 0  0.75 -0.8999999999999999 0  -0.75 -0.75 0  -0.6 -0.75 0  -0.45 -0.75 0  -0.3 -0.75 0  -0.15 -0.75 0  0 -0.75 0  0.15 -0.75 0  0.3 -0.75 0  0.45 -0.75 0  0.6000000000000001 -0.75 0  0.75 -0.75 0  -0.75 -0.6000000000000001 0  -0.6 -0.6000000000000001 0  -0.45 -0.6000000000000001 0  -0.3 -0.6000000000000001 0  -0.15 -0.6000000000000001 0  0 -0.6000000000000001 0  0.15 -0.6000000000000001 0  0.3 -0.6000000000000001 0  0.45 -0.6000000000000001 0  0.6000000000000001 -0.6000000000000001 0  0.75 -0.6000000000000001 0  -0.75 -0.4500000000000002 0  -0.6 -0.4500000000000002 0  -0.45 -0.4500000000000002 0  -0.3 -0.4500000000000002 0  -0.15 -0.4500000000000002 0  0 -0.4500000000000002 0  0.15 -0.4500000000000002 0  0.3 -0.4500000000000002 0  0.45 -0.4500000000000002 0  0.6000000000000001 -0.4500000000000002 0  0.75 -0.4500000000000002 0  -0.75 -0.2999999999999998 0  -0.6 -0.2999999999999998 0  -0.45 -0.2999999999999998 0  -0.3 -0.2999999999999998 0  -0.15 -0.2999999999999998 0  0 -0.2999999999999998 0  0.15 -0.2999999999999998 0  0.3 -0.2999999999999998 0  0.45 -0.2999999999999998 0  0.6000000000000001 -0.2999999999999998 0  0.75 -0.2999999999999998 0  -0.75 -0.1499999999999999 0  -0.6 -0.1499999999999999 0  -0.45 -0.1499999999999999 0  -0.3 -0.1499999999999999 0  -0.15 -0.1499999999999999 0  0 -0.1499999999999999 0  0.15 -0.1499999999999999 0  0.3 -0.1499999999999999 0  0.45 -0.1499999999999999 0  0.6000000000000001 -0.1499999999999999 0  0.75 -0.1499999999999999 0  -0.75 0 0  -0.6 0 0  -0.45 0 0  -0.3 0 0  -0.15 0 0  0 0 0  0.15 0 0  0.3 0 0  0.45 0 0  0.6000000000000001 0 0  0.75 0 0  -0.675 -2.925 0  -0.525 -2.925 0  -0.375 -2.925 0  -0.225 -2.925 0  -0.07499999999999996 -2.925 0  0.07499999999999996 -2.925 0  0.225 -2.925 0  0.375 -2.925 0  0.5249999999999999 -2.925 0  0.675 -2.925 0  -0.675 -2.775 0  -0.525 -2.775 0  -0.375 -2.775 0  -0.225 -2.775 0  -0.07499999999999996 -2.775 0  0.07499999999999996 -2.775 0  0.225 -2.775 0  0.375 -2.775 0  0.5249999999999999 -2.775 0  0.675 -2.775 0  -0.675 -2.625 0  -0.525 -2.625 0  -0.375 -2.625 0  -0.225 -2.625 0  -0.07499999999999996 -2.625 0  0.07499999999999996 -2.625 0  0.225 -2.625 0  0.375 -2.625 0  0.5249999999999999 -2.625 0  0.675 -2.625 0  -0.675 -2.475 0  -0.525 -2.475 0  -0.375 -2.475 0  -0.225 -2.475 0  -0.07499999999999996 -2.475 0  0.07499999999999996 -2.475 0  0.225 -2.475 0  0.375 -2.475 0  0.5249999999999999 -2.475 0  0.675 -2.475 0  -0.675 -2.325 0  -0.525 -2.325 0  -0.375 -2.325 0  -0.225 -2.325 0  -0.07499999999999996 -2.325 0  0.07499999999999996 -2.325 0  0.225 -2.325 0  0.375 -2.325 0  0.5249999999999999 -2.325 0  0.675 -2.325 0  -0.675 -2.175 0  -0.525 -2.175 0  -0.375 -2.175 0  -0.225 -2.175 0  -0.07499999999999996 -2.175 0  0.07499999999999996 -2.175 0  0.225 -2.175 0  0.375 -2.175 0  0.5249999999999999 -2.175 0  0.675 -2.175 0  -0.675 -2.025 0  -0.525 -2.025 0  -0.375 -2.025 0  -0.225 -2.025 0  -0.07499999999999996 -2.025 0  0.07499999999999996 -2.025 0  0.225 -2.025 0  0.375 -2.025 0  0.5249999999999999 -2.025 0  0.675 -2.025 0  -0.675 -1.875 0  -0.525 -1.875 0  -0.375 -1.875 0  -0.225 -1.875 0  -0.07499999999999996 -1.875 0  0.07499999999999996 -1.875 0  0.225 -1.875 0  0.375 -1.875 0  0.5249999999999999 -1.875 0  0.675 -1.875 0  -0.675 -1.725 0  -0.525 -1.725 0  -0.375 -1.725 0  -0.225 -1.725 0  -0.07499999999999996 -1.725 0  0.07499999999999996 -1.725 0  0.225 -1.725 0  0.375 -1.725 0  0.5249999999999999 -1.725 0  0.675 -1.725 0  -0.675 -1.575 0  -0.525 -1.575 0  -0.375 -1.575 0  -0.225 -1.575 0  -0.07499999999999996 -1.575 0  0.07499999999999996 -1.575 0  0.225 -1.575 0  0.375 -1.575 0  0.5249999999999999 -1.575 0  0.675 -1.575 0  -0.675 -1.425 0  -0.525 -1.425 0  -0.375 -1.425 0  -0.225 -1.425 0  -0.07499999999999996 -1.425 0  0.07499999999999996 -1.425 0  0.225 -1.425 0  0.375 -1.425 0  0.5249999999999999 -1.425 0  0.675 -1.425 0  -0.675 -1.275 0  -0.525 -1.275 0  -0.375 -1.275 0  -0.225 -1.275 0  -0.07499999999999996 -1.275 0  0.07499999999999996 -1.275 0  0.225 -1.275 0  0.375 -1.275 0  0.5249999999999999 -1.275 0  0.675 -1.275 0  -0.675 -1.125 0  -0.525 -1.125 0  -0.375 -1.125 0  -0.225 -1.125 0  -0.07499999999999996 -1.125 0  0.07499999999999996 -1.125 0  0.225 -1.125 0  0.375 -1.125 0  0.5249999999999999 -1.125 0  0.675 -1.125 0  -0.675 -0.9750000000000001 0  -0.525 -0.9750000000000001 0  -0.375 -0.9750000000000001 0  -0.225 -0.9750000000000001 0  -0.07499999999999996 -0.9750000000000001 0  0.07499999999999996 -0.9750000000000001 0  0.225 -0.9750000000000001 0  0.375 -0.9750000000000001 0  0.5249999999999999 -0.9750000000000001 0  0.675 -0.9750000000000001 0  -0.675 -0.8250000000000002 0  -0.525 -0.8250000000000002 0  -0.375 -0.8250000000000002 0  -0.225 -0.8250000000000002 0  -0.07499999999999996 -0.8250000000000002 0  0.07499999999999996 -0.8250000000000002 0  0.225 -0.8250000000000002 0  0.375 -0.8250000000000002 0  0.5249999999999999 -0.8250000000000002 0  0.675 -0.8250000000000002 0  -0.675 -0.6749999999999998 0  -0.525 -0.6749999999999998 0  -0.375 -0.6749999999999998 0  -0.225 -0.6749999999999998 0  -0.07499999999999996 -0.6749999999999998 0  0.07499999999999996 -0.6749999999999998 0  0.225 -0.6749999999999998 0  0.375 -0.6749999999999998 0  0.5249999999999999 -0.6749999999999998 0  0.675 -0.6749999999999998 0  -0.675 -0.5249999999999999 0  -0.525 -0.5249999999999999 0  -0.375 -0.5249999999999999 0  -0.225 -0.5249999999999999 0  -0.07499999999999996 -0.5249999999999999 0  0.07499999999999996 -0.5249999999999999 0  0.225 -0.5249999999999999 0  0.375 -0.5249999999999999 0  0.5249999999999999 -0.5249999999999999 0  0.675 -0.5249999999999999 0  -0.675 -0.375 0  -0.525 -0.375 0  -0.375 -0.375 0  -0.225 -0.375 0  -0.07499999999999996 -0.375 0  0.07499999999999996 -0.375 0  0.225 -0.375 0  0.375 -0.375 0  0.5249999999999999 -0.375 0  0.675 -0.375 0  -0.675 -0.2250000000000001 0  -0.525 -0.2250000000000001 0  -0.375 -0.2250000000000001 0  -0.225 -0.2250000000000001 0  -0.07499999999999996 -0.2250000000000001 0  0.07499999999999996 -0.2250000000000001 0  0.225 -0.2250000000000001 0  0.375 -0.2250000000000001 0  0.5249999999999999 -0.2250000000000001 0  0.675 -0.2250000000000001 0  -0.675 -0.07500000000000018 0  -0.525 -0.07500000000000018 0  -0.375 -0.07500000000000018 0  -0.225 -0.07500000000000018 0  -0.07499999999999996 -0.07500000000000018 0  0.07499999999999996 -0.07500000000000018 0  0.225 -0.07500000000000018 0  0.375 -0.07500000000000018 0  0.5249999999999999 -0.07500000000000018 0  0.675 -0.07500000000000018 0  </DataArray>
</Points>
<Cells>
[...]
<PointData  Scalars="mean stress"> 
<DataArray  type="Float64"  Name="mean stress"  format="ascii">5.3436164427715661e+06  5.3436164427711312e+06  5.3436164427722590e+06  5.3436164427728541e+06  5.3436164427702539e+06  5.3436164427730767e+06  5.3436164427730497e+06  5.3436164427706413e+06  5.3436164427714814e+06  5.3436164427719759e+06  5.3436164427716760e+06  5.3436164418663196e+06  5.3436164418658903e+06  5.3436164418662004e+06  5.3436164418657161e+06  5.3436164418667834e+06  5.3436164418659369e+06  5.3436164418647075e+06  5.3436164418667341e+06  5.3436164418656724e+06  5.3436164418660486e+06  5.3436164418666428e+06  5.3436164378249357e+06  5.3436164378262172e+06  5.3436164378250465e+06  5.3436164378254050e+06  5.3436164378260765e+06  5.3436164378249682e+06  5.3436164378250195e+06  5.3436164378258586e+06  5.3436164378249953e+06  5.3436164378250409e+06  5.3436164378246786e+06  5.3436164247649219e+06  5.3436164247646723e+06  5.3436164247628795e+06  5.3436164247625349e+06  5.3436164247632110e+06  5.3436164247635463e+06  5.3436164247624977e+06  5.3436164247639216e+06  5.3436164247651026e+06  5.3436164247630062e+06  5.3436164247647291e+06  5.3436163836488612e+06  5.3436163836488966e+06  5.3436163836519178e+06  5.3436163836543141e+06  5.3436163836542042e+06  5.3436163836524338e+06  5.3436163836528789e+06  5.3436163836515322e+06  5.3436163836505990e+06  5.3436163836526647e+06  5.3436163836509893e+06  5.3436162545910729e+06  5.3436162545914976e+06  5.3436162545934599e+06  5.3436162545914426e+06  5.3436162545878524e+06  5.3436162545913225e+06  5.3436162545921542e+06  5.3436162545915805e+06  5.3436162545916755e+06  5.3436162545904405e+06  5.3436162545884531e+06  5.3436158495524442e+06  5.3436158495539809e+06  5.3436158495564377e+06  5.3436158495538030e+06  5.3436158495548451e+06  5.3436158495558463e+06  5.3436158495522738e+06  5.3436158495541373e+06  5.3436158495504279e+06  5.3436158495553350e+06  5.3436158495483790e+06  5.3436145784232477e+06  5.3436145784080094e+06  5.3436145784230931e+06  5.3436145784082050e+06  5.3436145784191228e+06  5.3436145784082962e+06  5.3436145784193799e+06  5.3436145784083446e+06  5.3436145784183200e+06  5.3436145784055665e+06  5.3436145784255126e+06  5.3436105891696233e+06  5.3436105892535076e+06  5.3436105891656065e+06  5.3436105892483015e+06  5.3436105891871722e+06  5.3436105892372150e+06  5.3436105891822483e+06  5.3436105892409794e+06  5.3436105891737416e+06  5.3436105892591737e+06  5.3436105891636070e+06  5.3435980702651218e+06  5.3435980696367398e+06  5.3435980701586241e+06  5.3435980697329836e+06  5.3435980700528305e+06  5.3435980697944378e+06  5.3435980700554745e+06  5.3435980697420882e+06  5.3435980701630162e+06  5.3435980696381396e+06  5.3435980702677146e+06  5.3435587792347604e+06  5.3435587824853733e+06  5.3435587792895436e+06  5.3435587817412540e+06  5.3435587799665947e+06  5.3435587813282916e+06  5.3435587799667064e+06  5.3435587817450855e+06  5.3435587792840684e+06  5.3435587824851433e+06  5.3435587792384680e+06  5.3434354950463772e+06  5.3434354693566710e+06  5.3434354881188693e+06  5.3434354737614617e+06  5.3434354834927255e+06  5.3434354764803844e+06  5.3434354834904307e+06  5.3434354737548428e+06  5.3434354881169740e+06  5.3434354693572232e+06  5.3434354950421490e+06  5.3430484928414300e+06  5.3430485930053536e+06  5.3430484751503514e+06  5.3430485574713508e+06  5.3430485048283720e+06  5.3430485396249676e+06  5.3430485048364867e+06  5.3430485574776009e+06  5.3430484751479067e+06  5.3430485930070598e+06  5.3430484928381555e+06  5.3418349711952079e+06  5.3418337817437360e+06  5.3418344482707260e+06  5.3418339665042832e+06  5.3418342430628156e+06  5.3418340790849105e+06  5.3418342430594126e+06  5.3418339664983135e+06  5.3418344482767433e+06  5.3418337817455176e+06  5.3418349711900763e+06  5.3380240942054428e+06  5.3380258817961337e+06  5.3380213793598078e+06  5.3380240516865170e+06  5.3380226279189289e+06  5.3380233377574664e+06  5.3380226279153228e+06  5.3380240516910292e+06  5.3380213793561282e+06  5.3380258817861713e+06  5.3380240942119453e+06  5.3261178152967496e+06  5.3260507714630449e+06  5.3260736239968035e+06  5.3260578957214644e+06  5.3260646323018381e+06  5.3260619312042668e+06  5.3260646323088650e+06  5.3260578957126215e+06  5.3260736239923332e+06  5.3260507714622794e+06  5.3261178153119283e+06  5.2887841182276737e+06  5.2886597569896178e+06  5.2884748123558303e+06  5.2885524165789504e+06  5.2885222973234402e+06  5.2885299916778319e+06  5.2885222973181345e+06  5.2885524165764796e+06  5.2884748123541726e+06  5.2886597569845505e+06  5.2887841182140652e+06  5.1752303086088225e+06  5.1704573813299080e+06  5.1711280702890903e+06  5.1706631982793417e+06  5.1707438224588251e+06  5.1707290392749384e+06  5.1707438224580009e+06  5.1706631982839545e+06  5.1711280702804467e+06  5.1704573813532302e+06  5.1752303086104421e+06  4.8335119500861857e+06  4.8095322304795776e+06  4.8002492430566661e+06  4.8011554275449589e+06  4.8010415917196544e+06  4.8010602821902027e+06  4.8010415917159598e+06  4.8011554275581837e+06  4.8002492430606633e+06  4.8095322304655379e+06  4.8335119500828935e+06  4.0902602621353040e+06  3.6373541119172443e+06  3.6413434940266307e+06  3.6408313439074662e+06  3.6409148931650463e+06  3.6408983069331804e+06  3.6409148931643055e+06  3.6408313438994735e+06  3.6413434940254223e+06  3.6373541119218664e+06  4.0902602621476310e+06  1.5135227633215450e+07  1.4720709069607405e+07  1.4725605261362974e+07  1.4725616737416377e+07  1.4725565168565845e+07  1.4725579389683230e+07  1.4725565168563474e+07  1.4725616737416541e+07  1.4725605261349566e+07  1.4720709069595220e+07  1.5135227633186078e+07  5.3436164471542640e+06  5.3436164471540805e+06  5.3436164471536232e+06  5.3436164471540451e+06  5.3436164471538840e+06  5.3436164471537061e+06  5.3436164471537061e+06  5.3436164471541066e+06  5.3436164471539874e+06  5.3436164471535403e+06  5.3436164517240794e+06  5.3436164517247221e+06  5.3436164517244166e+06  5.3436164517247193e+06  5.3436164517249381e+06  5.3436164517253712e+06  5.3436164517256180e+06  5.3436164517243756e+06  5.3436164517247658e+06  5.3436164517248841e+06  5.3436164675253574e+06  5.3436164675257998e+06  5.3436164675254878e+06  5.3436164675265439e+06  5.3436164675257746e+06  5.3436164675252950e+06  5.3436164675246449e+06  5.3436164675256405e+06  5.3436164675254542e+06  5.3436164675249392e+06  5.3436165175776482e+06  5.3436165175772980e+06  5.3436165175772039e+06  5.3436165175766395e+06  5.3436165175771378e+06  5.3436165175780039e+06  5.3436165175780598e+06  5.3436165175760211e+06  5.3436165175751429e+06  5.3436165175757799e+06  5.3436166748005198e+06  5.3436166747986516e+06  5.3436166747994097e+06  5.3436166747984858e+06  5.3436166747962488e+06  5.3436166747967172e+06  5.3436166747976206e+06  5.3436166747994944e+06  5.3436166748001762e+06  5.3436166748016132e+06  5.3436171682614684e+06  5.3436171682631383e+06  5.3436171682615383e+06  5.3436171682637287e+06  5.3436171682646694e+06  5.3436171682634745e+06  5.3436171682620365e+06  5.3436171682601627e+06  5.3436171682605557e+06  5.3436171682593813e+06  5.3436187168980576e+06  5.3436187168971486e+06  5.3436187168988902e+06  5.3436187169007184e+06  5.3436187169005163e+06  5.3436187168998644e+06  5.3436187169014793e+06  5.3436187169007305e+06  5.3436187169021750e+06  5.3436187169008879e+06  5.3436235769902840e+06  5.3436235769906491e+06  5.3436235769939926e+06  5.3436235769890565e+06  5.3436235769904526e+06  5.3436235769921439e+06  5.3436235769899804e+06  5.3436235769927595e+06  5.3436235769899823e+06  5.3436235769908745e+06  5.3436388293749057e+06  5.3436388293901514e+06  5.3436388293649070e+06  5.3436388293881044e+06  5.3436388293747120e+06  5.3436388293747725e+06  5.3436388293886110e+06  5.3436388293681443e+06  5.3436388293861477e+06  5.3436388293735497e+06  5.3436866958459634e+06  5.3436866957893334e+06  5.3436866959483819e+06  5.3436866958032232e+06  5.3436866958901808e+06  5.3436866958901370e+06  5.3436866958013689e+06  5.3436866959449518e+06  5.3436866957873432e+06  5.3436866958415415e+06  5.3438369142925618e+06  5.3438369152801149e+06  5.3438369143614965e+06  5.3438369153511701e+06  5.3438369147766773e+06  5.3438369147763206e+06  5.3438369153520335e+06  5.3438369143696493e+06  5.3438369152852269e+06  5.3438369142914778e+06  5.3443083431728706e+06  5.3443083422018522e+06  5.3443083499780148e+06  5.3443083437127424e+06  5.3443083474942856e+06  5.3443083474940034e+06  5.3443083437118540e+06  5.3443083499690825e+06  5.3443083422021093e+06  5.3443083431812394e+06  5.3457877832543263e+06  5.3457878480545348e+06  5.3457878106307695e+06  5.3457878545097001e+06  5.3457878308260562e+06  5.3457878308244096e+06  5.3457878545076270e+06  5.3457878106270973e+06  5.3457878480531992e+06  5.3457877832523780e+06  5.3504305305532739e+06  5.3504306495945556e+06  5.3504310596486665e+06  5.3504307988163875e+06  5.3504309491563905e+06  5.3504309491583863e+06  5.3504307988197515e+06  5.3504310596555006e+06  5.3504306495893104e+06  5.3504305305497488e+06  5.3649974003974684e+06  5.3650022771733152e+06  5.3650009429431958e+06  5.3650028786507268e+06  5.3650020482508782e+06  5.3650020482509192e+06  5.3650028786480157e+06  5.3650009429405984e+06  5.3650022771787308e+06  5.3649974004014470e+06  5.4106901945906514e+06  5.4107121454554228e+06  5.4107370557549223e+06  5.4107274323291201e+06  5.4107320296091577e+06  5.4107320296082525e+06  5.4107274323293222e+06  5.4107370557572050e+06  5.4107121454502819e+06  5.4106901945852768e+06  5.5537671105426857e+06  5.5541937761348570e+06  5.5541684461286059e+06  5.5542526117158709e+06  5.5542417569713332e+06  5.5542417569729313e+06  5.5542526117180819e+06  5.5541684461332681e+06  5.5541937761371210e+06  5.5537671105447048e+06  5.9995077622066243e+06  6.0027011412089756e+06  6.0047192162863268e+06  6.0046170626509581e+06  6.0046243876385149e+06  6.0046243876344161e+06  6.0046170626450526e+06  6.0047192162865391e+06  6.0027011412100540e+06  5.9995077622063076e+06  7.3682271947417445e+06  7.4169333193323091e+06  7.4181361255031088e+06  7.4180450213396819e+06  7.4180520652232124e+06  7.4180520652251178e+06  7.4180450213442221e+06  7.4181361255001035e+06  7.4169333193351673e+06  7.3682271947392467e+06  4.4645417125405269e+06  4.4930729867968587e+06  4.4909053893205076e+06  4.4910222423501248e+06  4.4910148352409704e+06  4.4910148352381093e+06  4.4910222423486682e+06  4.4909053893154766e+06  4.4930729867899334e+06  4.4645417125295782e+06  </DataArray> 
</PointData> 
</Piece>
</UnstructuredGrid>
</VTKFile>