<?xml version="1.0"?>
<VTKFile type="UnstructuredGrid"  version="0.1"  >
<UnstructuredGrid>
<Piece  NumberOfPoints="1876" NumberOfCells="3600">
<Points>
<DataArray  type="Float64"  NumberOfComponents="3"  format="ascii">-0.75 -3 0  -0.65 -3 0  -0.55 -3 0  -0.45 -3 0  -0.35 -3 0  -0.25 -3 0  -0.15 -3 0  -0.05000000000000004 -3 0  0.05000000000000004 -3 0  0.15 -3 0  0.25 -3 0  0.3500000000000001 -3 0  0.45 -3 0  0.55 -3 0  0.6499999999999999 -3 0  0.75 -3 0  -0.75 -2.95 0  -0.65 -2.95 0  -0.55 -2.95 0  -0.45 -2.95 0  -0.35 -2.95 0  -0.25 -2.95 0  -0.15 -2.95 0  -0.05000000000000004 -2.95 0  0.05000000000000004 -2.95 0  0.15 -2.95 0  0.25 -2.95 0  0.3500000000000001 -2.95 0  0.45 -2.95 0  0.55 -2.95 0  0.6499999999999999 -2.95 0  0.75 -2.95 0  -0.75 -2.9 0  -0.65 -2.9 0  -0.55 -2.9 0  -0.45 -2.9 0  -0.35 -2.9 0  -0.25 -2.9 0  -0.15 -2.9 0  -0.05000000000000004 -2.9 0  0.05000000000000004 -2.9 0  0.15 -2.9 0  0.25 -2.9 0  0.3500000000000001 -2.9 0  0.45 -2.9 0  0.55 -2.9 0  0.6499999999999999 -2.9 0  0.75 -2.9 0  -0.75 -2.85 0  -0.65 -2.85 0  -0.55 -2.85 0  -0.45 -2.85 0  -0.35 -2.85 0  -0.25 -2.85 0  -0.15 -2.85 0  -0.05000000000000004 -2.85 0  0.05000000000000004 -2.85 0  0.15 -2.85 0  0.25 -2.85 0  0.3500000000000001 -2.85 0  0.45 -2.85 0  0.55 -2.85 0  0.6499999999999999 -2.85 0  0.75 -2.85 0  -0.75 -2.8 0  -0.65 -2.8 0  -0.55 -2.8 0  -0.45 -2.8 0  -0.35 -2.8 0  -0.25 -2.8 0  -0.15 -2.8 0  -0.05000000000000004 -2.8 0  0.05000000000000004 -2.8 0  0.15 -2.8 0  0.25 -2.8 0  0.3500000000000001 -2.8 0  0.45 -2.8 0  0.55 -2.8 0  0.6499999999999999 -2.8 0  0.75 -2.8 0  -0.75 -2.75 0  -0.65 -2.75 0  -0.55 -2.75 0  -0.45 -2.75 0  -0.35 -2.75 0  -0.25 -2.75 0  -0.15 -2.75 0  -0.05000000000000004 -2.75 0  0.05000000000000004 -2.75 0  0.15 -2.75 0  0.25 -2.75 0  0.3500000000000001 -2.75 0  0.45 -2.75 0  0.55 -2.75 0  0.6499999999999999 -2.75 0  0.75 -2.75 0  -0.75 -2.7 0  -0.65 -2.7 0  -0.55 -2.7 0  -0.45 -2.7 0  -0.35 -2.7 0  -0.25 -2.7 0  -0.15 -2.7 0  -0.05000000000000004 -2.7 0  0.05000000000000004 -2.7 0  0.15 -2.7 0  0.25 -2.7 0  0.3500000000000001 -2.7 0  0.45 -2.7 0  0.55 -2.7 0  0.6499999999999999 -2.7 0  0.75 -2.7 0  -0.75 -2.65 0  -0.65 -2.65 0  -0.55 -2.65 0  -0.45 -2.65 0  -0.35 -2.65 0  -0.25 -2.65 0  -0.15 -2.65 0  -0.05000000000000004 -2.65 0  0.05000000000000004 -2.65 0  0.15 -2.65 0  0.25 -2.65 0  0.3500000000000001 -2.65 0  0.45 -2.65 0  0.55 -2.65 0  0.6499999999999999 -2.65 0  0.75 -2.65 0  -0.75 -2.6 0  -0.65 -2.6 0  -0.55 -2.6 0  -0.45 -2.6 0  -0.35 -2.6 0  -0.25 -2.6 0  -0.15 -2.6 0  -0.05000000000000004 -2.6 0  0.05000000000000004 -2.6 0  0.15 -2.6 0  0.25 -2.6 0  0.3500000000000001 -2.6 0  0.45 -2.6 0  0.55 -2.6 0  0.6499999999999999 -2.6 0  0.75 -2.6 0  -0.75 -2.55 0  -0.65 -2.55 0  -0.55 -2.55 0  -0.45 -2.55 0  -0.35 -2.55 0  -0.25 -2.55 0  -0.15 -2.55 0  -0.05000000000000004 -2.55 0  0.05000000000000004 -2.55 0  0.15 -2.55 0  0.25 -2.55 0  0.3500000000000001 -2.55 0  0.45 -2.55 0  0.55 -2.55 0  0.6499999999999999 -2.55 0  0.75 -2.55 0  -0.75 -2.5 0  -0.65 -2.5 0  -0.55 -2.5 0  -0.45 -2.5 0  -0.35 -2.5 0  -0.25 -2.5 0  -0.15 -2.5 0  -0.05000000000000004 -2.5 0  0.05000000000000004 -2.5 0  0.15 -2.5 0  0.25 -2.5 0  0.3500000000000001 -2.5 0  0.45 -2.5 0  0.55 -2.5 0  0.6499999999999999 -2.5 0  0.75 -2.5 0  -0.75 -2.45 0  -0.65 -2.45 0  -0.55 -2.45 0  -0.45 -2.45 0  -0.35 -2.45 0  -0.25 -2.45 0  -0.15 -2.45 0  -0.05000000000000004 -2.45 0  0.05000000000000004 -2.45 0  0.15 -2.45 0  0.25 -2.45 0  0.3500000000000001 -2.45 0  0.45 -2.45 0  0.55 -2.45 0  0.6499999999999999 -2.45 0  0.75 -2.45 0  -0.75 -2.4 0  -0.65 -2.4 0  -0.55 -2.4 0  -0.45 -2.4 0  -0.35 -2.4 0  -0.25 -2.4 0  -0.15 -2.4 0  -0.05000000000000004 -2.4 0  0.05000000000000004 -2.4 0  0.15 -2.4 0  0.25 -2.4 0  0.3500000000000001 -2.4 0  0.45 -2.4 0  0.55 -2.4 0  0.6499999999999999 -2.4 0  0.75 -2.4 0  -0.75 -2.35 0  -0.65 -2.35 0  -0.55 -2.35 0  -0.45 -2.35 0  -0.35 -2.35 0  -0.25 -2.35 0  -0.15 -2.35 0  -0.05000000000000004 -2.35 0  0.05000000000000004 -2.35 0  0.15 -2.35 0  0.25 -2.35 0  0.3500000000000001 -2.35 0  0.45 -2.35 0  0.55 -2.35 0  0.6499999999999999 -2.35 0  0.75 -2.35 0  -0.75 -2.3 0  -0.65 -2.3 0  -0.55 -2.3 0  -0.45 -2.3 0  -0.35 -2.3 0  -0.25 -2.3 0  -0.15 -2.3 0  -0.05000000000000004 -2.3 0  0.05000000000000004 -2.3 0  0.15 -2.3 0  0.25 -2.3 0  0.3500000000000001 -2.3 0  0.45 -2.3 0  0.55 -2.3 0  0.6499999999999999 -2.3 0  0.75 -2.3 0  -0.75 -2.25 0  -0.65 -2.25 0  -0.55 -2.25 0  -0.45 -2.25 0  -0.35 -2.25 0  -0.25 -2.25 0  -0.15 -2.25 0  -0.05000000000000004 -2.25 0  0.05000000000000004 -2.25 0  0.15 -2.25 0  0.25 -2.25 0  0.3500000000000001 -2.25 0  0.45 -2.25 0  0.55 -2.25 0  0.6499999999999999 -2.25 0  0.75 -2.25 0  -0.75 -2.2 0  -0.65 -2.2 0  -0.55 -2.2 0  -0.45 -2.2 0  -0.35 -2.2 0  -0.25 -2.2 0  -0.15 -2.2 0  -0.05000000000000004 -2.2 0  0.05000000000000004 -2.2 0  0.15 -2.2 0  0.25 -2.2 0  0.3500000000000001 -2.2 0  0.45 -2.2 0  0.55 -2.2 0  0.6499999999999999 -2.2 0  0.75 -2.2 0  -0.75 -2.15 0  -0.65 -2.15 0  -0.55 -2.15 0  -0.45 -2.15 0  -0.35 -2.15 0  -0.25 -2.15 0  -0.15 -2.15 0  -0.05000000000000004 -2.15 0  0.05000000000000004 -2.15 0  0.15 -2.15 0  0.25 -2.15 0  0.3500000000000001 -2.15 0  0.45 -2.15 0  0.55 -2.15 0  0.6499999999999999 -2.15 0  0.75 -2.15 0  -0.75 -2.1 0  -0.65 -2.1 0  -0.55 -2.1 0  -0.45 -2.1 0  -0.35 -2.1 0  -0.25 -2.1 0  -0.15 -2.1 0  -0.05000000000000004 -2.1 0  0.05000000000000004 -2.1 0  0.15 -2.1 0  0.25 -2.1 0  0.3500000000000001 -2.1 0  0.45 -2.1 0  0.55 -2.1 0  0.6499999999999999 -2.1 0  0.75 -2.1 0  -0.75 -2.05 0  -0.65 -2.05 0  -0.55 -2.05 0  -0.45 -2.05 0  -0.35 -2.05 0  -0.25 -2.05 0  -0.15 -2.05 0  -0.05000000000000004 -2.05 0  0.05000000000000004 -2.05 0  0.15 -2.05 0  0.25 -2.05 0  0.3500000000000001 -2.05 0  0.45 -2.05 0  0.55 -2.05 0  0.6499999999999999 -2.05 0  0.75 -2.05 0  -0.75 -2 0  -0.65 -2 0  -0.55 -2 0  -0.45 -2 0  -0.35 -2 0  -0.25 -2 0  -0.15 -2 0  -0.05000000000000004 -2 0  0.05000000000000004 -2 0  0.15 -2 0  0.25 -2 0  0.3500000000000001 -2 0  0.45 -2 0  0.55 -2 0  0.6499999999999999 -2 0  0.75 -2 0  -0.75 -1.95 0  -0.65 -1.95 0  -0.55 -1.95 0  -0.45 -1.95 0  -0.35 -1.95 0  -0.25 -1.95 0  -0.15 -1.95 0  -0.05000000000000004 -1.95 0  0.05000000000000004 -1.95 0  0.15 -1.95 0  0.25 -1.95 0  0.3500000000000001 -1.95 0  0.45 -1.95 0  0.55 -1.95 0  0.6499999999999999 -1.95 0  0.75 -1.95 0  -0.75 -1.9 0  -0.65 -1.9 0  -0.55 -1.9 0  -0.45 -1.9 0  -0.35 -1.9 0  -0.25 -1.9 0  -0.15 -1.9 0  -0.05000000000000004 -1.9 0  0.05000000000000004 -1.9 0  0.15 -1.9 0  0.25 -1.9 0  0.3500000000000001 -1.9 0  0.45 -1.9 0  0.55 -1.9 0  0.6499999999999999 -1.9 0  0.75 -1.9 0  -0.75 -1.85 0  -0.65 -1.85 0  -0.55 -1.85 0  -0.45 -1.85 0  -0.35 -1.85 0  -0.25 -1.85 0  -0.15 -1.85 0  -0.05000000000000004 -1.85 0  0.05000000000000004 -1.85 0  0.15 -1.85 0  0.25 -1.85 0  0.3500000000000001 -1.85 0  0.45 -1.85 0  0.55 -1.85 0  0.6499999999999999 -1.85 0  0.75 -1.85 0  -0.75 -1.8 0  -0.65 -1.8 0  -0.55 -1.8 0  -0.45 -1.8 0  -0.35 -1.8 0  -0.25 -1.8 0  -0.15 -1.8 0  -0.05000000000000004 -1.8 0  0.05000000000000004 -1.8 0  0.15 -1.8 0  0.25 -1.8 0  0.3500000000000001 -1.8 0  0.45 -1.8 0  0.55 -1.8 0  0.6499999999999999 -1.8 0  0.75 -1.8 0  -0.75 -1.75 0  -0.65 -1.75 0  -0.55 -1.75 0  -0.45 -1.75 0  -0.35 -1.75 0  -0.25 -1.75 0  -0.15 -1.75 0  -0.05000000000000004 -1.75 0  0.05000000000000004 -1.75 0  0.15 -1.75 0  0.25 -1.75 0  0.3500000000000001 -1.75 0  0.45 -1.75 0  0.55 -1.75 0  0.6499999999999999 -1.75 0  0.75 -1.75 0  -0.75 -1.7 0  -0.65 -1.7 0  -0.55 -1.7 0  -0.45 -1.7 0  -0.35 -1.7 0  -0.25 -1.7 0  -0.15 -1.7 0  -0.05000000000000004 -1.7 0  0.05000000000000004 -1.7 0  0.15 -1.7 0  0.25 -1.7 0  0.3500000000000001 -1.7 0  0.45 -1.7 0  0.55 -1.7 0  0.6499999999999999 -1.7 0  0.75 -1.7 0  -0.75 -1.65 0  -0.65 -1.65 0  -0.55 -1.65 0  -0.45 -1.65 0  -0.35 -1.65 0  -0.25 -1.65 0  -0.15 -1.65 0  -0.05000000000000004 -1.65 0  0.05000000000000004 -1.65 0  0.15 -1.65 0  0.25 -1.65 0  0.3500000000000001 -1.65 0  0.45 -1.65 0  0.55 -1.65 0  0.6499999999999999 -1.65 0  0.75 -1.65 0  -0.75 -1.6 0  -0.65 -1.6 0  -0.55 -1.6 0  -0.45 -1.6 0  -0.35 -1.6 0  -0.25 -1.6 0  -0.15 -1.6 0  -0.05000000000000004 -1.6 0  0.05000000000000004 -1.6 0  0.15 -1.6 0  0.25 -1.6 0  0.3500000000000001 -1.6 0  0.45 -1.6 0  0.55 -1.6 0  0.6499999999999999 -1.6 0  0.75 -1.6 0  -0.75 -1.55 0  -0.65 -1.55 0  -0.55 -1.55 0  -0.45 -1.55 0  -0.35 -1.55 0  -0.25 -1.55 0  -0.15 -1.55 0  -0.05000000000000004 -1.55 0  0.05000000000000004 -1.55 0  0.15 -1.55 0  0.25 -1.55 0  0.3500000000000001 -1.55 0  0.45 -1.55 0  0.55 -1.55 0  0.6499999999999999 -1.55 0  0.75 -1.55 0  -0.75 -1.5 0  -0.65 -1.5 0  -0.55 -1.5 0  -0.45 -1.5 0  -0.35 -1.5 0  -0.25 -1.5 0  -0.15 -1.5 0  -0.05000000000000004 -1.5 0  0.05000000000000004 -1.5 0  0.15 -1.5 0  0.25 -1.5 0  0.3500000000000001 -1.5 0  0.45 -1.5 0  0.55 -1.5 0  0.6499999999999999 -1.5 0  0.75 -1.5 0  -0.75 -1.45 0  -0.65 -1.45 0  -0.55 -1.45 0  -0.45 -1.45 0  -0.35 -1.45 0  -0.25 -1.45 0  -0.15 -1.45 0  -0.05000000000000004 -1.45 0  0.05000000000000004 -1.45 0  0.15 -1.45 0  0.25 -1.45 0  0.3500000000000001 -1.45 0  0.45 -1.45 0  0.55 -1.45 0  0.6499999999999999 -1.45 0  0.75 -1.45 0  -0.75 -1.4 0  -0.65 -1.4 0  -0.55 -1.4 0  -0.45 -1.4 0  -0.35 -1.4 0  -0.25 -1.4 0  -0.15 -1.4 0  -0.05000000000000004 -1.4 0  0.05000000000000004 -1.4 0  0.15 -1.4 0  0.25 -1.4 0  0.3500000000000001 -1.4 0  0.45 -1.4 0  0.55 -1.4 0  0.6499999999999999 -1.4 0  0.75 -1.4 0  -0.75 -1.35 0  -0.65 -1.35 0  -0.55 -1.35 0  -0.45 -1.35 0  -0.35 -1.35 0  -0.25 -1.35 0  -0.15 -1.35 0  -0.05000000000000004 -1.35 0  0.05000000000000004 -1.35 0  0.15 -1.35 0  0.25 -1.35 0  0.3500000000000001 -1.35 0  0.45 -1.35 0  0.55 -1.35 0  0.6499999999999999 -1.35 0  0.75 -1.35 0  -0.75 -1.3 0  -0.65 -1.3 0  -0.55 -1.3 0  -0.45 -1.3 0  -0.35 -1.3 0  -0.25 -1.3 0  -0.15 -1.3 0  -0.05000000000000004 -1.3 0  0.05000000000000004 -1.3 0  0.15 -1.3 0  0.25 -1.3 0  0.3500000000000001 -1.3 0  0.45 -1.3 0  0.55 -1.3 0  0.6499999999999999 -1.
[...]
<PointData  Scalars="mean stress"> 
<DataArray  type="Float64"  Name="mean stress"  format="ascii">4.9924174703585952e+04  4.9924174703586032e+04  4.9924174703586075e+04  4.9924174703586192e+04  4.9924174703586301e+04  4.9924174703586425e+04  4.9924174703586446e+04  4.9924174703586330e+04  4.9924174703586425e+04  4.9924174703586490e+04  4.9924174703586505e+04  4.9924174703586454e+04  4.9924174703586381e+04  4.9924174703586272e+04  4.9924174703586272e+04  4.9924174703586323e+04  4.9924175874212247e+04  4.9924175874212277e+04  4.9924175874212357e+04  4.9924175874212575e+04  4.9924175874212669e+04  4.9924175874212757e+04  4.9924175874212742e+04  4.9924175874212771e+04  4.9924175874212735e+04  4.9924175874212830e+04  4.9924175874212851e+04  4.9924175874212728e+04  4.9924175874212793e+04  4.9924175874212531e+04  4.9924175874212611e+04  4.9924175874212582e+04  4.9924179490798975e+04  4.9924179490799164e+04  4.9924179490799412e+04  4.9924179490799608e+04  4.9924179490799615e+04  4.9924179490799630e+04  4.9924179490799623e+04  4.9924179490799521e+04  4.9924179490799812e+04  4.9924179490799877e+04  4.9924179490799936e+04  4.9924179490799768e+04  4.9924179490799666e+04  4.9924179490799674e+04  4.9924179490799470e+04  4.9924179490799492e+04  4.9924185873323237e+04  4.9924185873323273e+04  4.9924185873323469e+04  4.9924185873323608e+04  4.9924185873323768e+04  4.9924185873323760e+04  4.9924185873323768e+04  4.9924185873323724e+04  4.9924185873323877e+04  4.9924185873324088e+04  4.9924185873323964e+04  4.9924185873323986e+04  4.9924185873323840e+04  4.9924185873323782e+04  4.9924185873323739e+04  4.9924185873323957e+04  4.9924195574649100e+04  4.9924195574649071e+04  4.9924195574649144e+04  4.9924195574649450e+04  4.9924195574649450e+04  4.9924195574649726e+04  4.9924195574649537e+04  4.9924195574649413e+04  4.9924195574649464e+04  4.9924195574649784e+04  4.9924195574649428e+04  4.9924195574649733e+04  4.9924195574649595e+04  4.9924195574649442e+04  4.9924195574649348e+04  4.9924195574649355e+04  4.9924209410084455e+04  4.9924209410084695e+04  4.9924209410084732e+04  4.9924209410084943e+04  4.9924209410085095e+04  4.9924209410085066e+04  4.9924209410085226e+04  4.9924209410085103e+04  4.9924209410085336e+04  4.9924209410085554e+04  4.9924209410085554e+04  4.9924209410085467e+04  4.9924209410085394e+04  4.9924209410085336e+04  4.9924209410085306e+04  4.9924209410085256e+04  4.9924228499123165e+04  4.9924228499123157e+04  4.9924228499123485e+04  4.9924228499123739e+04  4.9924228499123557e+04  4.9924228499123434e+04  4.9924228499123856e+04  4.9924228499123776e+04  4.9924228499123870e+04  4.9924228499123630e+04  4.9924228499123899e+04  4.9924228499123703e+04  4.9924228499124067e+04  4.9924228499123783e+04  4.9924228499123754e+04  4.9924228499123681e+04  4.9924254319606938e+04  4.9924254319606967e+04  4.9924254319607142e+04  4.9924254319607411e+04  4.9924254319607629e+04  4.9924254319607244e+04  4.9924254319607404e+04  4.9924254319607506e+04  4.9924254319607222e+04  4.9924254319607811e+04  4.9924254319607659e+04  4.9924254319607848e+04  4.9924254319607477e+04  4.9924254319607579e+04  4.9924254319607389e+04  4.9924254319607586e+04  4.9924288774485314e+04  4.9924288774484921e+04  4.9924288774485314e+04  4.9924288774485314e+04  4.9924288774485613e+04  4.9924288774485773e+04  4.9924288774485445e+04  4.9924288774486165e+04  4.9924288774486049e+04  4.9924288774486005e+04  4.9924288774486027e+04  4.9924288774486566e+04  4.9924288774486340e+04  4.9924288774485758e+04  4.9924288774486340e+04  4.9924288774486326e+04  4.9924334271120599e+04  4.9924334271121050e+04  4.9924334271120839e+04  4.9924334271121639e+04  4.9924334271121472e+04  4.9924334271121857e+04  4.9924334271121894e+04  4.9924334271121377e+04  4.9924334271121828e+04  4.9924334271121741e+04  4.9924334271121952e+04  4.9924334271121901e+04  4.9924334271122258e+04  4.9924334271122018e+04  4.9924334271121974e+04  4.9924334271122156e+04  4.9924393812770009e+04  4.9924393812769820e+04  4.9924393812769660e+04  4.9924393812769493e+04  4.9924393812769988e+04  4.9924393812770359e+04  4.9924393812769769e+04  4.9924393812770017e+04  4.9924393812769988e+04  4.9924393812770672e+04  4.9924393812770555e+04  4.9924393812770541e+04  4.9924393812770868e+04  4.9924393812770875e+04  4.9924393812771035e+04  4.9924393812771159e+04  4.9924471101376766e+04  4.9924471101376221e+04  4.9924471101377007e+04  4.9924471101376868e+04  4.9924471101377138e+04  4.9924471101376934e+04  4.9924471101377654e+04  4.9924471101377632e+04  4.9924471101377094e+04  4.9924471101377290e+04  4.9924471101377159e+04  4.9924471101378120e+04  4.9924471101377640e+04  4.9924471101377509e+04  4.9924471101377705e+04  4.9924471101377392e+04  4.9924570650172973e+04  4.9924570650172478e+04  4.9924570650171590e+04  4.9924570650172805e+04  4.9924570650172238e+04  4.9924570650172536e+04  4.9924570650171983e+04  4.9924570650172362e+04  4.9924570650173366e+04  4.9924570650172544e+04  4.9924570650173649e+04  4.9924570650173104e+04  4.9924570650173016e+04  4.9924570650173431e+04  4.9924570650172980e+04  4.9924570650173722e+04  4.9924697903757798e+04  4.9924697903757202e+04  4.9924697903757653e+04  4.9924697903757864e+04  4.9924697903757798e+04  4.9924697903757879e+04  4.9924697903758301e+04  4.9924697903757835e+04  4.9924697903757660e+04  4.9924697903758817e+04  4.9924697903758548e+04  4.9924697903758730e+04  4.9924697903759065e+04  4.9924697903758512e+04  4.9924697903758803e+04  4.9924697903760018e+04  4.9924859362401519e+04  4.9924859362400108e+04  4.9924859362401170e+04  4.9924859362400857e+04  4.9924859362400697e+04  4.9924859362400741e+04  4.9924859362401257e+04  4.9924859362400886e+04  4.9924859362400683e+04  4.9924859362401286e+04  4.9924859362400806e+04  4.9924859362402400e+04  4.9924859362401250e+04  4.9924859362401628e+04  4.9924859362401490e+04  4.9924859362403469e+04  4.9925062706175151e+04  4.9925062706173267e+04  4.9925062706173681e+04  4.9925062706174103e+04  4.9925062706173398e+04  4.9925062706174365e+04  4.9925062706174023e+04  4.9925062706174605e+04  4.9925062706174336e+04  4.9925062706174322e+04  4.9925062706175668e+04  4.9925062706174664e+04  4.9925062706175202e+04  4.9925062706175435e+04  4.9925062706174947e+04  4.9925062706177094e+04  4.9925316913418988e+04  4.9925316913416013e+04  4.9925316913415743e+04  4.9925316913415139e+04  4.9925316913416231e+04  4.9925316913415736e+04  4.9925316913416245e+04  4.9925316913416522e+04  4.9925316913416798e+04  4.9925316913416034e+04  4.9925316913416318e+04  4.9925316913416602e+04  4.9925316913417046e+04  4.9925316913416449e+04  4.9925316913418268e+04  4.9925316913420014e+04  4.9925632366774225e+04  4.9925632366769380e+04  4.9925632366769110e+04  4.9925632366769809e+04  4.9925632366770013e+04  4.9925632366769401e+04  4.9925632366769794e+04  4.9925632366771009e+04  4.9925632366769911e+04  4.9925632366770042e+04  4.9925632366769903e+04  4.9925632366771264e+04  4.9925632366770944e+04  4.9925632366771642e+04  4.9925632366771162e+04  4.9925632366776401e+04  4.9926020938925147e+04  4.9926020938917762e+04  4.9926020938918009e+04  4.9926020938918067e+04  4.9926020938917980e+04  4.9926020938918664e+04  4.9926020938918096e+04  4.9926020938919253e+04  4.9926020938918962e+04  4.9926020938919210e+04  4.9926020938918933e+04  4.9926020938919653e+04  4.9926020938919508e+04  4.9926020938920730e+04  4.9926020938920497e+04  4.9926020938929338e+04  4.9926496049134614e+04  4.9926496049123685e+04  4.9926496049124056e+04  4.9926496049122703e+04  4.9926496049123794e+04  4.9926496049123707e+04  4.9926496049125264e+04  4.9926496049124631e+04  4.9926496049125577e+04  4.9926496049124464e+04  4.9926496049124624e+04  4.9926496049124500e+04  4.9926496049125024e+04  4.9926496049126043e+04  4.9926496049126159e+04  4.9926496049137393e+04  4.9927072680899000e+04  4.9927072680882964e+04  4.9927072680882608e+04  4.9927072680882760e+04  4.9927072680882033e+04  4.9927072680882899e+04  4.9927072680882571e+04  4.9927072680883182e+04  4.9927072680882891e+04  4.9927072680883255e+04  4.9927072680883917e+04  4.9927072680883495e+04  4.9927072680885271e+04  4.9927072680885496e+04  4.9927072680885307e+04  4.9927072680902835e+04  4.9927767350663933e+04  4.9927767350640883e+04  4.9927767350640781e+04  4.9927767350639944e+04  4.9927767350640621e+04  4.9927767350639238e+04  4.9927767350640934e+04  4.9927767350640759e+04  4.9927767350641756e+04  4.9927767350640759e+04  4.9927767350641188e+04  4.9927767350641610e+04  4.9927767350641996e+04  4.9927767350641792e+04  4.9927767350642098e+04  4.9927767350666472e+04  4.9928598017530079e+04  4.9928598017496828e+04  4.9928598017496697e+04  4.9928598017496661e+04  4.9928598017494747e+04  4.9928598017495773e+04  4.9928598017497621e+04  4.9928598017496799e+04  4.9928598017496930e+04  4.9928598017497286e+04  4.9928598017496864e+04  4.9928598017498058e+04  4.9928598017496857e+04  4.9928598017498589e+04  4.9928598017498618e+04  4.9928598017531192e+04  4.9929583924591439e+04  4.9929583924543484e+04  4.9929583924543775e+04  4.9929583924544015e+04  4.9929583924542996e+04  4.9929583924544677e+04  4.9929583924542523e+04  4.9929583924546147e+04  4.9929583924544480e+04  4.9929583924543782e+04  4.9929583924544553e+04  4.9929583924545303e+04  4.9929583924545208e+04  4.9929583924545979e+04  4.9929583924546321e+04  4.9929583924593811e+04  4.9930745363818496e+04  4.9930745363752198e+04  4.9930745363751776e+04  4.9930745363751681e+04  4.9930745363753151e+04  4.9930745363751688e+04  4.9930745363752925e+04  4.9930745363751943e+04  4.9930745363752321e+04  4.9930745363752627e+04  4.9930745363753798e+04  4.9930745363754148e+04  4.9930745363754642e+04  4.9930745363754497e+04  4.9930745363754548e+04  4.9930745363820955e+04  4.9932103358446460e+04  4.9932103358358669e+04  4.9932103358357585e+04  4.9932103358357279e+04  4.9932103358357621e+04  4.9932103358358021e+04  4.9932103358359294e+04  4.9932103358358414e+04  4.9932103358358436e+04  4.9932103358357599e+04  4.9932103358357890e+04  4.9932103358358800e+04  4.9932103358358683e+04  4.9932103358359389e+04  4.9932103358359280e+04  4.9932103358449422e+04  4.9933679259681696e+04  4.9933679259562348e+04  4.9933679259562356e+04  4.9933679259563578e+04  4.9933679259562683e+04  4.9933679259563767e+04  4.9933679259562101e+04  4.9933679259562727e+04  4.9933679259562312e+04  4.9933679259562377e+04  4.9933679259563403e+04  4.9933679259563731e+04  4.9933679259564007e+04  4.9933679259563018e+04  4.9933679259563418e+04  4.9933679259681143e+04  4.9935494258030289e+04  4.9935494257874212e+04  4.9935494257873193e+04  4.9935494257873841e+04  4.9935494257872990e+04  4.9935494257871651e+04  4.9935494257873950e+04  4.9935494257872495e+04  4.9935494257873579e+04  4.9935494257873397e+04  4.9935494257873986e+04  4.9935494257874590e+04  4.9935494257873383e+04  4.9935494257873943e+04  4.9935494257875071e+04  4.9935494258030762e+04  4.9937568813864244e+04  4.9937568813661863e+04  4.9937568813662117e+04  4.9937568813661324e+04  4.9937568813661579e+04  4.9937568813662867e+04  4.9937568813663107e+04  4.9937568813663747e+04  4.9937568813664067e+04  4.9937568813663718e+04  4.9937568813663514e+04  4.9937568813661317e+04  4.9937568813662816e+04  4.9937568813663827e+04  4.9937568813662750e+04  4.9937568813866965e+04  4.9939922016498087e+04  4.9939922016239238e+04  4.9939922016239507e+04  4.9939922016239703e+04  4.9939922016239536e+04  4.9939922016240169e+04  4.9939922016238008e+04  4.9939922016240227e+04  4.9939922016240234e+04  4.9939922016240773e+04  4.9939922016239711e+04  4.9939922016239580e+04  4.9939922016239987e+04  4.9939922016239376e+04  4.9939922016240314e+04  4.9939922016499753e+04  4.9942570886140311e+04  4.9942570885814377e+04  4.9942570885814377e+04  4.9942570885812900e+04  4.9942570885813999e+04  4.9942570885811961e+04  4.9942570885814952e+04  4.9942570885812682e+04  4.9942570885813060e+04  4.9942570885813904e+04  4.9942570885813897e+04  4.9942570885814654e+04  4.9942570885814341e+04  4.9942570885813002e+04  4.9942570885814617e+04  4.9942570886140042e+04  4.9945529638237946e+04  4.9945529637835556e+04  4.9945529637836175e+04  4.9945529637835883e+04  4.9945529637835672e+04  4.9945529637835309e+04  4.9945529637834647e+04  4.9945529637834683e+04  4.9945529637836364e+04  4.9945529637835389e+04  4.9945529637834632e+04  4.9945529637836611e+04  4.9945529637835272e+04  4.9945529637836597e+04  4.9945529637835076e+04  4.9945529638238339e+04  4.9948808934552522e+04  4.9948808934060158e+04  4.9948808934060886e+04  4.9948808934061948e+04  4.9948808934058987e+04  4.9948808934058914e+04  4.9948808934059656e+04  4.9948808934060064e+04  4.9948808934058914e+04  4.9948808934059060e+04  4.9948808934059722e+04  4.9948808934058783e+04  4.9948808934059962e+04  4.9948808934058972e+04  4.9948808934059125e+04  4.9948808934551154e+04  4.9952415149570668e+04  4.9952415148979730e+04  4.9952415148980377e+04  4.9952415148979766e+04  4.9952415148979890e+04  4.9952415148980275e+04  4.9952415148979962e+04  4.9952415148981585e+04  4.9952415148980399e+04  4.9952415148980632e+04  4.9952415148980523e+04  4.9952415148980363e+04  4.9952415148979198e+04  4.9952415148980523e+04  4.9952415148980930e+04  4.9952415149569970e+04  4.9956349684263529e+04  4.9956349683566979e+04  4.9956349683564746e+04  4.9956349683564360e+04  4.9956349683566172e+04  4.9956349683567751e+04  4.9956349683566310e+04  4.9956349683566244e+04  4.9956349683565866e+04  4.9956349683565670e+04  4.9956349683566463e+04  4.9956349683564607e+04  4.9956349683565044e+04  4.9956349683565619e+04  4.9956349683566426e+04  4.9956349684262736e+04  4.9960608361123865e+04  4.9960608360315106e+04  4.9960608360313905e+04  4.9960608360315076e+04  4.9960608360313825e+04  4.9960608360314014e+04  4.9960608360314553e+04  4.9960608360313425e+04  4.9960608360313498e+04  4.9960608360311082e+04  4.9960608360313527e+04  4.9960608360312290e+04  4.9960608360313468e+04  4.9960608360312573e+04  4.9960608360311999e+04  4.9960608361121849e+04  4.9965180934990116e+04  4.9965180934063959e+04  4.9965180934063246e+04  4.9965180934064592e+04  4.9965180934063472e+04  4.9965180934062519e+04  4.9965180934061216e+04  4.9965180934062097e+04  4.9965180934062213e+04  4.9965180934064185e+04  4.9965180934060620e+04  4.9965180934062228e+04  4.9965180934061464e+04  4.9965180934061151e+04  4.9965180934062009e+04  4.9965180934988421e+04  4.9970050752698051e+04  4.9970050751652721e+04  4.9970050751654999e+04  4.9970050751654744e+04  4.9970050751654628e+04  4.9970050751654962e+04  4.9970050751654431e+04  4.9970050751654482e+04  4.9970050751652401e+04  4.9970050751655006e+04  4.9970050751654177e+04  4.9970050751652598e+04  4.9970050751652008e+04  4.9970050751651754e+04  4.9970050751652103e+04  4.9970050752692521e+04  4.9975194591347463e+04  4.9975194590205763e+04  4.9975194590203180e+04  4.9975194590203006e+04  4.9975194590203580e+04  4.9975194590202475e+04  4.9975194590202125e+04  4.9975194590202627e+04  4.9975194590202686e+04  4.9975194590202424e+04  4.9975194590201092e+04  4.9975194590199433e+04  4.9975194590202467e+04  4.9975194590199957e+04  4.9975194590203020e+04  4.9975194591345593e+04  4.9980582699770988e+04  4.9980582698427097e+04  4.9980582698449667e+04  4.9980582698447011e+04  4.9980582698447310e+04  4.9980582698445876e+04  4.9980582698445018e+04  4.9980582698443955e+04  4.9980582698447361e+04  4.9980582698445818e+04  4.9980582698445767e+04  4.9980582698445411e+04  4.9980582698443526e+04  4.9980582698445709e+04  4.9980582698422644e+04  4.9980582699766528e+04  4.9985691921928606e+04  4.9985691921562946e+04  4.9985691921547877e+04  4.9985691921551748e+04  4.9985691921549413e+04  4.9985691921549413e+04  4.9985691921550249e+04  4.9985691921547725e+04  4.9985691921548787e+04  4.9985691921550359e+04  4.9985691921546451e+04  4.9985691921548321e+04  4.9985691921544836e+04  4.9985691921543468e+04  4.9985691921558471e+04  4.9985691921925318e+04  4.9986748734412286e+04  4.9986748734421562e+04  4.9986748734411536e+04  4.9986748734413159e+04  4.9986748734414912e+04  4.9986748734415145e+04  4.9986748734412424e+04  4.9986748734412307e+04  4.9986748734411427e+04  4.9986748734411085e+04  4.9986748734413144e+04  4.9986748734410619e+04  4.9986748734412649e+04  4.9986748734409361e+04  4.9986748734416826e+04  4.9986748734407789e+04  4.9987342176704384e+04  4.9987342176685655e+04  4.9987342176688740e+04  4.9987342176686558e+04  4.9987342176687882e+04  4.9987342176686871e+04  4.9987342176685976e+04  4.9987342176685997e+04  4.9987342176686136e+04  4.9987342176684040e+04  4.9987342176687293e+04  4.9987342176683283e+04  4.9987342176685001e+04  4.9987342176685677e+04  4.9987342176681959e+04  4.9987342176698847e+04  4.9987951350796655e+04  4.9987951350779884e+04  4.9987951350779884e+04  4.9987951350778945e+04  4.9987951350780844e+04  4.9987951350779571e+04  4.9987951350779404e+04  4.9987951350778581e+04  4.9987951350779171e+04  4.9987951350781397e+04  4.9987951350777730e+04  4.9987951350779353e+04  4.9987951350777250e+04  4.9987951350776159e+04  4.9987951350776370e+04  4.9987951350794065e+04  4.9988575686101518e+04  4.9988575686084798e+04  4.9988575686082491e+04  4.9988575686084514e+04  4.9988575686083408e+04  4.9988575686087206e+04  4.9988575686085111e+04  4.9988575686082746e+04  4.9988575686083328e+04  4.9988575686085678e+04  4.9988575686084485e+04  4.9988575686084143e+04  4.9988575686083430e+04  4.9988575686081946e+04  4.9988575686083546e+04  4.9988575686097320e+04  4.9989214564312184e+04  4.9989214564294940e+04  4.9989214564297312e+04  4.9989214564297748e+04  4.9989214564296220e+04  4.9989214564294460e+04  4.9989214564294125e+04  4.9989214564296140e+04  4.9989214564294401e+04  4.9989214564296359e+04  4.9989214564292743e+04  4.9989214564294023e+04  4.9989214564293710e+04  4.9989214564293361e+04  4.9989214564292233e+04  4.9989214564309535e+04  4.9989867321029589e+04  4.9989867321013924e+04  4.9989867321013924e+04  4.9989867321013349e+04  4.9989867321014521e+04  4.9989867321013109e+04  4.9989867321014601e+04  4.9989867321014775e+04  4.9989867321014164e+04  4.9989867321011974e+04  4.9989867321013335e+04  4.9989867321012549e+04  4.9989867321010810e+04  4.9989867321012352e+04  4.9989867321010890e+04  4.9989867321027821e+04  4.9990533247531355e+04  4.9990533247513311e+04  4.9990533247511550e+04  4.9990533247513456e+04  4.9990533247514031e+04  4.9990533247512496e+04  4.9990533247512438e+04  4.9990533247513536e+04  4.9990533247512365e+04  4.9990533247511245e+04  4.9990533247512969e+04  4.9990533247512481e+04  4.9990533247510568e+04  4.9990533247509760e+04  4.9990533247509527e+04  4.9990533247530795e+04  4.9991211592751701e+04  4.9991211592730338e+04  4.9991211592733787e+04  4.9991211592732710e+04  4.9991211592732914e+04  4.9991211592730862e+04  4.9991211592732419e+04  4.9991211592730702e+04  4.9991211592733074e+04  4.9991211592732026e+04  4.9991211592732237e+04  4.9991211592732252e+04  4.9991211592731262e+04  4.9991211592730535e+04  4.9991211592728854e+04  4.9991211592746862e+04  4.9991901565455897e+04  4.9991901565434615e+04  4.9991901565435466e+04  4.9991901565436390e+04  4.9991901565436201e+04  4.9991901565436579e+04  4.9991901565437074e+04  4.9991901565433574e+04  4.9991901565436274e+04  4.9991901565437787e+04  4.9991901565437198e+04  4.9991901565434353e+04  4.9991901565435815e+04  4.9991901565433713e+04  4.9991901565433953e+04  4.9991901565455075e+04  4.9992602336581906e+04  4.9992602336564545e+04  4.9992602336562268e+04  4.9992602336563934e+04  4.9992602336563490e+04  4.9992602336566146e+04  4.9992602336563155e+04  4.9992602336565149e+04  4.9992602336560289e+04  4.9992602336563148e+04  4.9992602336561373e+04  4.9992602336564683e+04  4.9992602336561562e+04  4.9992602336563876e+04  4.9992602336562362e+04  4.9992602336582939e+04  4.9993313041773938e+04  4.9993313041752052e+04  4.9993313041750713e+04  4.9993313041752510e+04  4.9993313041752313e+04  4.9993313041753674e+04  4.9993313041751935e+04  4.9993313041752474e+04  4.9993313041752677e+04  4.9993313041751389e+04  4.9993313041751710e+04  4.9993313041750349e+04  4.9993313041751026e+04  4.999