<?xml version="1.0"?>
<VTKFile type="UnstructuredGrid"  version="0.1"  >
<UnstructuredGrid>
<Piece  NumberOfPoints="1411" NumberOfCells="2700">
<Points>
<DataArray  type="Float64"  NumberOfComponents="3"  format="ascii">-0.75 -4.5 0  -0.65 -4.5 0  -0.55 -4.5 0  -0.45 -4.5 0  -0.35 -4.5 0  -0.25 -4.5 0  -0.15 -4.5 0  -0.05000000000000004 -4.5 0  0.05000000000000004 -4.5 0  0.15 -4.5 0  0.25 -4.5 0  0.3500000000000001 -4.5 0  0.45 -4.5 0  0.55 -4.5 0  0.6499999999999999 -4.5 0  0.75 -4.5 0  -0.75 -4.4 0  -0.65 -4.4 0  -0.55 -4.4 0  -0.45 -4.4 0  -0.35 -4.4 0  -0.25 -4.4 0  -0.15 -4.4 0  -0.05000000000000004 -4.4 0  0.05000000000000004 -4.4 0  0.15 -4.4 0  0.25 -4.4 0  0.3500000000000001 -4.4 0  0.45 -4.4 0  0.55 -4.4 0  0.6499999999999999 -4.4 0  0.75 -4.4 0  -0.75 -4.3 0  -0.65 -4.3 0  -0.55 -4.3 0  -0.45 -4.3 0  -0.35 -4.3 0  -0.25 -4.3 0  -0.15 -4.3 0  -0.05000000000000004 -4.3 0  0.05000000000000004 -4.3 0  0.15 -4.3 0  0.25 -4.3 0  0.3500000000000001 -4.3 0  0.45 -4.3 0  0.55 -4.3 0  0.6499999999999999 -4.3 0  0.75 -4.3 0  -0.75 -4.2 0  -0.65 -4.2 0  -0.55 -4.2 0  -0.45 -4.2 0  -0.35 -4.2 0  -0.25 -4.2 0  -0.15 -4.2 0  -0.05000000000000004 -4.2 0  0.05000000000000004 -4.2 0  0.15 -4.2 0  0.25 -4.2 0  0.3500000000000001 -4.2 0  0.45 -4.2 0  0.55 -4.2 0  0.6499999999999999 -4.2 0  0.75 -4.2 0  -0.75 -4.1 0  -0.65 -4.1 0  -0.55 -4.1 0  -0.45 -4.1 0  -0.35 -4.1 0  -0.25 -4.1 0  -0.15 -4.1 0  -0.05000000000000004 -4.1 0  0.05000000000000004 -4.1 0  0.15 -4.1 0  0.25 -4.1 0  0.3500000000000001 -4.1 0  0.45 -4.1 0  0.55 -4.1 0  0.6499999999999999 -4.1 0  0.75 -4.1 0  -0.75 -4 0  -0.65 -4 0  -0.55 -4 0  -0.45 -4 0  -0.35 -4 0  -0.25 -4 0  -0.15 -4 0  -0.05000000000000004 -4 0  0.05000000000000004 -4 0  0.15 -4 0  0.25 -4 0  0.3500000000000001 -4 0  0.45 -4 0  0.55 -4 0  0.6499999999999999 -4 0  0.75 -4 0  -0.75 -3.9 0  -0.65 -3.9 0  -0.55 -3.9 0  -0.45 -3.9 0  -0.35 -3.9 0  -0.25 -3.9 0  -0.15 -3.9 0  -0.05000000000000004 -3.9 0  0.05000000000000004 -3.9 0  0.15 -3.9 0  0.25 -3.9 0  0.3500000000000001 -3.9 0  0.45 -3.9 0  0.55 -3.9 0  0.6499999999999999 -3.9 0  0.75 -3.9 0  -0.75 -3.8 0  -0.65 -3.8 0  -0.55 -3.8 0  -0.45 -3.8 0  -0.35 -3.8 0  -0.25 -3.8 0  -0.15 -3.8 0  -0.05000000000000004 -3.8 0  0.05000000000000004 -3.8 0  0.15 -3.8 0  0.25 -3.8 0  0.3500000000000001 -3.8 0  0.45 -3.8 0  0.55 -3.8 0  0.6499999999999999 -3.8 0  0.75 -3.8 0  -0.75 -3.7 0  -0.65 -3.7 0  -0.55 -3.7 0  -0.45 -3.7 0  -0.35 -3.7 0  -0.25 -3.7 0  -0.15 -3.7 0  -0.05000000000000004 -3.7 0  0.05000000000000004 -3.7 0  0.15 -3.7 0  0.25 -3.7 0  0.3500000000000001 -3.7 0  0.45 -3.7 0  0.55 -3.7 0  0.6499999999999999 -3.7 0  0.75 -3.7 0  -0.75 -3.6 0  -0.65 -3.6 0  -0.55 -3.6 0  -0.45 -3.6 0  -0.35 -3.6 0  -0.25 -3.6 0  -0.15 -3.6 0  -0.05000000000000004 -3.6 0  0.05000000000000004 -3.6 0  0.15 -3.6 0  0.25 -3.6 0  0.3500000000000001 -3.6 0  0.45 -3.6 0  0.55 -3.6 0  0.6499999999999999 -3.6 0  0.75 -3.6 0  -0.75 -3.5 0  -0.65 -3.5 0  -0.55 -3.5 0  -0.45 -3.5 0  -0.35 -3.5 0  -0.25 -3.5 0  -0.15 -3.5 0  -0.05000000000000004 -3.5 0  0.05000000000000004 -3.5 0  0.15 -3.5 0  0.25 -3.5 0  0.3500000000000001 -3.5 0  0.45 -3.5 0  0.55 -3.5 0  0.6499999999999999 -3.5 0  0.75 -3.5 0  -0.75 -3.4 0  -0.65 -3.4 0  -0.55 -3.4 0  -0.45 -3.4 0  -0.35 -3.4 0  -0.25 -3.4 0  -0.15 -3.4 0  -0.05000000000000004 -3.4 0  0.05000000000000004 -3.4 0  0.15 -3.4 0  0.25 -3.4 0  0.3500000000000001 -3.4 0  0.45 -3.4 0  0.55 -3.4 0  0.6499999999999999 -3.4 0  0.75 -3.4 0  -0.75 -3.3 0  -0.65 -3.3 0  -0.55 -3.3 0  -0.45 -3.3 0  -0.35 -3.3 0  -0.25 -3.3 0  -0.15 -3.3 0  -0.05000000000000004 -3.3 0  0.05000000000000004 -3.3 0  0.15 -3.3 0  0.25 -3.3 0  0.3500000000000001 -3.3 0  0.45 -3.3 0  0.55 -3.3 0  0.6499999999999999 -3.3 0  0.75 -3.3 0  -0.75 -3.2 0  -0.65 -3.2 0  -0.55 -3.2 0  -0.45 -3.2 0  -0.35 -3.2 0  -0.25 -3.2 0  -0.15 -3.2 0  -0.05000000000000004 -3.2 0  0.05000000000000004 -3.2 0  0.15 -3.2 0  0.25 -3.2 0  0.3500000000000001 -3.2 0  0.45 -3.2 0  0.55 -3.2 0  0.6499999999999999 -3.2 0  0.75 -3.2 0  -0.75 -3.1 0  -0.65 -3.1 0  -0.55 -3.1 0  -0.45 -3.1 0  -0.35 -3.1 0  -0.25 -3.1 0  -0.15 -3.1 0  -0.05000000000000004 -3.1 0  0.05000000000000004 -3.1 0  0.15 -3.1 0  0.25 -3.1 0  0.3500000000000001 -3.1 0  0.45 -3.1 0  0.55 -3.1 0  0.6499999999999999 -3.1 0  0.75 -3.1 0  -0.75 -3 0  -0.65 -3 0  -0.55 -3 0  -0.45 -3 0  -0.35 -3 0  -0.25 -3 0  -0.15 -3 0  -0.05000000000000004 -3 0  0.05000000000000004 -3 0  0.15 -3 0  0.25 -3 0  0.3500000000000001 -3 0  0.45 -3 0  0.55 -3 0  0.6499999999999999 -3 0  0.75 -3 0  -0.75 -2.9 0  -0.65 -2.9 0  -0.55 -2.9 0  -0.45 -2.9 0  -0.35 -2.9 0  -0.25 -2.9 0  -0.15 -2.9 0  -0.05000000000000004 -2.9 0  0.05000000000000004 -2.9 0  0.15 -2.9 0  0.25 -2.9 0  0.3500000000000001 -2.9 0  0.45 -2.9 0  0.55 -2.9 0  0.6499999999999999 -2.9 0  0.75 -2.9 0  -0.75 -2.8 0  -0.65 -2.8 0  -0.55 -2.8 0  -0.45 -2.8 0  -0.35 -2.8 0  -0.25 -2.8 0  -0.15 -2.8 0  -0.05000000000000004 -2.8 0  0.05000000000000004 -2.8 0  0.15 -2.8 0  0.25 -2.8 0  0.3500000000000001 -2.8 0  0.45 -2.8 0  0.55 -2.8 0  0.6499999999999999 -2.8 0  0.75 -2.8 0  -0.75 -2.7 0  -0.65 -2.7 0  -0.55 -2.7 0  -0.45 -2.7 0  -0.35 -2.7 0  -0.25 -2.7 0  -0.15 -2.7 0  -0.05000000000000004 -2.7 0  0.05000000000000004 -2.7 0  0.15 -2.7 0  0.25 -2.7 0  0.3500000000000001 -2.7 0  0.45 -2.7 0  0.55 -2.7 0  0.6499999999999999 -2.7 0  0.75 -2.7 0  -0.75 -2.6 0  -0.65 -2.6 0  -0.55 -2.6 0  -0.45 -2.6 0  -0.35 -2.6 0  -0.25 -2.6 0  -0.15 -2.6 0  -0.05000000000000004 -2.6 0  0.05000000000000004 -2.6 0  0.15 -2.6 0  0.25 -2.6 0  0.3500000000000001 -2.6 0  0.45 -2.6 0  0.55 -2.6 0  0.6499999999999999 -2.6 0  0.75 -2.6 0  -0.75 -2.5 0  -0.65 -2.5 0  -0.55 -2.5 0  -0.45 -2.5 0  -0.35 -2.5 0  -0.25 -2.5 0  -0.15 -2.5 0  -0.05000000000000004 -2.5 0  0.05000000000000004 -2.5 0  0.15 -2.5 0  0.25 -2.5 0  0.3500000000000001 -2.5 0  0.45 -2.5 0  0.55 -2.5 0  0.6499999999999999 -2.5 0  0.75 -2.5 0  -0.75 -2.4 0  -0.65 -2.4 0  -0.55 -2.4 0  -0.45 -2.4 0  -0.35 -2.4 0  -0.25 -2.4 0  -0.15 -2.4 0  -0.05000000000000004 -2.4 0  0.05000000000000004 -2.4 0  0.15 -2.4 0  0.25 -2.4 0  0.3500000000000001 -2.4 0  0.45 -2.4 0  0.55 -2.4 0  0.6499999999999999 -2.4 0  0.75 -2.4 0  -0.75 -2.3 0  -0.65 -2.3 0  -0.55 -2.3 0  -0.45 -2.3 0  -0.35 -2.3 0  -0.25 -2.3 0  -0.15 -2.3 0  -0.05000000000000004 -2.3 0  0.05000000000000004 -2.3 0  0.15 -2.3 0  0.25 -2.3 0  0.3500000000000001 -2.3 0  0.45 -2.3 0  0.55 -2.3 0  0.6499999999999999 -2.3 0  0.75 -2.3 0  -0.75 -2.2 0  -0.65 -2.2 0  -0.55 -2.2 0  -0.45 -2.2 0  -0.35 -2.2 0  -0.25 -2.2 0  -0.15 -2.2 0  -0.05000000000000004 -2.2 0  0.05000000000000004 -2.2 0  0.15 -2.2 0  0.25 -2.2 0  0.3500000000000001 -2.2 0  0.45 -2.2 0  0.55 -2.2 0  0.6499999999999999 -2.2 0  0.75 -2.2 0  -0.75 -2.1 0  -0.65 -2.1 0  -0.55 -2.1 0  -0.45 -2.1 0  -0.35 -2.1 0  -0.25 -2.1 0  -0.15 -2.1 0  -0.05000000000000004 -2.1 0  0.05000000000000004 -2.1 0  0.15 -2.1 0  0.25 -2.1 0  0.3500000000000001 -2.1 0  0.45 -2.1 0  0.55 -2.1 0  0.6499999999999999 -2.1 0  0.75 -2.1 0  -0.75 -2 0  -0.65 -2 0  -0.55 -2 0  -0.45 -2 0  -0.35 -2 0  -0.25 -2 0  -0.15 -2 0  -0.05000000000000004 -2 0  0.05000000000000004 -2 0  0.15 -2 0  0.25 -2 0  0.3500000000000001 -2 0  0.45 -2 0  0.55 -2 0  0.6499999999999999 -2 0  0.75 -2 0  -0.75 -1.9 0  -0.65 -1.9 0  -0.55 -1.9 0  -0.45 -1.9 0  -0.35 -1.9 0  -0.25 -1.9 0  -0.15 -1.9 0  -0.05000000000000004 -1.9 0  0.05000000000000004 -1.9 0  0.15 -1.9 0  0.25 -1.9 0  0.3500000000000001 -1.9 0  0.45 -1.9 0  0.55 -1.9 0  0.6499999999999999 -1.9 0  0.75 -1.9 0  -0.75 -1.8 0  -0.65 -1.8 0  -0.55 -1.8 0  -0.45 -1.8 0  -0.35 -1.8 0  -0.25 -1.8 0  -0.15 -1.8 0  -0.05000000000000004 -1.8 0  0.05000000000000004 -1.8 0  0.15 -1.8 0  0.25 -1.8 0  0.3500000000000001 -1.8 0  0.45 -1.8 0  0.55 -1.8 0  0.6499999999999999 -1.8 0  0.75 -1.8 0  -0.75 -1.7 0  -0.65 -1.7 0  -0.55 -1.7 0  -0.45 -1.7 0  -0.35 -1.7 0  -0.25 -1.7 0  -0.15 -1.7 0  -0.05000000000000004 -1.7 0  0.05000000000000004 -1.7 0  0.15 -1.7 0  0.25 -1.7 0  0.3500000000000001 -1.7 0  0.45 -1.7 0  0.55 -1.7 0  0.6499999999999999 -1.7 0  0.75 -1.7 0  -0.75 -1.6 0  -0.65 -1.6 0  -0.55 -1.6 0  -0.45 -1.6 0  -0.35 -1.6 0  -0.25 -1.6 0  -0.15 -1.6 0  -0.05000000000000004 -1.6 0  0.05000000000000004 -1.6 0  0.15 -1.6 0  0.25 -1.6 0  0.3500000000000001 -1.6 0  0.45 -1.6 0  0.55 -1.6 0  0.6499999999999999 -1.6 0  0.75 -1.6 0  -0.75 -1.5 0  -0.65 -1.5 0  -0.55 -1.5 0  -0.45 -1.5 0  -0.35 -1.5 0  -0.25 -1.5 0  -0.15 -1.5 0  -0.05000000000000004 -1.5 0  0.05000000000000004 -1.5 0  0.15 -1.5 0  0.25 -1.5 0  0.3500000000000001 -1.5 0  0.45 -1.5 0  0.55 -1.5 0  0.6499999999999999 -1.5 0  0.75 -1.5 0  -0.75 -1.4 0  -0.65 -1.4 0  -0.55 -1.4 0  -0.45 -1.4 0  -0.35 -1.4 0  -0.25 -1.4 0  -0.15 -1.4 0  -0.05000000000000004 -1.4 0  0.05000000000000004 -1.4 0  0.15 -1.4 0  0.25 -1.4 0  0.3500000000000001 -1.4 0  0.45 -1.4 0  0.55 -1.4 0  0.6499999999999999 -1.4 0  0.75 -1.4 0  -0.75 -1.3 0  -0.65 -1.3 0  -0.55 -1.3 0  -0.45 -1.3 0  -0.35 -1.3 0  -0.25 -1.3 0  -0.15 -1.3 0  -0.05000000000000004 -1.3 0  0.05000000000000004 -1.3 0  0.15 -1.3 0  0.25 -1.3 0  0.3500000000000001 -1.3 0  0.45 -1.3 0  0.55 -1.3 0  0.6499999999999999 -1.3 0  0.75 -1.3 0  -0.75 -1.2 0  -0.65 -1.2 0  -0.55 -1.2 0  -0.45 -1.2 0  -0.35 -1.2 0  -0.25 -1.2 0  -0.15 -1.2 0  -0.05000000000000004 -1.2 0  0.05000000000000004 -1.2 0  0.15 -1.2 0  0.25 -1.2 0  0.3500000000000001 -1.2 0  0.45 -1.2 0  0.55 -1.2 0  0.6499999999999999 -1.2 0  0.75 -1.2 0  -0.75 -1.1 0  -0.65 -1.1 0  -0.55 -1.1 0  -0.45 -1.1 0  -0.35 -1.1 0  -0.25 -1.1 0  -0.15 -1.1 0  -0.05000000000000004 -1.1 0  0.05000000000000004 -1.1 0  0.15 -1.1 0  0.25 -1.1 0  0.3500000000000001 -1.1 0  0.45 -1.1 0  0.55 -1.1 0  0.6499999999999999 -1.1 0  0.75 -1.1 0  -0.75 -1 0  -0.65 -1 0  -0.55 -1 0  -0.45 -1 0  -0.35 -1 0  -0.25 -1 0  -0.15 -1 0  -0.05000000000000004 -1 0  0.05000000000000004 -1 0  0.15 -1 0  0.25 -1 0  0.3500000000000001 -1 0  0.45 -1 0  0.55 -1 0  0.6499999999999999 -1 0  0.75 -1 0  -0.75 -0.8999999999999999 0  -0.65 -0.899999
[...]
<PointData  Scalars="mean stress"> 
<DataArray  type="Float64"  Name="mean stress"  format="ascii">1.3814107229749568e+04  1.3814106768425767e+04  1.3814106715082507e+04  1.3814106709754211e+04  1.3814106710505032e+04  1.3814106710393979e+04  1.3814106710411002e+04  1.3814106710408390e+04  1.3814106710408410e+04  1.3814106710411010e+04  1.3814106710394020e+04  1.3814106710505101e+04  1.3814106709754351e+04  1.3814106715082655e+04  1.3814106768425925e+04  1.3814107229749759e+04  1.3855014627843420e+04  1.3855012200493087e+04  1.3855012083093856e+04  1.3855012086902889e+04  1.3855012086315748e+04  1.3855012086408344e+04  1.3855012086393626e+04  1.3855012086395940e+04  1.3855012086395955e+04  1.3855012086393681e+04  1.3855012086408400e+04  1.3855012086315835e+04  1.3855012086903038e+04  1.3855012083094025e+04  1.3855012200493307e+04  1.3855014627843660e+04  1.3977725064256734e+04  1.3977714245034351e+04  1.3977714154211782e+04  1.3977714153129424e+04  1.3977714153411118e+04  1.3977714153357321e+04  1.3977714153366856e+04  1.3977714153365303e+04  1.3977714153365272e+04  1.3977714153366918e+04  1.3977714153357381e+04  1.3977714153411272e+04  1.3977714153129540e+04  1.3977714154212023e+04  1.3977714245034587e+04  1.3977725064257054e+04  1.4182193179163120e+04  1.4182168953079863e+04  1.4182168867836919e+04  1.4182168868180011e+04  1.4182168868091765e+04  1.4182168868113982e+04  1.4182168868109291e+04  1.4182168868110171e+04  1.4182168868110222e+04  1.4182168868109295e+04  1.4182168868114066e+04  1.4182168868091843e+04  1.4182168868180233e+04  1.4182168867837130e+04  1.4182168953080096e+04  1.4182193179163380e+04  1.4468339108776207e+04  1.4468296741905884e+04  1.4468296669214558e+04  1.4468296669221278e+04  1.4468296669242391e+04  1.4468296669235582e+04  1.4468296669237368e+04  1.4468296669236999e+04  1.4468296669236952e+04  1.4468296669237372e+04  1.4468296669235591e+04  1.4468296669242549e+04  1.4468296669221476e+04  1.4468296669214798e+04  1.4468296741906201e+04  1.4468339108776416e+04  1.4836038057054338e+04  1.4835973457801239e+04  1.4835973398746670e+04  1.4835973398784374e+04  1.4835973398780052e+04  1.4835973398781842e+04  1.4835973398781243e+04  1.4835973398781376e+04  1.4835973398781314e+04  1.4835973398781251e+04  1.4835973398781758e+04  1.4835973398780188e+04  1.4835973398784516e+04  1.4835973398746899e+04  1.4835973457801416e+04  1.4836038057054551e+04  1.5285108171574415e+04  1.5285017944950461e+04  1.5285017900572577e+04  1.5285017900574052e+04  1.5285017900575131e+04  1.5285017900574634e+04  1.5285017900574885e+04  1.5285017900574750e+04  1.5285017900574827e+04  1.5285017900574874e+04  1.5285017900574767e+04  1.5285017900575082e+04  1.5285017900574172e+04  1.5285017900572790e+04  1.5285017944950689e+04  1.5285108171574642e+04  1.5815295117839254e+04  1.5815176625602839e+04  1.5815176595988629e+04  1.5815176595970372e+04  1.5815176595970581e+04  1.5815176595970635e+04  1.5815176595970626e+04  1.5815176595970626e+04  1.5815176595970650e+04  1.5815176595970659e+04  1.5815176595970663e+04  1.5815176595970557e+04  1.5815176595970668e+04  1.5815176595988762e+04  1.5815176625603041e+04  1.5815295117839456e+04  1.6426254056343339e+04  1.6426105428261828e+04  1.6426105412836987e+04  1.6426105412802681e+04  1.6426105412802845e+04  1.6426105412802812e+04  1.6426105412802852e+04  1.6426105412802804e+04  1.6426105412802986e+04  1.6426105412802703e+04  1.6426105412802852e+04  1.6426105412802874e+04  1.6426105412802703e+04  1.6426105412837223e+04  1.6426105428261984e+04  1.6426254056343503e+04  1.7117529400479063e+04  1.7117349513406640e+04  1.7117349511080785e+04  1.7117349511035914e+04  1.7117349511036053e+04  1.7117349511036064e+04  1.7117349511036005e+04  1.7117349511036060e+04  1.7117349511035933e+04  1.7117349511035940e+04  1.7117349511036206e+04  1.7117349511036198e+04  1.7117349511036056e+04  1.7117349511080836e+04  1.7117349513406843e+04  1.7117529400479252e+04  1.7888532866718539e+04  1.7888321297686365e+04  1.7888321307031019e+04  1.7888321306980491e+04  1.7888321306980713e+04  1.7888321306980724e+04  1.7888321306980699e+04  1.7888321306980630e+04  1.7888321306980637e+04  1.7888321306980772e+04  1.7888321306980662e+04  1.7888321306980750e+04  1.7888321306980462e+04  1.7888321307031263e+04  1.7888321297686631e+04  1.7888532866718990e+04  1.8738520364604621e+04  1.8738277326574829e+04  1.8738277345981249e+04  1.8738277345929138e+04  1.8738277345929266e+04  1.8738277345929411e+04  1.8738277345929237e+04  1.8738277345929240e+04  1.8738277345929200e+04  1.8738277345929371e+04  1.8738277345929237e+04  1.8738277345929291e+04  1.8738277345929262e+04  1.8738277345981365e+04  1.8738277326574869e+04  1.8738520364604668e+04  1.9666568313934153e+04  1.9666294581750226e+04  1.9666294609559103e+04  1.9666294609508634e+04  1.9666294609508524e+04  1.9666294609508484e+04  1.9666294609508612e+04  1.9666294609508583e+04  1.9666294609508674e+04  1.9666294609508644e+04  1.9666294609508441e+04  1.9666294609508463e+04  1.9666294609508564e+04  1.9666294609558947e+04  1.9666294581750375e+04  1.9666568313934029e+04  2.0671550000755084e+04  2.0671246833500816e+04  2.0671246868097194e+04  2.0671246868050173e+04  2.0671246868050239e+04  2.0671246868050279e+04  2.0671246868050141e+04  2.0671246868050133e+04  2.0671246868050261e+04  2.0671246868050035e+04  2.0671246868050246e+04  2.0671246868050028e+04  2.0671246868050272e+04  2.0671246868097329e+04  2.0671246833500812e+04  2.0671550000755044e+04  2.1752112595011560e+04  2.1751781659378274e+04  2.1751781699255003e+04  2.1751781699212392e+04  2.1751781699212348e+04  2.1751781699212268e+04  2.1751781699212286e+04  2.1751781699212486e+04  2.1751781699212166e+04  2.1751781699212290e+04  2.1751781699212323e+04  2.1751781699212435e+04  2.1751781699212461e+04  2.1751781699255203e+04  2.1751781659378052e+04  2.1752112595011866e+04  2.2906655450064951e+04  2.2906298747768222e+04  2.2906298791561319e+04  2.2906298791523655e+04  2.2906298791523597e+04  2.2906298791523524e+04  2.2906298791523735e+04  2.2906298791523517e+04  2.2906298791523648e+04  2.2906298791523492e+04  2.2906298791523703e+04  2.2906298791523936e+04  2.2906298791523626e+04  2.2906298791561308e+04  2.2906298747768240e+04  2.2906655450065085e+04  2.4133310287910215e+04  2.4132930088890243e+04  2.4132930135392475e+04  2.4132930135359424e+04  2.4132930135359562e+04  2.4132930135359700e+04  2.4132930135359482e+04  2.4132930135359435e+04  2.4132930135359606e+04  2.4132930135359664e+04  2.4132930135359569e+04  2.4132930135359471e+04  2.4132930135359580e+04  2.4132930135392544e+04  2.4132930088890844e+04  2.4133310287910317e+04  2.5429923844005018e+04  2.5429522626109927e+04  2.5429522674268352e+04  2.5429522674240219e+04  2.5429522674240081e+04  2.5429522674240150e+04  2.5429522674239990e+04  2.5429522674240143e+04  2.5429522674239823e+04  2.5429522674240005e+04  2.5429522674239939e+04  2.5429522674240099e+04  2.5429522674239910e+04  2.5429522674268130e+04  2.5429522626109745e+04  2.5429923844004916e+04  2.6794043502668137e+04  2.6793623897827863e+04  2.6793623946737243e+04  2.6793623946712971e+04  2.6793623946713193e+04  2.6793623946713044e+04  2.6793623946713255e+04  2.6793623946713262e+04  2.6793623946713120e+04  2.6793623946713080e+04  2.6793623946713211e+04  2.6793623946713135e+04  2.6793623946713516e+04  2.6793623946737200e+04  2.6793623897827794e+04  2.6794043502668035e+04  2.8222906398867122e+04  2.8222471145333173e+04  2.8222471194219197e+04  2.8222471194198341e+04  2.8222471194198948e+04  2.8222471194198370e+04  2.8222471194198719e+04  2.8222471194198366e+04  2.8222471194198799e+04  2.8222471194198712e+04  2.8222471194198632e+04  2.8222471194198813e+04  2.8222471194198435e+04  2.8222471194219423e+04  2.8222471145333337e+04  2.8222906398867224e+04  2.9713432395852597e+04  2.9712984295843031e+04  2.9712984344044140e+04  2.9712984344027369e+04  2.9712984344026481e+04  2.9712984344027369e+04  2.9712984344026740e+04  2.9712984344026983e+04  2.9712984344027140e+04  2.9712984344026936e+04  2.9712984344027300e+04  2.9712984344026805e+04  2.9712984344027311e+04  2.9712984344044609e+04  2.9712984295842871e+04  2.9713432395853088e+04  3.1262221271868417e+04  3.1261763153884302e+04  3.1261763200844794e+04  3.1261763200826688e+04  3.1261763200828373e+04  3.1261763200827467e+04  3.1261763200827871e+04  3.1261763200827696e+04  3.1261763200827667e+04  3.1261763200828351e+04  3.1261763200827336e+04  3.1261763200828653e+04  3.1261763200826666e+04  3.1261763200845358e+04  3.1261763153884971e+04  3.1262221271869250e+04  3.2865554364480391e+04  3.2865089049732022e+04  3.2865089094940398e+04  3.2865089094945826e+04  3.2865089094934694e+04  3.2865089094940129e+04  3.2865089094937866e+04  3.2865089094938732e+04  3.2865089094938725e+04  3.2865089094937466e+04  3.2865089094940566e+04  3.2865089094934221e+04  3.2865089094946285e+04  3.2865089094940471e+04  3.2865089049732596e+04  3.2865554364480457e+04  3.4519400830594743e+04  3.4518931102217270e+04  3.4518931145467774e+04  3.4518931145349343e+04  3.4518931145413073e+04  3.4518931145382048e+04  3.4518931145394388e+04  3.4518931145390554e+04  3.4518931145390787e+04  3.4518931145394155e+04  3.4518931145382332e+04  3.4518931145413379e+04  3.4518931145349517e+04  3.4518931145468050e+04  3.4518931102217255e+04  3.4519400830594932e+04  3.6219428580036743e+04  3.6218957159168182e+04  3.6218957198874683e+04  3.6218957199498349e+04  3.6218957199155193e+04  3.6218957199303404e+04  3.6218957199251825e+04  3.6218957199265315e+04  3.6218957199265416e+04  3.6218957199251279e+04  3.6218957199302800e+04  3.6218957199155375e+04  3.6218957199498152e+04  3.6218957198874799e+04  3.6218957159167963e+04  3.6219428580037289e+04  3.7961019869818469e+04  3.7960549369642700e+04  3.7960549413232147e+04  3.7960549409582294e+04  3.7960549411331762e+04  3.7960549410689215e+04  3.7960549410875479e+04  3.7960549410831736e+04  3.7960549410831954e+04  3.7960549410875217e+04  3.7960549410688611e+04  3.7960549411331442e+04  3.7960549409583196e+04  3.7960549413232329e+04  3.7960549369643486e+04  3.7961019869817959e+04  3.9739291271752059e+04  3.9738824312224417e+04  3.9738824311287273e+04  3.9738824331559794e+04  3.9738824323421490e+04  3.9738824325802903e+04  3.9738824325253081e+04  3.9738824325361755e+04  3.9738824325361420e+04  3.9738824325253030e+04  3.9738824325802016e+04  3.9738824323421737e+04  3.9738824331559590e+04  3.9738824311286895e+04  3.9738824312224344e+04  3.9739291271751848e+04  4.1549118777645868e+04  4.1548657059219477e+04  4.1548657314399083e+04  4.1548657209344645e+04  4.1548657240874025e+04  4.1548657234221813e+04  4.1548657235462437e+04  4.1548657235249062e+04  4.1548657235248589e+04  4.1548657235462837e+04  4.1548657234222832e+04  4.1548657240873843e+04  4.1548657209344405e+04  4.1548657314400152e+04  4.1548657059220284e+04  4.1549118777647484e+04  4.3385160877527531e+04  4.3384711446319503e+04  4.3384710104070298e+04  4.3384710552817312e+04  4.3384710473490995e+04  4.3384710486412849e+04  4.3384710484339019e+04  4.3384710484663687e+04  4.3384710484664087e+04  4.3384710484338946e+04  4.3384710486412747e+04  4.3384710473490850e+04  4.3384710552818236e+04  4.3384710104070902e+04  4.3384711446320012e+04  4.3385160877528055e+04  4.5241931686968135e+04  4.5241458774894905e+04  4.5241466080409191e+04  4.5241465208038659e+04  4.5241465324837533e+04  4.5241465308027437e+04  4.5241465310546329e+04  4.5241465310168460e+04  4.5241465310167980e+04  4.5241465310546373e+04  4.5241465308027451e+04  4.5241465324838377e+04  4.5241465208038862e+04  4.5241466080409511e+04  4.5241458774894760e+04  4.5241931686967662e+04  4.6909629818243513e+04  4.6909510858167756e+04  4.6909505216700039e+04  4.6909505886537343e+04  4.6909505792098498e+04  4.6909505806192530e+04  4.6909505804025051e+04  4.6909505804356289e+04  4.6909505804356551e+04  4.6909505804024644e+04  4.6909505806193367e+04  4.6909505792099008e+04  4.6909505886538172e+04  4.6909505216701051e+04  4.6909510858167276e+04  4.6909629818244466e+04  4.7300744501859204e+04  4.7300747141276894e+04  4.7300744936530267e+04  4.7300744855744488e+04  4.7300744889147703e+04  4.7300744882237850e+04  4.7300744883493637e+04  4.7300744883281717e+04  4.7300744883281215e+04  4.7300744883494313e+04  4.7300744882237021e+04  4.7300744889148118e+04  4.7300744855744488e+04  4.7300744936529438e+04  4.7300747141277025e+04  4.7300744501858477e+04  4.7489879775562928e+04  4.7489874478344813e+04  4.7489874910046994e+04  4.7489874804056657e+04  4.7489874807572225e+04  4.7489874808805391e+04  4.7489874808386310e+04  4.7489874808477951e+04  4.7489874808478111e+04  4.7489874808385772e+04  4.7489874808805289e+04  4.7489874807572058e+04  4.7489874804055762e+04  4.7489874910046819e+04  4.7489874478345962e+04  4.7489879775563866e+04  4.7679819112436933e+04  4.7679814869050308e+04  4.7679814794043326e+04  4.7679814823977955e+04  4.7679814817417078e+04  4.7679814818018007e+04  4.7679814818032828e+04  4.7679814818012092e+04  4.7679814818012594e+04  4.7679814818031955e+04  4.7679814818018800e+04  4.7679814817415594e+04  4.7679814823978129e+04  4.7679814794042446e+04  4.7679814869049849e+04  4.7679819112436802e+04  4.7870509433608800e+04  4.7870505021002442e+04  4.7870505033491863e+04  4.7870505027223247e+04  4.7870505029347412e+04  4.7870505028884589e+04  4.7870505028944237e+04  4.7870505028941807e+04  4.7870505028940614e+04  4.7870505028944965e+04  4.7870505028882777e+04  4.7870505029347078e+04  4.7870505027223102e+04  4.7870505033492263e+04  4.7870505021002085e+04  4.7870509433608349e+04  4.8061889387178468e+04  4.8061884984864868e+04  4.8061884982866788e+04  4.8061884984047960e+04  4.8061884983544245e+04  4.8061884983700817e+04  4.8061884983666336e+04  4.8061884983670650e+04  4.8061884983671021e+04  4.8061884983665339e+04  4.8061884983700264e+04  4.8061884983544063e+04  4.8061884984046643e+04  4.8061884982867719e+04  4.8061884984864526e+04  4.8061889387179770e+04  4.8253898109793146e+04  4.8253893694033264e+04  4.8253893694414277e+04  4.8253893694201608e+04  4.8253893694306898e+04  4.8253893694266349e+04  4.8253893694278115e+04  4.8253893694275932e+04  4.8253893694276230e+04  4.8253893694278508e+04  4.8253893694266459e+04  4.8253893694305742e+04  4.8253893694202423e+04  4.8253893694413855e+04  4.8253893694034537e+04  4.8253898109793183e+04  4.8446474109799157e+04  4.8446469687581528e+04  4.8446469687572673e+04  4.8446469687609424e+04  4.8446469687589502e+04  4.8446469687597652e+04  4.8446469687595192e+04  4.8446469687596284e+04  4.8446469687596160e+04  4.8446469687595090e+04  4.8446469687598117e+04  4.8446469687589801e+04  4.8446469687609620e+04  4.8446469687572280e+04  4.8446469687581870e+04  4.8446474109798779e+04  4.8639555477628615e+04  4.8639551051184193e+04  4.8639551051237948e+04  4.8639551051231465e+04  4.8639551051235394e+04  4.8639551051233822e+04  4.8639551051234550e+04  4.8639551051234230e+04  4.8639551051233211e+04  4.8639551051233808e+04  4.8639551051232702e+04  4.8639551051235896e+04  4.8639551051231312e+04  4.8639551051238224e+04  4.8639551051183735e+04  4.8639555477628157e+04  4.8833079908002401e+04  4.8833075480311782e+04  4.8833075480354688e+04  4.8833075480356390e+04  4.8833075480353924e+04  4.8833075480354870e+04  4.8833075480355095e+04  4.8833075480355692e+04  4.8833075480355474e+04  4.8833075480355124e+04  4.8833075480355859e+04  4.8833075480354739e+04  4.8833075480354782e+04  4.8833075480353953e+04  4.8833075480310836e+04  4.8833079908002801e+04  4.9026984751213291e+04  4.9026980325129072e+04  4.9026980325173441e+04  4.9026980325173914e+04  4.9026980325174874e+04  4.9026980325174045e+04  4.9026980325173747e+04  4.9026980325172386e+04  4.9026980325174110e+04  4.9026980325173565e+04  4.9026980325173296e+04  4.9026980325172932e+04  4.9026980325173390e+04  4.9026980325173150e+04  4.9026980325128890e+04  4.9026984751212338e+04  4.9221207060641937e+04  4.9221202639022973e+04  4.9221202639067727e+04  4.9221202639068040e+04  4.9221202639067451e+04  4.9221202639067800e+04  4.9221202639067596e+04  4.9221202639067546e+04  4.9221202639066840e+04  4.9221202639066592e+04  4.9221202639067102e+04  4.9221202639067604e+04  4.9221202639067313e+04  4.9221202639067043e+04  4.9221202639022864e+04  4.9221207060642992e+04  4.9415683641497126e+04  4.9415679227190856e+04  4.9415679227231623e+04  4.9415679227232096e+04  4.9415679227232868e+04  4.9415679227233166e+04  4.9415679227232737e+04  4.9415679227233006e+04  4.9415679227231623e+04  4.9415679227232984e+04  4.9415679227231281e+04  4.9415679227231623e+04  4.9415679227232125e+04  4.9415679227231092e+04  4.9415679227189852e+04  4.9415683641496551e+04  4.9610351099926127e+04  4.9610346695721906e+04  4.9610346695782559e+04  4.9610346695777385e+04  4.9610346695777378e+04  4.9610346695775654e+04  4.9610346695775879e+04  4.9610346695775130e+04  4.9610346695776847e+04  4.9610346695775705e+04  4.9610346695776389e+04  4.9610346695775530e+04  4.9610346695777116e+04  4.9610346695779983e+04  4.9610346695723238e+04  4.9610351099928310e+04  4.9805145892374385e+04  4.9805141501248872e+04  4.9805141501186779e+04  4.9805141501174527e+04  4.9805141501176120e+04  4.9805141501177415e+04  4.9805141501176469e+04  4.9805141501176287e+04  4.9805141501175494e+04  4.9805141501174643e+04  4.9805141501175633e+04  4.9805141501174585e+04  4.9805141501172577e+04  4.9805141501187245e+04  4.9805141501248821e+04  4.9805145892373599e+04  4.9953091696561351e+04  4.9953087316369834e+04  4.9953087315888115e+04  4.9953087315923091e+04  4.9953087315915283e+04  4.9953087315919962e+04  4.9953087315917750e+04  4.9953087315918317e+04  4.9953087315916389e+04  4.9953087315920689e+04  4.9953087315919300e+04  4.9953087315922457e+04  4.9953087315921461e+04  4.9953087315886936e+04  4.9953087316369107e+04  4.9953091696561998e+04  1.3814864579571482e+04  1.3814864840240287e+04  1.3814864882610185e+04  1.3814864882948159e+04  1.3814864882911872e+04  1.3814864882915925e+04  1.3814864882915435e+04  1.3814864882915499e+04  1.3814864882915444e+04  1.3814864882915945e+04  1.3814864882911917e+04  1.3814864882948268e+04  1.3814864882610331e+04  1.3814864840240454e+04  1.3814864579571640e+04  1.3896674272163200e+04  1.3896675413304733e+04  1.3896675464587910e+04  1.3896675463982339e+04  1.3896675464049013e+04  1.3896675464040629e+04  1.3896675464041789e+04  1.3896675464041604e+04  1.3896675464041764e+04  1.3896675464040651e+04  1.3896675464049118e+04  1.3896675463982549e+04  1.3896675464588101e+04  1.3896675413304960e+04  1.3896674272163411e+04  1.4060265494163321e+04  1.4060268423409947e+04  1.4060268467608834e+04  1.4060268467745160e+04  1.4060268467704700e+04  1.4060268467711381e+04  1.4060268467710357e+04  1.4060268467710590e+04  1.4060268467710439e+04  1.4060268467711467e+04  1.4060268467704787e+04  1.4060268467745263e+04  1.4060268467609099e+04  1.4060268423410276e+04  1.4060265494163626e+04  1.4305578266957460e+04  1.4305583817821342e+04  1.4305583857217420e+04  1.4305583857146712e+04  1.4305583857159756e+04  1.4305583857156744e+04  1.4305583857157297e+04  1.4305583857157077e+04  1.4305583857157126e+04  1.4305583857156576e+04  1.4305583857159811e+04  1.4305583857146878e+04  1.4305583857217547e+04  1.4305583817821547e+04  1.4305578266957769e+04  1.4632513434884442e+04  1.4632522334789726e+04  1.4632522367715223e+04  1.4632522367699945e+04  1.4632522367696965e+04  1.4632522367697877e+04  1.4632522367697708e+04  1.4632522367697873e+04  1.4632522367697911e+04  1.4632522367698140e+04  1.4632522367697062e+04  1.4632522367700043e+04  1.4632522367715379e+04  1.4632522334789997e+04  1.4632513434884657e+04  1.5040921805247692e+04  1.5040934678123076e+04  1.5040934703971259e+04  1.5040934703962341e+04  1.5040934703962974e+04  1.5040934703962808e+04  1.5040934703962665e+04  1.5040934703962645e+04  1.5040934703962759e+04  1.5040934703962635e+04  1.5040934703962970e+04  1.5040934703962601e+04  1.5040934703971627e+04  1.5040934678123373e+04  1.5040921805247928e+04  1.5530590178340726e+04  1.5530607526758631e+04  1.5530607545260975e+04  1.553