<?xml version="1.0"?>
<VTKFile type="UnstructuredGrid"  version="0.1"  >
<UnstructuredGrid>
<Piece  NumberOfPoints="431" NumberOfCells="800">
<Points>
<DataArray  type="Float64"  NumberOfComponents="3"  format="ascii">-0.75 -3 0  -0.6 -3 0  -0.45 -3 0  -0.3 -3 0  -0.15 -3 0  0 -3 0  0.15 -3 0  0.3 -3 0  0.45 -3 0  0.6000000000000001 -3 0  0.75 -3 0  -0.75 -2.85 0  -0.6 -2.85 0  -0.45 -2.85 0  -0.3 -2.85 0  -0.15 -2.85 0  0 -2.85 0  0.15 -2.85 0  0.3 -2.85 0  0.45 -2.85 0  0.6000000000000001 -2.85 0  0.75 -2.85 0  -0.75 -2.7 0  -0.6 -2.7 0  -0.45 -2.7 0  -0.3 -2.7 0  -0.15 -2.7 0  0 -2.7 0  0.15 -2.7 0  0.3 -2.7 0  0.45 -2.7 0  0.6000000000000001 -2.7 0  0.75 -2.7 0  -0.75 -2.55 0  -0.6 -2.55 0  -0.45 -2.55 0  -0.3 -2.55 0  -0.15 -2.55 0  0 -2.55 0  0.15 -2.55 0  0.3 -2.55 0  0.45 -2.55 0  0.6000000000000001 -2.55 0  0.75 -2.55 0  -0.75 -2.4 0  -0.6 -2.4 0  -0.45 -2.4 0  -0.3 -2.4 0  -0.15 -2.4 0  0 -2.4 0  0.15 -2.4 0  0.3 -2.4 0  0.45 -2.4 0  0.6000000000000001 -2.4 0  0.75 -2.4 0  -0.75 -2.25 0  -0.6 -2.25 0  -0.45 -2.25 0  -0.3 -2.25 0  -0.15 -2.25 0  0 -2.25 0  0.15 -2.25 0  0.3 -2.25 0  0.45 -2.25 0  0.6000000000000001 -2.25 0  0.75 -2.25 0  -0.75 -2.1 0  -0.6 -2.1 0  -0.45 -2.1 0  -0.3 -2.1 0  -0.15 -2.1 0  0 -2.1 0  0.15 -2.1 0  0.3 -2.1 0  0.45 -2.1 0  0.6000000000000001 -2.1 0  0.75 -2.1 0  -0.75 -1.95 0  -0.6 -1.95 0  -0.45 -1.95 0  -0.3 -1.95 0  -0.15 -1.95 0  0 -1.95 0  0.15 -1.95 0  0.3 -1.95 0  0.45 -1.95 0  0.6000000000000001 -1.95 0  0.75 -1.95 0  -0.75 -1.8 0  -0.6 -1.8 0  -0.45 -1.8 0  -0.3 -1.8 0  -0.15 -1.8 0  0 -1.8 0  0.15 -1.8 0  0.3 -1.8 0  0.45 -1.8 0  0.6000000000000001 -1.8 0  0.75 -1.8 0  -0.75 -1.65 0  -0.6 -1.65 0  -0.45 -1.65 0  -0.3 -1.65 0  -0.15 -1.65 0  0 -1.65 0  0.15 -1.65 0  0.3 -1.65 0  0.45 -1.65 0  0.6000000000000001 -1.65 0  0.75 -1.65 0  -0.75 -1.5 0  -0.6 -1.5 0  -0.45 -1.5 0  -0.3 -1.5 0  -0.15 -1.5 0  0 -1.5 0  0.15 -1.5 0  0.3 -1.5 0  0.45 -1.5 0  0.6000000000000001 -1.5 0  0.75 -1.5 0  -0.75 -1.35 0  -0.6 -1.35 0  -0.45 -1.35 0  -0.3 -1.35 0  -0.15 -1.35 0  0 -1.35 0  0.15 -1.35 0  0.3 -1.35 0  0.45 -1.35 0  0.6000000000000001 -1.35 0  0.75 -1.35 0  -0.75 -1.2 0  -0.6 -1.2 0  -0.45 -1.2 0  -0.3 -1.2 0  -0.15 -1.2 0  0 -1.2 0  0.15 -1.2 0  0.3 -1.2 0  0.45 -1.2 0  0.6000000000000001 -1.2 0  0.75 -1.2 0  -0.75 -1.05 0  -0.6 -1.05 0  -0.45 -1.05 0  -0.3 -1.05 0  -0.15 -1.05 0  0 -1.05 0  0.15 -1.05 0  0.3 -1.05 0  0.45 -1.05 0  0.6000000000000001 -1.05 0  0.75 -1.05 0  -0.75 -0.8999999999999999 0  -0.6 -0.8999999999999999 0  -0.45 -0.8999999999999999 0  -0.3 -0.8999999999999999 0  -0.15 -0.8999999999999999 0  0 -0.8999999999999999 0  0.15 -0.8999999999999999 0  0.3 -0.8999999999999999 0  0.45 -0.8999999999999999 0  0.6000000000000001 -0.8999999999999999 0  0.75 -0.8999999999999999 0  -0.75 -0.75 0  -0.6 -0.75 0  -0.45 -0.75 0  -0.3 -0.75 0  -0.15 -0.75 0  0 -0.75 0  0.15 -0.75 0  0.3 -0.75 0  0.45 -0.75 0  0.6000000000000001 -0.75 0  0.75 -0.75 0  -0.75 -0.6000000000000001 0  -0.6 -0.6000000000000001 0  -0.45 -0.6000000000000001 0  -0.3 -0.6000000000000001 0  -0.15 -0.6000000000000001 0  0 -0.6000000000000001 0  0.15 -0.6000000000000001 0  0.3 -0.6000000000000001 0  0.45 -0.6000000000000001 0  0.6000000000000001 -0.6000000000000001 0  0.75 -0.6000000000000001 0  -0.75 -0.4500000000000002 0  -0.6 -0.4500000000000002 0  -0.45 -0.4500000000000002 0  -0.3 -0.4500000000000002 0  -0.15 -0.4500000000000002 0  0 -0.4500000000000002 0  0.15 -0.4500000000000002 0  0.3 -0.4500000000000002 0  0.45 -0.4500000000000002 0  0.6000000000000001 -0.4500000000000002 0  0.75 -0.4500000000000002 0  -0.75 -0.2999999999999998 0  -0.6 -0.2999999999999998 0  -0.45 -0.2999999999999998 0  -0.3 -0.2999999999999998 0  -0.15 -0.2999999999999998 0  0 -0.2999999999999998 0  0.15 -0.2999999999999998 0  0.3 -0.2999999999999998 0  0.45 -0.2999999999999998 0  0.6000000000000001 -0.2999999999999998 0  0.75 -0.2999999999999998 0  -0.75 -0.1499999999999999 0  -0.6 -0.1499999999999999 0  -0.45 -0.1499999999999999 0  -0.3 -0.1499999999999999 0  -0.15 -0.1499999999999999 0  0 -0.1499999999999999 0  0.15 -0.1499999999999999 0  0.3 -0.1499999999999999 0  0.45 -0.1499999999999999 0  0.6000000000000001 -0.1499999999999999 0  0.75 -0.1499999999999999 0  -0.75 0 0  -0.6 0 0  -0.45 0 0  -0.3 0 0  -0.15 0 0  0 0 0  0.15 0 0  0.3 0 0  0.45 0 0  0.6000000000000001 0 0  0.75 0 0  -0.675 -2.925 0  -0.525 -2.925 0  -0.375 -2.925 0  -0.225 -2.925 0  -0.07499999999999996 -2.925 0  0.07499999999999996 -2.925 0  0.225 -2.925 0  0.375 -2.925 0  0.5249999999999999 -2.925 0  0.675 -2.925 0  -0.675 -2.775 0  -0.525 -2.775 0  -0.375 -2.775 0  -0.225 -2.775 0  -0.07499999999999996 -2.775 0  0.07499999999999996 -2.775 0  0.225 -2.775 0  0.375 -2.775 0  0.5249999999999999 -2.775 0  0.675 -2.775 0  -0.675 -2.625 0  -0.525 -2.625 0  -0.375 -2.625 0  -0.225 -2.625 0  -0.07499999999999996 -2.625 0  0.07499999999999996 -2.625 0  0.225 -2.625 0  0.375 -2.625 0  0.5249999999999999 -2.625 0  0.675 -2.625 0  -0.675 -2.475 0  -0.525 -2.475 0  -0.375 -2.475 0  -0.225 -2.475 0  -0.07499999999999996 -2.475 0  0.07499999999999996 -2.475 0  0.225 -2.475 0  0.375 -2.475 0  0.5249999999999999 -2.475 0  0.675 -2.475 0  -0.675 -2.325 0  -0.525 -2.325 0  -0.375 -2.325 0  -0.225 -2.325 0  -0.07499999999999996 -2.325 0  0.07499999999999996 -2.325 0  0.225 -2.325 0  0.375 -2.325 0  0.5249999999999999 -2.325 0  0.675 -2.325 0  -0.675 -2.175 0  -0.525 -2.175 0  -0.375 -2.175 0  -0.225 -2.175 0  -0.07499999999999996 -2.175 0  0.07499999999999996 -2.175 0  0.225 -2.175 0  0.375 -2.175 0  0.5249999999999999 -2.175 0  0.675 -2.175 0  -0.675 -2.025 0  -0.525 -2.025 0  -0.375 -2.025 0  -0.225 -2.025 0  -0.07499999999999996 -2.025 0  0.07499999999999996 -2.025 0  0.225 -2.025 0  0.375 -2.025 0  0.5249999999999999 -2.025 0  0.675 -2.025 0  -0.675 -1.875 0  -0.525 -1.875 0  -0.375 -1.875 0  -0.225 -1.875 0  -0.07499999999999996 -1.875 0  0.07499999999999996 -1.875 0  0.225 -1.875 0  0.375 -1.875 0  0.5249999999999999 -1.875 0  0.675 -1.875 0  -0.675 -1.725 0  -0.525 -1.725 0  -0.375 -1.725 0  -0.225 -1.725 0  -0.07499999999999996 -1.725 0  0.07499999999999996 -1.725 0  0.225 -1.725 0  0.375 -1.725 0  0.5249999999999999 -1.725 0  0.675 -1.725 0  -0.675 -1.575 0  -0.525 -1.575 0  -0.375 -1.575 0  -0.225 -1.575 0  -0.07499999999999996 -1.575 0  0.07499999999999996 -1.575 0  0.225 -1.575 0  0.375 -1.575 0  0.5249999999999999 -1.575 0  0.675 -1.575 0  -0.675 -1.425 0  -0.525 -1.425 0  -0.375 -1.425 0  -0.225 -1.425 0  -0.07499999999999996 -1.425 0  0.07499999999999996 -1.425 0  0.225 -1.425 0  0.375 -1.425 0  0.5249999999999999 -1.425 0  0.675 -1.425 0  -0.675 -1.275 0  -0.525 -1.275 0  -0.375 -1.275 0  -0.225 -1.275 0  -0.07499999999999996 -1.275 0  0.07499999999999996 -1.275 0  0.225 -1.275 0  0.375 -1.275 0  0.5249999999999999 -1.275 0  0.675 -1.275 0  -0.675 -1.125 0  -0.525 -1.125 0  -0.375 -1.125 0  -0.225 -1.125 0  -0.07499999999999996 -1.125 0  0.07499999999999996 -1.125 0  0.225 -1.125 0  0.375 -1.125 0  0.5249999999999999 -1.125 0  0.675 -1.125 0  -0.675 -0.9750000000000001 0  -0.525 -0.9750000000000001 0  -0.375 -0.9750000000000001 0  -0.225 -0.9750000000000001 0  -0.07499999999999996 -0.9750000000000001 0  0.07499999999999996 -0.9750000000000001 0  0.225 -0.9750000000000001 0  0.375 -0.9750000000000001 0  0.5249999999999999 -0.9750000000000001 0  0.675 -0.9750000000000001 0  -0.675 -0.8250000000000002 0  -0.525 -0.8250000000000002 0  -0.375 -0.8250000000000002 0  -0.225 -0.8250000000000002 0  -0.07499999999999996 -0.8250000000000002 0  0.07499999999999996 -0.8250000000000002 0  0.225 -0.8250000000000002 0  0.375 -0.8250000000000002 0  0.5249999999999999 -0.8250000000000002 0  0.675 -0.8250000000000002 0  -0.675 -0.6749999999999998 0  -0.525 -0.6749999999999998 0  -0.375 -0.6749999999999998 0  -0.225 -0.6749999999999998 0  -0.07499999999999996 -0.6749999999999998 0  0.07499999999999996 -0.6749999999999998 0  0.225 -0.6749999999999998 0  0.375 -0.6749999999999998 0  0.5249999999999999 -0.6749999999999998 0  0.675 -0.6749999999999998 0  -0.675 -0.5249999999999999 0  -0.525 -0.5249999999999999 0  -0.375 -0.5249999999999999 0  -0.225 -0.5249999999999999 0  -0.07499999999999996 -0.5249999999999999 0  0.07499999999999996 -0.5249999999999999 0  0.225 -0.5249999999999999 0  0.375 -0.5249999999999999 0  0.5249999999999999 -0.5249999999999999 0  0.675 -0.5249999999999999 0  -0.675 -0.375 0  -0.525 -0.375 0  -0.375 -0.375 0  -0.225 -0.375 0  -0.07499999999999996 -0.375 0  0.07499999999999996 -0.375 0  0.225 -0.375 0  0.375 -0.375 0  0.5249999999999999 -0.375 0  0.675 -0.375 0  -0.675 -0.2250000000000001 0  -0.525 -0.2250000000000001 0  -0.375 -0.2250000000000001 0  -0.225 -0.2250000000000001 0  -0.07499999999999996 -0.2250000000000001 0  0.07499999999999996 -0.2250000000000001 0  0.225 -0.2250000000000001 0  0.375 -0.2250000000000001 0  0.5249999999999999 -0.2250000000000001 0  0.675 -0.2250000000000001 0  -0.675 -0.07500000000000018 0  -0.525 -0.07500000000000018 0  -0.375 -0.07500000000000018 0  -0.225 -0.07500000000000018 0  -0.07499999999999996 -0.07500000000000018 0  0.07499999999999996 -0.07500000000000018 0  0.225 -0.07500000000000018 0  0.375 -0.07500000000000018 0  0.5249999999999999 -0.07500000000000018 0  0.675 -0.07500000000000018 0  </DataArray>
</Points>
<Cells>
[...]
<PointData  Scalars="mean stress"> 
<DataArray  type="Float64"  Name="mean stress"  format="ascii">5.3436164427715028e+06  5.3436164427709971e+06  5.3436164427723810e+06  5.3436164427731894e+06  5.3436164427700555e+06  5.3436164427734045e+06  5.3436164427734567e+06  5.3436164427702967e+06  5.3436164427714488e+06  5.3436164427720169e+06  5.3436164427716481e+06  5.3436164418666093e+06  5.3436164418660384e+06  5.3436164418663597e+06  5.3436164418657161e+06  5.3436164418670842e+06  5.3436164418660449e+06  5.3436164418645483e+06  5.3436164418671969e+06  5.3436164418657795e+06  5.3436164418662209e+06  5.3436164418669520e+06  5.3436164378250046e+06  5.3436164378266074e+06  5.3436164378251657e+06  5.3436164378256593e+06  5.3436164378265468e+06  5.3436164378251126e+06  5.3436164378250502e+06  5.3436164378260719e+06  5.3436164378250809e+06  5.3436164378251471e+06  5.3436164378247159e+06  5.3436164247653456e+06  5.3436164247649992e+06  5.3436164247626895e+06  5.3436164247623114e+06  5.3436164247631654e+06  5.3436164247635463e+06  5.3436164247623291e+06  5.3436164247640520e+06  5.3436164247655505e+06  5.3436164247627510e+06  5.3436164247650793e+06  5.3436163836481106e+06  5.3436163836482624e+06  5.3436163836520864e+06  5.3436163836551104e+06  5.3436163836547593e+06  5.3436163836528379e+06  5.3436163836532682e+06  5.3436163836516095e+06  5.3436163836505525e+06  5.3436163836530503e+06  5.3436163836508701e+06  5.3436162545909006e+06  5.3436162545915339e+06  5.3436162545938352e+06  5.3436162545915227e+06  5.3436162545870095e+06  5.3436162545912638e+06  5.3436162545923283e+06  5.3436162545915125e+06  5.3436162545914156e+06  5.3436162545904098e+06  5.3436162545876447e+06  5.3436158495529266e+06  5.3436158495541206e+06  5.3436158495577313e+06  5.3436158495536894e+06  5.3436158495555921e+06  5.3436158495563557e+06  5.3436158495525615e+06  5.3436158495544828e+06  5.3436158495505508e+06  5.3436158495559301e+06  5.3436158495479058e+06  5.3436145784232002e+06  5.3436145784083121e+06  5.3436145784236407e+06  5.3436145784079786e+06  5.3436145784190213e+06  5.3436145784078538e+06  5.3436145784193035e+06  5.3436145784081109e+06  5.3436145784174008e+06  5.3436145784050683e+06  5.3436145784258200e+06  5.3436105891706729e+06  5.3436105892521571e+06  5.3436105891645178e+06  5.3436105892496901e+06  5.3436105891879275e+06  5.3436105892381463e+06  5.3436105891811829e+06  5.3436105892404253e+06  5.3436105891746217e+06  5.3436105892592221e+06  5.3436105891633686e+06  5.3435980702649653e+06  5.3435980696373545e+06  5.3435980701584956e+06  5.3435980697323876e+06  5.3435980700516980e+06  5.3435980697934264e+06  5.3435980700557064e+06  5.3435980697437730e+06  5.3435980701635834e+06  5.3435980696389992e+06  5.3435980702682482e+06  5.3435587792341309e+06  5.3435587824854832e+06  5.3435587792902635e+06  5.3435587817400824e+06  5.3435587799667567e+06  5.3435587813283969e+06  5.3435587799668163e+06  5.3435587817449458e+06  5.3435587792838579e+06  5.3435587824854776e+06  5.3435587792388955e+06  5.3434354950471958e+06  5.3434354693572773e+06  5.3434354881202346e+06  5.3434354737627292e+06  5.3434354834935032e+06  5.3434354764812058e+06  5.3434354834909337e+06  5.3434354737543054e+06  5.3434354881176958e+06  5.3434354693578230e+06  5.3434354950416731e+06  5.3430484928425690e+06  5.3430485930046020e+06  5.3430484751503048e+06  5.3430485574709289e+06  5.3430485048268698e+06  5.3430485396253690e+06  5.3430485048373947e+06  5.3430485574785108e+06  5.3430484751473749e+06  5.3430485930067077e+06  5.3430484928384973e+06  5.3418349711956866e+06  5.3418337817439036e+06  5.3418344482712112e+06  5.3418339665041519e+06  5.3418342430635290e+06  5.3418340790853659e+06  5.3418342430588175e+06  5.3418339664972685e+06  5.3418344482785678e+06  5.3418337817461267e+06  5.3418349711896004e+06  5.3380240942047341e+06  5.3380258817968862e+06  5.3380213793598665e+06  5.3380240516864769e+06  5.3380226279194923e+06  5.3380233377568303e+06  5.3380226279150192e+06  5.3380240516919261e+06  5.3380213793550357e+06  5.3380258817843236e+06  5.3380240942126773e+06  5.3261178152951952e+06  5.3260507714627003e+06  5.3260736239975346e+06  5.3260578957221322e+06  5.3260646323005045e+06  5.3260619312045230e+06  5.3260646323098177e+06  5.3260578957108669e+06  5.3260736239926880e+06  5.3260507714618873e+06  5.3261178153139437e+06  5.2887841182291135e+06  5.2886597569917729e+06  5.2884748123566164e+06  5.2885524165791254e+06  5.2885222973239943e+06  5.2885299916779688e+06  5.2885222973169899e+06  5.2885524165763147e+06  5.2884748123537842e+06  5.2886597569850963e+06  5.2887841182120917e+06  5.1752303086070782e+06  5.1704573813288175e+06  5.1711280702904044e+06  5.1706631982793463e+06  5.1707438224594658e+06  5.1707290392748555e+06  5.1707438224581536e+06  5.1706631982849790e+06  5.1711280702791400e+06  5.1704573813576493e+06  5.1752303086089734e+06  4.8335119500873191e+06  4.8095322304817168e+06  4.8002492430574363e+06  4.8011554275427079e+06  4.8010415917194216e+06  4.8010602821891075e+06  4.8010415917149317e+06  4.8011554275591457e+06  4.8002492430621833e+06  4.8095322304639872e+06  4.8335119500831496e+06  4.0902602621335485e+06  3.6373541119162622e+06  3.6413434940262283e+06  3.6408313439076841e+06  3.6409148931631302e+06  3.6408983069311627e+06  3.6409148931627069e+06  3.6408313438978205e+06  3.6413434940247140e+06  3.6373541119219414e+06  4.0902602621487835e+06  1.5135227633217346e+07  1.4720709069609854e+07  1.4725605261364428e+07  1.4725616737418097e+07  1.4725565168567657e+07  1.4725579389686096e+07  1.4725565168564931e+07  1.4725616737418719e+07  1.4725605261348356e+07  1.4720709069594637e+07  1.5135227633180618e+07  5.3436164471544391e+06  5.3436164471542034e+06  5.3436164471536605e+06  5.3436164471541615e+06  5.3436164471539659e+06  5.3436164471537685e+06  5.3436164471537322e+06  5.3436164471542286e+06  5.3436164471540945e+06  5.3436164471535459e+06  5.3436164517240291e+06  5.3436164517248422e+06  5.3436164517244957e+06  5.3436164517248431e+06  5.3436164517251104e+06  5.3436164517256478e+06  5.3436164517259663e+06  5.3436164517243868e+06  5.3436164517248711e+06  5.3436164517250434e+06  5.3436164675254542e+06  5.3436164675260242e+06  5.3436164675256507e+06  5.3436164675269583e+06  5.3436164675260046e+06  5.3436164675254067e+06  5.3436164675246263e+06  5.3436164675258724e+06  5.3436164675256470e+06  5.3436164675249374e+06  5.3436165175779937e+06  5.3436165175775625e+06  5.3436165175774144e+06  5.3436165175767699e+06  5.3436165175773669e+06  5.3436165175784165e+06  5.3436165175784947e+06  5.3436165175759960e+06  5.3436165175749296e+06  5.3436165175757697e+06  5.3436166748007294e+06  5.3436166747983638e+06  5.3436166747992812e+06  5.3436166747980984e+06  5.3436166747952839e+06  5.3436166747959694e+06  5.3436166747970637e+06  5.3436166747994348e+06  5.3436166748002386e+06  5.3436166748020574e+06  5.3436171682617553e+06  5.3436171682638237e+06  5.3436171682617944e+06  5.3436171682645930e+06  5.3436171682657134e+06  5.3436171682643108e+06  5.3436171682624631e+06  5.3436171682600956e+06  5.3436171682605362e+06  5.3436171682591951e+06  5.3436187168974904e+06  5.3436187168963719e+06  5.3436187168988101e+06  5.3436187169010835e+06  5.3436187169007827e+06  5.3436187168998625e+06  5.3436187169018425e+06  5.3436187169011123e+06  5.3436187169027310e+06  5.3436187169010108e+06  5.3436235769904209e+06  5.3436235769911744e+06  5.3436235769944405e+06  5.3436235769890035e+06  5.3436235769904861e+06  5.3436235769926040e+06  5.3436235769902579e+06  5.3436235769929262e+06  5.3436235769904740e+06  5.3436235769910514e+06  5.3436388293757327e+06  5.3436388293901635e+06  5.3436388293638369e+06  5.3436388293873202e+06  5.3436388293738374e+06  5.3436388293740675e+06  5.3436388293881668e+06  5.3436388293679878e+06  5.3436388293849630e+06  5.3436388293736391e+06  5.3436866958465558e+06  5.3436866957906988e+06  5.3436866959497957e+06  5.3436866958044460e+06  5.3436866958910190e+06  5.3436866958908495e+06  5.3436866958018262e+06  5.3436866959455963e+06  5.3436866957883686e+06  5.3436866958412947e+06  5.3438369142927658e+06  5.3438369152783128e+06  5.3438369143595984e+06  5.3438369153501391e+06  5.3438369147756780e+06  5.3438369147753837e+06  5.3438369153510360e+06  5.3438369143693149e+06  5.3438369152846718e+06  5.3438369142917152e+06  5.3443083431723993e+06  5.3443083422025023e+06  5.3443083499795683e+06  5.3443083437143387e+06  5.3443083474959368e+06  5.3443083474954097e+06  5.3443083437134260e+06  5.3443083499690332e+06  5.3443083422026653e+06  5.3443083431821773e+06  5.3457877832546327e+06  5.3457878480548039e+06  5.3457878106317762e+06  5.3457878545100931e+06  5.3457878308259202e+06  5.3457878308239970e+06  5.3457878545074314e+06  5.3457878106271904e+06  5.3457878480533706e+06  5.3457877832521154e+06  5.3504305305541717e+06  5.3504306495953016e+06  5.3504310596469482e+06  5.3504307988161705e+06  5.3504309491570294e+06  5.3504309491593149e+06  5.3504307988204109e+06  5.3504310596554503e+06  5.3504306495884666e+06  5.3504305305497637e+06  5.3649974003971592e+06  5.3650022771718754e+06  5.3650009429435609e+06  5.3650028786495430e+06  5.3650020482479651e+06  5.3650020482482230e+06  5.3650028786460469e+06  5.3650009429400787e+06  5.3650022771789897e+06  5.3649974004025180e+06  5.4106901945915930e+06  5.4107121454571756e+06  5.4107370557551868e+06  5.4107274323310666e+06  5.4107320296117654e+06  5.4107320296105985e+06  5.4107274323312715e+06  5.4107370557585778e+06  5.4107121454506228e+06  5.4106901945839906e+06  5.5537671105423551e+06  5.5541937761340309e+06  5.5541684461275497e+06  5.5542526117159827e+06  5.5542417569708722e+06  5.5542417569728922e+06  5.5542526117182160e+06  5.5541684461325342e+06  5.5541937761365185e+06  5.5537671105452683e+06  5.9995077622064454e+06  6.0027011412092019e+06  6.0047192162859095e+06  6.0046170626510317e+06  6.0046243876394788e+06  6.0046243876339514e+06  6.0046170626438595e+06  6.0047192162867105e+06  6.0027011412106408e+06  5.9995077622061912e+06  7.3682271947430372e+06  7.4169333193308320e+06  7.4181361255045179e+06  7.4180450213391138e+06  7.4180520652219262e+06  7.4180520652242173e+06  7.4180450213447297e+06  7.4181361255003000e+06  7.4169333193341726e+06  7.3682271947396556e+06  4.4645417125415858e+06  4.4930729867982632e+06  4.4909053893212695e+06  4.4910222423499245e+06  4.4910148352410560e+06  4.4910148352377145e+06  4.4910222423487604e+06  4.4909053893154943e+06  4.4930729867895516e+06  4.4645417125275964e+06  </DataArray> 
</PointData> 
</Piece>
</UnstructuredGrid>
</VTKFile>