<?xml version="1.0"?>
<VTKFile type="UnstructuredGrid"  version="0.1"  >
<UnstructuredGrid>
<Piece  NumberOfPoints="431" NumberOfCells="800">
<Points>
<DataArray  type="Float64"  NumberOfComponents="3"  format="ascii">-0.75 -3 0  -0.6 -3 0  -0.45 -3 0  -0.3 -3 0  -0.15 -3 0  0 -3 0  0.15 -3 0  0.3 -3 0  0.45 -3 0  0.6000000000000001 -3 0  0.75 -3 0  -0.75 -2.85 0  -0.6 -2.85 0  -0.45 -2.85 0  -0.3 -2.85 0  -0.15 -2.85 0  0 -2.85 0  0.15 -2.85 0  0.3 -2.85 0  0.45 -2.85 0  0.6000000000000001 -2.85 0  0.75 -2.85 0  -0.75 -2.7 0  -0.6 -2.7 0  -0.45 -2.7 0  -0.3 -2.7 0  -0.15 -2.7 0  0 -2.7 0  0.15 -2.7 0  0.3 -2.7 0  0.45 -2.7 0  0.6000000000000001 -2.7 0  0.75 -2.7 0  -0.75 -2.55 0  -0.6 -2.55 0  -0.45 -2.55 0  -0.3 -2.55 0  -0.15 -2.55 0  0 -2.55 0  0.15 -2.55 0  0.3 -2.55 0  0.45 -2.55 0  0.6000000000000001 -2.55 0  0.75 -2.55 0  -0.75 -2.4 0  -0.6 -2.4 0  -0.45 -2.4 0  -0.3 -2.4 0  -0.15 -2.4 0  0 -2.4 0  0.15 -2.4 0  0.3 -2.4 0  0.45 -2.4 0  0.6000000000000001 -2.4 0  0.75 -2.4 0  -0.75 -2.25 0  -0.6 -2.25 0  -0.45 -2.25 0  -0.3 -2.25 0  -0.15 -2.25 0  0 -2.25 0  0.15 -2.25 0  0.3 -2.25 0  0.45 -2.25 0  0.6000000000000001 -2.25 0  0.75 -2.25 0  -0.75 -2.1 0  -0.6 -2.1 0  -0.45 -2.1 0  -0.3 -2.1 0  -0.15 -2.1 0  0 -2.1 0  0.15 -2.1 0  0.3 -2.1 0  0.45 -2.1 0  0.6000000000000001 -2.1 0  0.75 -2.1 0  -0.75 -1.95 0  -0.6 -1.95 0  -0.45 -1.95 0  -0.3 -1.95 0  -0.15 -1.95 0  0 -1.95 0  0.15 -1.95 0  0.3 -1.95 0  0.45 -1.95 0  0.6000000000000001 -1.95 0  0.75 -1.95 0  -0.75 -1.8 0  -0.6 -1.8 0  -0.45 -1.8 0  -0.3 -1.8 0  -0.15 -1.8 0  0 -1.8 0  0.15 -1.8 0  0.3 -1.8 0  0.45 -1.8 0  0.6000000000000001 -1.8 0  0.75 -1.8 0  -0.75 -1.65 0  -0.6 -1.65 0  -0.45 -1.65 0  -0.3 -1.65 0  -0.15 -1.65 0  0 -1.65 0  0.15 -1.65 0  0.3 -1.65 0  0.45 -1.65 0  0.6000000000000001 -1.65 0  0.75 -1.65 0  -0.75 -1.5 0  -0.6 -1.5 0  -0.45 -1.5 0  -0.3 -1.5 0  -0.15 -1.5 0  0 -1.5 0  0.15 -1.5 0  0.3 -1.5 0  0.45 -1.5 0  0.6000000000000001 -1.5 0  0.75 -1.5 0  -0.75 -1.35 0  -0.6 -1.35 0  -0.45 -1.35 0  -0.3 -1.35 0  -0.15 -1.35 0  0 -1.35 0  0.15 -1.35 0  0.3 -1.35 0  0.45 -1.35 0  0.6000000000000001 -1.35 0  0.75 -1.35 0  -0.75 -1.2 0  -0.6 -1.2 0  -0.45 -1.2 0  -0.3 -1.2 0  -0.15 -1.2 0  0 -1.2 0  0.15 -1.2 0  0.3 -1.2 0  0.45 -1.2 0  0.6000000000000001 -1.2 0  0.75 -1.2 0  -0.75 -1.05 0  -0.6 -1.05 0  -0.45 -1.05 0  -0.3 -1.05 0  -0.15 -1.05 0  0 -1.05 0  0.15 -1.05 0  0.3 -1.05 0  0.45 -1.05 0  0.6000000000000001 -1.05 0  0.75 -1.05 0  -0.75 -0.8999999999999999 0  -0.6 -0.8999999999999999 0  -0.45 -0.8999999999999999 0  -0.3 -0.8999999999999999 0  -0.15 -0.8999999999999999 0  0 -0.8999999999999999 0  0.15 -0.8999999999999999 0  0.3 -0.8999999999999999 0  0.45 -0.8999999999999999 0  0.6000000000000001 -0.8999999999999999 0  0.75 -0.8999999999999999 0  -0.75 -0.75 0  -0.6 -0.75 0  -0.45 -0.75 0  -0.3 -0.75 0  -0.15 -0.75 0  0 -0.75 0  0.15 -0.75 0  0.3 -0.75 0  0.45 -0.75 0  0.6000000000000001 -0.75 0  0.75 -0.75 0  -0.75 -0.6000000000000001 0  -0.6 -0.6000000000000001 0  -0.45 -0.6000000000000001 0  -0.3 -0.6000000000000001 0  -0.15 -0.6000000000000001 0  0 -0.6000000000000001 0  0.15 -0.6000000000000001 0  0.3 -0.6000000000000001 0  0.45 -0.6000000000000001 0  0.6000000000000001 -0.6000000000000001 0  0.75 -0.6000000000000001 0  -0.75 -0.4500000000000002 0  -0.6 -0.4500000000000002 0  -0.45 -0.4500000000000002 0  -0.3 -0.4500000000000002 0  -0.15 -0.4500000000000002 0  0 -0.4500000000000002 0  0.15 -0.4500000000000002 0  0.3 -0.4500000000000002 0  0.45 -0.4500000000000002 0  0.6000000000000001 -0.4500000000000002 0  0.75 -0.4500000000000002 0  -0.75 -0.2999999999999998 0  -0.6 -0.2999999999999998 0  -0.45 -0.2999999999999998 0  -0.3 -0.2999999999999998 0  -0.15 -0.2999999999999998 0  0 -0.2999999999999998 0  0.15 -0.2999999999999998 0  0.3 -0.2999999999999998 0  0.45 -0.2999999999999998 0  0.6000000000000001 -0.2999999999999998 0  0.75 -0.2999999999999998 0  -0.75 -0.1499999999999999 0  -0.6 -0.1499999999999999 0  -0.45 -0.1499999999999999 0  -0.3 -0.1499999999999999 0  -0.15 -0.1499999999999999 0  0 -0.1499999999999999 0  0.15 -0.1499999999999999 0  0.3 -0.1499999999999999 0  0.45 -0.1499999999999999 0  0.6000000000000001 -0.1499999999999999 0  0.75 -0.1499999999999999 0  -0.75 0 0  -0.6 0 0  -0.45 0 0  -0.3 0 0  -0.15 0 0  0 0 0  0.15 0 0  0.3 0 0  0.45 0 0  0.6000000000000001 0 0  0.75 0 0  -0.675 -2.925 0  -0.525 -2.925 0  -0.375 -2.925 0  -0.225 -2.925 0  -0.07499999999999996 -2.925 0  0.07499999999999996 -2.925 0  0.225 -2.925 0  0.375 -2.925 0  0.5249999999999999 -2.925 0  0.675 -2.925 0  -0.675 -2.775 0  -0.525 -2.775 0  -0.375 -2.775 0  -0.225 -2.775 0  -0.07499999999999996 -2.775 0  0.07499999999999996 -2.775 0  0.225 -2.775 0  0.375 -2.775 0  0.5249999999999999 -2.775 0  0.675 -2.775 0  -0.675 -2.625 0  -0.525 -2.625 0  -0.375 -2.625 0  -0.225 -2.625 0  -0.07499999999999996 -2.625 0  0.07499999999999996 -2.625 0  0.225 -2.625 0  0.375 -2.625 0  0.5249999999999999 -2.625 0  0.675 -2.625 0  -0.675 -2.475 0  -0.525 -2.475 0  -0.375 -2.475 0  -0.225 -2.475 0  -0.07499999999999996 -2.475 0  0.07499999999999996 -2.475 0  0.225 -2.475 0  0.375 -2.475 0  0.5249999999999999 -2.475 0  0.675 -2.475 0  -0.675 -2.325 0  -0.525 -2.325 0  -0.375 -2.325 0  -0.225 -2.325 0  -0.07499999999999996 -2.325 0  0.07499999999999996 -2.325 0  0.225 -2.325 0  0.375 -2.325 0  0.5249999999999999 -2.325 0  0.675 -2.325 0  -0.675 -2.175 0  -0.525 -2.175 0  -0.375 -2.175 0  -0.225 -2.175 0  -0.07499999999999996 -2.175 0  0.07499999999999996 -2.175 0  0.225 -2.175 0  0.375 -2.175 0  0.5249999999999999 -2.175 0  0.675 -2.175 0  -0.675 -2.025 0  -0.525 -2.025 0  -0.375 -2.025 0  -0.225 -2.025 0  -0.07499999999999996 -2.025 0  0.07499999999999996 -2.025 0  0.225 -2.025 0  0.375 -2.025 0  0.5249999999999999 -2.025 0  0.675 -2.025 0  -0.675 -1.875 0  -0.525 -1.875 0  -0.375 -1.875 0  -0.225 -1.875 0  -0.07499999999999996 -1.875 0  0.07499999999999996 -1.875 0  0.225 -1.875 0  0.375 -1.875 0  0.5249999999999999 -1.875 0  0.675 -1.875 0  -0.675 -1.725 0  -0.525 -1.725 0  -0.375 -1.725 0  -0.225 -1.725 0  -0.07499999999999996 -1.725 0  0.07499999999999996 -1.725 0  0.225 -1.725 0  0.375 -1.725 0  0.5249999999999999 -1.725 0  0.675 -1.725 0  -0.675 -1.575 0  -0.525 -1.575 0  -0.375 -1.575 0  -0.225 -1.575 0  -0.07499999999999996 -1.575 0  0.07499999999999996 -1.575 0  0.225 -1.575 0  0.375 -1.575 0  0.5249999999999999 -1.575 0  0.675 -1.575 0  -0.675 -1.425 0  -0.525 -1.425 0  -0.375 -1.425 0  -0.225 -1.425 0  -0.07499999999999996 -1.425 0  0.07499999999999996 -1.425 0  0.225 -1.425 0  0.375 -1.425 0  0.5249999999999999 -1.425 0  0.675 -1.425 0  -0.675 -1.275 0  -0.525 -1.275 0  -0.375 -1.275 0  -0.225 -1.275 0  -0.07499999999999996 -1.275 0  0.07499999999999996 -1.275 0  0.225 -1.275 0  0.375 -1.275 0  0.5249999999999999 -1.275 0  0.675 -1.275 0  -0.675 -1.125 0  -0.525 -1.125 0  -0.375 -1.125 0  -0.225 -1.125 0  -0.07499999999999996 -1.125 0  0.07499999999999996 -1.125 0  0.225 -1.125 0  0.375 -1.125 0  0.5249999999999999 -1.125 0  0.675 -1.125 0  -0.675 -0.9750000000000001 0  -0.525 -0.9750000000000001 0  -0.375 -0.9750000000000001 0  -0.225 -0.9750000000000001 0  -0.07499999999999996 -0.9750000000000001 0  0.07499999999999996 -0.9750000000000001 0  0.225 -0.9750000000000001 0  0.375 -0.9750000000000001 0  0.5249999999999999 -0.9750000000000001 0  0.675 -0.9750000000000001 0  -0.675 -0.8250000000000002 0  -0.525 -0.8250000000000002 0  -0.375 -0.8250000000000002 0  -0.225 -0.8250000000000002 0  -0.07499999999999996 -0.8250000000000002 0  0.07499999999999996 -0.8250000000000002 0  0.225 -0.8250000000000002 0  0.375 -0.8250000000000002 0  0.5249999999999999 -0.8250000000000002 0  0.675 -0.8250000000000002 0  -0.675 -0.6749999999999998 0  -0.525 -0.6749999999999998 0  -0.375 -0.6749999999999998 0  -0.225 -0.6749999999999998 0  -0.07499999999999996 -0.6749999999999998 0  0.07499999999999996 -0.6749999999999998 0  0.225 -0.6749999999999998 0  0.375 -0.6749999999999998 0  0.5249999999999999 -0.6749999999999998 0  0.675 -0.6749999999999998 0  -0.675 -0.5249999999999999 0  -0.525 -0.5249999999999999 0  -0.375 -0.5249999999999999 0  -0.225 -0.5249999999999999 0  -0.07499999999999996 -0.5249999999999999 0  0.07499999999999996 -0.5249999999999999 0  0.225 -0.5249999999999999 0  0.375 -0.5249999999999999 0  0.5249999999999999 -0.5249999999999999 0  0.675 -0.5249999999999999 0  -0.675 -0.375 0  -0.525 -0.375 0  -0.375 -0.375 0  -0.225 -0.375 0  -0.07499999999999996 -0.375 0  0.07499999999999996 -0.375 0  0.225 -0.375 0  0.375 -0.375 0  0.5249999999999999 -0.375 0  0.675 -0.375 0  -0.675 -0.2250000000000001 0  -0.525 -0.2250000000000001 0  -0.375 -0.2250000000000001 0  -0.225 -0.2250000000000001 0  -0.07499999999999996 -0.2250000000000001 0  0.07499999999999996 -0.2250000000000001 0  0.225 -0.2250000000000001 0  0.375 -0.2250000000000001 0  0.5249999999999999 -0.2250000000000001 0  0.675 -0.2250000000000001 0  -0.675 -0.07500000000000018 0  -0.525 -0.07500000000000018 0  -0.375 -0.07500000000000018 0  -0.225 -0.07500000000000018 0  -0.07499999999999996 -0.07500000000000018 0  0.07499999999999996 -0.07500000000000018 0  0.225 -0.07500000000000018 0  0.375 -0.07500000000000018 0  0.5249999999999999 -0.07500000000000018 0  0.675 -0.07500000000000018 0  </DataArray>
</Points>
<Cells>
[...]
<PointData  Scalars="pressure"> 
<DataArray  type="Float64"  Name="pressure"  format="ascii">4.9618203939536616e+07  4.9618203939560495e+07  4.9618203939531624e+07  4.9618203939546458e+07  4.9618203939542532e+07  4.9618203939548597e+07  4.9618203939531073e+07  4.9618203939560093e+07  4.9618203939542152e+07  4.9618203939545244e+07  4.9618203939540975e+07  4.9618203931137078e+07  4.9618203931114823e+07  4.9618203931134209e+07  4.9618203931114651e+07  4.9618203931130171e+07  4.9618203931115173e+07  4.9618203931142613e+07  4.9618203931114651e+07  4.9618203931130752e+07  4.9618203931123853e+07  4.9618203931120165e+07  4.9618203893596716e+07  4.9618203893618234e+07  4.9618203893595524e+07  4.9618203893619411e+07  4.9618203893589512e+07  4.9618203893621013e+07  4.9618203893601194e+07  4.9618203893609859e+07  4.9618203893606834e+07  4.9618203893604830e+07  4.9618203893612511e+07  4.9618203772346690e+07  4.9618203772311948e+07  4.9618203772348017e+07  4.9618203772310905e+07  4.9618203772340059e+07  4.9618203772311553e+07  4.9618203772341669e+07  4.9618203772321776e+07  4.9618203772318028e+07  4.9618203772337131e+07  4.9618203772316925e+07  4.9618203390582405e+07  4.9618203390619904e+07  4.9618203390558064e+07  4.9618203390589178e+07  4.9618203390550263e+07  4.9618203390590526e+07  4.9618203390567414e+07  4.9618203390585013e+07  4.9618203390591376e+07  4.9618203390575796e+07  4.9618203390605643e+07  4.9618202192236558e+07  4.9618202192176118e+07  4.9618202192209527e+07  4.9618202192168728e+07  4.9618202192231074e+07  4.9618202192182586e+07  4.9618202192201219e+07  4.9618202192199036e+07  4.9618202192199826e+07  4.9618202192215420e+07  4.9618202192215279e+07  4.9618198431160003e+07  4.9618198431227967e+07  4.9618198431140259e+07  4.9618198431217439e+07  4.9618198431176931e+07  4.9618198431201756e+07  4.9618198431196824e+07  4.9618198431200817e+07  4.9618198431213289e+07  4.9618198431191154e+07  4.9618198431226052e+07  4.9618186628079437e+07  4.9618186628000386e+07  4.9618186628055550e+07  4.9618186628023431e+07  4.9618186628042728e+07  4.9618186628044508e+07  4.9618186628048480e+07  4.9618186628044583e+07  4.9618186628057048e+07  4.9618186628053322e+07  4.9618186628025167e+07  4.9618149586192586e+07  4.9618149586316697e+07  4.9618149586249396e+07  4.9618149586235136e+07  4.9618149586237259e+07  4.9618149586238101e+07  4.9618149586267158e+07  4.9618149586260900e+07  4.9618149586223669e+07  4.9618149586238764e+07  4.9618149586258166e+07  4.9618033338281028e+07  4.9618033338207878e+07  4.9618033338265099e+07  4.9618033338229589e+07  4.9618033338256240e+07  4.9618033338248700e+07  4.9618033338241272e+07  4.9618033338201679e+07  4.9618033338215843e+07  4.9618033338209666e+07  4.9618033338216037e+07  4.9617668517831229e+07  4.9617668517849036e+07  4.9617668517787233e+07  4.9617668517866701e+07  4.9617668517831013e+07  4.9617668517843708e+07  4.9617668517832205e+07  4.9617668517821513e+07  4.9617668517834470e+07  4.9617668517818622e+07  4.9617668517817400e+07  4.9616523604308732e+07  4.9616523604284748e+07  4.9616523604299419e+07  4.9616523604299977e+07  4.9616523604330830e+07  4.9616523604312889e+07  4.9616523604311906e+07  4.9616523604335584e+07  4.9616523604289308e+07  4.9616523604305930e+07  4.9616523604332000e+07  4.9612930529528230e+07  4.9612930529578619e+07  4.9612930529567845e+07  4.9612930529599786e+07  4.9612930529611744e+07  4.9612930529575698e+07  4.9612930529588185e+07  4.9612930529549189e+07  4.9612930529588498e+07  4.9612930529577769e+07  4.9612930529568903e+07  4.9601654406132042e+07  4.9601654406152360e+07  4.9601654406134240e+07  4.9601654406149425e+07  4.9601654406151108e+07  4.9601654406159602e+07  4.9601654406152874e+07  4.9601654406200022e+07  4.9601654406105682e+07  4.9601654406147517e+07  4.9601654406170815e+07  4.9566266620388046e+07  4.9566266620322019e+07  4.9566266620343260e+07  4.9566266620345473e+07  4.9566266620342374e+07  4.9566266620358489e+07  4.9566266620381698e+07  4.9566266620334268e+07  4.9566266620382831e+07  4.9566266620384328e+07  4.9566266620332450e+07  4.9455209359240294e+07  4.9455209359233551e+07  4.9455209359180726e+07  4.9455209359228306e+07  4.9455209359253936e+07  4.9455209359251067e+07  4.9455209359225772e+07  4.9455209359286085e+07  4.9455209359236993e+07  4.9455209359226950e+07  4.9455209359194964e+07  4.9106679069120556e+07  4.9106679069066465e+07  4.9106679069117695e+07  4.9106679069102056e+07  4.9106679069145225e+07  4.9106679069141187e+07  4.9106679069171503e+07  4.9106679069152147e+07  4.9106679069109648e+07  4.9106679069111034e+07  4.9106679069101639e+07  4.8012888695630193e+07  4.8012888695651852e+07  4.8012888695576586e+07  4.8012888695649944e+07  4.8012888695644923e+07  4.8012888695673436e+07  4.8012888695657007e+07  4.8012888695606120e+07  4.8012888695677564e+07  4.8012888695482127e+07  4.8012888695694365e+07  4.4580253383672304e+07  4.4580253383601263e+07  4.4580253383643687e+07  4.4580253383709930e+07  4.4580253383669093e+07  4.4580253383693084e+07  4.4580253383684844e+07  4.4580253383661695e+07  4.4580253383577570e+07  4.4580253383689374e+07  4.4580253383557774e+07  3.3807636005890608e+07  3.3807636005876310e+07  3.3807636005871370e+07  3.3807636005866848e+07  3.3807636005904861e+07  3.3807636005886078e+07  3.3807636005908117e+07  3.3807636005875908e+07  3.3807636005878560e+07  3.3807636005788721e+07  3.3807636005843937e+07  -1.9402553637822454e-09  -1.0029241346412435e-08  -2.2189775942630737e-08  -1.0671404500802349e-08  -2.7163575092951435e-08  -7.9467099567409539e-09  -1.0982148523908100e-08  -3.2795945853216642e-08  -1.6219322181617213e-08  -2.1099694071707690e-08  -2.3283064365386960e-08  4.9618203980203770e+07  4.9618203980207421e+07  4.9618203980214976e+07  4.9618203980211452e+07  4.9618203980206840e+07  4.9618203980212592e+07  4.9618203980201967e+07  4.9618203980207026e+07  4.9618203980205677e+07  4.9618203980215482e+07  4.9618204022650674e+07  4.9618204022649869e+07  4.9618204022651479e+07  4.9618204022652596e+07  4.9618204022655532e+07  4.9618204022638507e+07  4.9618204022648647e+07  4.9618204022650644e+07  4.9618204022650585e+07  4.9618204022651926e+07  4.9618204169362687e+07  4.9618204169361368e+07  4.9618204169362903e+07  4.9618204169368275e+07  4.9618204169365853e+07  4.9618204169365294e+07  4.9618204169363089e+07  4.9618204169371381e+07  4.9618204169365920e+07  4.9618204169366501e+07  4.9618204634096310e+07  4.9618204634105258e+07  4.9618204634121925e+07  4.9618204634126730e+07  4.9618204634129785e+07  4.9618204634115219e+07  4.9618204634114310e+07  4.9618204634120092e+07  4.9618204634118088e+07  4.9618204634109445e+07  4.9618206093989946e+07  4.9618206094023786e+07  4.9618206094026983e+07  4.9618206094032794e+07  4.9618206094026916e+07  4.9618206094031692e+07  4.9618206094027095e+07  4.9618206094008371e+07  4.9618206094009653e+07  4.9618206093988247e+07  4.9618210676046535e+07  4.9618210676052436e+07  4.9618210676080726e+07  4.9618210676035717e+07  4.9618210676039524e+07  4.9618210676050484e+07  4.9618210676038429e+07  4.9618210676045008e+07  4.9618210676032133e+07  4.9618210676028378e+07  4.9618225055959158e+07  4.9618225055993095e+07  4.9618225055966981e+07  4.9618225055961721e+07  4.9618225055960551e+07  4.9618225055943437e+07  4.9618225055952035e+07  4.9618225055932023e+07  4.9618225055934265e+07  4.9618225055945814e+07  4.9618270184368677e+07  4.9618270184347294e+07  4.9618270184373081e+07  4.9618270184393935e+07  4.9618270184376523e+07  4.9618270184367061e+07  4.9618270184343748e+07  4.9618270184376247e+07  4.9618270184366211e+07  4.9618270184374899e+07  4.9618411810586937e+07  4.9618411810565539e+07  4.9618411810619898e+07  4.9618411810611546e+07  4.9618411810613953e+07  4.9618411810595229e+07  4.9618411810617603e+07  4.9618411810620591e+07  4.9618411810663193e+07  4.9618411810617067e+07  4.9618856275280565e+07  4.9618856275312491e+07  4.9618856275285915e+07  4.9618856275288083e+07  4.9618856275277637e+07  4.9618856275296390e+07  4.9618856275311984e+07  4.9618856275343016e+07  4.9618856275308497e+07  4.9618856275350571e+07  4.9620251136028834e+07  4.9620251136075392e+07  4.9620251136066854e+07  4.9620251136007994e+07  4.9620251136026219e+07  4.9620251136020087e+07  4.9620251136047214e+07  4.9620251136020012e+07  4.9620251136063278e+07  4.9620251136028022e+07  4.9624628618500046e+07  4.9624628618472882e+07  4.9624628618433550e+07  4.9624628618414007e+07  4.9624628618406333e+07  4.9624628618442900e+07  4.9624628618420228e+07  4.9624628618482165e+07  4.9624628618446872e+07  4.9624628618441038e+07  4.9638366443508670e+07  4.9638366443485655e+07  4.9638366443470836e+07  4.9638366443449900e+07  4.9638366443461061e+07  4.9638366443464376e+07  4.9638366443468697e+07  4.9638366443476968e+07  4.9638366443498872e+07  4.9638366443472162e+07  4.9681479771648318e+07  4.9681479771655768e+07  4.9681479771689542e+07  4.9681479771654435e+07  4.9681479771639004e+07  4.9681479771620952e+07  4.9681479771609470e+07  4.9681479771642074e+07  4.9681479771647654e+07  4.9681479771632865e+07  4.9816782052806057e+07  4.9816782052887373e+07  4.9816782052831061e+07  4.9816782052829862e+07  4.9816782052833207e+07  4.9816782052811205e+07  4.9816782052813426e+07  4.9816782052777775e+07  4.9816782052796260e+07  4.9816782052819908e+07  5.0241400333798647e+07  5.0241400333793722e+07  5.0241400333824784e+07  5.0241400333749257e+07  5.0241400333706550e+07  5.0241400333728135e+07  5.0241400333689980e+07  5.0241400333747379e+07  5.0241400333771698e+07  5.0241400333824538e+07  5.1573977160863265e+07  5.1573977160888433e+07  5.1573977160882488e+07  5.1573977160824023e+07  5.1573977160796531e+07  5.1573977160772189e+07  5.1573977160806999e+07  5.1573977160815790e+07  5.1573977160907805e+07  5.1573977160890058e+07  5.5755994468166009e+07  5.5755994468192913e+07  5.5755994468162283e+07  5.5755994468102150e+07  5.5755994468099721e+07  5.5755994468092278e+07  5.5755994468153708e+07  5.5755994468173265e+07  5.5755994468212597e+07  5.5755994468228213e+07  6.8880392554269522e+07  6.8880392554353535e+07  6.8880392554232985e+07  6.8880392554259822e+07  6.8880392554251403e+07  6.8880392554255500e+07  6.8880392554236308e+07  6.8880392554314822e+07  6.8880392554356486e+07  6.8880392554365858e+07  1.1006860686947784e+08  1.1006860686947112e+08  1.1006860686949426e+08  1.1006860686948089e+08  1.1006860686947520e+08  1.1006860686947867e+08  1.1006860686948597e+08  1.1006860686949733e+08  1.1006860686954343e+08  1.1006860686957809e+08  </DataArray> 
</PointData> 
</Piece>
</UnstructuredGrid>
</VTKFile>