<?xml version="1.0"?>
<VTKFile type="UnstructuredGrid"  version="0.1"  >
<UnstructuredGrid>
<Piece  NumberOfPoints="431" NumberOfCells="800">
<Points>
<DataArray  type="Float64"  NumberOfComponents="3"  format="ascii">-0.25 -1 0  -0.2 -1 0  -0.15 -1 0  -0.1 -1 0  -0.04999999999999999 -1 0  0 -1 0  0.04999999999999999 -1 0  0.09999999999999998 -1 0  0.15 -1 0  0.2 -1 0  0.25 -1 0  -0.25 -0.95 0  -0.2 -0.95 0  -0.15 -0.95 0  -0.1 -0.95 0  -0.04999999999999999 -0.95 0  0 -0.95 0  0.04999999999999999 -0.95 0  0.09999999999999998 -0.95 0  0.15 -0.95 0  0.2 -0.95 0  0.25 -0.95 0  -0.25 -0.9 0  -0.2 -0.9 0  -0.15 -0.9 0  -0.1 -0.9 0  -0.04999999999999999 -0.9 0  0 -0.9 0  0.04999999999999999 -0.9 0  0.09999999999999998 -0.9 0  0.15 -0.9 0  0.2 -0.9 0  0.25 -0.9 0  -0.25 -0.85 0  -0.2 -0.85 0  -0.15 -0.85 0  -0.1 -0.85 0  -0.04999999999999999 -0.85 0  0 -0.85 0  0.04999999999999999 -0.85 0  0.09999999999999998 -0.85 0  0.15 -0.85 0  0.2 -0.85 0  0.25 -0.85 0  -0.25 -0.8 0  -0.2 -0.8 0  -0.15 -0.8 0  -0.1 -0.8 0  -0.04999999999999999 -0.8 0  0 -0.8 0  0.04999999999999999 -0.8 0  0.09999999999999998 -0.8 0  0.15 -0.8 0  0.2 -0.8 0  0.25 -0.8 0  -0.25 -0.75 0  -0.2 -0.75 0  -0.15 -0.75 0  -0.1 -0.75 0  -0.04999999999999999 -0.75 0  0 -0.75 0  0.04999999999999999 -0.75 0  0.09999999999999998 -0.75 0  0.15 -0.75 0  0.2 -0.75 0  0.25 -0.75 0  -0.25 -0.7 0  -0.2 -0.7 0  -0.15 -0.7 0  -0.1 -0.7 0  -0.04999999999999999 -0.7 0  0 -0.7 0  0.04999999999999999 -0.7 0  0.09999999999999998 -0.7 0  0.15 -0.7 0  0.2 -0.7 0  0.25 -0.7 0  -0.25 -0.65 0  -0.2 -0.65 0  -0.15 -0.65 0  -0.1 -0.65 0  -0.04999999999999999 -0.65 0  0 -0.65 0  0.04999999999999999 -0.65 0  0.09999999999999998 -0.65 0  0.15 -0.65 0  0.2 -0.65 0  0.25 -0.65 0  -0.25 -0.6 0  -0.2 -0.6 0  -0.15 -0.6 0  -0.1 -0.6 0  -0.04999999999999999 -0.6 0  0 -0.6 0  0.04999999999999999 -0.6 0  0.09999999999999998 -0.6 0  0.15 -0.6 0  0.2 -0.6 0  0.25 -0.6 0  -0.25 -0.55 0  -0.2 -0.55 0  -0.15 -0.55 0  -0.1 -0.55 0  -0.04999999999999999 -0.55 0  0 -0.55 0  0.04999999999999999 -0.55 0  0.09999999999999998 -0.55 0  0.15 -0.55 0  0.2 -0.55 0  0.25 -0.55 0  -0.25 -0.5 0  -0.2 -0.5 0  -0.15 -0.5 0  -0.1 -0.5 0  -0.04999999999999999 -0.5 0  0 -0.5 0  0.04999999999999999 -0.5 0  0.09999999999999998 -0.5 0  0.15 -0.5 0  0.2 -0.5 0  0.25 -0.5 0  -0.25 -0.45 0  -0.2 -0.45 0  -0.15 -0.45 0  -0.1 -0.45 0  -0.04999999999999999 -0.45 0  0 -0.45 0  0.04999999999999999 -0.45 0  0.09999999999999998 -0.45 0  0.15 -0.45 0  0.2 -0.45 0  0.25 -0.45 0  -0.25 -0.4 0  -0.2 -0.4 0  -0.15 -0.4 0  -0.1 -0.4 0  -0.04999999999999999 -0.4 0  0 -0.4 0  0.04999999999999999 -0.4 0  0.09999999999999998 -0.4 0  0.15 -0.4 0  0.2 -0.4 0  0.25 -0.4 0  -0.25 -0.35 0  -0.2 -0.35 0  -0.15 -0.35 0  -0.1 -0.35 0  -0.04999999999999999 -0.35 0  0 -0.35 0  0.04999999999999999 -0.35 0  0.09999999999999998 -0.35 0  0.15 -0.35 0  0.2 -0.35 0  0.25 -0.35 0  -0.25 -0.3 0  -0.2 -0.3 0  -0.15 -0.3 0  -0.1 -0.3 0  -0.04999999999999999 -0.3 0  0 -0.3 0  0.04999999999999999 -0.3 0  0.09999999999999998 -0.3 0  0.15 -0.3 0  0.2 -0.3 0  0.25 -0.3 0  -0.25 -0.25 0  -0.2 -0.25 0  -0.15 -0.25 0  -0.1 -0.25 0  -0.04999999999999999 -0.25 0  0 -0.25 0  0.04999999999999999 -0.25 0  0.09999999999999998 -0.25 0  0.15 -0.25 0  0.2 -0.25 0  0.25 -0.25 0  -0.25 -0.2 0  -0.2 -0.2 0  -0.15 -0.2 0  -0.1 -0.2 0  -0.04999999999999999 -0.2 0  0 -0.2 0  0.04999999999999999 -0.2 0  0.09999999999999998 -0.2 0  0.15 -0.2 0  0.2 -0.2 0  0.25 -0.2 0  -0.25 -0.15 0  -0.2 -0.15 0  -0.15 -0.15 0  -0.1 -0.15 0  -0.04999999999999999 -0.15 0  0 -0.15 0  0.04999999999999999 -0.15 0  0.09999999999999998 -0.15 0  0.15 -0.15 0  0.2 -0.15 0  0.25 -0.15 0  -0.25 -0.09999999999999998 0  -0.2 -0.09999999999999998 0  -0.15 -0.09999999999999998 0  -0.1 -0.09999999999999998 0  -0.04999999999999999 -0.09999999999999998 0  0 -0.09999999999999998 0  0.04999999999999999 -0.09999999999999998 0  0.09999999999999998 -0.09999999999999998 0  0.15 -0.09999999999999998 0  0.2 -0.09999999999999998 0  0.25 -0.09999999999999998 0  -0.25 -0.05000000000000004 0  -0.2 -0.05000000000000004 0  -0.15 -0.05000000000000004 0  -0.1 -0.05000000000000004 0  -0.04999999999999999 -0.05000000000000004 0  0 -0.05000000000000004 0  0.04999999999999999 -0.05000000000000004 0  0.09999999999999998 -0.05000000000000004 0  0.15 -0.05000000000000004 0  0.2 -0.05000000000000004 0  0.25 -0.05000000000000004 0  -0.25 0 0  -0.2 0 0  -0.15 0 0  -0.1 0 0  -0.04999999999999999 0 0  0 0 0  0.04999999999999999 0 0  0.09999999999999998 0 0  0.15 0 0  0.2 0 0  0.25 0 0  -0.225 -0.975 0  -0.175 -0.975 0  -0.125 -0.975 0  -0.07500000000000001 -0.975 0  -0.02499999999999999 -0.975 0  0.02500000000000002 -0.975 0  0.07500000000000001 -0.975 0  0.125 -0.975 0  0.175 -0.975 0  0.225 -0.975 0  -0.225 -0.925 0  -0.175 -0.925 0  -0.125 -0.925 0  -0.07500000000000001 -0.925 0  -0.02499999999999999 -0.925 0  0.02500000000000002 -0.925 0  0.07500000000000001 -0.925 0  0.125 -0.925 0  0.175 -0.925 0  0.225 -0.925 0  -0.225 -0.875 0  -0.175 -0.875 0  -0.125 -0.875 0  -0.07500000000000001 -0.875 0  -0.02499999999999999 -0.875 0  0.02500000000000002 -0.875 0  0.07500000000000001 -0.875 0  0.125 -0.875 0  0.175 -0.875 0  0.225 -0.875 0  -0.225 -0.825 0  -0.175 -0.825 0  -0.125 -0.825 0  -0.07500000000000001 -0.825 0  -0.02499999999999999 -0.825 0  0.02500000000000002 -0.825 0  0.07500000000000001 -0.825 0  0.125 -0.825 0  0.175 -0.825 0  0.225 -0.825 0  -0.225 -0.775 0  -0.175 -0.775 0  -0.125 -0.775 0  -0.07500000000000001 -0.775 0  -0.02499999999999999 -0.775 0  0.02500000000000002 -0.775 0  0.07500000000000001 -0.775 0  0.125 -0.775 0  0.175 -0.775 0  0.225 -0.775 0  -0.225 -0.725 0  -0.175 -0.725 0  -0.125 -0.725 0  -0.07500000000000001 -0.725 0  -0.02499999999999999 -0.725 0  0.02500000000000002 -0.725 0  0.07500000000000001 -0.725 0  0.125 -0.725 0  0.175 -0.725 0  0.225 -0.725 0  -0.225 -0.675 0  -0.175 -0.675 0  -0.125 -0.675 0  -0.07500000000000001 -0.675 0  -0.02499999999999999 -0.675 0  0.02500000000000002 -0.675 0  0.07500000000000001 -0.675 0  0.125 -0.675 0  0.175 -0.675 0  0.225 -0.675 0  -0.225 -0.625 0  -0.175 -0.625 0  -0.125 -0.625 0  -0.07500000000000001 -0.625 0  -0.02499999999999999 -0.625 0  0.02500000000000002 -0.625 0  0.07500000000000001 -0.625 0  0.125 -0.625 0  0.175 -0.625 0  0.225 -0.625 0  -0.225 -0.575 0  -0.175 -0.575 0  -0.125 -0.575 0  -0.07500000000000001 -0.575 0  -0.02499999999999999 -0.575 0  0.02500000000000002 -0.575 0  0.07500000000000001 -0.575 0  0.125 -0.575 0  0.175 -0.575 0  0.225 -0.575 0  -0.225 -0.525 0  -0.175 -0.525 0  -0.125 -0.525 0  -0.07500000000000001 -0.525 0  -0.02499999999999999 -0.525 0  0.02500000000000002 -0.525 0  0.07500000000000001 -0.525 0  0.125 -0.525 0  0.175 -0.525 0  0.225 -0.525 0  -0.225 -0.475 0  -0.175 -0.475 0  -0.125 -0.475 0  -0.07500000000000001 -0.475 0  -0.02499999999999999 -0.475 0  0.02500000000000002 -0.475 0  0.07500000000000001 -0.475 0  0.125 -0.475 0  0.175 -0.475 0  0.225 -0.475 0  -0.225 -0.425 0  -0.175 -0.425 0  -0.125 -0.425 0  -0.07500000000000001 -0.425 0  -0.02499999999999999 -0.425 0  0.02500000000000002 -0.425 0  0.07500000000000001 -0.425 0  0.125 -0.425 0  0.175 -0.425 0  0.225 -0.425 0  -0.225 -0.375 0  -0.175 -0.375 0  -0.125 -0.375 0  -0.07500000000000001 -0.375 0  -0.02499999999999999 -0.375 0  0.02500000000000002 -0.375 0  0.07500000000000001 -0.375 0  0.125 -0.375 0  0.175 -0.375 0  0.225 -0.375 0  -0.225 -0.325 0  -0.175 -0.325 0  -0.125 -0.325 0  -0.07500000000000001 -0.325 0  -0.02499999999999999 -0.325 0  0.02500000000000002 -0.325 0  0.07500000000000001 -0.325 0  0.125 -0.325 0  0.175 -0.325 0  0.225 -0.325 0  -0.225 -0.275 0  -0.175 -0.275 0  -0.125 -0.275 0  -0.07500000000000001 -0.275 0  -0.02499999999999999 -0.275 0  0.02500000000000002 -0.275 0  0.07500000000000001 -0.275 0  0.125 -0.275 0  0.175 -0.275 0  0.225 -0.275 0  -0.225 -0.225 0  -0.175 -0.225 0  -0.125 -0.225 0  -0.07500000000000001 -0.225 0  -0.02499999999999999 -0.225 0  0.02500000000000002 -0.225 0  0.07500000000000001 -0.225 0  0.125 -0.225 0  0.175 -0.225 0  0.225 -0.225 0  -0.225 -0.175 0  -0.175 -0.175 0  -0.125 -0.175 0  -0.07500000000000001 -0.175 0  -0.02499999999999999 -0.175 0  0.02500000000000002 -0.175 0  0.07500000000000001 -0.175 0  0.125 -0.175 0  0.175 -0.175 0  0.225 -0.175 0  -0.225 -0.125 0  -0.175 -0.125 0  -0.125 -0.125 0  -0.07500000000000001 -0.125 0  -0.02499999999999999 -0.125 0  0.02500000000000002 -0.125 0  0.07500000000000001 -0.125 0  0.125 -0.125 0  0.175 -0.125 0  0.225 -0.125 0  -0.225 -0.07499999999999996 0  -0.175 -0.07499999999999996 0  -0.125 -0.07499999999999996 0  -0.07500000000000001 -0.07499999999999996 0  -0.02499999999999999 -0.07499999999999996 0  0.02500000000000002 -0.07499999999999996 0  0.07500000000000001 -0.07499999999999996 0  0.125 -0.07499999999999996 0  0.175 -0.07499999999999996 0  0.225 -0.07499999999999996 0  -0.225 -0.02500000000000002 0  -0.175 -0.02500000000000002 0  -0.125 -0.02500000000000002 0  -0.07500000000000001 -0.02500000000000002 0  -0.02499999999999999 -0.02500000000000002 0  0.02500000000000002 -0.02500000000000002 0  0.07500000000000001 -0.02500000000000002 0  0.125 -0.02500000000000002 0  0.175 -0.02500000000000002 0  0.225 -0.02500000000000002 0  </DataArray>
</Points>
<Cells>
[...]
<PointData  Scalars="pressure"> 
<DataArray  type="Float64"  Name="pressure"  format="ascii">9.9915046825127993e+06  9.9915046825127974e+06  9.9915046825128254e+06  9.9915046825128067e+06  9.9915046825127956e+06  9.9915046825128105e+06  9.9915046825128030e+06  9.9915046825127844e+06  9.9915046825127695e+06  9.9915046825127583e+06  9.9915046825127471e+06  9.9607042448014226e+06  9.9607042448014300e+06  9.9607042448014524e+06  9.9607042448014691e+06  9.9607042448014542e+06  9.9607042448014300e+06  9.9607042448013593e+06  9.9607042448014002e+06  9.9607042448013891e+06  9.9607042448014058e+06  9.9607042448013984e+06  9.8684928245784268e+06  9.8684928245783895e+06  9.8684928245784491e+06  9.8684928245783783e+06  9.8684928245783709e+06  9.8684928245783802e+06  9.8684928245783243e+06  9.8684928245783504e+06  9.8684928245783616e+06  9.8684928245783728e+06  9.8684928245783355e+06  9.7154389299360625e+06  9.7154389299360290e+06  9.7154389299360253e+06  9.7154389299360607e+06  9.7154389299359713e+06  9.7154389299359713e+06  9.7154389299359359e+06  9.7154389299359862e+06  9.7154389299359508e+06  9.7154389299359247e+06  9.7154389299359396e+06  9.5024861794368550e+06  9.5024861794367619e+06  9.5024861794368159e+06  9.5024861794367731e+06  9.5024861794367936e+06  9.5024861794367805e+06  9.5024861794367228e+06  9.5024861794367079e+06  9.5024861794366818e+06  9.5024861794366781e+06  9.5024861794366743e+06  9.2309474849212188e+06  9.2309474849211909e+06  9.2309474849212095e+06  9.2309474849212337e+06  9.2309474849211369e+06  9.2309474849211518e+06  9.2309474849211369e+06  9.2309474849211518e+06  9.2309474849210903e+06  9.2309474849210586e+06  9.2309474849210717e+06  8.9024969576705359e+06  8.9024969576705452e+06  8.9024969576706402e+06  8.9024969576705191e+06  8.9024969576705024e+06  8.9024969576704372e+06  8.9024969576704483e+06  8.9024969576704334e+06  8.9024969576703832e+06  8.9024969576703254e+06  8.9024969576702919e+06  8.5191595877863914e+06  8.5191595877864119e+06  8.5191595877863839e+06  8.5191595877863299e+06  8.5191595877863225e+06  8.5191595877863932e+06  8.5191595877863299e+06  8.5191595877862256e+06  8.5191595877861232e+06  8.5191595877861511e+06  8.5191595877861287e+06  8.0832987603720510e+06  8.0832987603720184e+06  8.0832987603720613e+06  8.0832987603720669e+06  8.0832987603720287e+06  8.0832987603720129e+06  8.0832987603719439e+06  8.0832987603719076e+06  8.0832987603718881e+06  8.0832987603718042e+06  8.0832987603718583e+06  7.5976016854307977e+06  7.5976016854307512e+06  7.5976016854307577e+06  7.5976016854308350e+06  7.5976016854309347e+06  7.5976016854308741e+06  7.5976016854308899e+06  7.5976016854307940e+06  7.5976016854308192e+06  7.5976016854307530e+06  7.5976016854307763e+06  7.0650628312586201e+06  7.0650628312586648e+06  7.0650628312586686e+06  7.0650628312585913e+06  7.0650628312586853e+06  7.0650628312586369e+06  7.0650628312586546e+06  7.0650628312586481e+06  7.0650628312585112e+06  7.0650628312584227e+06  7.0650628312584190e+06  6.4889654634177852e+06  6.4889654634176856e+06  6.4889654634178160e+06  6.4889654634177675e+06  6.4889654634177787e+06  6.4889654634177536e+06  6.4889654634177592e+06  6.4889654634176297e+06  6.4889654634174956e+06  6.4889654634174993e+06  6.4889654634174798e+06  5.8728614030622942e+06  5.8728614030622570e+06  5.8728614030621564e+06  5.8728614030621257e+06  5.8728614030620279e+06  5.8728614030620186e+06  5.8728614030619022e+06  5.8728614030618472e+06  5.8728614030617969e+06  5.8728614030618370e+06  5.8728614030617559e+06  5.2205491293699965e+06  5.2205491293699890e+06  5.2205491293699434e+06  5.2205491293698605e+06  5.2205491293697115e+06  5.2205491293695616e+06  5.2205491293694740e+06  5.2205491293695606e+06  5.2205491293695392e+06  5.2205491293694582e+06  5.2205491293694619e+06  4.5360503610554887e+06  4.5360503610554598e+06  4.5360503610555027e+06  4.5360503610552950e+06  4.5360503610550836e+06  4.5360503610551553e+06  4.5360503610550370e+06  4.5360503610550724e+06  4.5360503610549374e+06  4.5360503610549178e+06  4.5360503610550715e+06  3.8235852613222264e+06  3.8235852613221719e+06  3.8235852613220420e+06  3.8235852613220322e+06  3.8235852613220112e+06  3.8235852613220392e+06  3.8235852613219768e+06  3.8235852613220196e+06  3.8235852613218371e+06  3.8235852613217602e+06  3.8235852613217290e+06  3.0875464191161413e+06  3.0875464191160239e+06  3.0875464191159164e+06  3.0875464191157925e+06  3.0875464191157003e+06  3.0875464191157501e+06  3.0875464191158451e+06  3.0875464191156658e+06  3.0875464191156188e+06  3.0875464191154819e+06  3.0875464191154791e+06  2.3324717670940482e+06  2.3324717670940403e+06  2.3324717670940021e+06  2.3324717670939858e+06  2.3324717670939448e+06  2.3324717670939458e+06  2.3324717670938903e+06  2.3324717670938205e+06  2.3324717670936682e+06  2.3324717670936109e+06  2.3324717670935146e+06  1.5630166032956461e+06  1.5630166032956759e+06  1.5630166032956308e+06  1.5630166032953931e+06  1.5630166032954364e+06  1.5630166032953290e+06  1.5630166032953814e+06  1.5630166032954031e+06  1.5630166032953064e+06  1.5630166032953167e+06  1.5630166032954345e+06  7.8392488903314073e+05  7.8392488903309254e+05  7.8392488903297763e+05  7.8392488903303735e+05  7.8392488903288695e+05  7.8392488903290837e+05  7.8392488903294201e+05  7.8392488903308916e+05  7.8392488903305749e+05  7.8392488903294737e+05  7.8392488903306739e+05  6.8212102632969566e-11  -1.0018537809590138e-10  8.7996276931789856e-11  -7.9783798615348346e-11  1.6200374375330271e-10  -1.2953447838169389e-10  2.2915003228263221e-11  4.7048079717829466e-11  5.7553961596568070e-11  -2.2943698223361226e-10  0.0000000000000000e+00  9.9812364048835468e+06  9.9812364048835598e+06  9.9812364048835747e+06  9.9812364048835617e+06  9.9812364048835542e+06  9.9812364048835337e+06  9.9812364048835188e+06  9.9812364048835188e+06  9.9812364048835095e+06  9.9812364048834965e+06  9.9196988361295480e+06  9.9196988361295536e+06  9.9196988361295760e+06  9.9196988361295462e+06  9.9196988361295518e+06  9.9196988361295108e+06  9.9196988361294940e+06  9.9196988361295033e+06  9.9196988361295089e+06  9.9196988361295015e+06  9.7970030941744037e+06  9.7970030941743907e+06  9.7970030941743981e+06  9.7970030941743776e+06  9.7970030941743478e+06  9.7970030941743236e+06  9.7970030941743292e+06  9.7970030941743422e+06  9.7970030941743292e+06  9.7970030941743217e+06  9.6139056312463097e+06  9.6139056312462911e+06  9.6139056312462948e+06  9.6139056312462762e+06  9.6139056312462557e+06  9.6139056312462334e+06  9.6139056312462352e+06  9.6139056312462110e+06  9.6139056312462017e+06  9.6139056312461980e+06  9.3715352929015066e+06  9.3715352929014824e+06  9.3715352929014899e+06  9.3715352929014675e+06  9.3715352929014526e+06  9.3715352929014452e+06  9.3715352929014005e+06  9.3715352929013874e+06  9.3715352929013651e+06  9.3715352929013576e+06  9.0713863589343168e+06  9.0713863589343298e+06  9.0713863589343727e+06  9.0713863589343186e+06  9.0713863589342572e+06  9.0713863589342423e+06  9.0713863589342609e+06  9.0713863589342143e+06  9.0713863589341585e+06  9.0713863589341156e+06  8.7153093314156011e+06  8.7153093314156234e+06  8.7153093314155694e+06  8.7153093314155079e+06  8.7153093314155340e+06  8.7153093314155024e+06  8.7153093314154763e+06  8.7153093314153980e+06  8.7153093314153440e+06  8.7153093314153403e+06  8.3054995266114110e+06  8.3054995266114110e+06  8.3054995266113998e+06  8.3054995266113840e+06  8.3054995266113859e+06  8.3054995266113756e+06  8.3054995266112797e+06  8.3054995266112275e+06  8.3054995266111810e+06  8.3054995266111791e+06  7.8444835410689823e+06  7.8444835410689879e+06  7.8444835410690317e+06  7.8444835410690596e+06  7.8444835410690373e+06  7.8444835410689982e+06  7.8444835410689702e+06  7.8444835410689292e+06  7.8444835410689106e+06  7.8444835410689069e+06  7.3351036752577666e+06  7.3351036752577433e+06  7.3351036752577489e+06  7.3351036752578253e+06  7.3351036752578523e+06  7.3351036752578001e+06  7.3351036752577918e+06  7.3351036752577275e+06  7.3351036752576772e+06  7.3351036752576344e+06  6.7805004107469181e+06  6.7805004107469451e+06  6.7805004107470009e+06  6.7805004107469590e+06  6.7805004107469553e+06  6.7805004107469721e+06  6.7805004107469441e+06  6.7805004107468538e+06  6.7805004107467271e+06  6.7805004107467197e+06  6.1840930489045000e+06  6.1840930489044385e+06  6.1840930489044096e+06  6.1840930489043649e+06  6.1840930489043789e+06  6.1840930489042858e+06  6.1840930489042290e+06  6.1840930489041414e+06  6.1840930489040818e+06  6.1840930489040939e+06  5.5495586304398319e+06  5.5495586304397946e+06  5.5495586304397024e+06  5.5495586304396112e+06  5.5495586304395199e+06  5.5495586304394538e+06  5.5495586304393783e+06  5.5495586304393737e+06  5.5495586304393699e+06  5.5495586304393150e+06  4.8808092657231325e+06  4.8808092657231372e+06  4.8808092657230757e+06  4.8808092657229174e+06  4.8808092657227721e+06  4.8808092657227106e+06  4.8808092657226808e+06  4.8808092657227144e+06  4.8808092657226250e+06  4.8808092657226808e+06  4.1819680156180621e+06  4.1819680156179983e+06  4.1819680156179196e+06  4.1819680156178256e+06  4.1819680156178116e+06  4.1819680156177646e+06  4.1819680156177343e+06  4.1819680156176994e+06  4.1819680156175317e+06  4.1819680156175639e+06  3.4573434715148443e+06  3.4573434715147247e+06  3.4573434715146464e+06  3.4573434715145975e+06  3.4573434715145989e+06  3.4573434715145989e+06  3.4573434715145524e+06  3.4573434715144434e+06  3.4573434715143805e+06  3.4573434715142725e+06  2.7114031912827482e+06  2.7114031912826798e+06  2.7114031912826658e+06  2.7114031912824777e+06  2.7114031912825112e+06  2.7114031912824935e+06  2.7114031912824777e+06  2.7114031912823683e+06  2.7114031912822141e+06  2.7114031912821881e+06  1.9487461549261522e+06  1.9487461549261063e+06  1.9487461549260442e+06  1.9487461549260442e+06  1.9487461549260137e+06  1.9487461549259671e+06  1.9487461549259513e+06  1.9487461549258106e+06  1.9487461549257645e+06  1.9487461549257995e+06  1.1740744097839971e+06  1.1740744097839731e+06  1.1740744097838802e+06  1.1740744097837869e+06  1.1740744097837098e+06  1.1740744097837091e+06  1.1740744097838339e+06  1.1740744097838639e+06  1.1740744097837249e+06  1.1740744097838381e+06  3.9216408011993562e+05  3.9216408011985436e+05  3.9216408011985454e+05  3.9216408011983888e+05  3.9216408011980768e+05  3.9216408011979231e+05  3.9216408011983905e+05  3.9216408011993190e+05  3.9216408011989569e+05  3.9216408011979383e+05  </DataArray> 
</PointData> 
</Piece>
</UnstructuredGrid>
</VTKFile>