<?xml version="1.0"?>
<VTKFile type="UnstructuredGrid"  version="0.1"  >
<UnstructuredGrid>
<Piece  NumberOfPoints="1411" NumberOfCells="2700">
<Points>
<DataArray  type="Float64"  NumberOfComponents="3"  format="ascii">-0.75 -4.5 0  -0.65 -4.5 0  -0.55 -4.5 0  -0.45 -4.5 0  -0.35 -4.5 0  -0.25 -4.5 0  -0.15 -4.5 0  -0.05000000000000004 -4.5 0  0.05000000000000004 -4.5 0  0.15 -4.5 0  0.25 -4.5 0  0.3500000000000001 -4.5 0  0.45 -4.5 0  0.55 -4.5 0  0.6499999999999999 -4.5 0  0.75 -4.5 0  -0.75 -4.4 0  -0.65 -4.4 0  -0.55 -4.4 0  -0.45 -4.4 0  -0.35 -4.4 0  -0.25 -4.4 0  -0.15 -4.4 0  -0.05000000000000004 -4.4 0  0.05000000000000004 -4.4 0  0.15 -4.4 0  0.25 -4.4 0  0.3500000000000001 -4.4 0  0.45 -4.4 0  0.55 -4.4 0  0.6499999999999999 -4.4 0  0.75 -4.4 0  -0.75 -4.3 0  -0.65 -4.3 0  -0.55 -4.3 0  -0.45 -4.3 0  -0.35 -4.3 0  -0.25 -4.3 0  -0.15 -4.3 0  -0.05000000000000004 -4.3 0  0.05000000000000004 -4.3 0  0.15 -4.3 0  0.25 -4.3 0  0.3500000000000001 -4.3 0  0.45 -4.3 0  0.55 -4.3 0  0.6499999999999999 -4.3 0  0.75 -4.3 0  -0.75 -4.2 0  -0.65 -4.2 0  -0.55 -4.2 0  -0.45 -4.2 0  -0.35 -4.2 0  -0.25 -4.2 0  -0.15 -4.2 0  -0.05000000000000004 -4.2 0  0.05000000000000004 -4.2 0  0.15 -4.2 0  0.25 -4.2 0  0.3500000000000001 -4.2 0  0.45 -4.2 0  0.55 -4.2 0  0.6499999999999999 -4.2 0  0.75 -4.2 0  -0.75 -4.1 0  -0.65 -4.1 0  -0.55 -4.1 0  -0.45 -4.1 0  -0.35 -4.1 0  -0.25 -4.1 0  -0.15 -4.1 0  -0.05000000000000004 -4.1 0  0.05000000000000004 -4.1 0  0.15 -4.1 0  0.25 -4.1 0  0.3500000000000001 -4.1 0  0.45 -4.1 0  0.55 -4.1 0  0.6499999999999999 -4.1 0  0.75 -4.1 0  -0.75 -4 0  -0.65 -4 0  -0.55 -4 0  -0.45 -4 0  -0.35 -4 0  -0.25 -4 0  -0.15 -4 0  -0.05000000000000004 -4 0  0.05000000000000004 -4 0  0.15 -4 0  0.25 -4 0  0.3500000000000001 -4 0  0.45 -4 0  0.55 -4 0  0.6499999999999999 -4 0  0.75 -4 0  -0.75 -3.9 0  -0.65 -3.9 0  -0.55 -3.9 0  -0.45 -3.9 0  -0.35 -3.9 0  -0.25 -3.9 0  -0.15 -3.9 0  -0.05000000000000004 -3.9 0  0.05000000000000004 -3.9 0  0.15 -3.9 0  0.25 -3.9 0  0.3500000000000001 -3.9 0  0.45 -3.9 0  0.55 -3.9 0  0.6499999999999999 -3.9 0  0.75 -3.9 0  -0.75 -3.8 0  -0.65 -3.8 0  -0.55 -3.8 0  -0.45 -3.8 0  -0.35 -3.8 0  -0.25 -3.8 0  -0.15 -3.8 0  -0.05000000000000004 -3.8 0  0.05000000000000004 -3.8 0  0.15 -3.8 0  0.25 -3.8 0  0.3500000000000001 -3.8 0  0.45 -3.8 0  0.55 -3.8 0  0.6499999999999999 -3.8 0  0.75 -3.8 0  -0.75 -3.7 0  -0.65 -3.7 0  -0.55 -3.7 0  -0.45 -3.7 0  -0.35 -3.7 0  -0.25 -3.7 0  -0.15 -3.7 0  -0.05000000000000004 -3.7 0  0.05000000000000004 -3.7 0  0.15 -3.7 0  0.25 -3.7 0  0.3500000000000001 -3.7 0  0.45 -3.7 0  0.55 -3.7 0  0.6499999999999999 -3.7 0  0.75 -3.7 0  -0.75 -3.6 0  -0.65 -3.6 0  -0.55 -3.6 0  -0.45 -3.6 0  -0.35 -3.6 0  -0.25 -3.6 0  -0.15 -3.6 0  -0.05000000000000004 -3.6 0  0.05000000000000004 -3.6 0  0.15 -3.6 0  0.25 -3.6 0  0.3500000000000001 -3.6 0  0.45 -3.6 0  0.55 -3.6 0  0.6499999999999999 -3.6 0  0.75 -3.6 0  -0.75 -3.5 0  -0.65 -3.5 0  -0.55 -3.5 0  -0.45 -3.5 0  -0.35 -3.5 0  -0.25 -3.5 0  -0.15 -3.5 0  -0.05000000000000004 -3.5 0  0.05000000000000004 -3.5 0  0.15 -3.5 0  0.25 -3.5 0  0.3500000000000001 -3.5 0  0.45 -3.5 0  0.55 -3.5 0  0.6499999999999999 -3.5 0  0.75 -3.5 0  -0.75 -3.4 0  -0.65 -3.4 0  -0.55 -3.4 0  -0.45 -3.4 0  -0.35 -3.4 0  -0.25 -3.4 0  -0.15 -3.4 0  -0.05000000000000004 -3.4 0  0.05000000000000004 -3.4 0  0.15 -3.4 0  0.25 -3.4 0  0.3500000000000001 -3.4 0  0.45 -3.4 0  0.55 -3.4 0  0.6499999999999999 -3.4 0  0.75 -3.4 0  -0.75 -3.3 0  -0.65 -3.3 0  -0.55 -3.3 0  -0.45 -3.3 0  -0.35 -3.3 0  -0.25 -3.3 0  -0.15 -3.3 0  -0.05000000000000004 -3.3 0  0.05000000000000004 -3.3 0  0.15 -3.3 0  0.25 -3.3 0  0.3500000000000001 -3.3 0  0.45 -3.3 0  0.55 -3.3 0  0.6499999999999999 -3.3 0  0.75 -3.3 0  -0.75 -3.2 0  -0.65 -3.2 0  -0.55 -3.2 0  -0.45 -3.2 0  -0.35 -3.2 0  -0.25 -3.2 0  -0.15 -3.2 0  -0.05000000000000004 -3.2 0  0.05000000000000004 -3.2 0  0.15 -3.2 0  0.25 -3.2 0  0.3500000000000001 -3.2 0  0.45 -3.2 0  0.55 -3.2 0  0.6499999999999999 -3.2 0  0.75 -3.2 0  -0.75 -3.1 0  -0.65 -3.1 0  -0.55 -3.1 0  -0.45 -3.1 0  -0.35 -3.1 0  -0.25 -3.1 0  -0.15 -3.1 0  -0.05000000000000004 -3.1 0  0.05000000000000004 -3.1 0  0.15 -3.1 0  0.25 -3.1 0  0.3500000000000001 -3.1 0  0.45 -3.1 0  0.55 -3.1 0  0.6499999999999999 -3.1 0  0.75 -3.1 0  -0.75 -3 0  -0.65 -3 0  -0.55 -3 0  -0.45 -3 0  -0.35 -3 0  -0.25 -3 0  -0.15 -3 0  -0.05000000000000004 -3 0  0.05000000000000004 -3 0  0.15 -3 0  0.25 -3 0  0.3500000000000001 -3 0  0.45 -3 0  0.55 -3 0  0.6499999999999999 -3 0  0.75 -3 0  -0.75 -2.9 0  -0.65 -2.9 0  -0.55 -2.9 0  -0.45 -2.9 0  -0.35 -2.9 0  -0.25 -2.9 0  -0.15 -2.9 0  -0.05000000000000004 -2.9 0  0.05000000000000004 -2.9 0  0.15 -2.9 0  0.25 -2.9 0  0.3500000000000001 -2.9 0  0.45 -2.9 0  0.55 -2.9 0  0.6499999999999999 -2.9 0  0.75 -2.9 0  -0.75 -2.8 0  -0.65 -2.8 0  -0.55 -2.8 0  -0.45 -2.8 0  -0.35 -2.8 0  -0.25 -2.8 0  -0.15 -2.8 0  -0.05000000000000004 -2.8 0  0.05000000000000004 -2.8 0  0.15 -2.8 0  0.25 -2.8 0  0.3500000000000001 -2.8 0  0.45 -2.8 0  0.55 -2.8 0  0.6499999999999999 -2.8 0  0.75 -2.8 0  -0.75 -2.7 0  -0.65 -2.7 0  -0.55 -2.7 0  -0.45 -2.7 0  -0.35 -2.7 0  -0.25 -2.7 0  -0.15 -2.7 0  -0.05000000000000004 -2.7 0  0.05000000000000004 -2.7 0  0.15 -2.7 0  0.25 -2.7 0  0.3500000000000001 -2.7 0  0.45 -2.7 0  0.55 -2.7 0  0.6499999999999999 -2.7 0  0.75 -2.7 0  -0.75 -2.6 0  -0.65 -2.6 0  -0.55 -2.6 0  -0.45 -2.6 0  -0.35 -2.6 0  -0.25 -2.6 0  -0.15 -2.6 0  -0.05000000000000004 -2.6 0  0.05000000000000004 -2.6 0  0.15 -2.6 0  0.25 -2.6 0  0.3500000000000001 -2.6 0  0.45 -2.6 0  0.55 -2.6 0  0.6499999999999999 -2.6 0  0.75 -2.6 0  -0.75 -2.5 0  -0.65 -2.5 0  -0.55 -2.5 0  -0.45 -2.5 0  -0.35 -2.5 0  -0.25 -2.5 0  -0.15 -2.5 0  -0.05000000000000004 -2.5 0  0.05000000000000004 -2.5 0  0.15 -2.5 0  0.25 -2.5 0  0.3500000000000001 -2.5 0  0.45 -2.5 0  0.55 -2.5 0  0.6499999999999999 -2.5 0  0.75 -2.5 0  -0.75 -2.4 0  -0.65 -2.4 0  -0.55 -2.4 0  -0.45 -2.4 0  -0.35 -2.4 0  -0.25 -2.4 0  -0.15 -2.4 0  -0.05000000000000004 -2.4 0  0.05000000000000004 -2.4 0  0.15 -2.4 0  0.25 -2.4 0  0.3500000000000001 -2.4 0  0.45 -2.4 0  0.55 -2.4 0  0.6499999999999999 -2.4 0  0.75 -2.4 0  -0.75 -2.3 0  -0.65 -2.3 0  -0.55 -2.3 0  -0.45 -2.3 0  -0.35 -2.3 0  -0.25 -2.3 0  -0.15 -2.3 0  -0.05000000000000004 -2.3 0  0.05000000000000004 -2.3 0  0.15 -2.3 0  0.25 -2.3 0  0.3500000000000001 -2.3 0  0.45 -2.3 0  0.55 -2.3 0  0.6499999999999999 -2.3 0  0.75 -2.3 0  -0.75 -2.2 0  -0.65 -2.2 0  -0.55 -2.2 0  -0.45 -2.2 0  -0.35 -2.2 0  -0.25 -2.2 0  -0.15 -2.2 0  -0.05000000000000004 -2.2 0  0.05000000000000004 -2.2 0  0.15 -2.2 0  0.25 -2.2 0  0.3500000000000001 -2.2 0  0.45 -2.2 0  0.55 -2.2 0  0.6499999999999999 -2.2 0  0.75 -2.2 0  -0.75 -2.1 0  -0.65 -2.1 0  -0.55 -2.1 0  -0.45 -2.1 0  -0.35 -2.1 0  -0.25 -2.1 0  -0.15 -2.1 0  -0.05000000000000004 -2.1 0  0.05000000000000004 -2.1 0  0.15 -2.1 0  0.25 -2.1 0  0.3500000000000001 -2.1 0  0.45 -2.1 0  0.55 -2.1 0  0.6499999999999999 -2.1 0  0.75 -2.1 0  -0.75 -2 0  -0.65 -2 0  -0.55 -2 0  -0.45 -2 0  -0.35 -2 0  -0.25 -2 0  -0.15 -2 0  -0.05000000000000004 -2 0  0.05000000000000004 -2 0  0.15 -2 0  0.25 -2 0  0.3500000000000001 -2 0  0.45 -2 0  0.55 -2 0  0.6499999999999999 -2 0  0.75 -2 0  -0.75 -1.9 0  -0.65 -1.9 0  -0.55 -1.9 0  -0.45 -1.9 0  -0.35 -1.9 0  -0.25 -1.9 0  -0.15 -1.9 0  -0.05000000000000004 -1.9 0  0.05000000000000004 -1.9 0  0.15 -1.9 0  0.25 -1.9 0  0.3500000000000001 -1.9 0  0.45 -1.9 0  0.55 -1.9 0  0.6499999999999999 -1.9 0  0.75 -1.9 0  -0.75 -1.8 0  -0.65 -1.8 0  -0.55 -1.8 0  -0.45 -1.8 0  -0.35 -1.8 0  -0.25 -1.8 0  -0.15 -1.8 0  -0.05000000000000004 -1.8 0  0.05000000000000004 -1.8 0  0.15 -1.8 0  0.25 -1.8 0  0.3500000000000001 -1.8 0  0.45 -1.8 0  0.55 -1.8 0  0.6499999999999999 -1.8 0  0.75 -1.8 0  -0.75 -1.7 0  -0.65 -1.7 0  -0.55 -1.7 0  -0.45 -1.7 0  -0.35 -1.7 0  -0.25 -1.7 0  -0.15 -1.7 0  -0.05000000000000004 -1.7 0  0.05000000000000004 -1.7 0  0.15 -1.7 0  0.25 -1.7 0  0.3500000000000001 -1.7 0  0.45 -1.7 0  0.55 -1.7 0  0.6499999999999999 -1.7 0  0.75 -1.7 0  -0.75 -1.6 0  -0.65 -1.6 0  -0.55 -1.6 0  -0.45 -1.6 0  -0.35 -1.6 0  -0.25 -1.6 0  -0.15 -1.6 0  -0.05000000000000004 -1.6 0  0.05000000000000004 -1.6 0  0.15 -1.6 0  0.25 -1.6 0  0.3500000000000001 -1.6 0  0.45 -1.6 0  0.55 -1.6 0  0.6499999999999999 -1.6 0  0.75 -1.6 0  -0.75 -1.5 0  -0.65 -1.5 0  -0.55 -1.5 0  -0.45 -1.5 0  -0.35 -1.5 0  -0.25 -1.5 0  -0.15 -1.5 0  -0.05000000000000004 -1.5 0  0.05000000000000004 -1.5 0  0.15 -1.5 0  0.25 -1.5 0  0.3500000000000001 -1.5 0  0.45 -1.5 0  0.55 -1.5 0  0.6499999999999999 -1.5 0  0.75 -1.5 0  -0.75 -1.4 0  -0.65 -1.4 0  -0.55 -1.4 0  -0.45 -1.4 0  -0.35 -1.4 0  -0.25 -1.4 0  -0.15 -1.4 0  -0.05000000000000004 -1.4 0  0.05000000000000004 -1.4 0  0.15 -1.4 0  0.25 -1.4 0  0.3500000000000001 -1.4 0  0.45 -1.4 0  0.55 -1.4 0  0.6499999999999999 -1.4 0  0.75 -1.4 0  -0.75 -1.3 0  -0.65 -1.3 0  -0.55 -1.3 0  -0.45 -1.3 0  -0.35 -1.3 0  -0.25 -1.3 0  -0.15 -1.3 0  -0.05000000000000004 -1.3 0  0.05000000000000004 -1.3 0  0.15 -1.3 0  0.25 -1.3 0  0.3500000000000001 -1.3 0  0.45 -1.3 0  0.55 -1.3 0  0.6499999999999999 -1.3 0  0.75 -1.3 0  -0.75 -1.2 0  -0.65 -1.2 0  -0.55 -1.2 0  -0.45 -1.2 0  -0.35 -1.2 0  -0.25 -1.2 0  -0.15 -1.2 0  -0.05000000000000004 -1.2 0  0.05000000000000004 -1.2 0  0.15 -1.2 0  0.25 -1.2 0  0.3500000000000001 -1.2 0  0.45 -1.2 0  0.55 -1.2 0  0.6499999999999999 -1.2 0  0.75 -1.2 0  -0.75 -1.1 0  -0.65 -1.1 0  -0.55 -1.1 0  -0.45 -1.1 0  -0.35 -1.1 0  -0.25 -1.1 0  -0.15 -1.1 0  -0.05000000000000004 -1.1 0  0.05000000000000004 -1.1 0  0.15 -1.1 0  0.25 -1.1 0  0.3500000000000001 -1.1 0  0.45 -1.1 0  0.55 -1.1 0  0.6499999999999999 -1.1 0  0.75 -1.1 0  -0.75 -1 0  -0.65 -1 0  -0.55 -1 0  -0.45 -1 0  -0.35 -1 0  -0.25 -1 0  -0.15 -1 0  -0.05000000000000004 -1 0  0.05000000000000004 -1 0  0.15 -1 0  0.25 -1 0  0.3500000000000001 -1 0  0.45 -1 0  0.55 -1 0  0.6499999999999999 -1 0  0.75 -1 0  -0.75 -0.8999999999999999 0  -0.65 -0.899999
[...]
<PointData  Scalars="pressure"> 
<DataArray  type="Float64"  Name="pressure"  format="ascii">4.1874765878235405e+04  4.1874765878235397e+04  4.1874765878235412e+04  4.1874765878235405e+04  4.1874765878235390e+04  4.1874765878235405e+04  4.1874765878235412e+04  4.1874765878235426e+04  4.1874765878235426e+04  4.1874765878235456e+04  4.1874765878235426e+04  4.1874765878235463e+04  4.1874765878235412e+04  4.1874765878235376e+04  4.1874765878235441e+04  4.1874765878235434e+04  4.1829443087905151e+04  4.1829443087905158e+04  4.1829443087905165e+04  4.1829443087905165e+04  4.1829443087905158e+04  4.1829443087905129e+04  4.1829443087905158e+04  4.1829443087905151e+04  4.1829443087905180e+04  4.1829443087905194e+04  4.1829443087905194e+04  4.1829443087905151e+04  4.1829443087905136e+04  4.1829443087905187e+04  4.1829443087905158e+04  4.1829443087905136e+04  4.1693442707696828e+04  4.1693442707696842e+04  4.1693442707696835e+04  4.1693442707696842e+04  4.1693442707696784e+04  4.1693442707696799e+04  4.1693442707696799e+04  4.1693442707696813e+04  4.1693442707696857e+04  4.1693442707696835e+04  4.1693442707696799e+04  4.1693442707696857e+04  4.1693442707696835e+04  4.1693442707696835e+04  4.1693442707696770e+04  4.1693442707696813e+04  4.1466671878934780e+04  4.1466671878934772e+04  4.1466671878934794e+04  4.1466671878934787e+04  4.1466671878934787e+04  4.1466671878934700e+04  4.1466671878934743e+04  4.1466671878934794e+04  4.1466671878934751e+04  4.1466671878934838e+04  4.1466671878934816e+04  4.1466671878934852e+04  4.1466671878934831e+04  4.1466671878934780e+04  4.1466671878934772e+04  4.1466671878934780e+04  4.1148986329560292e+04  4.1148986329560234e+04  4.1148986329560314e+04  4.1148986329560321e+04  4.1148986329560255e+04  4.1148986329560277e+04  4.1148986329560226e+04  4.1148986329560270e+04  4.1148986329560292e+04  4.1148986329560270e+04  4.1148986329560306e+04  4.1148986329560321e+04  4.1148986329560350e+04  4.1148986329560321e+04  4.1148986329560335e+04  4.1148986329560306e+04  4.0740205866015145e+04  4.0740205866015182e+04  4.0740205866015182e+04  4.0740205866015203e+04  4.0740205866015145e+04  4.0740205866015160e+04  4.0740205866015203e+04  4.0740205866015189e+04  4.0740205866015174e+04  4.0740205866015283e+04  4.0740205866015283e+04  4.0740205866015298e+04  4.0740205866015276e+04  4.0740205866015254e+04  4.0740205866015240e+04  4.0740205866015276e+04  4.0240135573037245e+04  4.0240135573037260e+04  4.0240135573037289e+04  4.0240135573037267e+04  4.0240135573037231e+04  4.0240135573037282e+04  4.0240135573037282e+04  4.0240135573037274e+04  4.0240135573037303e+04  4.0240135573037347e+04  4.0240135573037391e+04  4.0240135573037427e+04  4.0240135573037442e+04  4.0240135573037456e+04  4.0240135573037391e+04  4.0240135573037391e+04  3.9648592243199811e+04  3.9648592243199826e+04  3.9648592243199906e+04  3.9648592243199899e+04  3.9648592243199848e+04  3.9648592243199877e+04  3.9648592243199884e+04  3.9648592243199957e+04  3.9648592243199993e+04  3.9648592243200081e+04  3.9648592243200095e+04  3.9648592243200073e+04  3.9648592243200132e+04  3.9648592243200103e+04  3.9648592243200081e+04  3.9648592243200088e+04  3.8965435436546904e+04  3.8965435436546933e+04  3.8965435436546890e+04  3.8965435436546912e+04  3.8965435436546948e+04  3.8965435436546933e+04  3.8965435436546992e+04  3.8965435436547035e+04  3.8965435436547130e+04  3.8965435436547174e+04  3.8965435436547181e+04  3.8965435436547239e+04  3.8965435436547239e+04  3.8965435436547268e+04  3.8965435436547254e+04  3.8965435436547246e+04  3.8190602460345755e+04  3.8190602460345784e+04  3.8190602460345755e+04  3.8190602460345770e+04  3.8190602460345792e+04  3.8190602460345828e+04  3.8190602460345879e+04  3.8190602460345923e+04  3.8190602460346032e+04  3.8190602460346076e+04  3.8190602460346148e+04  3.8190602460346199e+04  3.8190602460346221e+04  3.8190602460346185e+04  3.8190602460346177e+04  3.8190602460346199e+04  3.7324146462046032e+04  3.7324146462046025e+04  3.7324146462046039e+04  3.7324146462046061e+04  3.7324146462046054e+04  3.7324146462046039e+04  3.7324146462046141e+04  3.7324146462046177e+04  3.7324146462046236e+04  3.7324146462046301e+04  3.7324146462046352e+04  3.7324146462046418e+04  3.7324146462046454e+04  3.7324146462046483e+04  3.7324146462046461e+04  3.7324146462046469e+04  3.6366276747076619e+04  3.6366276747076627e+04  3.6366276747076663e+04  3.6366276747076663e+04  3.6366276747076670e+04  3.6366276747076678e+04  3.6366276747076779e+04  3.6366276747076816e+04  3.6366276747076845e+04  3.6366276747076867e+04  3.6366276747076976e+04  3.6366276747077056e+04  3.6366276747077078e+04  3.6366276747077070e+04  3.6366276747077063e+04  3.6366276747077085e+04  3.5317400369020761e+04  3.5317400369020746e+04  3.5317400369020805e+04  3.5317400369020812e+04  3.5317400369020797e+04  3.5317400369020797e+04  3.5317400369020943e+04  3.5317400369021008e+04  3.5317400369021023e+04  3.5317400369021067e+04  3.5317400369021176e+04  3.5317400369021212e+04  3.5317400369021183e+04  3.5317400369021227e+04  3.5317400369021234e+04  3.5317400369021212e+04  3.4178163994616596e+04  3.4178163994616647e+04  3.4178163994616683e+04  3.4178163994616698e+04  3.4178163994616691e+04  3.4178163994616792e+04  3.4178163994616851e+04  3.4178163994616938e+04  3.4178163994616974e+04  3.4178163994617047e+04  3.4178163994617047e+04  3.4178163994617105e+04  3.4178163994617142e+04  3.4178163994617113e+04  3.4178163994617105e+04  3.4178163994617120e+04  3.2949495021291332e+04  3.2949495021291346e+04  3.2949495021291390e+04  3.2949495021291383e+04  3.2949495021291455e+04  3.2949495021291528e+04  3.2949495021291616e+04  3.2949495021291717e+04  3.2949495021291747e+04  3.2949495021291776e+04  3.2949495021291877e+04  3.2949495021291899e+04  3.2949495021291921e+04  3.2949495021291921e+04  3.2949495021291914e+04  3.2949495021291892e+04  3.1632640921549395e+04  3.1632640921549442e+04  3.1632640921549504e+04  3.1632640921549522e+04  3.1632640921549562e+04  3.1632640921549606e+04  3.1632640921549708e+04  3.1632640921549762e+04  3.1632640921549842e+04  3.1632640921549882e+04  3.1632640921549926e+04  3.1632640921549988e+04  3.1632640921549984e+04  3.1632640921550057e+04  3.1632640921550039e+04  3.1632640921550057e+04  3.0229205807127764e+04  3.0229205807127801e+04  3.0229205807127862e+04  3.0229205807127895e+04  3.0229205807127910e+04  3.0229205807127888e+04  3.0229205807127928e+04  3.0229205807128001e+04  3.0229205807128081e+04  3.0229205807128103e+04  3.0229205807128157e+04  3.0229205807128194e+04  3.0229205807128259e+04  3.0229205807128285e+04  3.0229205807128343e+04  3.0229205807128328e+04  2.8741183246580775e+04  2.8741183246580778e+04  2.8741183246580807e+04  2.8741183246580818e+04  2.8741183246580826e+04  2.8741183246580767e+04  2.8741183246580887e+04  2.8741183246580884e+04  2.8741183246581022e+04  2.8741183246581062e+04  2.8741183246581157e+04  2.8741183246581146e+04  2.8741183246581200e+04  2.8741183246581204e+04  2.8741183246581179e+04  2.8741183246581193e+04  2.7170984432595887e+04  2.7170984432595906e+04  2.7170984432595931e+04  2.7170984432595891e+04  2.7170984432595924e+04  2.7170984432595906e+04  2.7170984432595960e+04  2.7170984432596066e+04  2.7170984432596073e+04  2.7170984432596211e+04  2.7170984432596229e+04  2.7170984432596295e+04  2.7170984432596309e+04  2.7170984432596379e+04  2.7170984432596291e+04  2.7170984432596200e+04  2.5521460879079732e+04  2.5521460879079725e+04  2.5521460879079677e+04  2.5521460879079710e+04  2.5521460879079728e+04  2.5521460879079739e+04  2.5521460879079776e+04  2.5521460879079848e+04  2.5521460879079943e+04  2.5521460879079968e+04  2.5521460879080005e+04  2.5521460879080016e+04  2.5521460879080067e+04  2.5521460879080030e+04  2.5521460879079987e+04  2.5521460879080038e+04  2.3795920931613906e+04  2.3795920931613964e+04  2.3795920931613986e+04  2.3795920931614008e+04  2.3795920931613942e+04  2.3795920931613884e+04  2.3795920931614004e+04  2.3795920931614070e+04  2.3795920931614124e+04  2.3795920931614219e+04  2.3795920931614197e+04  2.3795920931614266e+04  2.3795920931614164e+04  2.3795920931614135e+04  2.3795920931614135e+04  2.3795920931614124e+04  2.1998139496453856e+04  2.1998139496453889e+04  2.1998139496453892e+04  2.1998139496453998e+04  2.1998139496453976e+04  2.1998139496453940e+04  2.1998139496454001e+04  2.1998139496453980e+04  2.1998139496454056e+04  2.1998139496454110e+04  2.1998139496454121e+04  2.1998139496454205e+04  2.1998139496454136e+04  2.1998139496454081e+04  2.1998139496454074e+04  2.1998139496454052e+04  2.0132360530524245e+04  2.0132360530524249e+04  2.0132360530524249e+04  2.0132360530524333e+04  2.0132360530524296e+04  2.0132360530524296e+04  2.0132360530524395e+04  2.0132360530524391e+04  2.0132360530524471e+04  2.0132360530524526e+04  2.0132360530524493e+04  2.0132360530524515e+04  2.0132360530524471e+04  2.0132360530524467e+04  2.0132360530524420e+04  2.0132360530524340e+04  1.8203291985083102e+04  1.8203291985083146e+04  1.8203291985083211e+04  1.8203291985083131e+04  1.8203291985083171e+04  1.8203291985083237e+04  1.8203291985083335e+04  1.8203291985083357e+04  1.8203291985083382e+04  1.8203291985083422e+04  1.8203291985083368e+04  1.8203291985083459e+04  1.8203291985083339e+04  1.8203291985083441e+04  1.8203291985083284e+04  1.8203291985083295e+04  1.6216093055676891e+04  1.6216093055676827e+04  1.6216093055676840e+04  1.6216093055676823e+04  1.6216093055676945e+04  1.6216093055676954e+04  1.6216093055676905e+04  1.6216093055677034e+04  1.6216093055677096e+04  1.6216093055677144e+04  1.6216093055677060e+04  1.6216093055677113e+04  1.6216093055677111e+04  1.6216093055677065e+04  1.6216093055676984e+04  1.6216093055677033e+04  1.4176353757139090e+04  1.4176353757139132e+04  1.4176353757139077e+04  1.4176353757139204e+04  1.4176353757139141e+04  1.4176353757139141e+04  1.4176353757139137e+04  1.4176353757139175e+04  1.4176353757139228e+04  1.4176353757139288e+04  1.4176353757139308e+04  1.4176353757139384e+04  1.4176353757139403e+04  1.4176353757139355e+04  1.4176353757139243e+04  1.4176353757139224e+04  1.2090067010863515e+04  1.2090067010863513e+04  1.2090067010863524e+04  1.2090067010863546e+04  1.2090067010863495e+04  1.2090067010863449e+04  1.2090067010863588e+04  1.2090067010863728e+04  1.2090067010863753e+04  1.2090067010863702e+04  1.2090067010863628e+04  1.2090067010863873e+04  1.2090067010863962e+04  1.2090067010863944e+04  1.2090067010863884e+04  1.2090067010863855e+04  9.9635935983857125e+03  9.9635935983857689e+03  9.9635935983858326e+03  9.9635935983858526e+03  9.9635935983858017e+03  9.9635935983857526e+03  9.9635935983859436e+03  9.9635935983859654e+03  9.9635935983859890e+03  9.9635935983860436e+03  9.9635935983860218e+03  9.9635935983862037e+03  9.9635935983860272e+03  9.9635935983860090e+03  9.9635935983859290e+03  9.9635935983859872e+03  7.8036204963608725e+03  7.8036204963609734e+03  7.8036204963609798e+03  7.8036204963609634e+03  7.8036204963609653e+03  7.8036204963608925e+03  7.8036204963610317e+03  7.8036204963609907e+03  7.8036204963610717e+03  7.8036204963611872e+03  7.8036204963610553e+03  7.8036204963610817e+03  7.8036204963610880e+03  7.8036204963610808e+03  7.8036204963611435e+03  7.8036204963611790e+03  5.6171132592663726e+03  5.6171132592663953e+03  5.6171132592664926e+03  5.6171132592665244e+03  5.6171132592664526e+03  5.6171132592663735e+03  5.6171132592664871e+03  5.6171132592664399e+03  5.6171132592666090e+03  5.6171132592666863e+03  5.6171132592666454e+03  5.6171132592665981e+03  5.6171132592665217e+03  5.6171132592666318e+03  5.6171132592665954e+03  5.6171132592666327e+03  3.4112632537100585e+03  3.4112632537100867e+03  3.4112632537101090e+03  3.4112632537101390e+03  3.4112632537101367e+03  3.4112632537101367e+03  3.4112632537101717e+03  3.4112632537102227e+03  3.4112632537102704e+03  3.4112632537103227e+03  3.4112632537102977e+03  3.4112632537103118e+03  3.4112632537103073e+03  3.4112632537103127e+03  3.4112632537102709e+03  3.4112632537102681e+03  3.1893440265927252e+03  3.1893440265927652e+03  3.1893440265927793e+03  3.1893440265927775e+03  3.1893440265928102e+03  3.1893440265928384e+03  3.1893440265928530e+03  3.1893440265928980e+03  3.1893440265929380e+03  3.1893440265929771e+03  3.1893440265929794e+03  3.1893440265929685e+03  3.1893440265929885e+03  3.1893440265929985e+03  3.1893440265929767e+03  3.1893440265929698e+03  2.9662997312513312e+03  2.9662997312513257e+03  2.9662997312513235e+03  2.9662997312513203e+03  2.9662997312513435e+03  2.9662997312513644e+03  2.9662997312513949e+03  2.9662997312514249e+03  2.9662997312514649e+03  2.9662997312515072e+03  2.9662997312515372e+03  2.9662997312515622e+03  2.9662997312515477e+03  2.9662997312515545e+03  2.9662997312515686e+03  2.9662997312515736e+03  2.7422062978330214e+03  2.7422062978330159e+03  2.7422062978330155e+03  2.7422062978330009e+03  2.7422062978329986e+03  2.7422062978330396e+03  2.7422062978330569e+03  2.7422062978330791e+03  2.7422062978331237e+03  2.7422062978331696e+03  2.7422062978332033e+03  2.7422062978332401e+03  2.7422062978332365e+03  2.7422062978332651e+03  2.7422062978332742e+03  2.7422062978332619e+03  2.5171406216961323e+03  2.5171406216961232e+03  2.5171406216961027e+03  2.5171406216961013e+03  2.5171406216960813e+03  2.5171406216960731e+03  2.5171406216961268e+03  2.5171406216961641e+03  2.5171406216961732e+03  2.5171406216961900e+03  2.5171406216962123e+03  2.5171406216962569e+03  2.5171406216962905e+03  2.5171406216963205e+03  2.5171406216963424e+03  2.5171406216963492e+03  2.2911804966515147e+03  2.2911804966515092e+03  2.2911804966515210e+03  2.2911804966515369e+03  2.2911804966515169e+03  2.2911804966514901e+03  2.2911804966515110e+03  2.2911804966515506e+03  2.2911804966515647e+03  2.2911804966515615e+03  2.2911804966515811e+03  2.2911804966516415e+03  2.2911804966516843e+03  2.2911804966517111e+03  2.2911804966517520e+03  2.2911804966517643e+03  2.0644045464454066e+03  2.0644045464454171e+03  2.0644045464454284e+03  2.0644045464454516e+03  2.0644045464454384e+03  2.0644045464454298e+03  2.0644045464454389e+03  2.0644045464454375e+03  2.0644045464454648e+03  2.0644045464454812e+03  2.0644045464455176e+03  2.0644045464455398e+03  2.0644045464455789e+03  2.0644045464456294e+03  2.0644045464456362e+03  2.0644045464456399e+03  1.8368921546136096e+03  1.8368921546136162e+03  1.8368921546136303e+03  1.8368921546136512e+03  1.8368921546136521e+03  1.8368921546136492e+03  1.8368921546136630e+03  1.8368921546136530e+03  1.8368921546136592e+03  1.8368921546136792e+03  1.8368921546137058e+03  1.8368921546137356e+03  1.8368921546137658e+03  1.8368921546137854e+03  1.8368921546137933e+03  1.8368921546138131e+03  1.6087233928423163e+03  1.6087233928423318e+03  1.6087233928423329e+03  1.6087233928423279e+03  1.6087233928423300e+03  1.6087233928423186e+03  1.6087233928423352e+03  1.6087233928423698e+03  1.6087233928423632e+03  1.6087233928423516e+03  1.6087233928423987e+03  1.6087233928424091e+03  1.6087233928424398e+03  1.6087233928424523e+03  1.6087233928424496e+03  1.6087233928424575e+03  1.3799789479741585e+03  1.3799789479741696e+03  1.3799789479741578e+03  1.3799789479741576e+03  1.3799789479741639e+03  1.3799789479741651e+03  1.3799789479741480e+03  1.3799789479741773e+03  1.3799789479741789e+03  1.3799789479742019e+03  1.3799789479742333e+03  1.3799789479742367e+03  1.3799789479742365e+03  1.3799789479742476e+03  1.3799789479742412e+03  1.3799789479742351e+03  1.1507400478012680e+03  1.1507400478012598e+03  1.1507400478012801e+03  1.1507400478013064e+03  1.1507400478013019e+03  1.1507400478012823e+03  1.1507400478012901e+03  1.1507400478013074e+03  1.1507400478012960e+03  1.1507400478013014e+03  1.1507400478013319e+03  1.1507400478013574e+03  1.1507400478013510e+03  1.1507400478013271e+03  1.1507400478013176e+03  1.1507400478013133e+03  9.2108838579027679e+02  9.2108838579027713e+02  9.2108838579029100e+02  9.2108838579031703e+02  9.2108838579032852e+02  9.2108838579032511e+02  9.2108838579034250e+02  9.2108838579035557e+02  9.2108838579033852e+02  9.2108838579032715e+02  9.2108838579031590e+02  9.2108838579032624e+02  9.2108838579032624e+02  9.2108838579030328e+02  9.2108838579028986e+02  9.2108838579027770e+02  6.9110604488684623e+02  6.9110604488684817e+02  6.9110604488682395e+02  6.9110604488684248e+02  6.9110604488686465e+02  6.9110604488688637e+02  6.9110604488692763e+02  6.9110604488692991e+02  6.9110604488689580e+02  6.9110604488686647e+02  6.9110604488688455e+02  6.9110604488686874e+02  6.9110604488682691e+02  6.9110604488686477e+02  6.9110604488682691e+02  6.9110604488684999e+02  4.6087542054963302e+02  4.6087542054961978e+02  4.6087542054963262e+02  4.6087542054963569e+02  4.6087542054967167e+02  4.6087542054972221e+02  4.6087542054972681e+02  4.6087542054974176e+02  4.6087542054970493e+02  4.6087542054969248e+02  4.6087542054972408e+02  4.6087542054969236e+02  4.6087542054969015e+02  4.6087542054970231e+02  4.6087542054970464e+02  4.6087542054971254e+02  2.3047914316567355e+02  2.3047914316568364e+02  2.3047914316571513e+02  2.3047914316572636e+02  2.3047914316574517e+02  2.3047914316574955e+02  2.3047914316575552e+02  2.3047914316575645e+02  2.3047914316575583e+02  2.3047914316577288e+02  2.3047914316576455e+02  2.3047914316574790e+02  2.3047914316574528e+02  2.3047914316575302e+02  2.3047914316577842e+02  2.3047914316578874e+02  -2.4980018054066107e-14  -3.0917728787388071e-15  -1.1300484357791814e-14  -4.5796699765787884e-14  9.1180071654256975e-15  -1.1078682730317938e-14  4.7580986769649744e-15  -3.7470027081099172e-14  2.2501715381830365e-14  -2.3590471381520495e-14  2.3948477129958464e-14  -4.3845135855314001e-14  -1.2081109921981373e-15  -1.2229800505636529e-14  -3.5823707782263517e-14  4.1633363423443490e-14  4.1859658532463371e+04  4.1859658532463371e+04  4.1859658532463400e+04  4.1859658532463371e+04  4.1859658532463349e+04  4.1859658532463356e+04  4.1859658532463349e+04  4.1859658532463378e+04  4.1859658532463378e+04  4.1859658532463407e+04  4.1859658532463407e+04  4.1859658532463392e+04  4.1859658532463356e+04  4.1859658532463371e+04  4.1859658532463349e+04  4.1769002257544555e+04  4.1769002257544540e+04  4.1769002257544540e+04  4.1769002257544533e+04  4.1769002257544504e+04  4.1769002257544496e+04  4.1769002257544504e+04  4.1769002257544518e+04  4.1769002257544547e+04  4.1769002257544562e+04  4.1769002257544562e+04  4.1769002257544540e+04  4.1769002257544525e+04  4.1769002257544525e+04  4.1769002257544525e+04  4.1587626746145223e+04  4.1587626746145259e+04  4.1587626746145252e+04  4.1587626746145223e+04  4.1587626746145193e+04  4.1587626746145208e+04  4.1587626746145230e+04  4.1587626746145237e+04  4.1587626746145274e+04  4.1587626746145295e+04  4.1587626746145266e+04  4.1587626746145252e+04  4.1587626746145237e+04  4.1587626746145237e+04  4.1587626746145237e+04  4.1315412389467747e+04  4.1315412389467754e+04  4.1315412389467718e+04  4.1315412389467689e+04  4.1315412389467667e+04  4.1315412389467703e+04  4.1315412389467718e+04  4.1315412389467718e+04  4.1315412389467732e+04  4.1315412389467776e+04  4.1315412389467790e+04  4.1315412389467769e+04  4.1315412389467740e+04  4.1315412389467747e+04  4.1315412389467740e+04  4.0952195418843286e+04  4.0952195418843286e+04  4.0952195418843308e+04  4.0952195418843286e+04  4.0952195418843272e+04  4.0952195418843279e+04  4.0952195418843294e+04  4.0952195418843301e+04  4.0952195418843330e+04  4.0952195418843352e+04  4.0952195418843417e+04  4.0952195418843381e+04  4.0952195418843359e+04  4.0952195418843366e+04  4.0952195418843352e+04  4.0497786286119859e+04  4.0497786286119852e+04  4.0497786286119874e+04  4.0497786286119852e+04  4.0497786286119837e+04  4.0497786286119830e+04  4.0497786286119866e+04  4.0497786286119903e+04  4.0497786286119874e+04  4.0497786286119968e+04  4.0497786286120034e+04  4.0497786286120048e+04  4.0497786286120019e+04  4.0497786286119997e+04  4.0497786286119990e+04  3.9951993523408120e+04  3.9951993523408106e+04  3.9951993523408099e+04  