<?xml version="1.0"?>
<VTKFile type="UnstructuredGrid"  version="0.1"  >
<UnstructuredGrid>
<Piece  NumberOfPoints="431" NumberOfCells="800">
<Points>
<DataArray  type="Float64"  NumberOfComponents="3"  format="ascii">-0.75 -3 0  -0.6 -3 0  -0.45 -3 0  -0.3 -3 0  -0.15 -3 0  0 -3 0  0.15 -3 0  0.3 -3 0  0.45 -3 0  0.6000000000000001 -3 0  0.75 -3 0  -0.75 -2.85 0  -0.6 -2.85 0  -0.45 -2.85 0  -0.3 -2.85 0  -0.15 -2.85 0  0 -2.85 0  0.15 -2.85 0  0.3 -2.85 0  0.45 -2.85 0  0.6000000000000001 -2.85 0  0.75 -2.85 0  -0.75 -2.7 0  -0.6 -2.7 0  -0.45 -2.7 0  -0.3 -2.7 0  -0.15 -2.7 0  0 -2.7 0  0.15 -2.7 0  0.3 -2.7 0  0.45 -2.7 0  0.6000000000000001 -2.7 0  0.75 -2.7 0  -0.75 -2.55 0  -0.6 -2.55 0  -0.45 -2.55 0  -0.3 -2.55 0  -0.15 -2.55 0  0 -2.55 0  0.15 -2.55 0  0.3 -2.55 0  0.45 -2.55 0  0.6000000000000001 -2.55 0  0.75 -2.55 0  -0.75 -2.4 0  -0.6 -2.4 0  -0.45 -2.4 0  -0.3 -2.4 0  -0.15 -2.4 0  0 -2.4 0  0.15 -2.4 0  0.3 -2.4 0  0.45 -2.4 0  0.6000000000000001 -2.4 0  0.75 -2.4 0  -0.75 -2.25 0  -0.6 -2.25 0  -0.45 -2.25 0  -0.3 -2.25 0  -0.15 -2.25 0  0 -2.25 0  0.15 -2.25 0  0.3 -2.25 0  0.45 -2.25 0  0.6000000000000001 -2.25 0  0.75 -2.25 0  -0.75 -2.1 0  -0.6 -2.1 0  -0.45 -2.1 0  -0.3 -2.1 0  -0.15 -2.1 0  0 -2.1 0  0.15 -2.1 0  0.3 -2.1 0  0.45 -2.1 0  0.6000000000000001 -2.1 0  0.75 -2.1 0  -0.75 -1.95 0  -0.6 -1.95 0  -0.45 -1.95 0  -0.3 -1.95 0  -0.15 -1.95 0  0 -1.95 0  0.15 -1.95 0  0.3 -1.95 0  0.45 -1.95 0  0.6000000000000001 -1.95 0  0.75 -1.95 0  -0.75 -1.8 0  -0.6 -1.8 0  -0.45 -1.8 0  -0.3 -1.8 0  -0.15 -1.8 0  0 -1.8 0  0.15 -1.8 0  0.3 -1.8 0  0.45 -1.8 0  0.6000000000000001 -1.8 0  0.75 -1.8 0  -0.75 -1.65 0  -0.6 -1.65 0  -0.45 -1.65 0  -0.3 -1.65 0  -0.15 -1.65 0  0 -1.65 0  0.15 -1.65 0  0.3 -1.65 0  0.45 -1.65 0  0.6000000000000001 -1.65 0  0.75 -1.65 0  -0.75 -1.5 0  -0.6 -1.5 0  -0.45 -1.5 0  -0.3 -1.5 0  -0.15 -1.5 0  0 -1.5 0  0.15 -1.5 0  0.3 -1.5 0  0.45 -1.5 0  0.6000000000000001 -1.5 0  0.75 -1.5 0  -0.75 -1.35 0  -0.6 -1.35 0  -0.45 -1.35 0  -0.3 -1.35 0  -0.15 -1.35 0  0 -1.35 0  0.15 -1.35 0  0.3 -1.35 0  0.45 -1.35 0  0.6000000000000001 -1.35 0  0.75 -1.35 0  -0.75 -1.2 0  -0.6 -1.2 0  -0.45 -1.2 0  -0.3 -1.2 0  -0.15 -1.2 0  0 -1.2 0  0.15 -1.2 0  0.3 -1.2 0  0.45 -1.2 0  0.6000000000000001 -1.2 0  0.75 -1.2 0  -0.75 -1.05 0  -0.6 -1.05 0  -0.45 -1.05 0  -0.3 -1.05 0  -0.15 -1.05 0  0 -1.05 0  0.15 -1.05 0  0.3 -1.05 0  0.45 -1.05 0  0.6000000000000001 -1.05 0  0.75 -1.05 0  -0.75 -0.8999999999999999 0  -0.6 -0.8999999999999999 0  -0.45 -0.8999999999999999 0  -0.3 -0.8999999999999999 0  -0.15 -0.8999999999999999 0  0 -0.8999999999999999 0  0.15 -0.8999999999999999 0  0.3 -0.8999999999999999 0  0.45 -0.8999999999999999 0  0.6000000000000001 -0.8999999999999999 0  0.75 -0.8999999999999999 0  -0.75 -0.75 0  -0.6 -0.75 0  -0.45 -0.75 0  -0.3 -0.75 0  -0.15 -0.75 0  0 -0.75 0  0.15 -0.75 0  0.3 -0.75 0  0.45 -0.75 0  0.6000000000000001 -0.75 0  0.75 -0.75 0  -0.75 -0.6000000000000001 0  -0.6 -0.6000000000000001 0  -0.45 -0.6000000000000001 0  -0.3 -0.6000000000000001 0  -0.15 -0.6000000000000001 0  0 -0.6000000000000001 0  0.15 -0.6000000000000001 0  0.3 -0.6000000000000001 0  0.45 -0.6000000000000001 0  0.6000000000000001 -0.6000000000000001 0  0.75 -0.6000000000000001 0  -0.75 -0.4500000000000002 0  -0.6 -0.4500000000000002 0  -0.45 -0.4500000000000002 0  -0.3 -0.4500000000000002 0  -0.15 -0.4500000000000002 0  0 -0.4500000000000002 0  0.15 -0.4500000000000002 0  0.3 -0.4500000000000002 0  0.45 -0.4500000000000002 0  0.6000000000000001 -0.4500000000000002 0  0.75 -0.4500000000000002 0  -0.75 -0.2999999999999998 0  -0.6 -0.2999999999999998 0  -0.45 -0.2999999999999998 0  -0.3 -0.2999999999999998 0  -0.15 -0.2999999999999998 0  0 -0.2999999999999998 0  0.15 -0.2999999999999998 0  0.3 -0.2999999999999998 0  0.45 -0.2999999999999998 0  0.6000000000000001 -0.2999999999999998 0  0.75 -0.2999999999999998 0  -0.75 -0.1499999999999999 0  -0.6 -0.1499999999999999 0  -0.45 -0.1499999999999999 0  -0.3 -0.1499999999999999 0  -0.15 -0.1499999999999999 0  0 -0.1499999999999999 0  0.15 -0.1499999999999999 0  0.3 -0.1499999999999999 0  0.45 -0.1499999999999999 0  0.6000000000000001 -0.1499999999999999 0  0.75 -0.1499999999999999 0  -0.75 0 0  -0.6 0 0  -0.45 0 0  -0.3 0 0  -0.15 0 0  0 0 0  0.15 0 0  0.3 0 0  0.45 0 0  0.6000000000000001 0 0  0.75 0 0  -0.675 -2.925 0  -0.525 -2.925 0  -0.375 -2.925 0  -0.225 -2.925 0  -0.07499999999999996 -2.925 0  0.07499999999999996 -2.925 0  0.225 -2.925 0  0.375 -2.925 0  0.5249999999999999 -2.925 0  0.675 -2.925 0  -0.675 -2.775 0  -0.525 -2.775 0  -0.375 -2.775 0  -0.225 -2.775 0  -0.07499999999999996 -2.775 0  0.07499999999999996 -2.775 0  0.225 -2.775 0  0.375 -2.775 0  0.5249999999999999 -2.775 0  0.675 -2.775 0  -0.675 -2.625 0  -0.525 -2.625 0  -0.375 -2.625 0  -0.225 -2.625 0  -0.07499999999999996 -2.625 0  0.07499999999999996 -2.625 0  0.225 -2.625 0  0.375 -2.625 0  0.5249999999999999 -2.625 0  0.675 -2.625 0  -0.675 -2.475 0  -0.525 -2.475 0  -0.375 -2.475 0  -0.225 -2.475 0  -0.07499999999999996 -2.475 0  0.07499999999999996 -2.475 0  0.225 -2.475 0  0.375 -2.475 0  0.5249999999999999 -2.475 0  0.675 -2.475 0  -0.675 -2.325 0  -0.525 -2.325 0  -0.375 -2.325 0  -0.225 -2.325 0  -0.07499999999999996 -2.325 0  0.07499999999999996 -2.325 0  0.225 -2.325 0  0.375 -2.325 0  0.5249999999999999 -2.325 0  0.675 -2.325 0  -0.675 -2.175 0  -0.525 -2.175 0  -0.375 -2.175 0  -0.225 -2.175 0  -0.07499999999999996 -2.175 0  0.07499999999999996 -2.175 0  0.225 -2.175 0  0.375 -2.175 0  0.5249999999999999 -2.175 0  0.675 -2.175 0  -0.675 -2.025 0  -0.525 -2.025 0  -0.375 -2.025 0  -0.225 -2.025 0  -0.07499999999999996 -2.025 0  0.07499999999999996 -2.025 0  0.225 -2.025 0  0.375 -2.025 0  0.5249999999999999 -2.025 0  0.675 -2.025 0  -0.675 -1.875 0  -0.525 -1.875 0  -0.375 -1.875 0  -0.225 -1.875 0  -0.07499999999999996 -1.875 0  0.07499999999999996 -1.875 0  0.225 -1.875 0  0.375 -1.875 0  0.5249999999999999 -1.875 0  0.675 -1.875 0  -0.675 -1.725 0  -0.525 -1.725 0  -0.375 -1.725 0  -0.225 -1.725 0  -0.07499999999999996 -1.725 0  0.07499999999999996 -1.725 0  0.225 -1.725 0  0.375 -1.725 0  0.5249999999999999 -1.725 0  0.675 -1.725 0  -0.675 -1.575 0  -0.525 -1.575 0  -0.375 -1.575 0  -0.225 -1.575 0  -0.07499999999999996 -1.575 0  0.07499999999999996 -1.575 0  0.225 -1.575 0  0.375 -1.575 0  0.5249999999999999 -1.575 0  0.675 -1.575 0  -0.675 -1.425 0  -0.525 -1.425 0  -0.375 -1.425 0  -0.225 -1.425 0  -0.07499999999999996 -1.425 0  0.07499999999999996 -1.425 0  0.225 -1.425 0  0.375 -1.425 0  0.5249999999999999 -1.425 0  0.675 -1.425 0  -0.675 -1.275 0  -0.525 -1.275 0  -0.375 -1.275 0  -0.225 -1.275 0  -0.07499999999999996 -1.275 0  0.07499999999999996 -1.275 0  0.225 -1.275 0  0.375 -1.275 0  0.5249999999999999 -1.275 0  0.675 -1.275 0  -0.675 -1.125 0  -0.525 -1.125 0  -0.375 -1.125 0  -0.225 -1.125 0  -0.07499999999999996 -1.125 0  0.07499999999999996 -1.125 0  0.225 -1.125 0  0.375 -1.125 0  0.5249999999999999 -1.125 0  0.675 -1.125 0  -0.675 -0.9750000000000001 0  -0.525 -0.9750000000000001 0  -0.375 -0.9750000000000001 0  -0.225 -0.9750000000000001 0  -0.07499999999999996 -0.9750000000000001 0  0.07499999999999996 -0.9750000000000001 0  0.225 -0.9750000000000001 0  0.375 -0.9750000000000001 0  0.5249999999999999 -0.9750000000000001 0  0.675 -0.9750000000000001 0  -0.675 -0.8250000000000002 0  -0.525 -0.8250000000000002 0  -0.375 -0.8250000000000002 0  -0.225 -0.8250000000000002 0  -0.07499999999999996 -0.8250000000000002 0  0.07499999999999996 -0.8250000000000002 0  0.225 -0.8250000000000002 0  0.375 -0.8250000000000002 0  0.5249999999999999 -0.8250000000000002 0  0.675 -0.8250000000000002 0  -0.675 -0.6749999999999998 0  -0.525 -0.6749999999999998 0  -0.375 -0.6749999999999998 0  -0.225 -0.6749999999999998 0  -0.07499999999999996 -0.6749999999999998 0  0.07499999999999996 -0.6749999999999998 0  0.225 -0.6749999999999998 0  0.375 -0.6749999999999998 0  0.5249999999999999 -0.6749999999999998 0  0.675 -0.6749999999999998 0  -0.675 -0.5249999999999999 0  -0.525 -0.5249999999999999 0  -0.375 -0.5249999999999999 0  -0.225 -0.5249999999999999 0  -0.07499999999999996 -0.5249999999999999 0  0.07499999999999996 -0.5249999999999999 0  0.225 -0.5249999999999999 0  0.375 -0.5249999999999999 0  0.5249999999999999 -0.5249999999999999 0  0.675 -0.5249999999999999 0  -0.675 -0.375 0  -0.525 -0.375 0  -0.375 -0.375 0  -0.225 -0.375 0  -0.07499999999999996 -0.375 0  0.07499999999999996 -0.375 0  0.225 -0.375 0  0.375 -0.375 0  0.5249999999999999 -0.375 0  0.675 -0.375 0  -0.675 -0.2250000000000001 0  -0.525 -0.2250000000000001 0  -0.375 -0.2250000000000001 0  -0.225 -0.2250000000000001 0  -0.07499999999999996 -0.2250000000000001 0  0.07499999999999996 -0.2250000000000001 0  0.225 -0.2250000000000001 0  0.375 -0.2250000000000001 0  0.5249999999999999 -0.2250000000000001 0  0.675 -0.2250000000000001 0  -0.675 -0.07500000000000018 0  -0.525 -0.07500000000000018 0  -0.375 -0.07500000000000018 0  -0.225 -0.07500000000000018 0  -0.07499999999999996 -0.07500000000000018 0  0.07499999999999996 -0.07500000000000018 0  0.225 -0.07500000000000018 0  0.375 -0.07500000000000018 0  0.5249999999999999 -0.07500000000000018 0  0.675 -0.07500000000000018 0  </DataArray>
</Points>
<Cells>
[...]
<PointData  Scalars="pressure"> 
<DataArray  type="Float64"  Name="pressure"  format="ascii">4.9618203939536601e+07  4.9618203939553253e+07  4.9618203939532749e+07  4.9618203939543568e+07  4.9618203939541705e+07  4.9618203939544901e+07  4.9618203939533941e+07  4.9618203939553119e+07  4.9618203939540468e+07  4.9618203939542748e+07  4.9618203939539686e+07  4.9618203931131519e+07  4.9618203931115858e+07  4.9618203931129083e+07  4.9618203931115910e+07  4.9618203931126624e+07  4.9618203931116648e+07  4.9618203931135267e+07  4.9618203931116536e+07  4.9618203931127302e+07  4.9618203931122221e+07  4.9618203931119941e+07  4.9618203893597893e+07  4.9618203893612705e+07  4.9618203893596902e+07  4.9618203893614121e+07  4.9618203893593110e+07  4.9618203893614978e+07  4.9618203893601134e+07  4.9618203893606886e+07  4.9618203893604800e+07  4.9618203893603422e+07  4.9618203893608764e+07  4.9618203772338249e+07  4.9618203772314094e+07  4.9618203772339262e+07  4.9618203772312939e+07  4.9618203772333942e+07  4.9618203772313409e+07  4.9618203772335358e+07  4.9618203772320688e+07  4.9618203772317886e+07  4.9618203772331305e+07  4.9618203772317514e+07  4.9618203390580088e+07  4.9618203390605949e+07  4.9618203390562415e+07  4.9618203390584968e+07  4.9618203390556745e+07  4.9618203390586562e+07  4.9618203390568323e+07  4.9618203390581757e+07  4.9618203390586592e+07  4.9618203390574902e+07  4.9618203390596233e+07  4.9618202192222081e+07  4.9618202192180403e+07  4.9618202192203261e+07  4.9618202192174770e+07  4.9618202192219034e+07  4.9618202192184083e+07  4.9618202192197427e+07  4.9618202192195661e+07  4.9618202192195356e+07  4.9618202192208797e+07  4.9618202192206778e+07  4.9618198431168646e+07  4.9618198431216285e+07  4.9618198431154460e+07  4.9618198431207798e+07  4.9618198431180306e+07  4.9618198431197226e+07  4.9618198431196019e+07  4.9618198431196555e+07  4.9618198431206539e+07  4.9618198431190029e+07  4.9618198431215964e+07  4.9618186628064230e+07  4.9618186628008567e+07  4.9618186628049076e+07  4.9618186628025755e+07  4.9618186628038518e+07  4.9618186628040515e+07  4.9618186628041953e+07  4.9618186628040671e+07  4.9618186628048077e+07  4.9618186628046349e+07  4.9618186628026873e+07  4.9618149586204782e+07  4.9618149586293153e+07  4.9618149586246990e+07  4.9618149586237632e+07  4.9618149586241372e+07  4.9618149586237200e+07  4.9618149586258292e+07  4.9618149586254366e+07  4.9618149586228937e+07  4.9618149586239047e+07  4.9618149586253427e+07  4.9618033338264219e+07  4.9618033338212438e+07  4.9618033338253878e+07  4.9618033338228725e+07  4.9618033338246763e+07  4.9618033338242657e+07  4.9618033338236712e+07  4.9618033338208161e+07  4.9618033338218942e+07  4.9618033338215083e+07  4.9618033338218436e+07  4.9617668517829403e+07  4.9617668517842658e+07  4.9617668517798580e+07  4.9617668517853923e+07  4.9617668517829798e+07  4.9617668517838985e+07  4.9617668517830938e+07  4.9617668517823793e+07  4.9617668517833620e+07  4.9617668517821193e+07  4.9617668517820172e+07  4.9616523604309574e+07  4.9616523604292400e+07  4.9616523604303174e+07  4.9616523604303442e+07  4.9616523604325466e+07  4.9616523604312368e+07  4.9616523604313254e+07  4.9616523604328729e+07  4.9616523604295351e+07  4.9616523604308024e+07  4.9616523604326352e+07  4.9612930529540136e+07  4.9612930529574387e+07  4.9612930529567249e+07  4.9612930529589407e+07  4.9612930529597282e+07  4.9612930529573515e+07  4.9612930529583678e+07  4.9612930529554211e+07  4.9612930529581770e+07  4.9612930529575035e+07  4.9612930529568858e+07  4.9601654406135313e+07  4.9601654406151116e+07  4.9601654406137705e+07  4.9601654406147540e+07  4.9601654406150080e+07  4.9601654406155609e+07  4.9601654406149626e+07  4.9601654406184725e+07  4.9601654406119019e+07  4.9601654406147882e+07  4.9601654406167574e+07  4.9566266620378315e+07  4.9566266620330408e+07  4.9566266620346978e+07  4.9566266620347463e+07  4.9566266620344318e+07  4.9566266620356008e+07  4.9566266620371588e+07  4.9566266620340683e+07  4.9566266620372638e+07  4.9566266620374791e+07  4.9566266620337628e+07  4.9455209359236024e+07  4.9455209359232493e+07  4.9455209359191477e+07  4.9455209359228291e+07  4.9455209359244324e+07  4.9455209359243169e+07  4.9455209359227754e+07  4.9455209359266229e+07  4.9455209359234639e+07  4.9455209359226160e+07  4.9455209359204374e+07  4.9106679069119900e+07  4.9106679069079794e+07  4.9106679069119416e+07  4.9106679069103181e+07  4.9106679069135897e+07  4.9106679069131970e+07  4.9106679069154747e+07  4.9106679069141567e+07  4.9106679069108695e+07  4.9106679069112360e+07  4.9106679069104284e+07  4.8012888695628978e+07  4.8012888695645973e+07  4.8012888695591144e+07  4.8012888695645437e+07  4.8012888695639461e+07  4.8012888695659980e+07  4.8012888695648640e+07  4.8012888695612557e+07  4.8012888695661157e+07  4.8012888695522353e+07  4.8012888695675179e+07  4.4580253383666053e+07  4.4580253383614756e+07  4.4580253383645579e+07  4.4580253383690976e+07  4.4580253383662507e+07  4.4580253383678019e+07  4.4580253383671746e+07  4.4580253383656740e+07  4.4580253383596458e+07  4.4580253383675188e+07  4.4580253383581519e+07  3.3807636005877078e+07  3.3807636005868688e+07  3.3807636005866438e+07  3.3807636005863249e+07  3.3807636005887739e+07  3.3807636005874522e+07  3.3807636005892202e+07  3.3807636005868919e+07  3.3807636005870365e+07  3.3807636005805083e+07  3.3807636005844526e+07  -2.9103830456733679e-09  -2.1171432835468192e-08  -2.9062145282902422e-08  -1.3062076288319759e-08  -4.8506384094556135e-10  -1.4129649831115127e-08  -1.2702609334761887e-08  -2.9426484529505511e-08  -9.0646305276701793e-09  -1.8182314912943765e-08  -2.3283064365386960e-08  4.9618203980210140e+07  4.9618203980212867e+07  4.9618203980218232e+07  4.9618203980214879e+07  4.9618203980211623e+07  4.9618203980215698e+07  4.9618203980207816e+07  4.9618203980211847e+07  4.9618203980211280e+07  4.9618203980218142e+07  4.9618204022655189e+07  4.9618204022655070e+07  4.9618204022655584e+07  4.9618204022656187e+07  4.9618204022658125e+07  4.9618204022646308e+07  4.9618204022653639e+07  4.9618204022654667e+07  4.9618204022655182e+07  4.9618204022656113e+07  4.9618204169368692e+07  4.9618204169367552e+07  4.9618204169368908e+07  4.9618204169372141e+07  4.9618204169370875e+07  4.9618204169370398e+07  4.9618204169368684e+07  4.9618204169375330e+07  4.9618204169371247e+07  4.9618204169371620e+07  4.9618204634107679e+07  4.9618204634114407e+07  4.9618204634125620e+07  4.9618204634129353e+07  4.9618204634131156e+07  4.9618204634120807e+07  4.9618204634120755e+07  4.9618204634124577e+07  4.9618204634123564e+07  4.9618204634117261e+07  4.9618206094003253e+07  4.9618206094027288e+07  4.9618206094029590e+07  4.9618206094033308e+07  4.9618206094028883e+07  4.9618206094033197e+07  4.9618206094030403e+07  4.9618206094016857e+07  4.9618206094017178e+07  4.9618206094002269e+07  4.9618210676053070e+07  4.9618210676057167e+07  4.9618210676077858e+07  4.9618210676045798e+07  4.9618210676048510e+07  4.9618210676055826e+07  4.9618210676046796e+07  4.9618210676053621e+07  4.9618210676042698e+07  4.9618210676040225e+07  4.9618225055964537e+07  4.9618225055987716e+07  4.9618225055969074e+07  4.9618225055967107e+07  4.9618225055965580e+07  4.9618225055953026e+07  4.9618225055958994e+07  4.9618225055945389e+07  4.9618225055947050e+07  4.9618225055953614e+07  4.9618270184377365e+07  4.9618270184360601e+07  4.9618270184377499e+07  4.9618270184390947e+07  4.9618270184380569e+07  4.9618270184376165e+07  4.9618270184358746e+07  4.9618270184381299e+07  4.9618270184374407e+07  4.9618270184379444e+07  4.9618411810600139e+07  4.9618411810583316e+07  4.9618411810620479e+07  4.9618411810613051e+07  4.9618411810615674e+07  4.9618411810604326e+07  4.9618411810620569e+07  4.9618411810621746e+07  4.9618411810650386e+07  4.9618411810618639e+07  4.9618856275293693e+07  4.9618856275315940e+07  4.9618856275297426e+07  4.9618856275299251e+07  4.9618856275290944e+07  4.9618856275303937e+07  4.9618856275314406e+07  4.9618856275336266e+07  4.9618856275311507e+07  4.9618856275342204e+07  4.9620251136031196e+07  4.9620251136063635e+07  4.9620251136058412e+07  4.9620251136016712e+07  4.9620251136028938e+07  4.9620251136023492e+07  4.9620251136042692e+07  4.9620251136023760e+07  4.9620251136054665e+07  4.9620251136029601e+07  4.9624628618490010e+07  4.9624628618471161e+07  4.9624628618441753e+07  4.9624628618429177e+07  4.9624628618424214e+07  4.9624628618447535e+07  4.9624628618431471e+07  4.9624628618477866e+07  4.9624628618451990e+07  4.9624628618447766e+07  4.9638366443504609e+07  4.9638366443488196e+07  4.9638366443478942e+07  4.9638366443463750e+07  4.9638366443470515e+07  4.9638366443471886e+07  4.9638366443475969e+07  4.9638366443481058e+07  4.9638366443497211e+07  4.9638366443475701e+07  4.9681479771649539e+07  4.9681479771654174e+07  4.9681479771678351e+07  4.9681479771655105e+07  4.9681479771643817e+07  4.9681479771632478e+07  4.9681479771622226e+07  4.9681479771644346e+07  4.9681479771648362e+07  4.9681479771637738e+07  4.9816782052809909e+07  4.9816782052868515e+07  4.9816782052829094e+07  4.9816782052827545e+07  4.9816782052832693e+07  4.9816782052814916e+07  4.9816782052815899e+07  4.9816782052791215e+07  4.9816782052805044e+07  4.9816782052820101e+07  5.0241400333796702e+07  5.0241400333792567e+07  5.0241400333815902e+07  5.0241400333764240e+07  5.0241400333732516e+07  5.0241400333746701e+07  5.0241400333720602e+07  5.0241400333763026e+07  5.0241400333778977e+07  5.0241400333815277e+07  5.1573977160859331e+07  5.1573977160877690e+07  5.1573977160872377e+07  5.1573977160833634e+07  5.1573977160814099e+07  5.1573977160797693e+07  5.1573977160819702e+07  5.1573977160827376e+07  5.1573977160893224e+07  5.1573977160881221e+07  5.5755994468165889e+07  5.5755994468185171e+07  5.5755994468162984e+07  5.5755994468121089e+07  5.5755994468121752e+07  5.5755994468115419e+07  5.5755994468159303e+07  5.5755994468173087e+07  5.5755994468203336e+07  5.5755994468213536e+07  6.8880392554283485e+07  6.8880392554341435e+07  6.8880392554255337e+07  6.8880392554275230e+07  6.8880392554271936e+07  6.8880392554274231e+07  6.8880392554259166e+07  6.8880392554314330e+07  6.8880392554345384e+07  6.8880392554354489e+07  1.1006860686949140e+08  1.1006860686948454e+08  1.1006860686950070e+08  1.1006860686949298e+08  1.1006860686948910e+08  1.1006860686949173e+08  1.1006860686949706e+08  1.1006860686950444e+08  1.1006860686953676e+08  1.1006860686956234e+08  </DataArray> 
</PointData> 
</Piece>
</UnstructuredGrid>
</VTKFile>