<?xml version="1.0"?>
<VTKFile type="UnstructuredGrid"  version="0.1"  >
<UnstructuredGrid>
<Piece  NumberOfPoints="1876" NumberOfCells="3600">
<Points>
<DataArray  type="Float64"  NumberOfComponents="3"  format="ascii">-0.75 -3 0  -0.65 -3 0  -0.55 -3 0  -0.45 -3 0  -0.35 -3 0  -0.25 -3 0  -0.15 -3 0  -0.05000000000000004 -3 0  0.05000000000000004 -3 0  0.15 -3 0  0.25 -3 0  0.3500000000000001 -3 0  0.45 -3 0  0.55 -3 0  0.6499999999999999 -3 0  0.75 -3 0  -0.75 -2.95 0  -0.65 -2.95 0  -0.55 -2.95 0  -0.45 -2.95 0  -0.35 -2.95 0  -0.25 -2.95 0  -0.15 -2.95 0  -0.05000000000000004 -2.95 0  0.05000000000000004 -2.95 0  0.15 -2.95 0  0.25 -2.95 0  0.3500000000000001 -2.95 0  0.45 -2.95 0  0.55 -2.95 0  0.6499999999999999 -2.95 0  0.75 -2.95 0  -0.75 -2.9 0  -0.65 -2.9 0  -0.55 -2.9 0  -0.45 -2.9 0  -0.35 -2.9 0  -0.25 -2.9 0  -0.15 -2.9 0  -0.05000000000000004 -2.9 0  0.05000000000000004 -2.9 0  0.15 -2.9 0  0.25 -2.9 0  0.3500000000000001 -2.9 0  0.45 -2.9 0  0.55 -2.9 0  0.6499999999999999 -2.9 0  0.75 -2.9 0  -0.75 -2.85 0  -0.65 -2.85 0  -0.55 -2.85 0  -0.45 -2.85 0  -0.35 -2.85 0  -0.25 -2.85 0  -0.15 -2.85 0  -0.05000000000000004 -2.85 0  0.05000000000000004 -2.85 0  0.15 -2.85 0  0.25 -2.85 0  0.3500000000000001 -2.85 0  0.45 -2.85 0  0.55 -2.85 0  0.6499999999999999 -2.85 0  0.75 -2.85 0  -0.75 -2.8 0  -0.65 -2.8 0  -0.55 -2.8 0  -0.45 -2.8 0  -0.35 -2.8 0  -0.25 -2.8 0  -0.15 -2.8 0  -0.05000000000000004 -2.8 0  0.05000000000000004 -2.8 0  0.15 -2.8 0  0.25 -2.8 0  0.3500000000000001 -2.8 0  0.45 -2.8 0  0.55 -2.8 0  0.6499999999999999 -2.8 0  0.75 -2.8 0  -0.75 -2.75 0  -0.65 -2.75 0  -0.55 -2.75 0  -0.45 -2.75 0  -0.35 -2.75 0  -0.25 -2.75 0  -0.15 -2.75 0  -0.05000000000000004 -2.75 0  0.05000000000000004 -2.75 0  0.15 -2.75 0  0.25 -2.75 0  0.3500000000000001 -2.75 0  0.45 -2.75 0  0.55 -2.75 0  0.6499999999999999 -2.75 0  0.75 -2.75 0  -0.75 -2.7 0  -0.65 -2.7 0  -0.55 -2.7 0  -0.45 -2.7 0  -0.35 -2.7 0  -0.25 -2.7 0  -0.15 -2.7 0  -0.05000000000000004 -2.7 0  0.05000000000000004 -2.7 0  0.15 -2.7 0  0.25 -2.7 0  0.3500000000000001 -2.7 0  0.45 -2.7 0  0.55 -2.7 0  0.6499999999999999 -2.7 0  0.75 -2.7 0  -0.75 -2.65 0  -0.65 -2.65 0  -0.55 -2.65 0  -0.45 -2.65 0  -0.35 -2.65 0  -0.25 -2.65 0  -0.15 -2.65 0  -0.05000000000000004 -2.65 0  0.05000000000000004 -2.65 0  0.15 -2.65 0  0.25 -2.65 0  0.3500000000000001 -2.65 0  0.45 -2.65 0  0.55 -2.65 0  0.6499999999999999 -2.65 0  0.75 -2.65 0  -0.75 -2.6 0  -0.65 -2.6 0  -0.55 -2.6 0  -0.45 -2.6 0  -0.35 -2.6 0  -0.25 -2.6 0  -0.15 -2.6 0  -0.05000000000000004 -2.6 0  0.05000000000000004 -2.6 0  0.15 -2.6 0  0.25 -2.6 0  0.3500000000000001 -2.6 0  0.45 -2.6 0  0.55 -2.6 0  0.6499999999999999 -2.6 0  0.75 -2.6 0  -0.75 -2.55 0  -0.65 -2.55 0  -0.55 -2.55 0  -0.45 -2.55 0  -0.35 -2.55 0  -0.25 -2.55 0  -0.15 -2.55 0  -0.05000000000000004 -2.55 0  0.05000000000000004 -2.55 0  0.15 -2.55 0  0.25 -2.55 0  0.3500000000000001 -2.55 0  0.45 -2.55 0  0.55 -2.55 0  0.6499999999999999 -2.55 0  0.75 -2.55 0  -0.75 -2.5 0  -0.65 -2.5 0  -0.55 -2.5 0  -0.45 -2.5 0  -0.35 -2.5 0  -0.25 -2.5 0  -0.15 -2.5 0  -0.05000000000000004 -2.5 0  0.05000000000000004 -2.5 0  0.15 -2.5 0  0.25 -2.5 0  0.3500000000000001 -2.5 0  0.45 -2.5 0  0.55 -2.5 0  0.6499999999999999 -2.5 0  0.75 -2.5 0  -0.75 -2.45 0  -0.65 -2.45 0  -0.55 -2.45 0  -0.45 -2.45 0  -0.35 -2.45 0  -0.25 -2.45 0  -0.15 -2.45 0  -0.05000000000000004 -2.45 0  0.05000000000000004 -2.45 0  0.15 -2.45 0  0.25 -2.45 0  0.3500000000000001 -2.45 0  0.45 -2.45 0  0.55 -2.45 0  0.6499999999999999 -2.45 0  0.75 -2.45 0  -0.75 -2.4 0  -0.65 -2.4 0  -0.55 -2.4 0  -0.45 -2.4 0  -0.35 -2.4 0  -0.25 -2.4 0  -0.15 -2.4 0  -0.05000000000000004 -2.4 0  0.05000000000000004 -2.4 0  0.15 -2.4 0  0.25 -2.4 0  0.3500000000000001 -2.4 0  0.45 -2.4 0  0.55 -2.4 0  0.6499999999999999 -2.4 0  0.75 -2.4 0  -0.75 -2.35 0  -0.65 -2.35 0  -0.55 -2.35 0  -0.45 -2.35 0  -0.35 -2.35 0  -0.25 -2.35 0  -0.15 -2.35 0  -0.05000000000000004 -2.35 0  0.05000000000000004 -2.35 0  0.15 -2.35 0  0.25 -2.35 0  0.3500000000000001 -2.35 0  0.45 -2.35 0  0.55 -2.35 0  0.6499999999999999 -2.35 0  0.75 -2.35 0  -0.75 -2.3 0  -0.65 -2.3 0  -0.55 -2.3 0  -0.45 -2.3 0  -0.35 -2.3 0  -0.25 -2.3 0  -0.15 -2.3 0  -0.05000000000000004 -2.3 0  0.05000000000000004 -2.3 0  0.15 -2.3 0  0.25 -2.3 0  0.3500000000000001 -2.3 0  0.45 -2.3 0  0.55 -2.3 0  0.6499999999999999 -2.3 0  0.75 -2.3 0  -0.75 -2.25 0  -0.65 -2.25 0  -0.55 -2.25 0  -0.45 -2.25 0  -0.35 -2.25 0  -0.25 -2.25 0  -0.15 -2.25 0  -0.05000000000000004 -2.25 0  0.05000000000000004 -2.25 0  0.15 -2.25 0  0.25 -2.25 0  0.3500000000000001 -2.25 0  0.45 -2.25 0  0.55 -2.25 0  0.6499999999999999 -2.25 0  0.75 -2.25 0  -0.75 -2.2 0  -0.65 -2.2 0  -0.55 -2.2 0  -0.45 -2.2 0  -0.35 -2.2 0  -0.25 -2.2 0  -0.15 -2.2 0  -0.05000000000000004 -2.2 0  0.05000000000000004 -2.2 0  0.15 -2.2 0  0.25 -2.2 0  0.3500000000000001 -2.2 0  0.45 -2.2 0  0.55 -2.2 0  0.6499999999999999 -2.2 0  0.75 -2.2 0  -0.75 -2.15 0  -0.65 -2.15 0  -0.55 -2.15 0  -0.45 -2.15 0  -0.35 -2.15 0  -0.25 -2.15 0  -0.15 -2.15 0  -0.05000000000000004 -2.15 0  0.05000000000000004 -2.15 0  0.15 -2.15 0  0.25 -2.15 0  0.3500000000000001 -2.15 0  0.45 -2.15 0  0.55 -2.15 0  0.6499999999999999 -2.15 0  0.75 -2.15 0  -0.75 -2.1 0  -0.65 -2.1 0  -0.55 -2.1 0  -0.45 -2.1 0  -0.35 -2.1 0  -0.25 -2.1 0  -0.15 -2.1 0  -0.05000000000000004 -2.1 0  0.05000000000000004 -2.1 0  0.15 -2.1 0  0.25 -2.1 0  0.3500000000000001 -2.1 0  0.45 -2.1 0  0.55 -2.1 0  0.6499999999999999 -2.1 0  0.75 -2.1 0  -0.75 -2.05 0  -0.65 -2.05 0  -0.55 -2.05 0  -0.45 -2.05 0  -0.35 -2.05 0  -0.25 -2.05 0  -0.15 -2.05 0  -0.05000000000000004 -2.05 0  0.05000000000000004 -2.05 0  0.15 -2.05 0  0.25 -2.05 0  0.3500000000000001 -2.05 0  0.45 -2.05 0  0.55 -2.05 0  0.6499999999999999 -2.05 0  0.75 -2.05 0  -0.75 -2 0  -0.65 -2 0  -0.55 -2 0  -0.45 -2 0  -0.35 -2 0  -0.25 -2 0  -0.15 -2 0  -0.05000000000000004 -2 0  0.05000000000000004 -2 0  0.15 -2 0  0.25 -2 0  0.3500000000000001 -2 0  0.45 -2 0  0.55 -2 0  0.6499999999999999 -2 0  0.75 -2 0  -0.75 -1.95 0  -0.65 -1.95 0  -0.55 -1.95 0  -0.45 -1.95 0  -0.35 -1.95 0  -0.25 -1.95 0  -0.15 -1.95 0  -0.05000000000000004 -1.95 0  0.05000000000000004 -1.95 0  0.15 -1.95 0  0.25 -1.95 0  0.3500000000000001 -1.95 0  0.45 -1.95 0  0.55 -1.95 0  0.6499999999999999 -1.95 0  0.75 -1.95 0  -0.75 -1.9 0  -0.65 -1.9 0  -0.55 -1.9 0  -0.45 -1.9 0  -0.35 -1.9 0  -0.25 -1.9 0  -0.15 -1.9 0  -0.05000000000000004 -1.9 0  0.05000000000000004 -1.9 0  0.15 -1.9 0  0.25 -1.9 0  0.3500000000000001 -1.9 0  0.45 -1.9 0  0.55 -1.9 0  0.6499999999999999 -1.9 0  0.75 -1.9 0  -0.75 -1.85 0  -0.65 -1.85 0  -0.55 -1.85 0  -0.45 -1.85 0  -0.35 -1.85 0  -0.25 -1.85 0  -0.15 -1.85 0  -0.05000000000000004 -1.85 0  0.05000000000000004 -1.85 0  0.15 -1.85 0  0.25 -1.85 0  0.3500000000000001 -1.85 0  0.45 -1.85 0  0.55 -1.85 0  0.6499999999999999 -1.85 0  0.75 -1.85 0  -0.75 -1.8 0  -0.65 -1.8 0  -0.55 -1.8 0  -0.45 -1.8 0  -0.35 -1.8 0  -0.25 -1.8 0  -0.15 -1.8 0  -0.05000000000000004 -1.8 0  0.05000000000000004 -1.8 0  0.15 -1.8 0  0.25 -1.8 0  0.3500000000000001 -1.8 0  0.45 -1.8 0  0.55 -1.8 0  0.6499999999999999 -1.8 0  0.75 -1.8 0  -0.75 -1.75 0  -0.65 -1.75 0  -0.55 -1.75 0  -0.45 -1.75 0  -0.35 -1.75 0  -0.25 -1.75 0  -0.15 -1.75 0  -0.05000000000000004 -1.75 0  0.05000000000000004 -1.75 0  0.15 -1.75 0  0.25 -1.75 0  0.3500000000000001 -1.75 0  0.45 -1.75 0  0.55 -1.75 0  0.6499999999999999 -1.75 0  0.75 -1.75 0  -0.75 -1.7 0  -0.65 -1.7 0  -0.55 -1.7 0  -0.45 -1.7 0  -0.35 -1.7 0  -0.25 -1.7 0  -0.15 -1.7 0  -0.05000000000000004 -1.7 0  0.05000000000000004 -1.7 0  0.15 -1.7 0  0.25 -1.7 0  0.3500000000000001 -1.7 0  0.45 -1.7 0  0.55 -1.7 0  0.6499999999999999 -1.7 0  0.75 -1.7 0  -0.75 -1.65 0  -0.65 -1.65 0  -0.55 -1.65 0  -0.45 -1.65 0  -0.35 -1.65 0  -0.25 -1.65 0  -0.15 -1.65 0  -0.05000000000000004 -1.65 0  0.05000000000000004 -1.65 0  0.15 -1.65 0  0.25 -1.65 0  0.3500000000000001 -1.65 0  0.45 -1.65 0  0.55 -1.65 0  0.6499999999999999 -1.65 0  0.75 -1.65 0  -0.75 -1.6 0  -0.65 -1.6 0  -0.55 -1.6 0  -0.45 -1.6 0  -0.35 -1.6 0  -0.25 -1.6 0  -0.15 -1.6 0  -0.05000000000000004 -1.6 0  0.05000000000000004 -1.6 0  0.15 -1.6 0  0.25 -1.6 0  0.3500000000000001 -1.6 0  0.45 -1.6 0  0.55 -1.6 0  0.6499999999999999 -1.6 0  0.75 -1.6 0  -0.75 -1.55 0  -0.65 -1.55 0  -0.55 -1.55 0  -0.45 -1.55 0  -0.35 -1.55 0  -0.25 -1.55 0  -0.15 -1.55 0  -0.05000000000000004 -1.55 0  0.05000000000000004 -1.55 0  0.15 -1.55 0  0.25 -1.55 0  0.3500000000000001 -1.55 0  0.45 -1.55 0  0.55 -1.55 0  0.6499999999999999 -1.55 0  0.75 -1.55 0  -0.75 -1.5 0  -0.65 -1.5 0  -0.55 -1.5 0  -0.45 -1.5 0  -0.35 -1.5 0  -0.25 -1.5 0  -0.15 -1.5 0  -0.05000000000000004 -1.5 0  0.05000000000000004 -1.5 0  0.15 -1.5 0  0.25 -1.5 0  0.3500000000000001 -1.5 0  0.45 -1.5 0  0.55 -1.5 0  0.6499999999999999 -1.5 0  0.75 -1.5 0  -0.75 -1.45 0  -0.65 -1.45 0  -0.55 -1.45 0  -0.45 -1.45 0  -0.35 -1.45 0  -0.25 -1.45 0  -0.15 -1.45 0  -0.05000000000000004 -1.45 0  0.05000000000000004 -1.45 0  0.15 -1.45 0  0.25 -1.45 0  0.3500000000000001 -1.45 0  0.45 -1.45 0  0.55 -1.45 0  0.6499999999999999 -1.45 0  0.75 -1.45 0  -0.75 -1.4 0  -0.65 -1.4 0  -0.55 -1.4 0  -0.45 -1.4 0  -0.35 -1.4 0  -0.25 -1.4 0  -0.15 -1.4 0  -0.05000000000000004 -1.4 0  0.05000000000000004 -1.4 0  0.15 -1.4 0  0.25 -1.4 0  0.3500000000000001 -1.4 0  0.45 -1.4 0  0.55 -1.4 0  0.6499999999999999 -1.4 0  0.75 -1.4 0  -0.75 -1.35 0  -0.65 -1.35 0  -0.55 -1.35 0  -0.45 -1.35 0  -0.35 -1.35 0  -0.25 -1.35 0  -0.15 -1.35 0  -0.05000000000000004 -1.35 0  0.05000000000000004 -1.35 0  0.15 -1.35 0  0.25 -1.35 0  0.3500000000000001 -1.35 0  0.45 -1.35 0  0.55 -1.35 0  0.6499999999999999 -1.35 0  0.75 -1.35 0  -0.75 -1.3 0  -0.65 -1.3 0  -0.55 -1.3 0  -0.45 -1.3 0  -0.35 -1.3 0  -0.25 -1.3 0  -0.15 -1.3 0  -0.05000000000000004 -1.3 0  0.05000000000000004 -1.3 0  0.15 -1.3 0  0.25 -1.3 0  0.3500000000000001 -1.3 0  0.45 -1.3 0  0.55 -1.3 0  0.6499999999999999 -1.
[...]
<PointData  Scalars="pressure"> 
<DataArray  type="Float64"  Name="pressure"  format="ascii">2.0242914979754807e+06  2.0242914979754749e+06  2.0242914979754665e+06  2.0242914979754733e+06  2.0242914979754817e+06  2.0242914979754789e+06  2.0242914979754607e+06  2.0242914979754209e+06  2.0242914979754465e+06  2.0242914979754456e+06  2.0242914979754284e+06  2.0242914979753261e+06  2.0242914979754584e+06  2.0242914979754332e+06  2.0242914979754020e+06  2.0242914979754058e+06  2.0242914979754912e+06  2.0242914979754544e+06  2.0242914979754831e+06  2.0242914979754367e+06  2.0242914979754395e+06  2.0242914979754700e+06  2.0242914979754249e+06  2.0242914979754584e+06  2.0242914979754270e+06  2.0242914979754249e+06  2.0242914979754235e+06  2.0242914979754188e+06  2.0242914979754484e+06  2.0242914979753969e+06  2.0242914979754230e+06  2.0242914979753734e+06  2.0242914979754172e+06  2.0242914979754840e+06  2.0242914979754759e+06  2.0242914979754412e+06  2.0242914979753972e+06  2.0242914979754225e+06  2.0242914979754901e+06  2.0242914979753632e+06  2.0242914979753161e+06  2.0242914979753979e+06  2.0242914979754249e+06  2.0242914979753052e+06  2.0242914979753124e+06  2.0242914979753790e+06  2.0242914979753704e+06  2.0242914979754335e+06  2.0242914979754519e+06  2.0242914979754430e+06  2.0242914979754677e+06  2.0242914979754782e+06  2.0242914979754598e+06  2.0242914979754533e+06  2.0242914979753878e+06  2.0242914979754894e+06  2.0242914979754169e+06  2.0242914979753420e+06  2.0242914979753681e+06  2.0242914979754051e+06  2.0242914979754132e+06  2.0242914979753341e+06  2.0242914979754661e+06  2.0242914979753972e+06  2.0242914979756223e+06  2.0242914979754386e+06  2.0242914979754458e+06  2.0242914979754458e+06  2.0242914979755122e+06  2.0242914979754176e+06  2.0242914979755417e+06  2.0242914979753490e+06  2.0242914979754221e+06  2.0242914979754863e+06  2.0242914979753897e+06  2.0242914979754009e+06  2.0242914979753583e+06  2.0242914979753967e+06  2.0242914979754358e+06  2.0242914979754032e+06  2.0242914979753972e+06  2.0242914979755110e+06  2.0242914979754449e+06  2.0242914979755050e+06  2.0242914979753413e+06  2.0242914979754479e+06  2.0242914979754339e+06  2.0242914979754614e+06  2.0242914979753662e+06  2.0242914979752863e+06  2.0242914979753697e+06  2.0242914979754153e+06  2.0242914979753813e+06  2.0242914979753518e+06  2.0242914979754097e+06  2.0242914979755608e+06  2.0242914979753869e+06  2.0242914979753052e+06  2.0242914979754663e+06  2.0242914979755317e+06  2.0242914979755252e+06  2.0242914979753678e+06  2.0242914979756791e+06  2.0242914979755082e+06  2.0242914979753844e+06  2.0242914979755625e+06  2.0242914979754314e+06  2.0242914979752116e+06  2.0242914979754118e+06  2.0242914979754824e+06  2.0242914979754391e+06  2.0242914979755462e+06  2.0242914979751792e+06  2.0242914979755611e+06  2.0242914979753594e+06  2.0242914979753813e+06  2.0242914979753790e+06  2.0242914979753776e+06  2.0242914979755408e+06  2.0242914979753776e+06  2.0242914979754274e+06  2.0242914979754679e+06  2.0242914979754833e+06  2.0242914979752889e+06  2.0242914979753064e+06  2.0242914979753492e+06  2.0242914979754786e+06  2.0242914979754444e+06  2.0242914979758065e+06  2.0242914979754197e+06  2.0242914979756670e+06  2.0242914979754891e+06  2.0242914979754053e+06  2.0242914979754160e+06  2.0242914979753729e+06  2.0242914979757136e+06  2.0242914979753471e+06  2.0242914979752521e+06  2.0242914979754563e+06  2.0242914979753364e+06  2.0242914979755403e+06  2.0242914979752239e+06  2.0242914979752484e+06  2.0242914979753757e+06  2.0242914979758363e+06  2.0242914979753823e+06  2.0242914979755853e+06  2.0242914979754521e+06  2.0242914979755150e+06  2.0242914979754272e+06  2.0242914979755515e+06  2.0242914979753573e+06  2.0242914979756058e+06  2.0242914979754072e+06  2.0242914979754342e+06  2.0242914979757504e+06  2.0242914979753718e+06  2.0242914979752726e+06  2.0242914979754840e+06  2.0242914979755252e+06  2.0242914979754372e+06  2.0242914979755960e+06  2.0242914979754726e+06  2.0242914979754079e+06  2.0242914979753208e+06  2.0242914979754798e+06  2.0242914979753881e+06  2.0242914979756158e+06  2.0242914979752931e+06  2.0242914979754747e+06  2.0242914979754626e+06  2.0242914979756472e+06  2.0242914979753422e+06  2.0242914979753066e+06  2.0242914979757878e+06  2.0242914979754912e+06  2.0242914979753252e+06  2.0242914979753627e+06  2.0242914979757911e+06  2.0242914979753757e+06  2.0242914979753534e+06  2.0242914979752018e+06  2.0242914979754535e+06  2.0242914979752924e+06  2.0242914979754270e+06  2.0242914979752516e+06  2.0242914979756891e+06  2.0242914979751960e+06  2.0242914979755422e+06  2.0242914979754237e+06  2.0242914979750721e+06  2.0242914979757345e+06  2.0242914979750849e+06  2.0242914979757282e+06  2.0242914979756563e+06  2.0242914979756097e+06  2.0242914979754318e+06  2.0242914979750274e+06  2.0242914979759222e+06  2.0242914979752377e+06  2.0242914979749359e+06  2.0242914979759096e+06  2.0242914979753282e+06  2.0242914979757557e+06  2.0242914979753457e+06  2.0242914979751091e+06  2.0242914979755431e+06  2.0242914979755983e+06  2.0242914979754738e+06  2.0242914979753247e+06  2.0242914979754505e+06  2.0242914979753322e+06  2.0242914979753129e+06  2.0242914979756724e+06  2.0242914979751429e+06  2.0242914979756488e+06  2.0242914979756284e+06  2.0242914979752053e+06  2.0242914979754786e+06  2.0242914979749934e+06  2.0242914979756961e+06  2.0242914979751948e+06  2.0242914979753518e+06  2.0242914979754291e+06  2.0242914979757273e+06  2.0242914979752817e+06  2.0242914979758170e+06  2.0242914979758423e+06  2.0242914979763317e+06  2.0242914979756172e+06  2.0242914979761706e+06  2.0242914979751806e+06  2.0242914979757974e+06  2.0242914979753275e+06  2.0242914979751669e+06  2.0242914979758873e+06  2.0242914979753473e+06  2.0242914979758759e+06  2.0242914979755848e+06  2.0242914979754607e+06  2.0242914979752351e+06  2.0242914979759546e+06  2.0242914979752635e+06  2.0242914979753222e+06  2.0242914979752521e+06  2.0242914979751792e+06  2.0242914979751501e+06  2.0242914979755841e+06  2.0242914979751289e+06  2.0242914979753562e+06  2.0242914979753040e+06  2.0242914979751795e+06  2.0242914979752405e+06  2.0242914979749219e+06  2.0242914979756128e+06  2.0242914979752889e+06  2.0242914979751674e+06  2.0242914979751611e+06  2.0242914979757073e+06  2.0242914979755343e+06  2.0242914979750603e+06  2.0242914979756996e+06  2.0242914979762812e+06  2.0242914979755874e+06  2.0242914979754055e+06  2.0242914979753399e+06  2.0242914979757580e+06  2.0242914979749713e+06  2.0242914979757390e+06  2.0242914979754840e+06  2.0242914979751417e+06  2.0242914979759397e+06  2.0242914979751592e+06  2.0242914979757823e+06  2.0242914979753662e+06  2.0242914979755890e+06  2.0242914979756337e+06  2.0242914979751054e+06  2.0242914979753145e+06  2.0242914979750926e+06  2.0242914979752260e+06  2.0242914979754062e+06  2.0242914979753976e+06  2.0242914979757292e+06  2.0242914979750323e+06  2.0242914979749103e+06  2.0242914979758216e+06  2.0242914979760253e+06  2.0242914979758393e+06  2.0242914979755811e+06  2.0242914979753036e+06  2.0242914979749271e+06  2.0242914979751837e+06  2.0242914979755292e+06  2.0242914979754293e+06  2.0242914979761038e+06  2.0242914979755972e+06  2.0242914979746244e+06  2.0242914979756980e+06  2.0242914979750987e+06  2.0242914979755979e+06  2.0242914979753662e+06  2.0242914979758679e+06  2.0242914979753299e+06  2.0242914979758679e+06  2.0242914979757918e+06  2.0242914979758472e+06  2.0242914979757280e+06  2.0242914979753580e+06  2.0242914979749022e+06  2.0242914979756305e+06  2.0242914979759846e+06  2.0242914979759154e+06  2.0242914979760679e+06  2.0242914979751781e+06  2.0242914979753334e+06  2.0242914979751310e+06  2.0242914979757385e+06  2.0242914979753322e+06  2.0242914979756058e+06  2.0242914979753883e+06  2.0242914979758263e+06  2.0242914979750740e+06  2.0242914979756810e+06  2.0242914979759634e+06  2.0242914979759541e+06  2.0242914979754211e+06  2.0242914979753494e+06  2.0242914979753185e+06  2.0242914979749124e+06  2.0242914979755215e+06  2.0242914979751755e+06  2.0242914979756407e+06  2.0242914979747240e+06  2.0242914979754912e+06  2.0242914979756726e+06  2.0242914979756875e+06  2.0242914979757285e+06  2.0242914979762260e+06  2.0242914979757161e+06  2.0242914979751497e+06  2.0242914979756083e+06  2.0242914979757599e+06  2.0242914979760910e+06  2.0242914979755536e+06  2.0242914979745885e+06  2.0242914979754195e+06  2.0242914979753012e+06  2.0242914979746698e+06  2.0242914979750095e+06  2.0242914979754011e+06  2.0242914979763613e+06  2.0242914979760870e+06  2.0242914979752440e+06  2.0242914979769122e+06  2.0242914979762877e+06  2.0242914979745185e+06  2.0242914979749161e+06  2.0242914979760998e+06  2.0242914979740449e+06  2.0242914979755583e+06  2.0242914979760647e+06  2.0242914979757285e+06  2.0242914979752544e+06  2.0242914979751294e+06  2.0242914979757841e+06  2.0242914979758437e+06  2.0242914979749639e+06  2.0242914979752507e+06  2.0242914979767760e+06  2.0242914979756856e+06  2.0242914979754251e+06  2.0242914979756507e+06  2.0242914979756526e+06  2.0242914979765592e+06  2.0242914979759762e+06  2.0242914979751206e+06  2.0242914979746868e+06  2.0242914979755755e+06  2.0242914979754300e+06  2.0242914979755022e+06  2.0242914979754256e+06  2.0242914979752079e+06  2.0242914979759606e+06  2.0242914979751094e+06  2.0242914979751296e+06  2.0242914979756416e+06  2.0242914979741937e+06  2.0242914979754286e+06  2.0242914979761657e+06  2.0242914979758565e+06  2.0242914979755250e+06  2.0242914979755187e+06  2.0242914979757450e+06  2.0242914979755597e+06  2.0242914979756186e+06  2.0242914979756421e+06  2.0242914979751133e+06  2.0242914979754472e+06  2.0242914979749061e+06  2.0242914979751711e+06  2.0242914979760046e+06  2.0242914979753785e+06  2.0242914979759117e+06  2.0242914979753506e+06  2.0242914979751776e+06  2.0242914979752339e+06  2.0242914979749899e+06  2.0242914979750977e+06  2.0242914979746409e+06  2.0242914979759045e+06  2.0242914979751725e+06  2.0242914979757525e+06  2.0242914979750291e+06  2.0242914979746353e+06  2.0242914979752551e+06  2.0242914979766302e+06  2.0242914979750495e+06  2.0242914979752940e+06  2.0242914979768349e+06  2.0242914979761492e+06  2.0242914979746710e+06  2.0242914979763250e+06  2.0242914979754477e+06  2.0242914979762142e+06  2.0242914979760339e+06  2.0242914979752675e+06  2.0242914979757206e+06  2.0242914979753767e+06  2.0242914979755762e+06  2.0242914979760270e+06  2.0242914979755974e+06  2.0242914979754644e+06  2.0242914979762628e+06  2.0242914979762982e+06  2.0242914979760062e+06  2.0242914979744887e+06  2.0242914979757143e+06  2.0242914979760011e+06  2.0242914979757953e+06  2.0242914979754891e+06  2.0242914979755506e+06  2.0242914979753417e+06  2.0242914979754139e+06  2.0242914979747429e+06  2.0242914979757618e+06  2.0242914979744926e+06  2.0242914979750700e+06  2.0242914979755625e+06  2.0242914979756773e+06  2.0242914979754258e+06  2.0242914979748828e+06  2.0242914979755927e+06  2.0242914979760554e+06  2.0242914979754309e+06  2.0242914979751457e+06  2.0242914979752137e+06  2.0242914979747273e+06  2.0242914979753583e+06  2.0242914979758039e+06  2.0242914979752484e+06  2.0242914979753557e+06  2.0242914979754547e+06  2.0242914979758055e+06  2.0242914979752663e+06  2.0242914979758756e+06  2.0242914979759906e+06  2.0242914979748460e+06  2.0242914979753171e+06  2.0242914979754523e+06  2.0242914979759988e+06  2.0242914979759543e+06  2.0242914979756756e+06  2.0242914979755892e+06  2.0242914979750658e+06  2.0242914979752172e+06  2.0242914979747836e+06  2.0242914979749124e+06  2.0242914979755916e+06  2.0242914979746062e+06  2.0242914979755736e+06  2.0242914979770617e+06  2.0242914979757688e+06  2.0242914979757543e+06  2.0242914979756204e+06  2.0242914979753471e+06  2.0242914979756521e+06  2.0242914979752982e+06  2.0242914979742027e+06  2.0242914979761343e+06  2.0242914979752100e+06  2.0242914979761115e+06  2.0242914979758735e+06  2.0242914979753960e+06  2.0242914979752998e+06  2.0242914979753227e+06  2.0242914979763490e+06  2.0242914979756204e+06  2.0242914979764805e+06  2.0242914979761171e+06  2.0242914979751557e+06  2.0242914979755646e+06  2.0242914979758067e+06  2.0242914979761399e+06  2.0242914979763329e+06  2.0242914979751522e+06  2.0242914979757422e+06  2.0242914979746067e+06  2.0242914979746281e+06  2.0242914979752607e+06  2.0242914979753122e+06  2.0242914979766742e+06  2.0242914979760423e+06  2.0242914979754391e+06  2.0242914979761976e+06  2.0242914979758637e+06  2.0242914979747243e+06  2.0242914979754442e+06  2.0242914979764298e+06  2.0242914979749792e+06  2.0242914979750784e+06  2.0242914979754018e+06  2.0242914979756935e+06  2.0242914979749848e+06  2.0242914979753280e+06  2.0242914979755317e+06  2.0242914979755362e+06  2.0242914979751236e+06  2.0242914979758267e+06  2.0242914979762132e+06  2.0242914979751860e+06  2.0242914979756740e+06  2.0242914979757192e+06  2.0242914979763872e+06  2.0242914979758421e+06  2.0242914979750679e+06  2.0242914979748197e+06  2.0242914979740784e+06  2.0242914979757112e+06  2.0242914979752058e+06  2.0242914979765217e+06  2.0242914979758889e+06  2.0242914979765350e+06  2.0242914979748544e+06  2.0242914979751797e+06  2.0242914979758379e+06  2.0242914979755303e+06  2.0242914979745233e+06  2.0242914979758949e+06  2.0242914979756724e+06  2.0242914979769229e+06  2.0242914979767634e+06  2.0242914979751210e+06  2.0242914979751022e+06  2.0242914979755655e+06  2.0242914979768947e+06  2.0242914979747520e+06  2.0242914979748840e+06  2.0242914979760284e+06  2.0242914979748630e+06  2.0242914979744295e+06  2.0242914979763103e+06  2.0242914979764118e+06  2.0242914979755906e+06  2.0242914979753068e+06  2.0242914979751671e+06  2.0242914979757611e+06  2.0242914979754568e+06  2.0242914979752065e+06  2.0242914979755550e+06  2.0242914979758868e+06  2.0242914979751350e+06  2.0242914979760253e+06  2.0242914979749741e+06  2.0242914979753802e+06  2.0242914979747981e+06  2.0242914979771054e+06  2.0242914979757506e+06  2.0242914979765855e+06  2.0242914979763860e+06  2.0242914979752551e+06  2.0242914979755797e+06  2.0242914979765275e+06  2.0242914979759338e+06  2.0242914979757143e+06  2.0242914979750959e+06  2.0242914979748800e+06  2.0242914979753862e+06  2.0242914979748318e+06  2.0242914979753830e+06  2.0242914979755366e+06  2.0242914979757736e+06  2.0242914979758484e+06  2.0242914979757511e+06  2.0242914979766486e+06  2.0242914979766181e+06  2.0242914979745746e+06  2.0242914979757580e+06  2.0242914979769625e+06  2.0242914979749916e+06  2.0242914979756980e+06  2.0242914979753227e+06  2.0242914979749364e+06  2.0242914979746724e+06  2.0242914979745937e+06  2.0242914979761362e+06  2.0242914979743867e+06  2.0242914979749003e+06  2.0242914979756442e+06  2.0242914979770607e+06  2.0242914979747373e+06  2.0242914979760628e+06  2.0242914979763054e+06  2.0242914979741573e+06  2.0242914979750966e+06  2.0242914979764479e+06  2.0242914979751995e+06  2.0242914979758107e+06  2.0242914979758915e+06  2.0242914979757136e+06  2.0242914979754454e+06  2.0242914979748540e+06  2.0242914979760421e+06  2.0242914979759189e+06  2.0242914979752703e+06  2.0242914979754454e+06  2.0242914979753506e+06  2.0242914979740605e+06  2.0242914979748128e+06  2.0242914979769939e+06  2.0242914979756426e+06  2.0242914979759601e+06  2.0242914979755403e+06  2.0242914979748554e+06  2.0242914979750151e+06  2.0242914979755685e+06  2.0242914979755091e+06  2.0242914979751897e+06  2.0242914979752405e+06  2.0242914979744013e+06  2.0242914979745627e+06  2.0242914979758332e+06  2.0242914979754111e+06  2.0242914979767571e+06  2.0242914979747394e+06  2.0242914979746712e+06  2.0242914979756568e+06  2.0242914979746637e+06  2.0242914979751294e+06  2.0242914979750994e+06  2.0242914979757136e+06  2.0242914979753001e+06  2.0242914979746595e+06  2.0242914979763008e+06  2.0242914979755436e+06  2.0242914979740917e+06  2.0242914979757234e+06  2.0242914979760356e+06  2.0242914979759715e+06  2.0242914979743198e+06  2.0242914979758582e+06  2.0242914979754621e+06  2.0242914979755576e+06  2.0242914979770500e+06  2.0242914979753965e+06  2.0242914979753995e+06  2.0242914979745022e+06  2.0242914979742351e+06  2.0242914979780267e+06  2.0242914979748128e+06  2.0242914979755261e+06  2.0242914979769890e+06  2.0242914979741869e+06  2.0242914979748384e+06  2.0242914979750786e+06  2.0242914979757254e+06  2.0242914979755161e+06  2.0242914979758742e+06  2.0242914979751729e+06  2.0242914979745580e+06  2.0242914979751825e+06  2.0242914979755708e+06  2.0242914979757867e+06  2.0242914979764358e+06  2.0242914979744842e+06  2.0242914979755150e+06  2.0242914979761415e+06  2.0242914979750703e+06  2.0242914979762349e+06  2.0242914979758791e+06  2.0242914979754824e+06  2.0242914979760610e+06  2.0242914979754146e+06  2.0242914979755678e+06  2.0242914979754614e+06  2.0242914979764991e+06  2.0242914979757715e+06  2.0242914979749124e+06  2.0242914979758442e+06  2.0242914979755534e+06  2.0242914979764754e+06  2.0242914979746134e+06  2.0242914979755913e+06  2.0242914979762596e+06  2.0242914979767036e+06  2.0242914979752321e+06  2.0242914979771662e+06  2.0242914979761266e+06  2.0242914979774849e+06  2.0242914979752779e+06  2.0242914979772931e+06  2.0242914979751953e+06  2.0242914979753792e+06  2.0242914979757660e+06  2.0242914979748754e+06  2.0242914979765103e+06  2.0242914979748707e+06  2.0242914979760798e+06  2.0242914979751464e+06  2.0242914979766631e+06  2.0242914979746467e+06  2.0242914979762435e+06  2.0242914979759865e+06  2.0242914979762479e+06  2.0242914979750034e+06  2.0242914979760523e+06  2.0242914979754833e+06  2.0242914979765266e+06  2.0242914979751797e+06  2.0242914979754244e+06  2.0242914979758840e+06  2.0242914979761839e+06  2.0242914979750388e+06  2.0242914979748537e+06  2.0242914979768160e+06  2.0242914979746682e+06  2.0242914979759196e+06  2.0242914979747464e+06  2.0242914979738197e+06  2.0242914979757960e+06  2.0242914979758689e+06  2.0242914979761946e+06  2.0242914979768307e+06  2.0242914979761732e+06  2.0242914979740491e+06  2.0242914979759385e+06  2.0242914979759736e+06  2.0242914979751636e+06  2.0242914979765280e+06  2.0242914979744155e+06  2.0242914979755576e+06  2.0242914979770284e+06  2.0242914979742274e+06  2.0242914979760840e+06  2.0242914979752628e+06  2.0242914979752076e+06  2.0242914979754875e+06  2.0242914979754679e+06  2.0242914979770526e+06  2.0242914979749299e+06  2.0242914979753047e+06  2.0242914979756884e+06  2.0242914979750928e+06  2.0242914979738640e+06  2.0242914979741934e+06  2.0242914979745436e+06  2.0242914979762151e+06  2.0242914979756945e+06  2.0242914979765743e+06  2.0242914979755196e+06  2.0242914979771753e+06  2.0242914979762367e+06  2.0242914979752896e+06  2.0242914979757201e+06  2.0242914979752104e+06  2.0242914979785371e+06  2.0242914979762831e+06  2.0242914979755727e+06  2.0242914979765448e+06  2.0242914979759764e+06  2.0242914979762563e+06  2.0242914979750409e+06  2.0242914979757778e+06  2.0242914979764437e+06  2.0242914979770780e+06  2.0242914979749534e+06  2.0242914979754458e+06  2.0242914979750740e+06  2.0242914979753508e+06  2.0242914979767886e+06  2.0242914979757583e+06  2.0242914979744181e+06  2.0242914979758821e+06  2.0242914979741080e+06  2.0242914979747373e+06  2.0242914979762861e+06  2.0242914979746917e+06  2.0242914979762610e+06  2.0242914979767248e+06  2.0242914979750668e+06  2.0242914979764859e+06  2.0242914979768891e+06  2.0242914979750284e+06  2.0242914979762731e+06  2.0242914979760540e+06  2.0242914979747955e+06  2.0242914979756190e+06  2.0242914979773362e+06  2.0242914979757192e+06  2.0242914979758719e+06  2.0242914979766265e+06  2.0242914979758635e+06  2.0242914979757264e+06  2.0242914979748661e+06  2.0242914979773581e+06  2.0242914979749345e+06  2.0242914979750908e+06  2.0242914979755129e+06  2.0242914979762898e+06  2.0242914979745834e+06  2.0242914979749648e+06  2.0242914979753245e+06  2.0242914979766614e+06  2.0242914979761112e+06  2.0242914979759655e+06  2.0242914979753660e+06  2.0242914979756679e+06  2.0242914979741559e+06  2.0242914979758444e+06  2.024291497