<?xml version="1.0"?>
<VTKFile type="UnstructuredGrid"  version="0.1"  >
<UnstructuredGrid>
<Piece  NumberOfPoints="1411" NumberOfCells="2700">
<Points>
<DataArray  type="Float64"  NumberOfComponents="3"  format="ascii">-0.75 -4.5 0  -0.65 -4.5 0  -0.55 -4.5 0  -0.45 -4.5 0  -0.35 -4.5 0  -0.25 -4.5 0  -0.15 -4.5 0  -0.05000000000000004 -4.5 0  0.05000000000000004 -4.5 0  0.15 -4.5 0  0.25 -4.5 0  0.3500000000000001 -4.5 0  0.45 -4.5 0  0.55 -4.5 0  0.6499999999999999 -4.5 0  0.75 -4.5 0  -0.75 -4.4 0  -0.65 -4.4 0  -0.55 -4.4 0  -0.45 -4.4 0  -0.35 -4.4 0  -0.25 -4.4 0  -0.15 -4.4 0  -0.05000000000000004 -4.4 0  0.05000000000000004 -4.4 0  0.15 -4.4 0  0.25 -4.4 0  0.3500000000000001 -4.4 0  0.45 -4.4 0  0.55 -4.4 0  0.6499999999999999 -4.4 0  0.75 -4.4 0  -0.75 -4.3 0  -0.65 -4.3 0  -0.55 -4.3 0  -0.45 -4.3 0  -0.35 -4.3 0  -0.25 -4.3 0  -0.15 -4.3 0  -0.05000000000000004 -4.3 0  0.05000000000000004 -4.3 0  0.15 -4.3 0  0.25 -4.3 0  0.3500000000000001 -4.3 0  0.45 -4.3 0  0.55 -4.3 0  0.6499999999999999 -4.3 0  0.75 -4.3 0  -0.75 -4.2 0  -0.65 -4.2 0  -0.55 -4.2 0  -0.45 -4.2 0  -0.35 -4.2 0  -0.25 -4.2 0  -0.15 -4.2 0  -0.05000000000000004 -4.2 0  0.05000000000000004 -4.2 0  0.15 -4.2 0  0.25 -4.2 0  0.3500000000000001 -4.2 0  0.45 -4.2 0  0.55 -4.2 0  0.6499999999999999 -4.2 0  0.75 -4.2 0  -0.75 -4.1 0  -0.65 -4.1 0  -0.55 -4.1 0  -0.45 -4.1 0  -0.35 -4.1 0  -0.25 -4.1 0  -0.15 -4.1 0  -0.05000000000000004 -4.1 0  0.05000000000000004 -4.1 0  0.15 -4.1 0  0.25 -4.1 0  0.3500000000000001 -4.1 0  0.45 -4.1 0  0.55 -4.1 0  0.6499999999999999 -4.1 0  0.75 -4.1 0  -0.75 -4 0  -0.65 -4 0  -0.55 -4 0  -0.45 -4 0  -0.35 -4 0  -0.25 -4 0  -0.15 -4 0  -0.05000000000000004 -4 0  0.05000000000000004 -4 0  0.15 -4 0  0.25 -4 0  0.3500000000000001 -4 0  0.45 -4 0  0.55 -4 0  0.6499999999999999 -4 0  0.75 -4 0  -0.75 -3.9 0  -0.65 -3.9 0  -0.55 -3.9 0  -0.45 -3.9 0  -0.35 -3.9 0  -0.25 -3.9 0  -0.15 -3.9 0  -0.05000000000000004 -3.9 0  0.05000000000000004 -3.9 0  0.15 -3.9 0  0.25 -3.9 0  0.3500000000000001 -3.9 0  0.45 -3.9 0  0.55 -3.9 0  0.6499999999999999 -3.9 0  0.75 -3.9 0  -0.75 -3.8 0  -0.65 -3.8 0  -0.55 -3.8 0  -0.45 -3.8 0  -0.35 -3.8 0  -0.25 -3.8 0  -0.15 -3.8 0  -0.05000000000000004 -3.8 0  0.05000000000000004 -3.8 0  0.15 -3.8 0  0.25 -3.8 0  0.3500000000000001 -3.8 0  0.45 -3.8 0  0.55 -3.8 0  0.6499999999999999 -3.8 0  0.75 -3.8 0  -0.75 -3.7 0  -0.65 -3.7 0  -0.55 -3.7 0  -0.45 -3.7 0  -0.35 -3.7 0  -0.25 -3.7 0  -0.15 -3.7 0  -0.05000000000000004 -3.7 0  0.05000000000000004 -3.7 0  0.15 -3.7 0  0.25 -3.7 0  0.3500000000000001 -3.7 0  0.45 -3.7 0  0.55 -3.7 0  0.6499999999999999 -3.7 0  0.75 -3.7 0  -0.75 -3.6 0  -0.65 -3.6 0  -0.55 -3.6 0  -0.45 -3.6 0  -0.35 -3.6 0  -0.25 -3.6 0  -0.15 -3.6 0  -0.05000000000000004 -3.6 0  0.05000000000000004 -3.6 0  0.15 -3.6 0  0.25 -3.6 0  0.3500000000000001 -3.6 0  0.45 -3.6 0  0.55 -3.6 0  0.6499999999999999 -3.6 0  0.75 -3.6 0  -0.75 -3.5 0  -0.65 -3.5 0  -0.55 -3.5 0  -0.45 -3.5 0  -0.35 -3.5 0  -0.25 -3.5 0  -0.15 -3.5 0  -0.05000000000000004 -3.5 0  0.05000000000000004 -3.5 0  0.15 -3.5 0  0.25 -3.5 0  0.3500000000000001 -3.5 0  0.45 -3.5 0  0.55 -3.5 0  0.6499999999999999 -3.5 0  0.75 -3.5 0  -0.75 -3.4 0  -0.65 -3.4 0  -0.55 -3.4 0  -0.45 -3.4 0  -0.35 -3.4 0  -0.25 -3.4 0  -0.15 -3.4 0  -0.05000000000000004 -3.4 0  0.05000000000000004 -3.4 0  0.15 -3.4 0  0.25 -3.4 0  0.3500000000000001 -3.4 0  0.45 -3.4 0  0.55 -3.4 0  0.6499999999999999 -3.4 0  0.75 -3.4 0  -0.75 -3.3 0  -0.65 -3.3 0  -0.55 -3.3 0  -0.45 -3.3 0  -0.35 -3.3 0  -0.25 -3.3 0  -0.15 -3.3 0  -0.05000000000000004 -3.3 0  0.05000000000000004 -3.3 0  0.15 -3.3 0  0.25 -3.3 0  0.3500000000000001 -3.3 0  0.45 -3.3 0  0.55 -3.3 0  0.6499999999999999 -3.3 0  0.75 -3.3 0  -0.75 -3.2 0  -0.65 -3.2 0  -0.55 -3.2 0  -0.45 -3.2 0  -0.35 -3.2 0  -0.25 -3.2 0  -0.15 -3.2 0  -0.05000000000000004 -3.2 0  0.05000000000000004 -3.2 0  0.15 -3.2 0  0.25 -3.2 0  0.3500000000000001 -3.2 0  0.45 -3.2 0  0.55 -3.2 0  0.6499999999999999 -3.2 0  0.75 -3.2 0  -0.75 -3.1 0  -0.65 -3.1 0  -0.55 -3.1 0  -0.45 -3.1 0  -0.35 -3.1 0  -0.25 -3.1 0  -0.15 -3.1 0  -0.05000000000000004 -3.1 0  0.05000000000000004 -3.1 0  0.15 -3.1 0  0.25 -3.1 0  0.3500000000000001 -3.1 0  0.45 -3.1 0  0.55 -3.1 0  0.6499999999999999 -3.1 0  0.75 -3.1 0  -0.75 -3 0  -0.65 -3 0  -0.55 -3 0  -0.45 -3 0  -0.35 -3 0  -0.25 -3 0  -0.15 -3 0  -0.05000000000000004 -3 0  0.05000000000000004 -3 0  0.15 -3 0  0.25 -3 0  0.3500000000000001 -3 0  0.45 -3 0  0.55 -3 0  0.6499999999999999 -3 0  0.75 -3 0  -0.75 -2.9 0  -0.65 -2.9 0  -0.55 -2.9 0  -0.45 -2.9 0  -0.35 -2.9 0  -0.25 -2.9 0  -0.15 -2.9 0  -0.05000000000000004 -2.9 0  0.05000000000000004 -2.9 0  0.15 -2.9 0  0.25 -2.9 0  0.3500000000000001 -2.9 0  0.45 -2.9 0  0.55 -2.9 0  0.6499999999999999 -2.9 0  0.75 -2.9 0  -0.75 -2.8 0  -0.65 -2.8 0  -0.55 -2.8 0  -0.45 -2.8 0  -0.35 -2.8 0  -0.25 -2.8 0  -0.15 -2.8 0  -0.05000000000000004 -2.8 0  0.05000000000000004 -2.8 0  0.15 -2.8 0  0.25 -2.8 0  0.3500000000000001 -2.8 0  0.45 -2.8 0  0.55 -2.8 0  0.6499999999999999 -2.8 0  0.75 -2.8 0  -0.75 -2.7 0  -0.65 -2.7 0  -0.55 -2.7 0  -0.45 -2.7 0  -0.35 -2.7 0  -0.25 -2.7 0  -0.15 -2.7 0  -0.05000000000000004 -2.7 0  0.05000000000000004 -2.7 0  0.15 -2.7 0  0.25 -2.7 0  0.3500000000000001 -2.7 0  0.45 -2.7 0  0.55 -2.7 0  0.6499999999999999 -2.7 0  0.75 -2.7 0  -0.75 -2.6 0  -0.65 -2.6 0  -0.55 -2.6 0  -0.45 -2.6 0  -0.35 -2.6 0  -0.25 -2.6 0  -0.15 -2.6 0  -0.05000000000000004 -2.6 0  0.05000000000000004 -2.6 0  0.15 -2.6 0  0.25 -2.6 0  0.3500000000000001 -2.6 0  0.45 -2.6 0  0.55 -2.6 0  0.6499999999999999 -2.6 0  0.75 -2.6 0  -0.75 -2.5 0  -0.65 -2.5 0  -0.55 -2.5 0  -0.45 -2.5 0  -0.35 -2.5 0  -0.25 -2.5 0  -0.15 -2.5 0  -0.05000000000000004 -2.5 0  0.05000000000000004 -2.5 0  0.15 -2.5 0  0.25 -2.5 0  0.3500000000000001 -2.5 0  0.45 -2.5 0  0.55 -2.5 0  0.6499999999999999 -2.5 0  0.75 -2.5 0  -0.75 -2.4 0  -0.65 -2.4 0  -0.55 -2.4 0  -0.45 -2.4 0  -0.35 -2.4 0  -0.25 -2.4 0  -0.15 -2.4 0  -0.05000000000000004 -2.4 0  0.05000000000000004 -2.4 0  0.15 -2.4 0  0.25 -2.4 0  0.3500000000000001 -2.4 0  0.45 -2.4 0  0.55 -2.4 0  0.6499999999999999 -2.4 0  0.75 -2.4 0  -0.75 -2.3 0  -0.65 -2.3 0  -0.55 -2.3 0  -0.45 -2.3 0  -0.35 -2.3 0  -0.25 -2.3 0  -0.15 -2.3 0  -0.05000000000000004 -2.3 0  0.05000000000000004 -2.3 0  0.15 -2.3 0  0.25 -2.3 0  0.3500000000000001 -2.3 0  0.45 -2.3 0  0.55 -2.3 0  0.6499999999999999 -2.3 0  0.75 -2.3 0  -0.75 -2.2 0  -0.65 -2.2 0  -0.55 -2.2 0  -0.45 -2.2 0  -0.35 -2.2 0  -0.25 -2.2 0  -0.15 -2.2 0  -0.05000000000000004 -2.2 0  0.05000000000000004 -2.2 0  0.15 -2.2 0  0.25 -2.2 0  0.3500000000000001 -2.2 0  0.45 -2.2 0  0.55 -2.2 0  0.6499999999999999 -2.2 0  0.75 -2.2 0  -0.75 -2.1 0  -0.65 -2.1 0  -0.55 -2.1 0  -0.45 -2.1 0  -0.35 -2.1 0  -0.25 -2.1 0  -0.15 -2.1 0  -0.05000000000000004 -2.1 0  0.05000000000000004 -2.1 0  0.15 -2.1 0  0.25 -2.1 0  0.3500000000000001 -2.1 0  0.45 -2.1 0  0.55 -2.1 0  0.6499999999999999 -2.1 0  0.75 -2.1 0  -0.75 -2 0  -0.65 -2 0  -0.55 -2 0  -0.45 -2 0  -0.35 -2 0  -0.25 -2 0  -0.15 -2 0  -0.05000000000000004 -2 0  0.05000000000000004 -2 0  0.15 -2 0  0.25 -2 0  0.3500000000000001 -2 0  0.45 -2 0  0.55 -2 0  0.6499999999999999 -2 0  0.75 -2 0  -0.75 -1.9 0  -0.65 -1.9 0  -0.55 -1.9 0  -0.45 -1.9 0  -0.35 -1.9 0  -0.25 -1.9 0  -0.15 -1.9 0  -0.05000000000000004 -1.9 0  0.05000000000000004 -1.9 0  0.15 -1.9 0  0.25 -1.9 0  0.3500000000000001 -1.9 0  0.45 -1.9 0  0.55 -1.9 0  0.6499999999999999 -1.9 0  0.75 -1.9 0  -0.75 -1.8 0  -0.65 -1.8 0  -0.55 -1.8 0  -0.45 -1.8 0  -0.35 -1.8 0  -0.25 -1.8 0  -0.15 -1.8 0  -0.05000000000000004 -1.8 0  0.05000000000000004 -1.8 0  0.15 -1.8 0  0.25 -1.8 0  0.3500000000000001 -1.8 0  0.45 -1.8 0  0.55 -1.8 0  0.6499999999999999 -1.8 0  0.75 -1.8 0  -0.75 -1.7 0  -0.65 -1.7 0  -0.55 -1.7 0  -0.45 -1.7 0  -0.35 -1.7 0  -0.25 -1.7 0  -0.15 -1.7 0  -0.05000000000000004 -1.7 0  0.05000000000000004 -1.7 0  0.15 -1.7 0  0.25 -1.7 0  0.3500000000000001 -1.7 0  0.45 -1.7 0  0.55 -1.7 0  0.6499999999999999 -1.7 0  0.75 -1.7 0  -0.75 -1.6 0  -0.65 -1.6 0  -0.55 -1.6 0  -0.45 -1.6 0  -0.35 -1.6 0  -0.25 -1.6 0  -0.15 -1.6 0  -0.05000000000000004 -1.6 0  0.05000000000000004 -1.6 0  0.15 -1.6 0  0.25 -1.6 0  0.3500000000000001 -1.6 0  0.45 -1.6 0  0.55 -1.6 0  0.6499999999999999 -1.6 0  0.75 -1.6 0  -0.75 -1.5 0  -0.65 -1.5 0  -0.55 -1.5 0  -0.45 -1.5 0  -0.35 -1.5 0  -0.25 -1.5 0  -0.15 -1.5 0  -0.05000000000000004 -1.5 0  0.05000000000000004 -1.5 0  0.15 -1.5 0  0.25 -1.5 0  0.3500000000000001 -1.5 0  0.45 -1.5 0  0.55 -1.5 0  0.6499999999999999 -1.5 0  0.75 -1.5 0  -0.75 -1.4 0  -0.65 -1.4 0  -0.55 -1.4 0  -0.45 -1.4 0  -0.35 -1.4 0  -0.25 -1.4 0  -0.15 -1.4 0  -0.05000000000000004 -1.4 0  0.05000000000000004 -1.4 0  0.15 -1.4 0  0.25 -1.4 0  0.3500000000000001 -1.4 0  0.45 -1.4 0  0.55 -1.4 0  0.6499999999999999 -1.4 0  0.75 -1.4 0  -0.75 -1.3 0  -0.65 -1.3 0  -0.55 -1.3 0  -0.45 -1.3 0  -0.35 -1.3 0  -0.25 -1.3 0  -0.15 -1.3 0  -0.05000000000000004 -1.3 0  0.05000000000000004 -1.3 0  0.15 -1.3 0  0.25 -1.3 0  0.3500000000000001 -1.3 0  0.45 -1.3 0  0.55 -1.3 0  0.6499999999999999 -1.3 0  0.75 -1.3 0  -0.75 -1.2 0  -0.65 -1.2 0  -0.55 -1.2 0  -0.45 -1.2 0  -0.35 -1.2 0  -0.25 -1.2 0  -0.15 -1.2 0  -0.05000000000000004 -1.2 0  0.05000000000000004 -1.2 0  0.15 -1.2 0  0.25 -1.2 0  0.3500000000000001 -1.2 0  0.45 -1.2 0  0.55 -1.2 0  0.6499999999999999 -1.2 0  0.75 -1.2 0  -0.75 -1.1 0  -0.65 -1.1 0  -0.55 -1.1 0  -0.45 -1.1 0  -0.35 -1.1 0  -0.25 -1.1 0  -0.15 -1.1 0  -0.05000000000000004 -1.1 0  0.05000000000000004 -1.1 0  0.15 -1.1 0  0.25 -1.1 0  0.3500000000000001 -1.1 0  0.45 -1.1 0  0.55 -1.1 0  0.6499999999999999 -1.1 0  0.75 -1.1 0  -0.75 -1 0  -0.65 -1 0  -0.55 -1 0  -0.45 -1 0  -0.35 -1 0  -0.25 -1 0  -0.15 -1 0  -0.05000000000000004 -1 0  0.05000000000000004 -1 0  0.15 -1 0  0.25 -1 0  0.3500000000000001 -1 0  0.45 -1 0  0.55 -1 0  0.6499999999999999 -1 0  0.75 -1 0  -0.75 -0.8999999999999999 0  -0.65 -0.899999
[...]
<PointData  Vectors="displacement"> 
<DataArray  type="Float64"  Name="displacement"  NumberOfComponents="3" format="ascii">-1.1461069920517306e-35 -1.9852334701272721e-21 0.0000000000000000e+00  6.9915004271249732e-36 4.0367277879920286e-21 0.0000000000000000e+00  -3.1738347472201870e-35 -3.4741585727227283e-21 0.0000000000000000e+00  -1.1781346213368338e-35 1.2700453576956804e-20 0.0000000000000000e+00  -6.3476694944403729e-35 -4.9630836753181820e-22 0.0000000000000000e+00  -1.1962444137327658e-36 6.9353657995143541e-23 0.0000000000000000e+00  -7.0529661049337507e-35 -5.9557004103818203e-21 0.0000000000000000e+00  -2.3207141626415722e-34 1.3454609651057886e-20 0.0000000000000000e+00  8.4635593259204979e-35 -9.4298589831045456e-21 0.0000000000000000e+00  8.4644655505491464e-35 3.9442257245934522e-21 0.0000000000000000e+00  -4.9370762734536204e-35 -1.9852334701272717e-21 0.0000000000000000e+00  1.7580757795745516e-36 -5.0907958382523997e-21 0.0000000000000000e+00  -3.1738347472201864e-35 0.0000000000000000e+00 0.0000000000000000e+00  -2.5346596939605644e-35 1.2407709188295450e-22 0.0000000000000000e+00  -7.0529661049337544e-36 -5.9557004103818241e-21 0.0000000000000000e+00  0.0000000000000000e+00 5.9557004103818143e-21 0.0000000000000000e+00  1.7632415262334248e-35 -5.5973765283705866e-05 0.0000000000000000e+00  -1.0168730342356897e-19 -5.5973765283705934e-05 0.0000000000000000e+00  -2.0212870531566509e-19 -5.5973765283705900e-05 0.0000000000000000e+00  -2.7956337132445823e-19 -5.5973765283705941e-05 0.0000000000000000e+00  -3.3485319796103211e-19 -5.5973765283705920e-05 0.0000000000000000e+00  -4.3692002479393583e-19 -5.5973765283705920e-05 0.0000000000000000e+00  -5.2313149134840815e-19 -5.5973765283705968e-05 0.0000000000000000e+00  -5.7263144625847939e-19 -5.5973765283706056e-05 0.0000000000000000e+00  -5.6141787359942897e-19 -5.5973765283705995e-05 0.0000000000000000e+00  -5.2047632520095077e-19 -5.5973765283706069e-05 0.0000000000000000e+00  -4.8206614866322849e-19 -5.5973765283706103e-05 0.0000000000000000e+00  -4.5394777063260819e-19 -5.5973765283706225e-05 0.0000000000000000e+00  -4.1561993868925107e-19 -5.5973765283706429e-05 0.0000000000000000e+00  -3.3591804301436885e-19 -5.5973765283706544e-05 0.0000000000000000e+00  -1.9218871368056662e-19 -5.5973765283706618e-05 0.0000000000000000e+00  1.9660545442710552e-35 -5.5973765283706672e-05 0.0000000000000000e+00  -1.7632415262334326e-35 -1.1199298187637118e-04 0.0000000000000000e+00  -1.7326299060741067e-19 -1.1199298187637121e-04 0.0000000000000000e+00  -3.3063380594677796e-19 -1.1199298187637122e-04 0.0000000000000000e+00  -4.7999815639824666e-19 -1.1199298187637135e-04 0.0000000000000000e+00  -6.7706663867416352e-19 -1.1199298187637121e-04 0.0000000000000000e+00  -8.1164755851195083e-19 -1.1199298187637121e-04 0.0000000000000000e+00  -9.7104879657547871e-19 -1.1199298187637137e-04 0.0000000000000000e+00  -1.1236482217424990e-18 -1.1199298187637144e-04 0.0000000000000000e+00  -1.1350493874648011e-18 -1.1199298187637153e-04 0.0000000000000000e+00  -1.0812105493317044e-18 -1.1199298187637158e-04 0.0000000000000000e+00  -9.1118040168325148e-19 -1.1199298187637168e-04 0.0000000000000000e+00  -7.8491167549916106e-19 -1.1199298187637202e-04 0.0000000000000000e+00  -7.0638885617292863e-19 -1.1199298187637232e-04 0.0000000000000000e+00  -5.4049970831657220e-19 -1.1199298187637263e-04 0.0000000000000000e+00  -2.8111036231202305e-19 -1.1199298187637301e-04 0.0000000000000000e+00  2.0621660662276937e-35 -1.1199298187637280e-04 0.0000000000000000e+00  -1.1681475111296491e-35 -1.6810298828898203e-04 0.0000000000000000e+00  -2.5174515838733011e-19 -1.6810298828898214e-04 0.0000000000000000e+00  -4.5270728694765917e-19 -1.6810298828898241e-04 0.0000000000000000e+00  -6.8249964389261251e-19 -1.6810298828898201e-04 0.0000000000000000e+00  -9.4817468133637285e-19 -1.6810298828898233e-04 0.0000000000000000e+00  -1.1972117999143217e-18 -1.6810298828898222e-04 0.0000000000000000e+00  -1.3185905177753932e-18 -1.6810298828898233e-04 0.0000000000000000e+00  -1.4071906019291868e-18 -1.6810298828898258e-04 0.0000000000000000e+00  -1.5080554217505363e-18 -1.6810298828898258e-04 0.0000000000000000e+00  -1.4281070545272388e-18 -1.6810298828898277e-04 0.0000000000000000e+00  -1.2750367138793781e-18 -1.6810298828898298e-04 0.0000000000000000e+00  -1.1303346142376472e-18 -1.6810298828898353e-04 0.0000000000000000e+00  -9.2687254668349722e-19 -1.6810298828898390e-04 0.0000000000000000e+00  -6.5092210966405917e-19 -1.6810298828898442e-04 0.0000000000000000e+00  -3.7236257401086060e-19 -1.6810298828898474e-04 0.0000000000000000e+00  6.4232369884217879e-35 -1.6810298828898480e-04 0.0000000000000000e+00  3.5264830524668498e-36 -2.2434889771619264e-04 0.0000000000000000e+00  -2.7102335836363740e-19 -2.2434889771619275e-04 0.0000000000000000e+00  -6.0183890383908909e-19 -2.2434889771619283e-04 0.0000000000000000e+00  -8.6400005158425100e-19 -2.2434889771619275e-04 0.0000000000000000e+00  -1.1435584729236441e-18 -2.2434889771619291e-04 0.0000000000000000e+00  -1.3780993600285996e-18 -2.2434889771619308e-04 0.0000000000000000e+00  -1.6199592201091261e-18 -2.2434889771619300e-04 0.0000000000000000e+00  -1.7654997184572670e-18 -2.2434889771619305e-04 0.0000000000000000e+00  -1.7399653982762621e-18 -2.2434889771619343e-04 0.0000000000000000e+00  -1.7621135021914537e-18 -2.2434889771619324e-04 0.0000000000000000e+00  -1.6375629716750729e-18 -2.2434889771619389e-04 0.0000000000000000e+00  -1.3958072689678119e-18 -2.2434889771619481e-04 0.0000000000000000e+00  -1.0547485033815323e-18 -2.2434889771619535e-04 0.0000000000000000e+00  -7.1046153065830930e-19 -2.2434889771619598e-04 0.0000000000000000e+00  -3.5954640457926696e-19 -2.2434889771619625e-04 0.0000000000000000e+00  -1.0579449157400545e-35 -2.2434889771619657e-04 0.0000000000000000e+00  -3.5093183077174077e-35 -2.8077548607649186e-04 0.0000000000000000e+00  -3.5703454668737029e-19 -2.8077548607649170e-04 0.0000000000000000e+00  -7.3537518908852525e-19 -2.8077548607649181e-04 0.0000000000000000e+00  -1.0798022169876160e-18 -2.8077548607649208e-04 0.0000000000000000e+00  -1.3619354068619478e-18 -2.8077548607649197e-04 0.0000000000000000e+00  -1.5944741395338922e-18 -2.8077548607649213e-04 0.0000000000000000e+00  -1.8053957053964896e-18 -2.8077548607649203e-04 0.0000000000000000e+00  -2.0079751020620800e-18 -2.8077548607649235e-04 0.0000000000000000e+00  -2.1180832319655720e-18 -2.8077548607649273e-04 0.0000000000000000e+00  -2.0479871760432643e-18 -2.8077548607649278e-04 0.0000000000000000e+00  -1.8664050895701004e-18 -2.8077548607649349e-04 0.0000000000000000e+00  -1.5469742364542729e-18 -2.8077548607649463e-04 0.0000000000000000e+00  -1.2131518502815416e-18 -2.8077548607649566e-04 0.0000000000000000e+00  -8.2003940121155131e-19 -2.8077548607649571e-04 0.0000000000000000e+00  -3.5640309114963666e-19 -2.8077548607649658e-04 0.0000000000000000e+00  1.3832639512732214e-35 -2.8077548607649653e-04 0.0000000000000000e+00  1.1284745767893945e-34 -3.3742708088846417e-04 0.0000000000000000e+00  -5.1127010195293800e-19 -3.3742708088846374e-04 0.0000000000000000e+00  -9.4041143097873218e-19 -3.3742708088846434e-04 0.0000000000000000e+00  -1.2604779759226075e-18 -3.3742708088846434e-04 0.0000000000000000e+00  -1.5401422585404104e-18 -3.3742708088846450e-04 0.0000000000000000e+00  -1.7937834069756250e-18 -3.3742708088846482e-04 0.0000000000000000e+00  -2.0540357548567264e-18 -3.3742708088846477e-04 0.0000000000000000e+00  -2.2667206517526250e-18 -3.3742708088846472e-04 0.0000000000000000e+00  -2.4101544639157835e-18 -3.3742708088846515e-04 0.0000000000000000e+00  -2.3311646744268917e-18 -3.3742708088846537e-04 0.0000000000000000e+00  -2.0606551379569347e-18 -3.3742708088846667e-04 0.0000000000000000e+00  -1.7852853158585391e-18 -3.3742708088846748e-04 0.0000000000000000e+00  -1.4193412930536161e-18 -3.3742708088846846e-04 0.0000000000000000e+00  -9.3191496260271375e-19 -3.3742708088846992e-04 0.0000000000000000e+00  -4.2456615156972204e-19 -3.3742708088846959e-04 0.0000000000000000e+00  3.8260977598936297e-36 -3.3742708088846981e-04 0.0000000000000000e+00  3.3299604813954450e-35 -3.9434745125863210e-04 0.0000000000000000e+00  -6.1731155992679622e-19 -3.9434745125863281e-04 0.0000000000000000e+00  -1.1367912322279353e-18 -3.9434745125863237e-04 0.0000000000000000e+00  -1.4880632594590694e-18 -3.9434745125863319e-04 0.0000000000000000e+00  -1.7481787440864194e-18 -3.9434745125863362e-04 0.0000000000000000e+00  -2.0304631620626919e-18 -3.9434745125863357e-04 0.0000000000000000e+00  -2.3423408257801102e-18 -3.9434745125863340e-04 0.0000000000000000e+00  -2.4829205350792617e-18 -3.9434745125863367e-04 0.0000000000000000e+00  -2.5588399921704453e-18 -3.9434745125863384e-04 0.0000000000000000e+00  -2.5941346840463522e-18 -3.9434745125863454e-04 0.0000000000000000e+00  -2.2601149590882972e-18 -3.9434745125863498e-04 0.0000000000000000e+00  -1.9160292394425409e-18 -3.9434745125863633e-04 0.0000000000000000e+00  -1.5368610663247379e-18 -3.9434745125863801e-04 0.0000000000000000e+00  -1.0028794729981938e-18 -3.9434745125863866e-04 0.0000000000000000e+00  -4.5500754585237254e-19 -3.9434745125863893e-04 0.0000000000000000e+00  1.0075665864190995e-36 -3.9434745125863920e-04 0.0000000000000000e+00  2.1158898314801170e-35 -4.5157969925366416e-04 0.0000000000000000e+00  -5.2082121139092842e-19 -4.5157969925366427e-04 0.0000000000000000e+00  -1.1277149262945601e-18 -4.5157969925366460e-04 0.0000000000000000e+00  -1.7039617936503942e-18 -4.5157969925366492e-04 0.0000000000000000e+00  -2.0564264764944263e-18 -4.5157969925366563e-04 0.0000000000000000e+00  -2.2408666301641759e-18 -4.5157969925366590e-04 0.0000000000000000e+00  -2.4778607792634220e-18 -4.5157969925366546e-04 0.0000000000000000e+00  -2.6540369925474380e-18 -4.5157969925366584e-04 0.0000000000000000e+00  -2.7073388228557452e-18 -4.5157969925366600e-04 0.0000000000000000e+00  -2.7130947638919080e-18 -4.5157969925366644e-04 0.0000000000000000e+00  -2.5496328905669160e-18 -4.5157969925366779e-04 0.0000000000000000e+00  -2.1438348232932039e-18 -4.5157969925366942e-04 0.0000000000000000e+00  -1.5978566147535280e-18 -4.5157969925367083e-04 0.0000000000000000e+00  -1.0404619385094053e-18 -4.5157969925367197e-04 0.0000000000000000e+00  -5.6910422205993722e-19 -4.5157969925367202e-04 0.0000000000000000e+00  -1.4105932209867445e-35 -4.5157969925367181e-04 0.0000000000000000e+00  3.5396773418720986e-35 -5.0916615292631172e-04 0.0000000000000000e+00  -5.9155790862487759e-19 -5.0916615292631150e-04 0.0000000000000000e+00  -1.2239335670872323e-18 -5.0916615292631150e-04 0.0000000000000000e+00  -1.8069064966320734e-18 -5.0916615292631248e-04 0.0000000000000000e+00  -2.1990716052093741e-18 -5.0916615292631313e-04 0.0000000000000000e+00  -2.5774503965532416e-18 -5.0916615292631421e-04 0.0000000000000000e+00  -2.7093260623367582e-18 -5.0916615292631378e-04 0.0000000000000000e+00  -2.8028800537804051e-18 -5.0916615292631346e-04 0.0000000000000000e+00  -2.7767116851271129e-18 -5.0916615292631411e-04 0.0000000000000000e+00  -2.9292550598375493e-18 -5.0916615292631400e-04 0.0000000000000000e+00  -2.8241405149707643e-18 -5.0916615292631595e-04 0.0000000000000000e+00  -2.3596190391195373e-18 -5.0916615292631758e-04 0.0000000000000000e+00  -1.7448922086477263e-18 -5.0916615292631920e-04 0.0000000000000000e+00  -1.2199247322863897e-18 -5.0916615292631996e-04 0.0000000000000000e+00  -7.0929461267307747e-19 -5.0916615292632018e-04 0.0000000000000000e+00  -5.9402331179956135e-35 -5.0916615292632029e-04 0.0000000000000000e+00  -9.8741525469072236e-35 -5.6714826126039305e-04 0.0000000000000000e+00  -7.6288755558262953e-19 -5.6714826126039349e-04 0.0000000000000000e+00  -1.3586217862621322e-18 -5.6714826126039294e-04 0.0000000000000000e+00  -1.7923083633598120e-18 -5.6714826126039479e-04 0.0000000000000000e+00  -2.2861534116235309e-18 -5.6714826126039500e-04 0.0000000000000000e+00  -2.5845281462618116e-18 -5.6714826126039576e-04 0.0000000000000000e+00  -2.8417614434614469e-18 -5.6714826126039587e-04 0.0000000000000000e+00  -2.9930171348030170e-18 -5.6714826126039620e-04 0.0000000000000000e+00  -3.1339421459257650e-18 -5.6714826126039587e-04 0.0000000000000000e+00  -3.0918272377296405e-18 -5.6714826126039544e-04 0.0000000000000000e+00  -2.9343756078475482e-18 -5.6714826126039826e-04 0.0000000000000000e+00  -2.4920751169309271e-18 -5.6714826126039988e-04 0.0000000000000000e+00  -1.9201275533690853e-18 -5.6714826126040173e-04 0.0000000000000000e+00  -1.3968737250219664e-18 -5.6714826126040227e-04 0.0000000000000000e+00  -7.8145144743342315e-19 -5.6714826126040324e-04 0.0000000000000000e+00  4.1700432766809988e-35 -5.6714826126040270e-04 0.0000000000000000e+00  2.5596921446166452e-35 -6.2556649129541866e-04 0.0000000000000000e+00  -7.8498742683357638e-19 -6.2556649129541931e-04 0.0000000000000000e+00  -1.4655776270623011e-18 -6.2556649129541964e-04 0.0000000000000000e+00  -1.9122020582002759e-18 -6.2556649129542040e-04 0.0000000000000000e+00  -2.3136792240512941e-18 -6.2556649129542105e-04 0.0000000000000000e+00  -2.6462316774163143e-18 -6.2556649129542170e-04 0.0000000000000000e+00  -2.9633677141367118e-18 -6.2556649129542191e-04 0.0000000000000000e+00  -3.2328638803684997e-18 -6.2556649129542170e-04 0.0000000000000000e+00  -3.4847031969819636e-18 -6.2556649129542213e-04 0.0000000000000000e+00  -3.0892936453469083e-18 -6.2556649129542235e-04 0.0000000000000000e+00  -2.6200425504752692e-18 -6.2556649129542419e-04 0.0000000000000000e+00  -2.3809091698712747e-18 -6.2556649129542636e-04 0.0000000000000000e+00  -1.9970184981635631e-18 -6.2556649129542788e-04 0.0000000000000000e+00  -1.4761836246850011e-18 -6.2556649129542874e-04 0.0000000000000000e+00  -6.8785897629238796e-19 -6.2556649129542972e-04 0.0000000000000000e+00  -9.0177209484509643e-35 -6.2556649129543037e-04 0.0000000000000000e+00  7.0529661049337237e-36 -6.8446022768608636e-04 0.0000000000000000e+00  -8.0145116166828635e-19 -6.8446022768608561e-04 0.0000000000000000e+00  -1.4472676227933338e-18 -6.8446022768608647e-04 0.0000000000000000e+00  -1.8869336861122916e-18 -6.8446022768608777e-04 0.0000000000000000e+00  -2.2899010742079049e-18 -6.8446022768608875e-04 0.0000000000000000e+00  -2.6754735561670409e-18 -6.8446022768608951e-04 0.0000000000000000e+00  -3.0457681865823013e-18 -6.8446022768608875e-04 0.0000000000000000e+00  -3.2297620569462140e-18 -6.8446022768609005e-04 0.0000000000000000e+00  -3.3153720047264708e-18 -6.8446022768608940e-04 0.0000000000000000e+00  -3.1841951068573588e-18 -6.8446022768609092e-04 0.0000000000000000e+00  -2.7210645907424609e-18 -6.8446022768609168e-04 0.0000000000000000e+00  -2.3781987165929224e-18 -6.8446022768609450e-04 0.0000000000000000e+00  -2.0202413872856649e-18 -6.8446022768609558e-04 0.0000000000000000e+00  -1.1620743728806344e-18 -6.8446022768609731e-04 0.0000000000000000e+00  -5.3548741168320475e-19 -6.8446022768609829e-04 0.0000000000000000e+00  7.7582627154270943e-35 -6.8446022768609796e-04 0.0000000000000000e+00  2.2003444985122026e-35 -7.4386767494589523e-04 0.0000000000000000e+00  -6.1678800260679206e-19 -7.4386767494589556e-04 0.0000000000000000e+00  -1.3400571236916336e-18 -7.4386767494589578e-04 0.0000000000000000e+00  -2.0158721170474321e-18 -7.4386767494589708e-04 0.0000000000000000e+00  -2.4989021963909738e-18 -7.4386767494589805e-04 0.0000000000000000e+00  -2.8781609467857568e-18 -7.4386767494589924e-04 0.0000000000000000e+00  -3.1017504745620279e-18 -7.4386767494589990e-04 0.0000000000000000e+00  -3.3554462055737516e-18 -7.4386767494589784e-04 0.0000000000000000e+00  -3.3893240730559327e-18 -7.4386767494589935e-04 0.0000000000000000e+00  -3.3406237163677116e-18 -7.4386767494589968e-04 0.0000000000000000e+00  -3.0221516579077112e-18 -7.4386767494590141e-04 0.0000000000000000e+00  -2.3869607235832146e-18 -7.4386767494590293e-04 0.0000000000000000e+00  -1.7878684178652461e-18 -7.4386767494590564e-04 0.0000000000000000e+00  -1.1882548275022190e-18 -7.4386767494590683e-04 0.0000000000000000e+00  -6.1192140766233064e-19 -7.4386767494590814e-04 0.0000000000000000e+00  7.1390924656884649e-36 -7.4386767494590748e-04 0.0000000000000000e+00  -7.0529661049337154e-35 -8.0382576261751903e-04 0.0000000000000000e+00  -6.7282431103369533e-19 -8.0382576261751946e-04 0.0000000000000000e+00  -1.2897981840764990e-18 -8.0382576261751903e-04 0.0000000000000000e+00  -1.9330269401998089e-18 -8.0382576261752142e-04 0.0000000000000000e+00  -2.3914367306486611e-18 -8.0382576261752326e-04 0.0000000000000000e+00  -2.8817120286190275e-18 -8.0382576261752337e-04 0.0000000000000000e+00  -3.3583766072430317e-18 -8.0382576261752315e-04 0.0000000000000000e+00  -3.6213480457210374e-18 -8.0382576261752348e-04 0.0000000000000000e+00  -3.4971368685690657e-18 -8.0382576261752337e-04 0.0000000000000000e+00  -3.5339520680736534e-18 -8.0382576261752445e-04 0.0000000000000000e+00  -3.2150274920238928e-18 -8.0382576261752684e-04 0.0000000000000000e+00  -2.5361743184999227e-18 -8.0382576261752879e-04 0.0000000000000000e+00  -1.8512115009842634e-18 -8.0382576261753128e-04 0.0000000000000000e+00  -1.2274727262599514e-18 -8.0382576261753302e-04 0.0000000000000000e+00  -6.2410036412669481e-19 -8.0382576261753258e-04 0.0000000000000000e+00  9.7535756418505646e-35 -8.0382576261753345e-04 0.0000000000000000e+00  1.6384205404224557e-34 -8.6437005360535198e-04 0.0000000000000000e+00  -7.4865385725506822e-19 -8.6437005360535306e-04 0.0000000000000000e+00  -1.3140107410827035e-18 -8.6437005360535382e-04 0.0000000000000000e+00  -1.9162403721410972e-18 -8.6437005360535490e-04 0.0000000000000000e+00  -2.5335923827339324e-18 -8.6437005360535664e-04 0.0000000000000000e+00  -2.9750115687944469e-18 -8.6437005360535750e-04 0.0000000000000000e+00  -3.3593503314266506e-18 -8.6437005360535653e-04 0.0000000000000000e+00  -3.5943230603052035e-18 -8.6437005360535675e-04 0.0000000000000000e+00  -3.7330191393480512e-18 -8.6437005360535750e-04 0.0000000000000000e+00  -3.6054524427049630e-18 -8.6437005360535859e-04 0.0000000000000000e+00  -3.2637074139503283e-18 -8.6437005360536076e-04 0.0000000000000000e+00  -2.7379688349411313e-18 -8.6437005360536303e-04 0.0000000000000000e+00  -2.0683045835899696e-18 -8.6437005360536564e-04 0.0000000000000000e+00  -1.3507821187651498e-18 -8.6437005360536694e-04 0.0000000000000000e+00  -7.2461492657575058e-19 -8.6437005360536759e-04 0.0000000000000000e+00  -1.3451013928695039e-34 -8.6437005360536770e-04 0.0000000000000000e+00  -7.0529661049337154e-35 -9.2553465589787366e-04 0.0000000000000000e+00  -6.9806357634253234e-19 -9.2553465589787453e-04 0.0000000000000000e+00  -1.5393848278144742e-18 -9.2553465589787442e-04 0.0000000000000000e+00  -2.1040303718398557e-18 -9.2553465589787691e-04 0.0000000000000000e+00  -2.6208071305953578e-18 -9.2553465589787832e-04 0.0000000000000000e+00  -2.9410676815788474e-18 -9.2553465589787810e-04 0.0000000000000000e+00  -3.2548213759760162e-18 -9.2553465589787832e-04 0.0000000000000000e+00  -3.6137506187392613e-18 -9.2553465589787724e-04 0.0000000000000000e+00  -3.9457729219521346e-18 -9.2553465589787940e-04 0.0000000000000000e+00  -3.6802936560005802e-18 -9.2553465589787973e-04 0.0000000000000000e+00  -3.2178359542743283e-18 -9.2553465589788222e-04 0.0000000000000000e+00  -2.7058766647598396e-18 -9.2553465589788591e-04 0.0000000000000000e+00  -2.1216442141271342e-18 -9.2553465589788689e-04 0.0000000000000000e+00  -1.5674491541180627e-18 -9.2553465589788884e-04 0.0000000000000000e+00  -7.4633861877662147e-19 -9.2553465589788960e-04 0.0000000000000000e+00  1.0579449157400570e-34 -9.2553465589788992e-04 0.0000000000000000e+00  -1.0544443264687569e-34 -9.8735213789908184e-04 0.0000000000000000e+00  -8.8272883483417431e-19 -9.8735213789908033e-04 0.0000000000000000e+00  -1.4957783461256813e-18 -9.8735213789908206e-04 0.0000000000000000e+00  -1.9677634090206619e-18 -9.8735213789908358e-04 0.0000000000000000e+00  -2.6009550172070754e-18 -9.87352137899