<?xml version="1.0"?>
<VTKFile type="UnstructuredGrid"  version="0.1"  >
<UnstructuredGrid>
<Piece  NumberOfPoints="431" NumberOfCells="800">
<Points>
<DataArray  type="Float64"  NumberOfComponents="3"  format="ascii">-0.75 -3 0  -0.6 -3 0  -0.45 -3 0  -0.3 -3 0  -0.15 -3 0  0 -3 0  0.15 -3 0  0.3 -3 0  0.45 -3 0  0.6000000000000001 -3 0  0.75 -3 0  -0.75 -2.85 0  -0.6 -2.85 0  -0.45 -2.85 0  -0.3 -2.85 0  -0.15 -2.85 0  0 -2.85 0  0.15 -2.85 0  0.3 -2.85 0  0.45 -2.85 0  0.6000000000000001 -2.85 0  0.75 -2.85 0  -0.75 -2.7 0  -0.6 -2.7 0  -0.45 -2.7 0  -0.3 -2.7 0  -0.15 -2.7 0  0 -2.7 0  0.15 -2.7 0  0.3 -2.7 0  0.45 -2.7 0  0.6000000000000001 -2.7 0  0.75 -2.7 0  -0.75 -2.55 0  -0.6 -2.55 0  -0.45 -2.55 0  -0.3 -2.55 0  -0.15 -2.55 0  0 -2.55 0  0.15 -2.55 0  0.3 -2.55 0  0.45 -2.55 0  0.6000000000000001 -2.55 0  0.75 -2.55 0  -0.75 -2.4 0  -0.6 -2.4 0  -0.45 -2.4 0  -0.3 -2.4 0  -0.15 -2.4 0  0 -2.4 0  0.15 -2.4 0  0.3 -2.4 0  0.45 -2.4 0  0.6000000000000001 -2.4 0  0.75 -2.4 0  -0.75 -2.25 0  -0.6 -2.25 0  -0.45 -2.25 0  -0.3 -2.25 0  -0.15 -2.25 0  0 -2.25 0  0.15 -2.25 0  0.3 -2.25 0  0.45 -2.25 0  0.6000000000000001 -2.25 0  0.75 -2.25 0  -0.75 -2.1 0  -0.6 -2.1 0  -0.45 -2.1 0  -0.3 -2.1 0  -0.15 -2.1 0  0 -2.1 0  0.15 -2.1 0  0.3 -2.1 0  0.45 -2.1 0  0.6000000000000001 -2.1 0  0.75 -2.1 0  -0.75 -1.95 0  -0.6 -1.95 0  -0.45 -1.95 0  -0.3 -1.95 0  -0.15 -1.95 0  0 -1.95 0  0.15 -1.95 0  0.3 -1.95 0  0.45 -1.95 0  0.6000000000000001 -1.95 0  0.75 -1.95 0  -0.75 -1.8 0  -0.6 -1.8 0  -0.45 -1.8 0  -0.3 -1.8 0  -0.15 -1.8 0  0 -1.8 0  0.15 -1.8 0  0.3 -1.8 0  0.45 -1.8 0  0.6000000000000001 -1.8 0  0.75 -1.8 0  -0.75 -1.65 0  -0.6 -1.65 0  -0.45 -1.65 0  -0.3 -1.65 0  -0.15 -1.65 0  0 -1.65 0  0.15 -1.65 0  0.3 -1.65 0  0.45 -1.65 0  0.6000000000000001 -1.65 0  0.75 -1.65 0  -0.75 -1.5 0  -0.6 -1.5 0  -0.45 -1.5 0  -0.3 -1.5 0  -0.15 -1.5 0  0 -1.5 0  0.15 -1.5 0  0.3 -1.5 0  0.45 -1.5 0  0.6000000000000001 -1.5 0  0.75 -1.5 0  -0.75 -1.35 0  -0.6 -1.35 0  -0.45 -1.35 0  -0.3 -1.35 0  -0.15 -1.35 0  0 -1.35 0  0.15 -1.35 0  0.3 -1.35 0  0.45 -1.35 0  0.6000000000000001 -1.35 0  0.75 -1.35 0  -0.75 -1.2 0  -0.6 -1.2 0  -0.45 -1.2 0  -0.3 -1.2 0  -0.15 -1.2 0  0 -1.2 0  0.15 -1.2 0  0.3 -1.2 0  0.45 -1.2 0  0.6000000000000001 -1.2 0  0.75 -1.2 0  -0.75 -1.05 0  -0.6 -1.05 0  -0.45 -1.05 0  -0.3 -1.05 0  -0.15 -1.05 0  0 -1.05 0  0.15 -1.05 0  0.3 -1.05 0  0.45 -1.05 0  0.6000000000000001 -1.05 0  0.75 -1.05 0  -0.75 -0.8999999999999999 0  -0.6 -0.8999999999999999 0  -0.45 -0.8999999999999999 0  -0.3 -0.8999999999999999 0  -0.15 -0.8999999999999999 0  0 -0.8999999999999999 0  0.15 -0.8999999999999999 0  0.3 -0.8999999999999999 0  0.45 -0.8999999999999999 0  0.6000000000000001 -0.8999999999999999 0  0.75 -0.8999999999999999 0  -0.75 -0.75 0  -0.6 -0.75 0  -0.45 -0.75 0  -0.3 -0.75 0  -0.15 -0.75 0  0 -0.75 0  0.15 -0.75 0  0.3 -0.75 0  0.45 -0.75 0  0.6000000000000001 -0.75 0  0.75 -0.75 0  -0.75 -0.6000000000000001 0  -0.6 -0.6000000000000001 0  -0.45 -0.6000000000000001 0  -0.3 -0.6000000000000001 0  -0.15 -0.6000000000000001 0  0 -0.6000000000000001 0  0.15 -0.6000000000000001 0  0.3 -0.6000000000000001 0  0.45 -0.6000000000000001 0  0.6000000000000001 -0.6000000000000001 0  0.75 -0.6000000000000001 0  -0.75 -0.4500000000000002 0  -0.6 -0.4500000000000002 0  -0.45 -0.4500000000000002 0  -0.3 -0.4500000000000002 0  -0.15 -0.4500000000000002 0  0 -0.4500000000000002 0  0.15 -0.4500000000000002 0  0.3 -0.4500000000000002 0  0.45 -0.4500000000000002 0  0.6000000000000001 -0.4500000000000002 0  0.75 -0.4500000000000002 0  -0.75 -0.2999999999999998 0  -0.6 -0.2999999999999998 0  -0.45 -0.2999999999999998 0  -0.3 -0.2999999999999998 0  -0.15 -0.2999999999999998 0  0 -0.2999999999999998 0  0.15 -0.2999999999999998 0  0.3 -0.2999999999999998 0  0.45 -0.2999999999999998 0  0.6000000000000001 -0.2999999999999998 0  0.75 -0.2999999999999998 0  -0.75 -0.1499999999999999 0  -0.6 -0.1499999999999999 0  -0.45 -0.1499999999999999 0  -0.3 -0.1499999999999999 0  -0.15 -0.1499999999999999 0  0 -0.1499999999999999 0  0.15 -0.1499999999999999 0  0.3 -0.1499999999999999 0  0.45 -0.1499999999999999 0  0.6000000000000001 -0.1499999999999999 0  0.75 -0.1499999999999999 0  -0.75 0 0  -0.6 0 0  -0.45 0 0  -0.3 0 0  -0.15 0 0  0 0 0  0.15 0 0  0.3 0 0  0.45 0 0  0.6000000000000001 0 0  0.75 0 0  -0.675 -2.925 0  -0.525 -2.925 0  -0.375 -2.925 0  -0.225 -2.925 0  -0.07499999999999996 -2.925 0  0.07499999999999996 -2.925 0  0.225 -2.925 0  0.375 -2.925 0  0.5249999999999999 -2.925 0  0.675 -2.925 0  -0.675 -2.775 0  -0.525 -2.775 0  -0.375 -2.775 0  -0.225 -2.775 0  -0.07499999999999996 -2.775 0  0.07499999999999996 -2.775 0  0.225 -2.775 0  0.375 -2.775 0  0.5249999999999999 -2.775 0  0.675 -2.775 0  -0.675 -2.625 0  -0.525 -2.625 0  -0.375 -2.625 0  -0.225 -2.625 0  -0.07499999999999996 -2.625 0  0.07499999999999996 -2.625 0  0.225 -2.625 0  0.375 -2.625 0  0.5249999999999999 -2.625 0  0.675 -2.625 0  -0.675 -2.475 0  -0.525 -2.475 0  -0.375 -2.475 0  -0.225 -2.475 0  -0.07499999999999996 -2.475 0  0.07499999999999996 -2.475 0  0.225 -2.475 0  0.375 -2.475 0  0.5249999999999999 -2.475 0  0.675 -2.475 0  -0.675 -2.325 0  -0.525 -2.325 0  -0.375 -2.325 0  -0.225 -2.325 0  -0.07499999999999996 -2.325 0  0.07499999999999996 -2.325 0  0.225 -2.325 0  0.375 -2.325 0  0.5249999999999999 -2.325 0  0.675 -2.325 0  -0.675 -2.175 0  -0.525 -2.175 0  -0.375 -2.175 0  -0.225 -2.175 0  -0.07499999999999996 -2.175 0  0.07499999999999996 -2.175 0  0.225 -2.175 0  0.375 -2.175 0  0.5249999999999999 -2.175 0  0.675 -2.175 0  -0.675 -2.025 0  -0.525 -2.025 0  -0.375 -2.025 0  -0.225 -2.025 0  -0.07499999999999996 -2.025 0  0.07499999999999996 -2.025 0  0.225 -2.025 0  0.375 -2.025 0  0.5249999999999999 -2.025 0  0.675 -2.025 0  -0.675 -1.875 0  -0.525 -1.875 0  -0.375 -1.875 0  -0.225 -1.875 0  -0.07499999999999996 -1.875 0  0.07499999999999996 -1.875 0  0.225 -1.875 0  0.375 -1.875 0  0.5249999999999999 -1.875 0  0.675 -1.875 0  -0.675 -1.725 0  -0.525 -1.725 0  -0.375 -1.725 0  -0.225 -1.725 0  -0.07499999999999996 -1.725 0  0.07499999999999996 -1.725 0  0.225 -1.725 0  0.375 -1.725 0  0.5249999999999999 -1.725 0  0.675 -1.725 0  -0.675 -1.575 0  -0.525 -1.575 0  -0.375 -1.575 0  -0.225 -1.575 0  -0.07499999999999996 -1.575 0  0.07499999999999996 -1.575 0  0.225 -1.575 0  0.375 -1.575 0  0.5249999999999999 -1.575 0  0.675 -1.575 0  -0.675 -1.425 0  -0.525 -1.425 0  -0.375 -1.425 0  -0.225 -1.425 0  -0.07499999999999996 -1.425 0  0.07499999999999996 -1.425 0  0.225 -1.425 0  0.375 -1.425 0  0.5249999999999999 -1.425 0  0.675 -1.425 0  -0.675 -1.275 0  -0.525 -1.275 0  -0.375 -1.275 0  -0.225 -1.275 0  -0.07499999999999996 -1.275 0  0.07499999999999996 -1.275 0  0.225 -1.275 0  0.375 -1.275 0  0.5249999999999999 -1.275 0  0.675 -1.275 0  -0.675 -1.125 0  -0.525 -1.125 0  -0.375 -1.125 0  -0.225 -1.125 0  -0.07499999999999996 -1.125 0  0.07499999999999996 -1.125 0  0.225 -1.125 0  0.375 -1.125 0  0.5249999999999999 -1.125 0  0.675 -1.125 0  -0.675 -0.9750000000000001 0  -0.525 -0.9750000000000001 0  -0.375 -0.9750000000000001 0  -0.225 -0.9750000000000001 0  -0.07499999999999996 -0.9750000000000001 0  0.07499999999999996 -0.9750000000000001 0  0.225 -0.9750000000000001 0  0.375 -0.9750000000000001 0  0.5249999999999999 -0.9750000000000001 0  0.675 -0.9750000000000001 0  -0.675 -0.8250000000000002 0  -0.525 -0.8250000000000002 0  -0.375 -0.8250000000000002 0  -0.225 -0.8250000000000002 0  -0.07499999999999996 -0.8250000000000002 0  0.07499999999999996 -0.8250000000000002 0  0.225 -0.8250000000000002 0  0.375 -0.8250000000000002 0  0.5249999999999999 -0.8250000000000002 0  0.675 -0.8250000000000002 0  -0.675 -0.6749999999999998 0  -0.525 -0.6749999999999998 0  -0.375 -0.6749999999999998 0  -0.225 -0.6749999999999998 0  -0.07499999999999996 -0.6749999999999998 0  0.07499999999999996 -0.6749999999999998 0  0.225 -0.6749999999999998 0  0.375 -0.6749999999999998 0  0.5249999999999999 -0.6749999999999998 0  0.675 -0.6749999999999998 0  -0.675 -0.5249999999999999 0  -0.525 -0.5249999999999999 0  -0.375 -0.5249999999999999 0  -0.225 -0.5249999999999999 0  -0.07499999999999996 -0.5249999999999999 0  0.07499999999999996 -0.5249999999999999 0  0.225 -0.5249999999999999 0  0.375 -0.5249999999999999 0  0.5249999999999999 -0.5249999999999999 0  0.675 -0.5249999999999999 0  -0.675 -0.375 0  -0.525 -0.375 0  -0.375 -0.375 0  -0.225 -0.375 0  -0.07499999999999996 -0.375 0  0.07499999999999996 -0.375 0  0.225 -0.375 0  0.375 -0.375 0  0.5249999999999999 -0.375 0  0.675 -0.375 0  -0.675 -0.2250000000000001 0  -0.525 -0.2250000000000001 0  -0.375 -0.2250000000000001 0  -0.225 -0.2250000000000001 0  -0.07499999999999996 -0.2250000000000001 0  0.07499999999999996 -0.2250000000000001 0  0.225 -0.2250000000000001 0  0.375 -0.2250000000000001 0  0.5249999999999999 -0.2250000000000001 0  0.675 -0.2250000000000001 0  -0.675 -0.07500000000000018 0  -0.525 -0.07500000000000018 0  -0.375 -0.07500000000000018 0  -0.225 -0.07500000000000018 0  -0.07499999999999996 -0.07500000000000018 0  0.07499999999999996 -0.07500000000000018 0  0.225 -0.07500000000000018 0  0.375 -0.07500000000000018 0  0.5249999999999999 -0.07500000000000018 0  0.675 -0.07500000000000018 0  </DataArray>
</Points>
<Cells>
[...]
<PointData  Vectors="displacement"> 
<DataArray  type="Float64"  Name="displacement"  NumberOfComponents="3" format="ascii">-1.5777218104420211e-28 -3.7007434154171848e-15 0.0000000000000000e+00  7.0997481469890991e-28 -1.0177044392397258e-14 0.0000000000000000e+00  -2.5884498452564423e-28 -3.4983590098865576e-15 0.0000000000000000e+00  -3.4183972559577145e-28 -4.6259292692714814e-15 0.0000000000000000e+00  -1.6020308849634454e-28 -3.6752823618219165e-15 0.0000000000000000e+00  -7.0997481469890991e-28 -1.3877787807814443e-14 0.0000000000000000e+00  -4.7159604571562058e-28 4.9394443974818712e-15 0.0000000000000000e+00  2.1036290805893627e-28 -6.4763009769800730e-15 0.0000000000000000e+00  -2.0992259763573521e-28 -1.0292692624129047e-14 0.0000000000000000e+00  5.2590727014734034e-29 -1.8503717077085912e-15 0.0000000000000000e+00  -8.4145163223574563e-28 -9.2518585385429675e-15 0.0000000000000000e+00  3.1554436208840495e-28 -4.9619295558271325e+01 0.0000000000000000e+00  2.1510737682450672e-12 -4.9619295558267673e+01 0.0000000000000000e+00  -1.0032741250866502e-12 -4.9619295558268369e+01 0.0000000000000000e+00  3.7763714144114876e-12 -4.9619295558270146e+01 0.0000000000000000e+00  -1.6603273271594157e-12 -4.9619295558265108e+01 0.0000000000000000e+00  -5.6374731617481857e-12 -4.9619295558270174e+01 0.0000000000000000e+00  -2.0013621527221947e-12 -4.9619295558268554e+01 0.0000000000000000e+00  -2.6942619085568419e-14 -4.9619295558264149e+01 0.0000000000000000e+00  -4.0967853835486391e-12 -4.9619295558268917e+01 0.0000000000000000e+00  -1.6063774217110309e-12 -4.9619295558267595e+01 0.0000000000000000e+00  -7.3976082440848266e-29 -4.9619295558266195e+01 0.0000000000000000e+00  4.0791954923648029e-28 -9.9238591126277981e+01 0.0000000000000000e+00  3.5227745595147768e-12 -9.9238591126272325e+01 0.0000000000000000e+00  2.4667537554662085e-13 -9.9238591126277811e+01 0.0000000000000000e+00  1.1165811480109504e-12 -9.9238591126273292e+01 0.0000000000000000e+00  -3.2007477520653936e-12 -9.9238591126276972e+01 0.0000000000000000e+00  -3.6231478538670770e-12 -9.9238591126277370e+01 0.0000000000000000e+00  -2.8371879993657803e-12 -9.9238591126279587e+01 0.0000000000000000e+00  -7.4056300474790324e-12 -9.9238591126277157e+01 0.0000000000000000e+00  -1.0359231176357288e-12 -9.9238591126268986e+01 0.0000000000000000e+00  -5.4053279342661822e-12 -9.9238591126278735e+01 0.0000000000000000e+00  -4.0569989411366334e-28 -9.9238591126273931e+01 0.0000000000000000e+00  -6.3108872417680944e-28 -1.4885788672794286e+02 0.0000000000000000e+00  1.7272296768761627e-12 -1.4885788672794905e+02 0.0000000000000000e+00  -3.3314408403193779e-12 -1.4885788672793637e+02 0.0000000000000000e+00  2.5106185232000970e-12 -1.4885788672794331e+02 0.0000000000000000e+00  -3.2420248076094763e-12 -1.4885788672794610e+02 0.0000000000000000e+00  -1.2163839180798875e-12 -1.4885788672794482e+02 0.0000000000000000e+00  -6.3774394815195864e-12 -1.4885788672793370e+02 0.0000000000000000e+00  -1.7616640951942316e-12 -1.4885788672794160e+02 0.0000000000000000e+00  -6.8319091783098373e-12 -1.4885788672794467e+02 0.0000000000000000e+00  -3.6305400328805630e-13 -1.4885788672793524e+02 0.0000000000000000e+00  -2.1036290805893659e-28 -1.4885788672794243e+02 0.0000000000000000e+00  2.6071491365698712e-27 -1.9847718243623265e+02 0.0000000000000000e+00  3.2210379805413433e-12 -1.9847718243623419e+02 0.0000000000000000e+00  2.0208203954692272e-11 -1.9847718243622796e+02 0.0000000000000000e+00  -1.3969650788850212e-12 -1.9847718243622569e+02 0.0000000000000000e+00  -4.0048734479787798e-12 -1.9847718243624286e+02 0.0000000000000000e+00  -8.6671289796695253e-12 -1.9847718243623277e+02 0.0000000000000000e+00  -6.0550542630085672e-12 -1.9847718243623558e+02 0.0000000000000000e+00  -1.1514883843848325e-11 -1.9847718243622961e+02 0.0000000000000000e+00  -4.0275348503722990e-12 -1.9847718243622330e+02 0.0000000000000000e+00  2.3991605473884611e-12 -1.9847718243621736e+02 0.0000000000000000e+00  1.5170169371811928e-30 -1.9847718243622285e+02 0.0000000000000000e+00  -1.3969411863288739e-27 -2.4809647847944080e+02 0.0000000000000000e+00  7.9422436448521852e-12 -2.4809647847943421e+02 0.0000000000000000e+00  -4.5552817428030587e-12 -2.4809647847942699e+02 0.0000000000000000e+00  1.0182735477580264e-12 -2.4809647847944336e+02 0.0000000000000000e+00  -1.0154177249196826e-11 -2.4809647847941969e+02 0.0000000000000000e+00  -8.0114922866567596e-13 -2.4809647847942358e+02 0.0000000000000000e+00  -5.5545295350024516e-12 -2.4809647847942568e+02 0.0000000000000000e+00  -5.9211681209164989e-12 -2.4809647847942767e+02 0.0000000000000000e+00  -8.5394360569341076e-12 -2.4809647847943319e+02 0.0000000000000000e+00  -5.2221865014083247e-12 -2.4809647847942654e+02 0.0000000000000000e+00  -7.5750841532681542e-28 -2.4809647847943944e+02 0.0000000000000000e+00  9.1902847941319087e-28 -2.9771577557383858e+02 0.0000000000000000e+00  3.0545404804705504e-13 -2.9771577557385785e+02 0.0000000000000000e+00  4.0357269407737463e-12 -2.9771577557385854e+02 0.0000000000000000e+00  -1.8565418795848375e-12 -2.9771577557384933e+02 0.0000000000000000e+00  -5.0518653312185682e-12 -2.9771577557385081e+02 0.0000000000000000e+00  -1.1702391271588126e-11 -2.9771577557385405e+02 0.0000000000000000e+00  -7.7773177362691804e-12 -2.9771577557384711e+02 0.0000000000000000e+00  -5.9798245609934812e-12 -2.9771577557383443e+02 0.0000000000000000e+00  4.2177906232957207e-12 -2.9771577557382597e+02 0.0000000000000000e+00  -1.3444023236294288e-11 -2.9771577557383057e+02 0.0000000000000000e+00  3.5310916709892934e-28 -2.9771577557381630e+02 0.0000000000000000e+00  -5.2590727014734135e-29 -3.4733507596722717e+02 0.0000000000000000e+00  2.7069583488398908e-12 -3.4733507596723234e+02 0.0000000000000000e+00  3.2851514483268717e-14 -3.4733507596724809e+02 0.0000000000000000e+00  -1.2116025977284720e-11 -3.4733507596723871e+02 0.0000000000000000e+00  -5.8950439956302259e-12 -3.4733507596725468e+02 0.0000000000000000e+00  -7.3450081910380078e-13 -3.4733507596724439e+02 0.0000000000000000e+00  4.2414556978920408e-12 -3.4733507596724075e+02 0.0000000000000000e+00  -9.6147486235249318e-12 -3.4733507596723240e+02 0.0000000000000000e+00  6.0031438244009556e-12 -3.4733507596721830e+02 0.0000000000000000e+00  4.8047629028238858e-12 -3.4733507596721961e+02 0.0000000000000000e+00  9.4663308626521506e-28 -3.4733507596721660e+02 0.0000000000000000e+00  -2.5399320886337918e-28 -3.9695438671381447e+02 0.0000000000000000e+00  -6.5500410807466269e-12 -3.9695438671381510e+02 0.0000000000000000e+00  1.1890981164779762e-12 -3.9695438671384125e+02 0.0000000000000000e+00  6.5472462958802668e-12 -3.9695438671384261e+02 0.0000000000000000e+00  -2.2312480282207704e-13 -3.9695438671384335e+02 0.0000000000000000e+00  -4.3221914870161711e-12 -3.9695438671383499e+02 0.0000000000000000e+00  -2.2807536691302872e-12 -3.9695438671383647e+02 0.0000000000000000e+00  2.3321921393197406e-11 -3.9695438671380856e+02 0.0000000000000000e+00  1.4143060930836604e-12 -3.9695438671381208e+02 0.0000000000000000e+00  4.9677077719462955e-12 -3.9695438671381515e+02 0.0000000000000000e+00  2.1586152976111196e-27 -3.9695438671379486e+02 0.0000000000000000e+00  2.9450807128251098e-27 -4.4657372995180708e+02 0.0000000000000000e+00  -3.2582332398651499e-12 -4.4657372995178139e+02 0.0000000000000000e+00  -2.7522441613003327e-11 -4.4657372995176723e+02 0.0000000000000000e+00  -2.8258046833895257e-12 -4.4657372995179679e+02 0.0000000000000000e+00  -2.6376358220057004e-12 -4.4657372995177963e+02 0.0000000000000000e+00  1.4894140754753827e-11 -4.4657372995178696e+02 0.0000000000000000e+00  2.9302710668071212e-11 -4.4657372995176922e+02 0.0000000000000000e+00  1.9827310260363911e-11 -4.4657372995178235e+02 0.0000000000000000e+00  6.1331585149964873e-12 -4.4657372995177644e+02 0.0000000000000000e+00  9.2465760236193270e-13 -4.4657372995175814e+02 0.0000000000000000e+00  7.0273331810801471e-28 -4.4657372995180435e+02 0.0000000000000000e+00  -2.5507099284694340e-27 -4.9619317515725305e+02 0.0000000000000000e+00  -1.5678251066265716e-11 -4.9619317515727221e+02 0.0000000000000000e+00  -9.8731176943929608e-13 -4.9619317515726840e+02 0.0000000000000000e+00  -8.5420794377002754e-12 -4.9619317515726544e+02 0.0000000000000000e+00  6.5292296577518216e-12 -4.9619317515725112e+02 0.0000000000000000e+00  2.3023939736053498e-12 -4.9619317515724310e+02 0.0000000000000000e+00  1.3498629927998483e-12 -4.9619317515724947e+02 0.0000000000000000e+00  1.6779452162038274e-11 -4.9619317515726237e+02 0.0000000000000000e+00  1.2113895618826431e-11 -4.9619317515724504e+02 0.0000000000000000e+00  7.7268697188704434e-12 -4.9619317515725794e+02 0.0000000000000000e+00  2.0585513145767385e-27 -4.9619317515721593e+02 0.0000000000000000e+00  6.0725855099825766e-28 -5.4581294036664929e+02 0.0000000000000000e+00  -3.0303893339004981e-12 -5.4581294036663735e+02 0.0000000000000000e+00  5.4457913231202021e-12 -5.4581294036660506e+02 0.0000000000000000e+00  6.5784646189445699e-12 -5.4581294036659062e+02 0.0000000000000000e+00  -1.3548511872597600e-11 -5.4581294036661870e+02 0.0000000000000000e+00  -2.0877139685651177e-12 -5.4581294036659779e+02 0.0000000000000000e+00  -1.0951858660890108e-11 -5.4581294036659858e+02 0.0000000000000000e+00  5.5242781387974583e-12 -5.4581294036661541e+02 0.0000000000000000e+00  2.0250701256382571e-11 -5.4581294036663030e+02 0.0000000000000000e+00  4.9663908437543492e-12 -5.4581294036660290e+02 0.0000000000000000e+00  6.3108872417680962e-28 -5.4581294036662473e+02 0.0000000000000000e+00  -5.1128761618657883e-27 -5.9543370984223543e+02 0.0000000000000000e+00  -9.2053229757125121e-14 -5.9543370984225703e+02 0.0000000000000000e+00  7.4669956723378577e-12 -5.9543370984226044e+02 0.0000000000000000e+00  -2.5078484650878477e-11 -5.9543370984227067e+02 0.0000000000000000e+00  1.1705003936373793e-11 -5.9543370984226692e+02 0.0000000000000000e+00  2.6304291667543458e-13 -5.9543370984226783e+02 0.0000000000000000e+00  2.2965434456031263e-11 -5.9543370984227033e+02 0.0000000000000000e+00  -2.7779904277566435e-11 -5.9543370984226067e+02 0.0000000000000000e+00  5.4167022533197684e-12 -5.9543370984223179e+02 0.0000000000000000e+00  2.2718666800241149e-11 -5.9543370984226601e+02 0.0000000000000000e+00  1.7912689226756821e-27 -5.9543370984224305e+02 0.0000000000000000e+00  2.3139919886483018e-27 -6.4505763100021522e+02 0.0000000000000000e+00  9.8372833164683006e-12 -6.4505763100016100e+02 0.0000000000000000e+00  -2.3487840712112585e-11 -6.4505763100020920e+02 0.0000000000000000e+00  5.4765398997872300e-12 -6.4505763100021670e+02 0.0000000000000000e+00  -9.9163576259012131e-12 -6.4505763100018373e+02 0.0000000000000000e+00  8.0327414117527649e-13 -6.4505763100020215e+02 0.0000000000000000e+00  -1.8387330457947182e-11 -6.4505763100018453e+02 0.0000000000000000e+00  1.5470098932985534e-11 -6.4505763100018169e+02 0.0000000000000000e+00  1.6116073358599129e-11 -6.4505763100018748e+02 0.0000000000000000e+00  -7.6381786186695513e-12 -6.4505763100017805e+02 0.0000000000000000e+00  -1.5171192148586400e-27 -6.4505763100015918e+02 0.0000000000000000e+00  -3.9334050946378114e-27 -6.9469144306249677e+02 0.0000000000000000e+00  -1.3189228118026657e-11 -6.9469144306251565e+02 0.0000000000000000e+00  -6.7886692468015656e-12 -6.9469144306248006e+02 0.0000000000000000e+00  -8.7509255515173724e-12 -6.9469144306246358e+02 0.0000000000000000e+00  -1.8163023313247930e-11 -6.9469144306251599e+02 0.0000000000000000e+00  -5.4296996257477676e-12 -6.9469144306250837e+02 0.0000000000000000e+00  5.8950439956302292e-12 -6.9469144306250257e+02 0.0000000000000000e+00  5.6628675940322933e-12 -6.9469144306248245e+02 0.0000000000000000e+00  -2.9532355493343774e-11 -6.9469144306246812e+02 0.0000000000000000e+00  2.8272085373192697e-11 -6.9469144306246039e+02 0.0000000000000000e+00  5.0374403519113215e-27 -6.9469144306243788e+02 0.0000000000000000e+00  -5.7060938810986475e-27 -7.4435629568653803e+02 0.0000000000000000e+00  2.4903326049438382e-12 -7.4435629568648915e+02 0.0000000000000000e+00  -1.3346070433939083e-12 -7.4435629568650245e+02 0.0000000000000000e+00  -3.1304560405068239e-11 -7.4435629568651166e+02 0.0000000000000000e+00  -1.2510753516398651e-11 -7.4435629568646220e+02 0.0000000000000000e+00  2.5365754473127859e-13 -7.4435629568645652e+02 0.0000000000000000e+00  -6.3300395052498198e-12 -7.4435629568645413e+02 0.0000000000000000e+00  -9.8077481265572412e-12 -7.4435629568648119e+02 0.0000000000000000e+00  2.7327636713239436e-11 -7.4435629568647892e+02 0.0000000000000000e+00  -3.9995091373162498e-13 -7.4435629568646937e+02 0.0000000000000000e+00  -1.1622550670256240e-26 -7.4435629568652428e+02 0.0000000000000000e+00  2.1144897046462759e-27 -7.9411856270630051e+02 0.0000000000000000e+00  3.1870926154068344e-12 -7.9411856270633450e+02 0.0000000000000000e+00  -5.5132548393686239e-11 -7.9411856270631756e+02 0.0000000000000000e+00  1.2168887807911206e-11 -7.9411856270631438e+02 0.0000000000000000e+00  -9.5662787830542241e-12 -7.9411856270630722e+02 0.0000000000000000e+00  -3.2382457899150908e-11 -7.9411856270629835e+02 0.0000000000000000e+00  -4.6259106390944575e-13 -7.9411856270630915e+02 0.0000000000000000e+00  8.2729834338192302e-12 -7.9411856270625060e+02 0.0000000000000000e+00  8.8822025973279739e-13 -7.9411856270629983e+02 0.0000000000000000e+00  -4.4089480062358539e-12 -7.9411856270621502e+02 0.0000000000000000e+00  3.3165063979695831e-27 -7.9411856270629505e+02 0.0000000000000000e+00  1.2621774483536187e-27 -8.4418654469930857e+02 0.0000000000000000e+00  1.0222842648190606e-11 -8.4418654469929288e+02 0.0000000000000000e+00  -1.7301914841599170e-11 -8.4418654469928367e+02 0.0000000000000000e+00  -1.0699856176512359e-11 -8.4418654469930982e+02 0.0000000000000000e+00  -2.5507056597921626e-11 -8.4418654469926400e+02 0.0000000000000000e+00  -4.3205265544289395e-12 -8.4418654469929027e+02 0.0000000000000000e+00  -9.9302800265464763e-12 -8.4418654469927560e+02 0.0000000000000000e+00  9.3615225867867677e-12 -8.4418654469927560e+02 0.0000000000000000e+00  2.3088378063608233e-11 -8.4418654469923263e+02 0.0000000000000000e+00  1.3024029221031251e-12 -8.4418654469927742e+02 0.0000000000000000e+00  8.0529036156904639e-27 -8.4418654469924275e+02 0.0000000000000000e+00  -7.1654865557575244e-27 -8.9521395003140208e+02 0.0000000000000000e+00  -4.8268333507260839e-11 -8.9521395003143107e+02 0.0000000000000000e+00  -2.0755167123979278e-11 -8.9521395003144028e+02 0.0000000000000000e+00  -4.7156523429439524e-11 -8.9521395003138048e+02 0.0000000000000000e+00  -1.9190422102523029e-11 -8.9521395003143243e+02 0.0000000000000000e+00  -2.7863631697560891e-11 -8.9521395003140185e+02 0.0000000000000000e+00  9.4715155701108463e-12 -8.9521395003138275e+02 0.0000000000000000e+00  2.2642409967934864e-11 -8.9521395003138366e+02 0.0000000000000000e+00  -2.4847646474857640e-11 -8.9521395003139264e+02 0.0000000000000000e+00  -1.1864691141563635e-12 -8.9521395003144141e+02 0.0000000000000000e+00  3.0084713212803720e-27 -8.9521395003135171e+02 0.0000000000000000e+00  -3.3658065289429861e-27 -9.4925230747367198e+02 0.0000000000000000e+00  -4.3501456883280143e-11 -9.4925230747366084e+02 0.0000000000000000e+00  1.3442870910635758e-11 -9.4925230747365799e+02 0.0000000000000000e+00  -7.7646124501541936e-11 -9.4925230747363332e+02 0.0000000000000000e+00  -5.1641909494463327e-11 -9.4925230747360524e+02 0.0000000000000000e+00  -4.0577354670494408e-11 -9.4925230747357818e+02 0.0000000000000000e+00  2.8862654281783682e-12 -9.4925230747359990e+02 0.0000000000000000e+00  -2.1594309103751709e-11 -9.4925230747362514e+02 0.0000000000000000e+00  8.5903330596469789e-12 -9.4925230747364651e+02 0.0000000000000000e+00  5.1075241582470557e-12 -9.4925230747361627e+02 0.0000000000000000e+00  -4.9369544985081725e-27 -9.4925230747367243e+02 0.0000000000000000e+00  8.4145163223574473e-28 -1.0127399166065669e+03 0.0000000000000000e+00  2.2511218232830821e-12 -1.0127399166066202e+03 0.0000000000000000e+00  -8.7616459989024246e-11 -1.0127399166065940e+03 0.0000000000000000e+00  -5.5169115187359590e-11 -1.0127399166065425e+03 0.0000000000000000e+00  -6.6044341179118392e-11 -1.0127399166065028e+03 0.0000000000000000e+00  -4.7918964526187053e-11 -1.0127399166064970e+03 0.0000000000000000e+00  -3.4671972261819953e-11 -1.0127399166064685e+03 0.0000000000000000e+00  -1.2291271042769020e-11 -1.0127399166065135e+03 0.0000000000000000e+00  -4.7472910335118827e-11 -1.0127399166065012e+03 0.0000000000000000e+00  -4.5437116801529686e-11 -1.0127399166065157e+03 0.0000000000000000e+00  8.4145163223574573e-27 -1.0127399166064434e+03 0.0000000000000000e+00  1.2474060430121602e-13 -2.4809647770009498e+01 0.0000000000000000e+00  5.6106053443318113e-12 -2.4809647770010887e+01 0.0000000000000000e+00  3.6739296866999977e-12 -2.4809647770018618e+01 0.0000000000000000e+00  -5.6468638222524697e-12 -2.4809647770010184e+01 0.0000000000000000e+00  2.6366219270567454e-12 -2.4809647770009189e+01 0.0000000000000000e+00  -7.5512221408680458e-12 -2.4809647770023432e+01 0.0000000000000000e+00  -7.1334614169995622e-13 -2.4809647770014585e+01 0.0000000000000000e+00  -4.0357262381257185e-13 -2.4809647770002087e+01 0.0000000000000000e+00  7.6345389300567989e-13 -2.4809647770016809e+01 0.0000000000000000e+00  4.6759382406441185e-12 -2.4809647770010034e+01 0.0000000000000000e+00  2.1014409547263809e-12 -7.4428943301627399e+01 0.0000000000000000e+00  2.4587232559866911e-12 -7.4428943301627584e+01 0.0000000000000000e+00  -4.7595267310357852e-13 -7.4428943301629886e+01 0.0000000000000000e+00  7.7358759356512611e-12 -7.4428943301627001e+01 0.0000000000000000e+00  -1.3070055202876623e-11 -7.4428943301628109e+01 0.0000000000000000e+00  -8.8742143565764079e-12 -7.4428943301630355e+01 0.0000000000000000e+00  8.4487082801612294e-12 -7.4428943301623192e+01 0.0000000000000000e+00  -9.4159669384039809e-12 -7.4428943301628451e+01 0.0000000000000000e+00  8.5978547399356326e-13 -7.4428943301623235e+01 0.0000000000000000e+00  -3.6539689525285904e-12 -7.4428943301632344e+01 0.0000000000000000e+00  7.6951495403251305e-12 -1.2404823879572663e+02 0.0000000000000000e+00  -5.2664646762791004e-12 -1.2404823879572675e+02 0.0000000000000000e+00  6.9616303429988874e-12 -1.2404823879572304e+02 0.0000000000000000e+00  -1.7949091621433852e-13 -1.2404823879572518e+02 0.0000000000000000e+00  -4.2550607641518077e-12 -1.2404823879572582e+02 0.0000000000000000e+00  -8.3609750685292251e-12 -1.2404823879571801e+02 0.0000000000000000e+00  1.0264785760943542e-12 -1.2404823879572781e+02 0.0000000000000000e+00  -1.6449977180999254e-12 -1.2404823879571309e+02 0.0000000000000000e+00  -1.1339517603435493e-11 -1.2404823879572145e+02 0.0000000000000000e+00  4.7992428033211290e-12 -1.2404823879572007e+02 0.0000000000000000e+00  2.2360108515473619e-13 -1.7366753416855266e+02 0.0000000000000000e+00  2.0419905007347101e-11 -1.7366753416853078e+02 0.0000000000000000e+00  9.4050002869499857e-12 -1.7366753416851617e+02 0.0000000000000000e+00  2.4696899074406933e-12 -1.7366753416851859e+02 0.0000000000000000e+00  -1.0848211618296322e-11 -1.7366753416852262e+02 0.0000000000000000e+00  -1.1791343643340279e-11 -1.7366753416852580e+02 0.0000000000000000e+00  -2.8601026992030755e-12 -1.7366753416851711e+02 0.0000000000000000e+00  -5.8386452341093459e-12 -1.7366753416854206e+02 0.0000000000000000e+00  -5.1894194680325749e-12 -1.7366753416852373e+02 0.0000000000000000e+00  -4.7610670082947171e-12 -1.7366753416853305e+02 0.0000000000000000e+00  1.7528143602129697e-11 -2.2328682915957242e+02 0.0000000000000000e+00  2.4692512413825319e-11 -2.2328682915957162e+02 0.0000000000000000e+00  7.0274302517228930e-12 -2.2328682915957728e+02 0.0000000000000000e+00  -1.2532689281630652e-11 -2.2328682915960241e+02 0.0000000000000000e+00  -3.2066488851494577e-12 -2.2328682915960360e+02 0.0000000000000000e+00  -2.5793564219806861e-12 -2.2328682915957685e+02 0.0000000000000000e+00  -1.6993923093117654e-11 -2.2328682915958851e+02 0.0000