<?xml version="1.0"?>
<VTKFile type="UnstructuredGrid"  version="0.1"  >
<UnstructuredGrid>
<Piece  NumberOfPoints="1411" NumberOfCells="2700">
<Points>
<DataArray  type="Float64"  NumberOfComponents="3"  format="ascii">-0.75 -4.5 0  -0.65 -4.5 0  -0.55 -4.5 0  -0.45 -4.5 0  -0.35 -4.5 0  -0.25 -4.5 0  -0.15 -4.5 0  -0.05000000000000004 -4.5 0  0.05000000000000004 -4.5 0  0.15 -4.5 0  0.25 -4.5 0  0.3500000000000001 -4.5 0  0.45 -4.5 0  0.55 -4.5 0  0.6499999999999999 -4.5 0  0.75 -4.5 0  -0.75 -4.4 0  -0.65 -4.4 0  -0.55 -4.4 0  -0.45 -4.4 0  -0.35 -4.4 0  -0.25 -4.4 0  -0.15 -4.4 0  -0.05000000000000004 -4.4 0  0.05000000000000004 -4.4 0  0.15 -4.4 0  0.25 -4.4 0  0.3500000000000001 -4.4 0  0.45 -4.4 0  0.55 -4.4 0  0.6499999999999999 -4.4 0  0.75 -4.4 0  -0.75 -4.3 0  -0.65 -4.3 0  -0.55 -4.3 0  -0.45 -4.3 0  -0.35 -4.3 0  -0.25 -4.3 0  -0.15 -4.3 0  -0.05000000000000004 -4.3 0  0.05000000000000004 -4.3 0  0.15 -4.3 0  0.25 -4.3 0  0.3500000000000001 -4.3 0  0.45 -4.3 0  0.55 -4.3 0  0.6499999999999999 -4.3 0  0.75 -4.3 0  -0.75 -4.2 0  -0.65 -4.2 0  -0.55 -4.2 0  -0.45 -4.2 0  -0.35 -4.2 0  -0.25 -4.2 0  -0.15 -4.2 0  -0.05000000000000004 -4.2 0  0.05000000000000004 -4.2 0  0.15 -4.2 0  0.25 -4.2 0  0.3500000000000001 -4.2 0  0.45 -4.2 0  0.55 -4.2 0  0.6499999999999999 -4.2 0  0.75 -4.2 0  -0.75 -4.1 0  -0.65 -4.1 0  -0.55 -4.1 0  -0.45 -4.1 0  -0.35 -4.1 0  -0.25 -4.1 0  -0.15 -4.1 0  -0.05000000000000004 -4.1 0  0.05000000000000004 -4.1 0  0.15 -4.1 0  0.25 -4.1 0  0.3500000000000001 -4.1 0  0.45 -4.1 0  0.55 -4.1 0  0.6499999999999999 -4.1 0  0.75 -4.1 0  -0.75 -4 0  -0.65 -4 0  -0.55 -4 0  -0.45 -4 0  -0.35 -4 0  -0.25 -4 0  -0.15 -4 0  -0.05000000000000004 -4 0  0.05000000000000004 -4 0  0.15 -4 0  0.25 -4 0  0.3500000000000001 -4 0  0.45 -4 0  0.55 -4 0  0.6499999999999999 -4 0  0.75 -4 0  -0.75 -3.9 0  -0.65 -3.9 0  -0.55 -3.9 0  -0.45 -3.9 0  -0.35 -3.9 0  -0.25 -3.9 0  -0.15 -3.9 0  -0.05000000000000004 -3.9 0  0.05000000000000004 -3.9 0  0.15 -3.9 0  0.25 -3.9 0  0.3500000000000001 -3.9 0  0.45 -3.9 0  0.55 -3.9 0  0.6499999999999999 -3.9 0  0.75 -3.9 0  -0.75 -3.8 0  -0.65 -3.8 0  -0.55 -3.8 0  -0.45 -3.8 0  -0.35 -3.8 0  -0.25 -3.8 0  -0.15 -3.8 0  -0.05000000000000004 -3.8 0  0.05000000000000004 -3.8 0  0.15 -3.8 0  0.25 -3.8 0  0.3500000000000001 -3.8 0  0.45 -3.8 0  0.55 -3.8 0  0.6499999999999999 -3.8 0  0.75 -3.8 0  -0.75 -3.7 0  -0.65 -3.7 0  -0.55 -3.7 0  -0.45 -3.7 0  -0.35 -3.7 0  -0.25 -3.7 0  -0.15 -3.7 0  -0.05000000000000004 -3.7 0  0.05000000000000004 -3.7 0  0.15 -3.7 0  0.25 -3.7 0  0.3500000000000001 -3.7 0  0.45 -3.7 0  0.55 -3.7 0  0.6499999999999999 -3.7 0  0.75 -3.7 0  -0.75 -3.6 0  -0.65 -3.6 0  -0.55 -3.6 0  -0.45 -3.6 0  -0.35 -3.6 0  -0.25 -3.6 0  -0.15 -3.6 0  -0.05000000000000004 -3.6 0  0.05000000000000004 -3.6 0  0.15 -3.6 0  0.25 -3.6 0  0.3500000000000001 -3.6 0  0.45 -3.6 0  0.55 -3.6 0  0.6499999999999999 -3.6 0  0.75 -3.6 0  -0.75 -3.5 0  -0.65 -3.5 0  -0.55 -3.5 0  -0.45 -3.5 0  -0.35 -3.5 0  -0.25 -3.5 0  -0.15 -3.5 0  -0.05000000000000004 -3.5 0  0.05000000000000004 -3.5 0  0.15 -3.5 0  0.25 -3.5 0  0.3500000000000001 -3.5 0  0.45 -3.5 0  0.55 -3.5 0  0.6499999999999999 -3.5 0  0.75 -3.5 0  -0.75 -3.4 0  -0.65 -3.4 0  -0.55 -3.4 0  -0.45 -3.4 0  -0.35 -3.4 0  -0.25 -3.4 0  -0.15 -3.4 0  -0.05000000000000004 -3.4 0  0.05000000000000004 -3.4 0  0.15 -3.4 0  0.25 -3.4 0  0.3500000000000001 -3.4 0  0.45 -3.4 0  0.55 -3.4 0  0.6499999999999999 -3.4 0  0.75 -3.4 0  -0.75 -3.3 0  -0.65 -3.3 0  -0.55 -3.3 0  -0.45 -3.3 0  -0.35 -3.3 0  -0.25 -3.3 0  -0.15 -3.3 0  -0.05000000000000004 -3.3 0  0.05000000000000004 -3.3 0  0.15 -3.3 0  0.25 -3.3 0  0.3500000000000001 -3.3 0  0.45 -3.3 0  0.55 -3.3 0  0.6499999999999999 -3.3 0  0.75 -3.3 0  -0.75 -3.2 0  -0.65 -3.2 0  -0.55 -3.2 0  -0.45 -3.2 0  -0.35 -3.2 0  -0.25 -3.2 0  -0.15 -3.2 0  -0.05000000000000004 -3.2 0  0.05000000000000004 -3.2 0  0.15 -3.2 0  0.25 -3.2 0  0.3500000000000001 -3.2 0  0.45 -3.2 0  0.55 -3.2 0  0.6499999999999999 -3.2 0  0.75 -3.2 0  -0.75 -3.1 0  -0.65 -3.1 0  -0.55 -3.1 0  -0.45 -3.1 0  -0.35 -3.1 0  -0.25 -3.1 0  -0.15 -3.1 0  -0.05000000000000004 -3.1 0  0.05000000000000004 -3.1 0  0.15 -3.1 0  0.25 -3.1 0  0.3500000000000001 -3.1 0  0.45 -3.1 0  0.55 -3.1 0  0.6499999999999999 -3.1 0  0.75 -3.1 0  -0.75 -3 0  -0.65 -3 0  -0.55 -3 0  -0.45 -3 0  -0.35 -3 0  -0.25 -3 0  -0.15 -3 0  -0.05000000000000004 -3 0  0.05000000000000004 -3 0  0.15 -3 0  0.25 -3 0  0.3500000000000001 -3 0  0.45 -3 0  0.55 -3 0  0.6499999999999999 -3 0  0.75 -3 0  -0.75 -2.9 0  -0.65 -2.9 0  -0.55 -2.9 0  -0.45 -2.9 0  -0.35 -2.9 0  -0.25 -2.9 0  -0.15 -2.9 0  -0.05000000000000004 -2.9 0  0.05000000000000004 -2.9 0  0.15 -2.9 0  0.25 -2.9 0  0.3500000000000001 -2.9 0  0.45 -2.9 0  0.55 -2.9 0  0.6499999999999999 -2.9 0  0.75 -2.9 0  -0.75 -2.8 0  -0.65 -2.8 0  -0.55 -2.8 0  -0.45 -2.8 0  -0.35 -2.8 0  -0.25 -2.8 0  -0.15 -2.8 0  -0.05000000000000004 -2.8 0  0.05000000000000004 -2.8 0  0.15 -2.8 0  0.25 -2.8 0  0.3500000000000001 -2.8 0  0.45 -2.8 0  0.55 -2.8 0  0.6499999999999999 -2.8 0  0.75 -2.8 0  -0.75 -2.7 0  -0.65 -2.7 0  -0.55 -2.7 0  -0.45 -2.7 0  -0.35 -2.7 0  -0.25 -2.7 0  -0.15 -2.7 0  -0.05000000000000004 -2.7 0  0.05000000000000004 -2.7 0  0.15 -2.7 0  0.25 -2.7 0  0.3500000000000001 -2.7 0  0.45 -2.7 0  0.55 -2.7 0  0.6499999999999999 -2.7 0  0.75 -2.7 0  -0.75 -2.6 0  -0.65 -2.6 0  -0.55 -2.6 0  -0.45 -2.6 0  -0.35 -2.6 0  -0.25 -2.6 0  -0.15 -2.6 0  -0.05000000000000004 -2.6 0  0.05000000000000004 -2.6 0  0.15 -2.6 0  0.25 -2.6 0  0.3500000000000001 -2.6 0  0.45 -2.6 0  0.55 -2.6 0  0.6499999999999999 -2.6 0  0.75 -2.6 0  -0.75 -2.5 0  -0.65 -2.5 0  -0.55 -2.5 0  -0.45 -2.5 0  -0.35 -2.5 0  -0.25 -2.5 0  -0.15 -2.5 0  -0.05000000000000004 -2.5 0  0.05000000000000004 -2.5 0  0.15 -2.5 0  0.25 -2.5 0  0.3500000000000001 -2.5 0  0.45 -2.5 0  0.55 -2.5 0  0.6499999999999999 -2.5 0  0.75 -2.5 0  -0.75 -2.4 0  -0.65 -2.4 0  -0.55 -2.4 0  -0.45 -2.4 0  -0.35 -2.4 0  -0.25 -2.4 0  -0.15 -2.4 0  -0.05000000000000004 -2.4 0  0.05000000000000004 -2.4 0  0.15 -2.4 0  0.25 -2.4 0  0.3500000000000001 -2.4 0  0.45 -2.4 0  0.55 -2.4 0  0.6499999999999999 -2.4 0  0.75 -2.4 0  -0.75 -2.3 0  -0.65 -2.3 0  -0.55 -2.3 0  -0.45 -2.3 0  -0.35 -2.3 0  -0.25 -2.3 0  -0.15 -2.3 0  -0.05000000000000004 -2.3 0  0.05000000000000004 -2.3 0  0.15 -2.3 0  0.25 -2.3 0  0.3500000000000001 -2.3 0  0.45 -2.3 0  0.55 -2.3 0  0.6499999999999999 -2.3 0  0.75 -2.3 0  -0.75 -2.2 0  -0.65 -2.2 0  -0.55 -2.2 0  -0.45 -2.2 0  -0.35 -2.2 0  -0.25 -2.2 0  -0.15 -2.2 0  -0.05000000000000004 -2.2 0  0.05000000000000004 -2.2 0  0.15 -2.2 0  0.25 -2.2 0  0.3500000000000001 -2.2 0  0.45 -2.2 0  0.55 -2.2 0  0.6499999999999999 -2.2 0  0.75 -2.2 0  -0.75 -2.1 0  -0.65 -2.1 0  -0.55 -2.1 0  -0.45 -2.1 0  -0.35 -2.1 0  -0.25 -2.1 0  -0.15 -2.1 0  -0.05000000000000004 -2.1 0  0.05000000000000004 -2.1 0  0.15 -2.1 0  0.25 -2.1 0  0.3500000000000001 -2.1 0  0.45 -2.1 0  0.55 -2.1 0  0.6499999999999999 -2.1 0  0.75 -2.1 0  -0.75 -2 0  -0.65 -2 0  -0.55 -2 0  -0.45 -2 0  -0.35 -2 0  -0.25 -2 0  -0.15 -2 0  -0.05000000000000004 -2 0  0.05000000000000004 -2 0  0.15 -2 0  0.25 -2 0  0.3500000000000001 -2 0  0.45 -2 0  0.55 -2 0  0.6499999999999999 -2 0  0.75 -2 0  -0.75 -1.9 0  -0.65 -1.9 0  -0.55 -1.9 0  -0.45 -1.9 0  -0.35 -1.9 0  -0.25 -1.9 0  -0.15 -1.9 0  -0.05000000000000004 -1.9 0  0.05000000000000004 -1.9 0  0.15 -1.9 0  0.25 -1.9 0  0.3500000000000001 -1.9 0  0.45 -1.9 0  0.55 -1.9 0  0.6499999999999999 -1.9 0  0.75 -1.9 0  -0.75 -1.8 0  -0.65 -1.8 0  -0.55 -1.8 0  -0.45 -1.8 0  -0.35 -1.8 0  -0.25 -1.8 0  -0.15 -1.8 0  -0.05000000000000004 -1.8 0  0.05000000000000004 -1.8 0  0.15 -1.8 0  0.25 -1.8 0  0.3500000000000001 -1.8 0  0.45 -1.8 0  0.55 -1.8 0  0.6499999999999999 -1.8 0  0.75 -1.8 0  -0.75 -1.7 0  -0.65 -1.7 0  -0.55 -1.7 0  -0.45 -1.7 0  -0.35 -1.7 0  -0.25 -1.7 0  -0.15 -1.7 0  -0.05000000000000004 -1.7 0  0.05000000000000004 -1.7 0  0.15 -1.7 0  0.25 -1.7 0  0.3500000000000001 -1.7 0  0.45 -1.7 0  0.55 -1.7 0  0.6499999999999999 -1.7 0  0.75 -1.7 0  -0.75 -1.6 0  -0.65 -1.6 0  -0.55 -1.6 0  -0.45 -1.6 0  -0.35 -1.6 0  -0.25 -1.6 0  -0.15 -1.6 0  -0.05000000000000004 -1.6 0  0.05000000000000004 -1.6 0  0.15 -1.6 0  0.25 -1.6 0  0.3500000000000001 -1.6 0  0.45 -1.6 0  0.55 -1.6 0  0.6499999999999999 -1.6 0  0.75 -1.6 0  -0.75 -1.5 0  -0.65 -1.5 0  -0.55 -1.5 0  -0.45 -1.5 0  -0.35 -1.5 0  -0.25 -1.5 0  -0.15 -1.5 0  -0.05000000000000004 -1.5 0  0.05000000000000004 -1.5 0  0.15 -1.5 0  0.25 -1.5 0  0.3500000000000001 -1.5 0  0.45 -1.5 0  0.55 -1.5 0  0.6499999999999999 -1.5 0  0.75 -1.5 0  -0.75 -1.4 0  -0.65 -1.4 0  -0.55 -1.4 0  -0.45 -1.4 0  -0.35 -1.4 0  -0.25 -1.4 0  -0.15 -1.4 0  -0.05000000000000004 -1.4 0  0.05000000000000004 -1.4 0  0.15 -1.4 0  0.25 -1.4 0  0.3500000000000001 -1.4 0  0.45 -1.4 0  0.55 -1.4 0  0.6499999999999999 -1.4 0  0.75 -1.4 0  -0.75 -1.3 0  -0.65 -1.3 0  -0.55 -1.3 0  -0.45 -1.3 0  -0.35 -1.3 0  -0.25 -1.3 0  -0.15 -1.3 0  -0.05000000000000004 -1.3 0  0.05000000000000004 -1.3 0  0.15 -1.3 0  0.25 -1.3 0  0.3500000000000001 -1.3 0  0.45 -1.3 0  0.55 -1.3 0  0.6499999999999999 -1.3 0  0.75 -1.3 0  -0.75 -1.2 0  -0.65 -1.2 0  -0.55 -1.2 0  -0.45 -1.2 0  -0.35 -1.2 0  -0.25 -1.2 0  -0.15 -1.2 0  -0.05000000000000004 -1.2 0  0.05000000000000004 -1.2 0  0.15 -1.2 0  0.25 -1.2 0  0.3500000000000001 -1.2 0  0.45 -1.2 0  0.55 -1.2 0  0.6499999999999999 -1.2 0  0.75 -1.2 0  -0.75 -1.1 0  -0.65 -1.1 0  -0.55 -1.1 0  -0.45 -1.1 0  -0.35 -1.1 0  -0.25 -1.1 0  -0.15 -1.1 0  -0.05000000000000004 -1.1 0  0.05000000000000004 -1.1 0  0.15 -1.1 0  0.25 -1.1 0  0.3500000000000001 -1.1 0  0.45 -1.1 0  0.55 -1.1 0  0.6499999999999999 -1.1 0  0.75 -1.1 0  -0.75 -1 0  -0.65 -1 0  -0.55 -1 0  -0.45 -1 0  -0.35 -1 0  -0.25 -1 0  -0.15 -1 0  -0.05000000000000004 -1 0  0.05000000000000004 -1 0  0.15 -1 0  0.25 -1 0  0.3500000000000001 -1 0  0.45 -1 0  0.55 -1 0  0.6499999999999999 -1 0  0.75 -1 0  -0.75 -0.8999999999999999 0  -0.65 -0.899999
[...]
<PointData  Vectors="displacement"> 
<DataArray  type="Float64"  Name="displacement"  NumberOfComponents="3" format="ascii">-3.5264830524668492e-36 -2.9778502051909079e-21 0.0000000000000000e+00  -1.7246177322361985e-36 2.9713414499597900e-21 0.0000000000000000e+00  -2.8211864419734996e-35 -2.4815418376590915e-22 0.0000000000000000e+00  7.4031606805174654e-36 -1.2475563847918949e-21 0.0000000000000000e+00  -6.7003177996870602e-35 9.9261673506363641e-22 0.0000000000000000e+00  -5.6386757297352963e-35 -6.4656796430630942e-24 0.0000000000000000e+00  0.0000000000000000e+00 1.7370792863613645e-21 0.0000000000000000e+00  7.1724791707041742e-36 -1.2543418507542439e-21 0.0000000000000000e+00  8.4635593259204979e-35 0.0000000000000000e+00 0.0000000000000000e+00  6.3222206476699960e-35 2.4175970654549963e-22 0.0000000000000000e+00  -7.0529661049337438e-36 -2.7296960214249985e-21 0.0000000000000000e+00  -4.9370762734536278e-35 -1.2405285807594627e-21 0.0000000000000000e+00  -2.2922139841034681e-35 -7.4446255129772735e-22 0.0000000000000000e+00  -1.2783501065192414e-35 5.2732764050255665e-22 0.0000000000000000e+00  3.5264830524668772e-36 0.0000000000000000e+00 0.0000000000000000e+00  1.7632415262334356e-36 9.9261673506363565e-22 0.0000000000000000e+00  1.4105932209867399e-35 -2.7023849214673681e-05 0.0000000000000000e+00  -9.2385045116653662e-20 -2.7023849214673715e-05 0.0000000000000000e+00  -1.7451139296358578e-19 -2.7023849214673712e-05 0.0000000000000000e+00  -2.4133059406032274e-19 -2.7023849214673691e-05 0.0000000000000000e+00  -2.9276853695591807e-19 -2.7023849214673722e-05 0.0000000000000000e+00  -3.7906736917776732e-19 -2.7023849214673739e-05 0.0000000000000000e+00  -4.6377266990631597e-19 -2.7023849214673773e-05 0.0000000000000000e+00  -5.3243586091022872e-19 -2.7023849214673783e-05 0.0000000000000000e+00  -5.4164071109120897e-19 -2.7023849214673790e-05 0.0000000000000000e+00  -5.0942868061326617e-19 -2.7023849214673800e-05 0.0000000000000000e+00  -4.6364367698643253e-19 -2.7023849214673810e-05 0.0000000000000000e+00  -3.8049930549407812e-19 -2.7023849214673912e-05 0.0000000000000000e+00  -2.7840138880862125e-19 -2.7023849214673976e-05 0.0000000000000000e+00  -1.9840159415536163e-19 -2.7023849214674010e-05 0.0000000000000000e+00  -1.0849736791617029e-19 -2.7023849214674081e-05 0.0000000000000000e+00  -1.0198455671485779e-35 -2.7023849214674101e-05 0.0000000000000000e+00  3.5264830524668652e-36 -5.4161451652458209e-05 0.0000000000000000e+00  -1.5911907300680565e-19 -5.4161451652458196e-05 0.0000000000000000e+00  -3.0065296275109315e-19 -5.4161451652458250e-05 0.0000000000000000e+00  -4.3759555061799941e-19 -5.4161451652458277e-05 0.0000000000000000e+00  -5.7676577006819854e-19 -5.4161451652458264e-05 0.0000000000000000e+00  -7.0840128570716400e-19 -5.4161451652458338e-05 0.0000000000000000e+00  -8.3249352437561669e-19 -5.4161451652458365e-05 0.0000000000000000e+00  -9.4798581653961280e-19 -5.4161451652458406e-05 0.0000000000000000e+00  -9.8894556006047730e-19 -5.4161451652458467e-05 0.0000000000000000e+00  -9.7289947496982875e-19 -5.4161451652458528e-05 0.0000000000000000e+00  -8.1965374613983637e-19 -5.4161451652458562e-05 0.0000000000000000e+00  -6.3973100123085349e-19 -5.4161451652458819e-05 0.0000000000000000e+00  -5.0793143774988909e-19 -5.4161451652458928e-05 0.0000000000000000e+00  -3.5808105675972906e-19 -5.4161451652459043e-05 0.0000000000000000e+00  -1.8829090305805332e-19 -5.4161451652459212e-05 0.0000000000000000e+00  1.9023723029127890e-35 -5.4161451652459151e-05 0.0000000000000000e+00  1.8183428239282273e-36 -8.1526356221037671e-05 0.0000000000000000e+00  -2.2945191326293906e-19 -8.1526356221037820e-05 0.0000000000000000e+00  -4.3561853181694059e-19 -8.1526356221037820e-05 0.0000000000000000e+00  -6.1914663853060446e-19 -8.1526356221037929e-05 0.0000000000000000e+00  -8.2063609850611582e-19 -8.1526356221037902e-05 0.0000000000000000e+00  -9.9585887277903211e-19 -8.1526356221038078e-05 0.0000000000000000e+00  -1.1507126904633788e-18 -8.1526356221038024e-05 0.0000000000000000e+00  -1.2674101304576297e-18 -8.1526356221038159e-05 0.0000000000000000e+00  -1.3282441310575972e-18 -8.1526356221038227e-05 0.0000000000000000e+00  -1.2547795699918428e-18 -8.1526356221038322e-05 0.0000000000000000e+00  -1.0972600298045881e-18 -8.1526356221038457e-05 0.0000000000000000e+00  -9.1610166339564565e-19 -8.1526356221038701e-05 0.0000000000000000e+00  -7.0792793827557328e-19 -8.1526356221038959e-05 0.0000000000000000e+00  -4.7378177557124545e-19 -8.1526356221039189e-05 0.0000000000000000e+00  -2.5813241362237207e-19 -8.1526356221039379e-05 0.0000000000000000e+00  3.9798880163554603e-35 -8.1526356221039447e-05 0.0000000000000000e+00  -3.1738347472201650e-35 -1.0923170199372466e-04 0.0000000000000000e+00  -2.6716682893836163e-19 -1.0923170199372460e-04 0.0000000000000000e+00  -5.5065305261051814e-19 -1.0923170199372472e-04 0.0000000000000000e+00  -8.1738554121584772e-19 -1.0923170199372470e-04 0.0000000000000000e+00  -1.0543984250680300e-18 -1.0923170199372493e-04 0.0000000000000000e+00  -1.2485615522598012e-18 -1.0923170199372502e-04 0.0000000000000000e+00  -1.4181555110107118e-18 -1.0923170199372503e-04 0.0000000000000000e+00  -1.5766982493014821e-18 -1.0923170199372510e-04 0.0000000000000000e+00  -1.5816813494091682e-18 -1.0923170199372537e-04 0.0000000000000000e+00  -1.5138214486835262e-18 -1.0923170199372530e-04 0.0000000000000000e+00  -1.3647943363862695e-18 -1.0923170199372571e-04 0.0000000000000000e+00  -1.1273379213375441e-18 -1.0923170199372607e-04 0.0000000000000000e+00  -8.4315958739856962e-19 -1.0923170199372647e-04 0.0000000000000000e+00  -5.7005828611513637e-19 -1.0923170199372670e-04 0.0000000000000000e+00  -2.9175214535148828e-19 -1.0923170199372697e-04 0.0000000000000000e+00  3.5264830524668486e-35 -1.0923170199372704e-04 0.0000000000000000e+00  -6.4521999634489345e-36 -1.3739001032384650e-04 0.0000000000000000e+00  -3.3127974309546940e-19 -1.3739001032384642e-04 0.0000000000000000e+00  -6.6295667348204650e-19 -1.3739001032384650e-04 0.0000000000000000e+00  -9.7546760683694522e-19 -1.3739001032384674e-04 0.0000000000000000e+00  -1.2477055447519599e-18 -1.3739001032384685e-04 0.0000000000000000e+00  -1.4897523210475552e-18 -1.3739001032384699e-04 0.0000000000000000e+00  -1.6675260532360504e-18 -1.3739001032384709e-04 0.0000000000000000e+00  -1.7852416178322860e-18 -1.3739001032384701e-04 0.0000000000000000e+00  -1.8347431504964920e-18 -1.3739001032384737e-04 0.0000000000000000e+00  -1.7386777726511648e-18 -1.3739001032384756e-04 0.0000000000000000e+00  -1.5653176597473212e-18 -1.3739001032384777e-04 0.0000000000000000e+00  -1.3255313336117115e-18 -1.3739001032384842e-04 0.0000000000000000e+00  -9.9860227781526102e-19 -1.3739001032384891e-04 0.0000000000000000e+00  -6.6105647919499670e-19 -1.3739001032384924e-04 0.0000000000000000e+00  -3.2886566481101870e-19 -1.3739001032384951e-04 0.0000000000000000e+00  5.3013108915580769e-35 -1.3739001032384951e-04 0.0000000000000000e+00  -2.1158898314801148e-35 -1.6611297350917442e-04 0.0000000000000000e+00  -3.9931984744551030e-19 -1.6611297350917429e-04 0.0000000000000000e+00  -7.7464587102090119e-19 -1.6611297350917448e-04 0.0000000000000000e+00  -1.0945487448556785e-18 -1.6611297350917445e-04 0.0000000000000000e+00  -1.3978296014638014e-18 -1.6611297350917491e-04 0.0000000000000000e+00  -1.6434569256000786e-18 -1.6611297350917507e-04 0.0000000000000000e+00  -1.8617020908035355e-18 -1.6611297350917521e-04 0.0000000000000000e+00  -1.9694458121785105e-18 -1.6611297350917515e-04 0.0000000000000000e+00  -1.9990254809497296e-18 -1.6611297350917526e-04 0.0000000000000000e+00  -1.9837513729492176e-18 -1.6611297350917602e-04 0.0000000000000000e+00  -1.7701365447367767e-18 -1.6611297350917597e-04 0.0000000000000000e+00  -1.4933415769230914e-18 -1.6611297350917675e-04 0.0000000000000000e+00  -1.1691778101636548e-18 -1.6611297350917727e-04 0.0000000000000000e+00  -7.7630958292232685e-19 -1.6611297350917786e-04 0.0000000000000000e+00  -3.7956528873498454e-19 -1.6611297350917816e-04 0.0000000000000000e+00  -1.4973437200369652e-34 -1.6611297350917803e-04 0.0000000000000000e+00  1.1654863144805186e-34 -1.9551123904059487e-04 0.0000000000000000e+00  -4.5391754307488535e-19 -1.9551123904059517e-04 0.0000000000000000e+00  -8.6413974362351495e-19 -1.9551123904059523e-04 0.0000000000000000e+00  -1.1950110738561747e-18 -1.9551123904059577e-04 0.0000000000000000e+00  -1.4914413826360455e-18 -1.9551123904059593e-04 0.0000000000000000e+00  -1.7593687771101602e-18 -1.9551123904059593e-04 0.0000000000000000e+00  -1.9826650580281856e-18 -1.9551123904059612e-04 0.0000000000000000e+00  -2.1375074402332009e-18 -1.9551123904059634e-04 0.0000000000000000e+00  -2.1659195598246706e-18 -1.9551123904059636e-04 0.0000000000000000e+00  -2.1233615494296015e-18 -1.9551123904059674e-04 0.0000000000000000e+00  -1.9480681214494727e-18 -1.9551123904059720e-04 0.0000000000000000e+00  -1.6421901294087133e-18 -1.9551123904059804e-04 0.0000000000000000e+00  -1.2824060030416277e-18 -1.9551123904059870e-04 0.0000000000000000e+00  -8.4507091422699521e-19 -1.9551123904059929e-04 0.0000000000000000e+00  -4.2505045648722301e-19 -1.9551123904059948e-04 0.0000000000000000e+00  3.8287530283925938e-35 -1.9551123904059959e-04 0.0000000000000000e+00  5.6423728839469790e-35 -2.2569418862175870e-04 0.0000000000000000e+00  -4.5213871712661883e-19 -2.2569418862175870e-04 0.0000000000000000e+00  -8.9398483495991423e-19 -2.2569418862175908e-04 0.0000000000000000e+00  -1.3329538776432471e-18 -2.2569418862175930e-04 0.0000000000000000e+00  -1.6350873131519987e-18 -2.2569418862175984e-04 0.0000000000000000e+00  -1.8956522331326232e-18 -2.2569418862176000e-04 0.0000000000000000e+00  -2.1346341724073186e-18 -2.2569418862175995e-04 0.0000000000000000e+00  -2.3006819514124063e-18 -2.2569418862176003e-04 0.0000000000000000e+00  -2.2945923379480493e-18 -2.2569418862176046e-04 0.0000000000000000e+00  -2.2610992436534409e-18 -2.2569418862176054e-04 0.0000000000000000e+00  -2.1315853075609232e-18 -2.2569418862176144e-04 0.0000000000000000e+00  -1.7906955912591704e-18 -2.2569418862176222e-04 0.0000000000000000e+00  -1.3754345383010814e-18 -2.2569418862176301e-04 0.0000000000000000e+00  -9.3574012002306944e-19 -2.2569418862176371e-04 0.0000000000000000e+00  -5.1076390605557454e-19 -2.2569418862176401e-04 0.0000000000000000e+00  5.6423728839469779e-35 -2.2569418862176385e-04 0.0000000000000000e+00  -1.3665124602479386e-35 -2.5676971133050097e-04 0.0000000000000000e+00  -4.8143109071074675e-19 -2.5676971133050107e-04 0.0000000000000000e+00  -9.4472568081417786e-19 -2.5676971133050102e-04 0.0000000000000000e+00  -1.3847429681015841e-18 -2.5676971133050151e-04 0.0000000000000000e+00  -1.7119469662704527e-18 -2.5676971133050216e-04 0.0000000000000000e+00  -2.0233040396975513e-18 -2.5676971133050243e-04 0.0000000000000000e+00  -2.2711065190146575e-18 -2.5676971133050243e-04 0.0000000000000000e+00  -2.3754063131168336e-18 -2.5676971133050243e-04 0.0000000000000000e+00  -2.3778820175450787e-18 -2.5676971133050270e-04 0.0000000000000000e+00  -2.4214809197979583e-18 -2.5676971133050297e-04 0.0000000000000000e+00  -2.2639587102368780e-18 -2.5676971133050389e-04 0.0000000000000000e+00  -1.8735915670317426e-18 -2.5676971133050498e-04 0.0000000000000000e+00  -1.4547866625783042e-18 -2.5676971133050563e-04 0.0000000000000000e+00  -1.0894447245755928e-18 -2.5676971133050639e-04 0.0000000000000000e+00  -5.9709724853565603e-19 -2.5676971133050650e-04 0.0000000000000000e+00  -1.1957234336078857e-35 -2.5676971133050666e-04 0.0000000000000000e+00  -3.5264830524668652e-35 -2.8884397050429650e-04 0.0000000000000000e+00  -5.1448500272200504e-19 -2.8884397050429655e-04 0.0000000000000000e+00  -1.0242494130269451e-18 -2.8884397050429655e-04 0.0000000000000000e+00  -1.4878760350268424e-18 -2.8884397050429742e-04 0.0000000000000000e+00  -1.8462984517355157e-18 -2.8884397050429796e-04 0.0000000000000000e+00  -2.0878648644839998e-18 -2.8884397050429840e-04 0.0000000000000000e+00  -2.2703810874898127e-18 -2.8884397050429829e-04 0.0000000000000000e+00  -2.4119799483627006e-18 -2.8884397050429840e-04 0.0000000000000000e+00  -2.5050123143301600e-18 -2.8884397050429851e-04 0.0000000000000000e+00  -2.4803869426965161e-18 -2.8884397050429845e-04 0.0000000000000000e+00  -2.3565763233543054e-18 -2.8884397050429981e-04 0.0000000000000000e+00  -2.0104121535962018e-18 -2.8884397050430105e-04 0.0000000000000000e+00  -1.5689313431099163e-18 -2.8884397050430143e-04 0.0000000000000000e+00  -1.1362883096160302e-18 -2.8884397050430263e-04 0.0000000000000000e+00  -6.2535729430409026e-19 -2.8884397050430263e-04 0.0000000000000000e+00  -3.0081770233040032e-35 -2.8884397050430284e-04 0.0000000000000000e+00  8.5516675833280890e-35 -3.2202116416603951e-04 0.0000000000000000e+00  -5.4012085337310272e-19 -3.2202116416603930e-04 0.0000000000000000e+00  -1.0898669899727137e-18 -3.2202116416603930e-04 0.0000000000000000e+00  -1.5036337265889760e-18 -3.2202116416603978e-04 0.0000000000000000e+00  -1.8572208175442636e-18 -3.2202116416604043e-04 0.0000000000000000e+00  -2.0703672420907477e-18 -3.2202116416604146e-04 0.0000000000000000e+00  -2.2526848469714861e-18 -3.2202116416604125e-04 0.0000000000000000e+00  -2.4710971039598304e-18 -3.2202116416604119e-04 0.0000000000000000e+00  -2.6411717897696042e-18 -3.2202116416604141e-04 0.0000000000000000e+00  -2.5411931598821362e-18 -3.2202116416604179e-04 0.0000000000000000e+00  -2.2762410670102540e-18 -3.2202116416604282e-04 0.0000000000000000e+00  -2.0105150333396814e-18 -3.2202116416604374e-04 0.0000000000000000e+00  -1.6057079280816939e-18 -3.2202116416604477e-04 0.0000000000000000e+00  -1.0889164516025359e-18 -3.2202116416604558e-04 0.0000000000000000e+00  -5.3976563487560295e-19 -3.2202116416604585e-04 0.0000000000000000e+00  5.5919945546260171e-35 -3.2202116416604613e-04 0.0000000000000000e+00  -1.1990042378387330e-34 -3.5640327905771160e-04 0.0000000000000000e+00  -5.9287780890887635e-19 -3.5640327905771160e-04 0.0000000000000000e+00  -1.0704733246483282e-18 -3.5640327905771192e-04 0.0000000000000000e+00  -1.4514073807269107e-18 -3.5640327905771258e-04 0.0000000000000000e+00  -1.7529531264979943e-18 -3.5640327905771350e-04 0.0000000000000000e+00  -2.0995035544921907e-18 -3.5640327905771415e-04 0.0000000000000000e+00  -2.3444238730030145e-18 -3.5640327905771361e-04 0.0000000000000000e+00  -2.5593805014490989e-18 -3.5640327905771388e-04 0.0000000000000000e+00  -2.6766473444668246e-18 -3.5640327905771393e-04 0.0000000000000000e+00  -2.5659914475050384e-18 -3.5640327905771464e-04 0.0000000000000000e+00  -2.3139245189569847e-18 -3.5640327905771556e-04 0.0000000000000000e+00  -2.0268739061871489e-18 -3.5640327905771659e-04 0.0000000000000000e+00  -1.5520109411330277e-18 -3.5640327905771745e-04 0.0000000000000000e+00  -9.2560575049213307e-19 -3.5640327905771865e-04 0.0000000000000000e+00  -4.3826618016794527e-19 -3.5640327905771919e-04 0.0000000000000000e+00  7.0529661049337224e-36 -3.5640327905771908e-04 0.0000000000000000e+00  9.1673367647676812e-35 -3.9208983861228013e-04 0.0000000000000000e+00  -5.0671327946325719e-19 -3.9208983861228008e-04 0.0000000000000000e+00  -9.7964165924725092e-19 -3.9208983861228013e-04 0.0000000000000000e+00  -1.4513875327725849e-18 -3.9208983861228121e-04 0.0000000000000000e+00  -1.8134158462593602e-18 -3.9208983861228203e-04 0.0000000000000000e+00  -2.1687550796202538e-18 -3.9208983861228230e-04 0.0000000000000000e+00  -2.4592736728404107e-18 -3.9208983861228289e-04 0.0000000000000000e+00  -2.6907542852254081e-18 -3.9208983861228197e-04 0.0000000000000000e+00  -2.7215229329083188e-18 -3.9208983861228306e-04 0.0000000000000000e+00  -2.6683257463153082e-18 -3.9208983861228365e-04 0.0000000000000000e+00  -2.4738091140145633e-18 -3.9208983861228414e-04 0.0000000000000000e+00  -1.9758853594846294e-18 -3.9208983861228550e-04 0.0000000000000000e+00  -1.4860334098769987e-18 -3.9208983861228663e-04 0.0000000000000000e+00  -9.3658465081731343e-19 -3.9208983861228761e-04 0.0000000000000000e+00  -4.4446614476351705e-19 -3.9208983861228842e-04 0.0000000000000000e+00  8.7003873686171176e-35 -3.9208983861228794e-04 0.0000000000000000e+00  2.1158898314801148e-35 -4.2917764546236681e-04 0.0000000000000000e+00  -5.2472881536624298e-19 -4.2917764546236741e-04 0.0000000000000000e+00  -9.8163536046957050e-19 -4.2917764546236686e-04 0.0000000000000000e+00  -1.4258786745996744e-18 -4.2917764546236833e-04 0.0000000000000000e+00  -1.7538591011580374e-18 -4.2917764546236930e-04 0.0000000000000000e+00  -2.2305549665101825e-18 -4.2917764546237023e-04 0.0000000000000000e+00  -2.6527068452981232e-18 -4.2917764546236925e-04 0.0000000000000000e+00  -2.8376234686620070e-18 -4.2917764546236952e-04 0.0000000000000000e+00  -2.7736250649958675e-18 -4.2917764546236990e-04 0.0000000000000000e+00  -2.7740550029547349e-18 -4.2917764546237039e-04 0.0000000000000000e+00  -2.5406641443566628e-18 -4.2917764546237196e-04 0.0000000000000000e+00  -2.0923011437534205e-18 -4.2917764546237299e-04 0.0000000000000000e+00  -1.5404241687022340e-18 -4.2917764546237494e-04 0.0000000000000000e+00  -9.5854245146767262e-19 -4.2917764546237543e-04 0.0000000000000000e+00  -4.6973276343884149e-19 -4.2917764546237592e-04 0.0000000000000000e+00  -3.3155925977531122e-35 -4.2917764546237538e-04 0.0000000000000000e+00  -2.9471929935476142e-36 -4.6776051935172976e-04 0.0000000000000000e+00  -5.3922304610353215e-19 -4.6776051935173030e-04 0.0000000000000000e+00  -9.9947580340121546e-19 -4.6776051935172960e-04 0.0000000000000000e+00  -1.4441476581583417e-18 -4.6776051935173128e-04 0.0000000000000000e+00  -1.8833036711655551e-18 -4.6776051935173204e-04 0.0000000000000000e+00  -2.2396279167867584e-18 -4.6776051935173155e-04 0.0000000000000000e+00  -2.5834489805475321e-18 -4.6776051935173171e-04 0.0000000000000000e+00  -2.8173547296001316e-18 -4.6776051935173220e-04 0.0000000000000000e+00  -2.9747551768261965e-18 -4.6776051935173274e-04 0.0000000000000000e+00  -2.8008783717637538e-18 -4.6776051935173328e-04 0.0000000000000000e+00  -2.5605346418753497e-18 -4.6776051935173469e-04 0.0000000000000000e+00  -2.1926130745576535e-18 -4.6776051935173621e-04 0.0000000000000000e+00  -1.6594818210321582e-18 -4.6776051935173724e-04 0.0000000000000000e+00  -1.1497289132136746e-18 -4.6776051935173849e-04 0.0000000000000000e+00  -6.1881744750049176e-19 -4.6776051935173865e-04 0.0000000000000000e+00  3.9295096870345059e-35 -4.6776051935173903e-04 0.0000000000000000e+00  0.0000000000000000e+00 -5.0792903157608480e-04 0.0000000000000000e+00  -5.1818282239320349e-19 -5.0792903157608502e-04 0.0000000000000000e+00  -1.0356844615839783e-18 -5.0792903157608513e-04 0.0000000000000000e+00  -1.4648742828278080e-18 -5.0792903157608621e-04 0.0000000000000000e+00  -1.8796919594615298e-18 -5.0792903157608697e-04 0.0000000000000000e+00  -2.2352174255717079e-18 -5.0792903157608729e-04 0.0000000000000000e+00  -2.5220169521785766e-18 -5.0792903157608686e-04 0.0000000000000000e+00  -2.8306002577550794e-18 -5.0792903157608675e-04 0.0000000000000000e+00  -3.0051388983941381e-18 -5.0792903157608794e-04 0.0000000000000000e+00  -2.9081945731560734e-18 -5.0792903157608925e-04 0.0000000000000000e+00  -2.6722338261437208e-18 -5.0792903157609011e-04 0.0000000000000000e+00  -2.3190815609957918e-18 -5.0792903157609174e-04 0.0000000000000000e+00  -1.7591604957165607e-18 -5.0792903157609282e-04 0.0000000000000000e+00  -1.2363930827741619e-18 -5.0792903157609369e-04 0.0000000000000000e+00  -6.3670213728881901e-19 -5.0792903157609445e-04 0.0000000000000000e+00  4.2317796629602286e-35 -5.0792903157609467e-04 0.0000000000000000e+00  -4.2308792822705931e-35 -5.4977023732725994e-04 0.0000000000000000e+00  -5.3778652820244978e-19 -5.4977023732725951e-04 0.0000000000000000e+00  -1.0065946703713708e-18 -5.4977023732726048e-04 0.0000000000000000e+00  -1.4135448285935240e-18 -5.4977023732726102e-04 0.0000000000000000e+00  -1.8337805839675270e-18 -5.497702373272