<?xml version="1.0"?>
<VTKFile type="UnstructuredGrid"  version="0.1"  >
<UnstructuredGrid>
<Piece  NumberOfPoints="431" NumberOfCells="800">
<Points>
<DataArray  type="Float64"  NumberOfComponents="3"  format="ascii">-0.25 -1 0  -0.2 -1 0  -0.15 -1 0  -0.1 -1 0  -0.04999999999999999 -1 0  0 -1 0  0.04999999999999999 -1 0  0.09999999999999998 -1 0  0.15 -1 0  0.2 -1 0  0.25 -1 0  -0.25 -0.95 0  -0.2 -0.95 0  -0.15 -0.95 0  -0.1 -0.95 0  -0.04999999999999999 -0.95 0  0 -0.95 0  0.04999999999999999 -0.95 0  0.09999999999999998 -0.95 0  0.15 -0.95 0  0.2 -0.95 0  0.25 -0.95 0  -0.25 -0.9 0  -0.2 -0.9 0  -0.15 -0.9 0  -0.1 -0.9 0  -0.04999999999999999 -0.9 0  0 -0.9 0  0.04999999999999999 -0.9 0  0.09999999999999998 -0.9 0  0.15 -0.9 0  0.2 -0.9 0  0.25 -0.9 0  -0.25 -0.85 0  -0.2 -0.85 0  -0.15 -0.85 0  -0.1 -0.85 0  -0.04999999999999999 -0.85 0  0 -0.85 0  0.04999999999999999 -0.85 0  0.09999999999999998 -0.85 0  0.15 -0.85 0  0.2 -0.85 0  0.25 -0.85 0  -0.25 -0.8 0  -0.2 -0.8 0  -0.15 -0.8 0  -0.1 -0.8 0  -0.04999999999999999 -0.8 0  0 -0.8 0  0.04999999999999999 -0.8 0  0.09999999999999998 -0.8 0  0.15 -0.8 0  0.2 -0.8 0  0.25 -0.8 0  -0.25 -0.75 0  -0.2 -0.75 0  -0.15 -0.75 0  -0.1 -0.75 0  -0.04999999999999999 -0.75 0  0 -0.75 0  0.04999999999999999 -0.75 0  0.09999999999999998 -0.75 0  0.15 -0.75 0  0.2 -0.75 0  0.25 -0.75 0  -0.25 -0.7 0  -0.2 -0.7 0  -0.15 -0.7 0  -0.1 -0.7 0  -0.04999999999999999 -0.7 0  0 -0.7 0  0.04999999999999999 -0.7 0  0.09999999999999998 -0.7 0  0.15 -0.7 0  0.2 -0.7 0  0.25 -0.7 0  -0.25 -0.65 0  -0.2 -0.65 0  -0.15 -0.65 0  -0.1 -0.65 0  -0.04999999999999999 -0.65 0  0 -0.65 0  0.04999999999999999 -0.65 0  0.09999999999999998 -0.65 0  0.15 -0.65 0  0.2 -0.65 0  0.25 -0.65 0  -0.25 -0.6 0  -0.2 -0.6 0  -0.15 -0.6 0  -0.1 -0.6 0  -0.04999999999999999 -0.6 0  0 -0.6 0  0.04999999999999999 -0.6 0  0.09999999999999998 -0.6 0  0.15 -0.6 0  0.2 -0.6 0  0.25 -0.6 0  -0.25 -0.55 0  -0.2 -0.55 0  -0.15 -0.55 0  -0.1 -0.55 0  -0.04999999999999999 -0.55 0  0 -0.55 0  0.04999999999999999 -0.55 0  0.09999999999999998 -0.55 0  0.15 -0.55 0  0.2 -0.55 0  0.25 -0.55 0  -0.25 -0.5 0  -0.2 -0.5 0  -0.15 -0.5 0  -0.1 -0.5 0  -0.04999999999999999 -0.5 0  0 -0.5 0  0.04999999999999999 -0.5 0  0.09999999999999998 -0.5 0  0.15 -0.5 0  0.2 -0.5 0  0.25 -0.5 0  -0.25 -0.45 0  -0.2 -0.45 0  -0.15 -0.45 0  -0.1 -0.45 0  -0.04999999999999999 -0.45 0  0 -0.45 0  0.04999999999999999 -0.45 0  0.09999999999999998 -0.45 0  0.15 -0.45 0  0.2 -0.45 0  0.25 -0.45 0  -0.25 -0.4 0  -0.2 -0.4 0  -0.15 -0.4 0  -0.1 -0.4 0  -0.04999999999999999 -0.4 0  0 -0.4 0  0.04999999999999999 -0.4 0  0.09999999999999998 -0.4 0  0.15 -0.4 0  0.2 -0.4 0  0.25 -0.4 0  -0.25 -0.35 0  -0.2 -0.35 0  -0.15 -0.35 0  -0.1 -0.35 0  -0.04999999999999999 -0.35 0  0 -0.35 0  0.04999999999999999 -0.35 0  0.09999999999999998 -0.35 0  0.15 -0.35 0  0.2 -0.35 0  0.25 -0.35 0  -0.25 -0.3 0  -0.2 -0.3 0  -0.15 -0.3 0  -0.1 -0.3 0  -0.04999999999999999 -0.3 0  0 -0.3 0  0.04999999999999999 -0.3 0  0.09999999999999998 -0.3 0  0.15 -0.3 0  0.2 -0.3 0  0.25 -0.3 0  -0.25 -0.25 0  -0.2 -0.25 0  -0.15 -0.25 0  -0.1 -0.25 0  -0.04999999999999999 -0.25 0  0 -0.25 0  0.04999999999999999 -0.25 0  0.09999999999999998 -0.25 0  0.15 -0.25 0  0.2 -0.25 0  0.25 -0.25 0  -0.25 -0.2 0  -0.2 -0.2 0  -0.15 -0.2 0  -0.1 -0.2 0  -0.04999999999999999 -0.2 0  0 -0.2 0  0.04999999999999999 -0.2 0  0.09999999999999998 -0.2 0  0.15 -0.2 0  0.2 -0.2 0  0.25 -0.2 0  -0.25 -0.15 0  -0.2 -0.15 0  -0.15 -0.15 0  -0.1 -0.15 0  -0.04999999999999999 -0.15 0  0 -0.15 0  0.04999999999999999 -0.15 0  0.09999999999999998 -0.15 0  0.15 -0.15 0  0.2 -0.15 0  0.25 -0.15 0  -0.25 -0.09999999999999998 0  -0.2 -0.09999999999999998 0  -0.15 -0.09999999999999998 0  -0.1 -0.09999999999999998 0  -0.04999999999999999 -0.09999999999999998 0  0 -0.09999999999999998 0  0.04999999999999999 -0.09999999999999998 0  0.09999999999999998 -0.09999999999999998 0  0.15 -0.09999999999999998 0  0.2 -0.09999999999999998 0  0.25 -0.09999999999999998 0  -0.25 -0.05000000000000004 0  -0.2 -0.05000000000000004 0  -0.15 -0.05000000000000004 0  -0.1 -0.05000000000000004 0  -0.04999999999999999 -0.05000000000000004 0  0 -0.05000000000000004 0  0.04999999999999999 -0.05000000000000004 0  0.09999999999999998 -0.05000000000000004 0  0.15 -0.05000000000000004 0  0.2 -0.05000000000000004 0  0.25 -0.05000000000000004 0  -0.25 0 0  -0.2 0 0  -0.15 0 0  -0.1 0 0  -0.04999999999999999 0 0  0 0 0  0.04999999999999999 0 0  0.09999999999999998 0 0  0.15 0 0  0.2 0 0  0.25 0 0  -0.225 -0.975 0  -0.175 -0.975 0  -0.125 -0.975 0  -0.07500000000000001 -0.975 0  -0.02499999999999999 -0.975 0  0.02500000000000002 -0.975 0  0.07500000000000001 -0.975 0  0.125 -0.975 0  0.175 -0.975 0  0.225 -0.975 0  -0.225 -0.925 0  -0.175 -0.925 0  -0.125 -0.925 0  -0.07500000000000001 -0.925 0  -0.02499999999999999 -0.925 0  0.02500000000000002 -0.925 0  0.07500000000000001 -0.925 0  0.125 -0.925 0  0.175 -0.925 0  0.225 -0.925 0  -0.225 -0.875 0  -0.175 -0.875 0  -0.125 -0.875 0  -0.07500000000000001 -0.875 0  -0.02499999999999999 -0.875 0  0.02500000000000002 -0.875 0  0.07500000000000001 -0.875 0  0.125 -0.875 0  0.175 -0.875 0  0.225 -0.875 0  -0.225 -0.825 0  -0.175 -0.825 0  -0.125 -0.825 0  -0.07500000000000001 -0.825 0  -0.02499999999999999 -0.825 0  0.02500000000000002 -0.825 0  0.07500000000000001 -0.825 0  0.125 -0.825 0  0.175 -0.825 0  0.225 -0.825 0  -0.225 -0.775 0  -0.175 -0.775 0  -0.125 -0.775 0  -0.07500000000000001 -0.775 0  -0.02499999999999999 -0.775 0  0.02500000000000002 -0.775 0  0.07500000000000001 -0.775 0  0.125 -0.775 0  0.175 -0.775 0  0.225 -0.775 0  -0.225 -0.725 0  -0.175 -0.725 0  -0.125 -0.725 0  -0.07500000000000001 -0.725 0  -0.02499999999999999 -0.725 0  0.02500000000000002 -0.725 0  0.07500000000000001 -0.725 0  0.125 -0.725 0  0.175 -0.725 0  0.225 -0.725 0  -0.225 -0.675 0  -0.175 -0.675 0  -0.125 -0.675 0  -0.07500000000000001 -0.675 0  -0.02499999999999999 -0.675 0  0.02500000000000002 -0.675 0  0.07500000000000001 -0.675 0  0.125 -0.675 0  0.175 -0.675 0  0.225 -0.675 0  -0.225 -0.625 0  -0.175 -0.625 0  -0.125 -0.625 0  -0.07500000000000001 -0.625 0  -0.02499999999999999 -0.625 0  0.02500000000000002 -0.625 0  0.07500000000000001 -0.625 0  0.125 -0.625 0  0.175 -0.625 0  0.225 -0.625 0  -0.225 -0.575 0  -0.175 -0.575 0  -0.125 -0.575 0  -0.07500000000000001 -0.575 0  -0.02499999999999999 -0.575 0  0.02500000000000002 -0.575 0  0.07500000000000001 -0.575 0  0.125 -0.575 0  0.175 -0.575 0  0.225 -0.575 0  -0.225 -0.525 0  -0.175 -0.525 0  -0.125 -0.525 0  -0.07500000000000001 -0.525 0  -0.02499999999999999 -0.525 0  0.02500000000000002 -0.525 0  0.07500000000000001 -0.525 0  0.125 -0.525 0  0.175 -0.525 0  0.225 -0.525 0  -0.225 -0.475 0  -0.175 -0.475 0  -0.125 -0.475 0  -0.07500000000000001 -0.475 0  -0.02499999999999999 -0.475 0  0.02500000000000002 -0.475 0  0.07500000000000001 -0.475 0  0.125 -0.475 0  0.175 -0.475 0  0.225 -0.475 0  -0.225 -0.425 0  -0.175 -0.425 0  -0.125 -0.425 0  -0.07500000000000001 -0.425 0  -0.02499999999999999 -0.425 0  0.02500000000000002 -0.425 0  0.07500000000000001 -0.425 0  0.125 -0.425 0  0.175 -0.425 0  0.225 -0.425 0  -0.225 -0.375 0  -0.175 -0.375 0  -0.125 -0.375 0  -0.07500000000000001 -0.375 0  -0.02499999999999999 -0.375 0  0.02500000000000002 -0.375 0  0.07500000000000001 -0.375 0  0.125 -0.375 0  0.175 -0.375 0  0.225 -0.375 0  -0.225 -0.325 0  -0.175 -0.325 0  -0.125 -0.325 0  -0.07500000000000001 -0.325 0  -0.02499999999999999 -0.325 0  0.02500000000000002 -0.325 0  0.07500000000000001 -0.325 0  0.125 -0.325 0  0.175 -0.325 0  0.225 -0.325 0  -0.225 -0.275 0  -0.175 -0.275 0  -0.125 -0.275 0  -0.07500000000000001 -0.275 0  -0.02499999999999999 -0.275 0  0.02500000000000002 -0.275 0  0.07500000000000001 -0.275 0  0.125 -0.275 0  0.175 -0.275 0  0.225 -0.275 0  -0.225 -0.225 0  -0.175 -0.225 0  -0.125 -0.225 0  -0.07500000000000001 -0.225 0  -0.02499999999999999 -0.225 0  0.02500000000000002 -0.225 0  0.07500000000000001 -0.225 0  0.125 -0.225 0  0.175 -0.225 0  0.225 -0.225 0  -0.225 -0.175 0  -0.175 -0.175 0  -0.125 -0.175 0  -0.07500000000000001 -0.175 0  -0.02499999999999999 -0.175 0  0.02500000000000002 -0.175 0  0.07500000000000001 -0.175 0  0.125 -0.175 0  0.175 -0.175 0  0.225 -0.175 0  -0.225 -0.125 0  -0.175 -0.125 0  -0.125 -0.125 0  -0.07500000000000001 -0.125 0  -0.02499999999999999 -0.125 0  0.02500000000000002 -0.125 0  0.07500000000000001 -0.125 0  0.125 -0.125 0  0.175 -0.125 0  0.225 -0.125 0  -0.225 -0.07499999999999996 0  -0.175 -0.07499999999999996 0  -0.125 -0.07499999999999996 0  -0.07500000000000001 -0.07499999999999996 0  -0.02499999999999999 -0.07499999999999996 0  0.02500000000000002 -0.07499999999999996 0  0.07500000000000001 -0.07499999999999996 0  0.125 -0.07499999999999996 0  0.175 -0.07499999999999996 0  0.225 -0.07499999999999996 0  -0.225 -0.02500000000000002 0  -0.175 -0.02500000000000002 0  -0.125 -0.02500000000000002 0  -0.07500000000000001 -0.02500000000000002 0  -0.02499999999999999 -0.02500000000000002 0  0.02500000000000002 -0.02500000000000002 0  0.07500000000000001 -0.02500000000000002 0  0.125 -0.02500000000000002 0  0.175 -0.02500000000000002 0  0.225 -0.02500000000000002 0  </DataArray>
</Points>
<Cells>
[...]
<PointData  Vectors="displacement"> 
<DataArray  type="Float64"  Name="displacement"  NumberOfComponents="3" format="ascii">-9.4791864450309169e-33 -1.0164395367051595e-17 0.0000000000000000e+00  -9.0277966143151578e-34 -5.0821976835257963e-19 0.0000000000000000e+00  1.1771400429134376e-32 -2.0031005713584099e-18 0.0000000000000000e+00  1.6250033905767292e-32 -9.6561755986990162e-18 0.0000000000000000e+00  7.2676737079203282e-33 2.0360053044676576e-18 0.0000000000000000e+00  0.0000000000000000e+00 -1.1689054672109331e-17 0.0000000000000000e+00  8.8146647948316952e-33 6.0648882512387941e-19 0.0000000000000000e+00  7.2222372914521262e-33 1.5246593050577389e-18 0.0000000000000000e+00  -3.5976848720306466e-33 -4.3516317665189634e-18 0.0000000000000000e+00  9.0277966143151612e-33 2.0328790734103193e-18 0.0000000000000000e+00  1.8055593228630312e-33 -2.0328790734103181e-18 0.0000000000000000e+00  1.8055593228630350e-33 -3.6757477856901338e-02 0.0000000000000000e+00  6.7776543830748130e-17 -3.6757477856901324e-02 0.0000000000000000e+00  1.0500444429138590e-16 -3.6757477856901297e-02 0.0000000000000000e+00  1.4191394724766201e-16 -3.6757477856901297e-02 0.0000000000000000e+00  1.9382100452847449e-16 -3.6757477856901290e-02 0.0000000000000000e+00  2.1363020808378075e-16 -3.6757477856901227e-02 0.0000000000000000e+00  1.8847477403082742e-16 -3.6757477856901269e-02 0.0000000000000000e+00  1.3254019167437992e-16 -3.6757477856901234e-02 0.0000000000000000e+00  9.5846748628614152e-17 -3.6757477856901186e-02 0.0000000000000000e+00  4.2731271066671332e-17 -3.6757477856901186e-02 0.0000000000000000e+00  -2.2569939252379747e-33 -3.6757477856901186e-02 0.0000000000000000e+00  6.2532988614300876e-33 -7.3517331705252265e-02 0.0000000000000000e+00  7.4227279585290124e-17 -7.3517331705252181e-02 0.0000000000000000e+00  1.7508597023321915e-16 -7.3517331705252154e-02 0.0000000000000000e+00  2.5292346043992923e-16 -7.3517331705252154e-02 0.0000000000000000e+00  3.0931886719817173e-16 -7.3517331705252084e-02 0.0000000000000000e+00  3.1599664366388777e-16 -7.3517331705251932e-02 0.0000000000000000e+00  2.7703021914767479e-16 -7.3517331705251904e-02 0.0000000000000000e+00  1.9855967932161709e-16 -7.3517331705251848e-02 0.0000000000000000e+00  1.3525972715198879e-16 -7.3517331705251862e-02 0.0000000000000000e+00  8.0312700134369882e-17 -7.3517331705251807e-02 0.0000000000000000e+00  6.7063631992055503e-33 -7.3517331705251876e-02 0.0000000000000000e+00  1.2638915260041230e-32 -1.1028192288772486e-01 0.0000000000000000e+00  7.7930163508106427e-17 -1.1028192288772483e-01 0.0000000000000000e+00  1.8611686570357264e-16 -1.1028192288772477e-01 0.0000000000000000e+00  3.0749197319141374e-16 -1.1028192288772465e-01 0.0000000000000000e+00  3.1973215298226068e-16 -1.1028192288772459e-01 0.0000000000000000e+00  3.1651083352979292e-16 -1.1028192288772444e-01 0.0000000000000000e+00  2.9090369932716390e-16 -1.1028192288772430e-01 0.0000000000000000e+00  2.3307692910014123e-16 -1.1028192288772427e-01 0.0000000000000000e+00  1.5566391602986396e-16 -1.1028192288772415e-01 0.0000000000000000e+00  8.7683476597920266e-17 -1.1028192288772419e-01 0.0000000000000000e+00  7.2222372914521303e-33 -1.1028192288772423e-01 0.0000000000000000e+00  -1.2787051734449572e-32 -1.4705358353975106e-01 0.0000000000000000e+00  1.1677218373783443e-16 -1.4705358353975120e-01 0.0000000000000000e+00  1.9552509494634672e-16 -1.4705358353975098e-01 0.0000000000000000e+00  2.3666793170868548e-16 -1.4705358353975087e-01 0.0000000000000000e+00  2.6718758555790038e-16 -1.4705358353975073e-01 0.0000000000000000e+00  2.6522320693004914e-16 -1.4705358353975054e-01 0.0000000000000000e+00  2.4646786704728439e-16 -1.4705358353975029e-01 0.0000000000000000e+00  2.1548709938430953e-16 -1.4705358353975018e-01 0.0000000000000000e+00  1.6673214447960715e-16 -1.4705358353975012e-01 0.0000000000000000e+00  9.8736874335641177e-17 -1.4705358353975012e-01 0.0000000000000000e+00  1.1890952947258574e-34 -1.4705358353975007e-01 0.0000000000000000e+00  1.4444474582904258e-32 -1.8383460221113229e-01 0.0000000000000000e+00  1.2529279933182209e-16 -1.8383460221113224e-01 0.0000000000000000e+00  1.7258493502712053e-16 -1.8383460221113226e-01 0.0000000000000000e+00  2.3305849907953122e-16 -1.8383460221113193e-01 0.0000000000000000e+00  2.6635825631776702e-16 -1.8383460221113185e-01 0.0000000000000000e+00  2.7849219765361579e-16 -1.8383460221113163e-01 0.0000000000000000e+00  2.8235704768750278e-16 -1.8383460221113107e-01 0.0000000000000000e+00  2.4754886646415834e-16 -1.8383460221113132e-01 0.0000000000000000e+00  1.4929953196301771e-16 -1.8383460221113115e-01 0.0000000000000000e+00  5.1299989149361091e-17 -1.8383460221113126e-01 0.0000000000000000e+00  -1.6647334126161966e-33 -1.8383460221113113e-01 0.0000000000000000e+00  -1.8198242707289443e-33 -2.2062720975636882e-01 0.0000000000000000e+00  1.2987900220455905e-16 -2.2062720975636857e-01 0.0000000000000000e+00  1.9890389270482589e-16 -2.2062720975636826e-01 0.0000000000000000e+00  2.7025954504231076e-16 -2.2062720975636835e-01 0.0000000000000000e+00  2.5943986004977323e-16 -2.2062720975636807e-01 0.0000000000000000e+00  2.7647098094311546e-16 -2.2062720975636788e-01 0.0000000000000000e+00  2.3228787338608521e-16 -2.2062720975636749e-01 0.0000000000000000e+00  2.4043183203695675e-16 -2.2062720975636732e-01 0.0000000000000000e+00  1.7534340244998756e-16 -2.2062720975636729e-01 0.0000000000000000e+00  1.5456148373764248e-17 -2.2062720975636732e-01 0.0000000000000000e+00  1.3541694921472759e-33 -2.2062720975636721e-01 0.0000000000000000e+00  9.0277966143151664e-34 -2.5743356558069935e-01 0.0000000000000000e+00  1.1141115632135070e-16 -2.5743356558069919e-01 0.0000000000000000e+00  2.5449342564101180e-16 -2.5743356558069908e-01 0.0000000000000000e+00  3.1808663144674814e-16 -2.5743356558069874e-01 0.0000000000000000e+00  3.5283820966769176e-16 -2.5743356558069846e-01 0.0000000000000000e+00  2.9733815924066946e-16 -2.5743356558069819e-01 0.0000000000000000e+00  2.7660994299570706e-16 -2.5743356558069785e-01 0.0000000000000000e+00  1.8943639372275197e-16 -2.5743356558069774e-01 0.0000000000000000e+00  1.0031674588591231e-16 -2.5743356558069780e-01 0.0000000000000000e+00  6.1422690328428289e-17 -2.5743356558069752e-01 0.0000000000000000e+00  0.0000000000000000e+00 -2.5743356558069791e-01 0.0000000000000000e+00  -2.7673998859864221e-33 -2.9425574432665108e-01 0.0000000000000000e+00  1.0059154199896788e-16 -2.9425574432665025e-01 0.0000000000000000e+00  2.5079186471478052e-16 -2.9425574432665069e-01 0.0000000000000000e+00  3.5327060943444122e-16 -2.9425574432665019e-01 0.0000000000000000e+00  3.7926906767565927e-16 -2.9425574432664980e-01 0.0000000000000000e+00  3.5035191100888142e-16 -2.9425574432664969e-01 0.0000000000000000e+00  2.6317392660315319e-16 -2.9425574432664919e-01 0.0000000000000000e+00  1.9794409660363926e-16 -2.9425574432664919e-01 0.0000000000000000e+00  1.5852011917663581e-16 -2.9425574432664892e-01 0.0000000000000000e+00  7.7813905713634366e-17 -2.9425574432664919e-01 0.0000000000000000e+00  1.2515362407381587e-32 -2.9425574432664925e-01 0.0000000000000000e+00  9.0277966143151749e-33 -3.3109572308317636e-01 0.0000000000000000e+00  1.1756755836199965e-16 -3.3109572308317653e-01 0.0000000000000000e+00  2.7375803513858767e-16 -3.3109572308317636e-01 0.0000000000000000e+00  3.3086667919186051e-16 -3.3109572308317581e-01 0.0000000000000000e+00  2.6981745445176394e-16 -3.3109572308317586e-01 0.0000000000000000e+00  2.3444814991838557e-16 -3.3109572308317514e-01 0.0000000000000000e+00  2.2290545788260763e-16 -3.3109572308317514e-01 0.0000000000000000e+00  2.1538913381215523e-16 -3.3109572308317492e-01 0.0000000000000000e+00  1.8713196101815658e-16 -3.3109572308317498e-01 0.0000000000000000e+00  1.0783692954060220e-16 -3.3109572308317498e-01 0.0000000000000000e+00  1.7297399372349974e-33 -3.3109572308317486e-01 0.0000000000000000e+00  7.2223321565729024e-33 -3.6795536919624566e-01 0.0000000000000000e+00  1.2785502766147404e-16 -3.6795536919624589e-01 0.0000000000000000e+00  2.3868467124579104e-16 -3.6795536919624572e-01 0.0000000000000000e+00  2.9995583438332752e-16 -3.6795536919624511e-01 0.0000000000000000e+00  2.4214386937978806e-16 -3.6795536919624439e-01 0.0000000000000000e+00  1.7627700355904172e-16 -3.6795536919624455e-01 0.0000000000000000e+00  2.2342868223407731e-16 -3.6795536919624400e-01 0.0000000000000000e+00  2.0003234289243581e-16 -3.6795536919624411e-01 0.0000000000000000e+00  1.2638629552556827e-16 -3.6795536919624439e-01 0.0000000000000000e+00  7.7849668605742802e-17 -3.6795536919624389e-01 0.0000000000000000e+00  1.2767883783102865e-32 -3.6795536919624428e-01 0.0000000000000000e+00  -1.2638915260041246e-32 -4.0483642875603421e-01 0.0000000000000000e+00  1.5410867736278600e-16 -4.0483642875603421e-01 0.0000000000000000e+00  1.4699701738726070e-16 -4.0483642875603398e-01 0.0000000000000000e+00  2.6047910148657851e-16 -4.0483642875603354e-01 0.0000000000000000e+00  2.9749103952373981e-16 -4.0483642875603304e-01 0.0000000000000000e+00  3.0834920347074587e-16 -4.0483642875603276e-01 0.0000000000000000e+00  1.8244378293648307e-16 -4.0483642875603265e-01 0.0000000000000000e+00  1.9072063691190829e-16 -4.0483642875603237e-01 0.0000000000000000e+00  1.7295990669984869e-16 -4.0483642875603232e-01 0.0000000000000000e+00  5.1772813671261556e-17 -4.0483642875603248e-01 0.0000000000000000e+00  -1.8055593228630346e-33 -4.0483642875603232e-01 0.0000000000000000e+00  1.8403833430061436e-35 -4.4174051583169810e-01 0.0000000000000000e+00  6.2148373951555878e-17 -4.4174051583169716e-01 0.0000000000000000e+00  1.9992134117941902e-16 -4.4174051583169771e-01 0.0000000000000000e+00  2.6039755797065990e-16 -4.4174051583169693e-01 0.0000000000000000e+00  4.5149593118230438e-16 -4.4174051583169632e-01 0.0000000000000000e+00  4.6137055112184673e-16 -4.4174051583169627e-01 0.0000000000000000e+00  3.5826232760479495e-16 -4.4174051583169599e-01 0.0000000000000000e+00  1.1783964678878443e-16 -4.4174051583169638e-01 0.0000000000000000e+00  9.1665372427742142e-17 -4.4174051583169643e-01 0.0000000000000000e+00  1.2089503771677085e-16 -4.4174051583169599e-01 0.0000000000000000e+00  2.3189900661375474e-32 -4.4174051583169671e-01 0.0000000000000000e+00  2.7083389842945493e-32 -4.7866910252010048e-01 0.0000000000000000e+00  8.2380266195980687e-17 -4.7866910252010014e-01 0.0000000000000000e+00  2.4824813796194894e-16 -4.7866910252010003e-01 0.0000000000000000e+00  4.5466209750351723e-16 -4.7866910252009992e-01 0.0000000000000000e+00  5.9152288091348305e-16 -4.7866910252009914e-01 0.0000000000000000e+00  5.4669337074273877e-16 -4.7866910252009859e-01 0.0000000000000000e+00  4.1259319716048726e-16 -4.7866910252009826e-01 0.0000000000000000e+00  2.8311374727931483e-16 -4.7866910252009892e-01 0.0000000000000000e+00  1.6977117375556305e-16 -4.7866910252009925e-01 0.0000000000000000e+00  1.1441368547738341e-16 -4.7866910252009909e-01 0.0000000000000000e+00  -2.1324643018267107e-32 -4.7866910252009870e-01 0.0000000000000000e+00  7.1703398414781958e-33 -5.1562350986984540e-01 0.0000000000000000e+00  2.2609710290810663e-16 -5.1562350986984584e-01 0.0000000000000000e+00  3.9434858727565515e-16 -5.1562350986984595e-01 0.0000000000000000e+00  4.3465481406083643e-16 -5.1562350986984462e-01 0.0000000000000000e+00  4.4547310344744231e-16 -5.1562350986984473e-01 0.0000000000000000e+00  4.3827947294106657e-16 -5.1562350986984351e-01 0.0000000000000000e+00  4.7736934249158239e-16 -5.1562350986984418e-01 0.0000000000000000e+00  4.6926183885322661e-16 -5.1562350986984384e-01 0.0000000000000000e+00  3.4673144942337911e-16 -5.1562350986984418e-01 0.0000000000000000e+00  1.5792059814550311e-16 -5.1562350986984362e-01 0.0000000000000000e+00  -1.9345278459246805e-32 -5.1562350986984384e-01 0.0000000000000000e+00  1.4444474582904258e-32 -5.5260489973657378e-01 0.0000000000000000e+00  3.2370966792661869e-16 -5.5260489973657423e-01 0.0000000000000000e+00  4.4440711846148781e-16 -5.5260489973657412e-01 0.0000000000000000e+00  4.4184860518390426e-16 -5.5260489973657301e-01 0.0000000000000000e+00  3.9434858727565461e-16 -5.5260489973657267e-01 0.0000000000000000e+00  4.5981367747977400e-16 -5.5260489973657234e-01 0.0000000000000000e+00  6.1561564382861830e-16 -5.5260489973657245e-01 0.0000000000000000e+00  5.6915695257984605e-16 -5.5260489973657190e-01 0.0000000000000000e+00  3.8051179473966680e-16 -5.5260489973657223e-01 0.0000000000000000e+00  1.8753345369298989e-16 -5.5260489973657212e-01 0.0000000000000000e+00  1.8055593228630314e-32 -5.5260489973657212e-01 0.0000000000000000e+00  -1.0068105294945291e-32 -5.8961426761973612e-01 0.0000000000000000e+00  3.4669570830690366e-16 -5.8961426761973534e-01 0.0000000000000000e+00  4.0244626826293277e-16 -5.8961426761973557e-01 0.0000000000000000e+00  5.1375679630051656e-16 -5.8961426761973479e-01 0.0000000000000000e+00  5.2973756613862324e-16 -5.8961426761973434e-01 0.0000000000000000e+00  5.9980941706845806e-16 -5.8961426761973490e-01 0.0000000000000000e+00  5.4356248194965252e-16 -5.8961426761973335e-01 0.0000000000000000e+00  5.0147757226846337e-16 -5.8961426761973401e-01 0.0000000000000000e+00  3.8218987742820491e-16 -5.8961426761973346e-01 0.0000000000000000e+00  1.2397095228649334e-16 -5.8961426761973401e-01 0.0000000000000000e+00  3.9412214801589260e-34 -5.8961426761973379e-01 0.0000000000000000e+00  1.8055593228630333e-33 -6.2665243652500757e-01 0.0000000000000000e+00  1.7406988381631170e-16 -6.2665243652500713e-01 0.0000000000000000e+00  4.7615354644349023e-16 -6.2665243652500735e-01 0.0000000000000000e+00  5.7967200254060341e-16 -6.2665243652500624e-01 0.0000000000000000e+00  6.9411820662847441e-16 -6.2665243652500646e-01 0.0000000000000000e+00  6.3386462628886310e-16 -6.2665243652500546e-01 0.0000000000000000e+00  4.4584287089050301e-16 -6.2665243652500491e-01 0.0000000000000000e+00  3.3540076008963945e-16 -6.2665243652500424e-01 0.0000000000000000e+00  2.0004780966588547e-16 -6.2665243652500502e-01 0.0000000000000000e+00  9.7508167961316702e-17 -6.2665243652500491e-01 0.0000000000000000e+00  -5.5177100722224991e-33 -6.2665243652500557e-01 0.0000000000000000e+00  2.4149355943293066e-32 -6.6372005189018501e-01 0.0000000000000000e+00  7.6063690287654516e-17 -6.6372005189018501e-01 0.0000000000000000e+00  1.9371509550383061e-16 -6.6372005189018490e-01 0.0000000000000000e+00  4.7090445926019885e-16 -6.6372005189018479e-01 0.0000000000000000e+00  6.1715602680293389e-16 -6.6372005189018379e-01 0.0000000000000000e+00  5.0104322972112472e-16 -6.6372005189018268e-01 0.0000000000000000e+00  3.2873107814060561e-16 -6.6372005189018202e-01 0.0000000000000000e+00  1.8885650984345855e-16 -6.6372005189018324e-01 0.0000000000000000e+00  1.8428759824557677e-16 -6.6372005189018224e-01 0.0000000000000000e+00  1.1275597809444391e-16 -6.6372005189018246e-01 0.0000000000000000e+00  8.6973147739696970e-33 -6.6372005189018335e-01 0.0000000000000000e+00  6.7144237318969117e-33 -7.0081757760584884e-01 0.0000000000000000e+00  1.0908098654328625e-16 -7.0081757760584951e-01 0.0000000000000000e+00  2.8860464711817326e-17 -7.0081757760584940e-01 0.0000000000000000e+00  7.5611546094544620e-17 -7.0081757760584928e-01 0.0000000000000000e+00  1.1819805369088610e-16 -7.0081757760584817e-01 0.0000000000000000e+00  1.1820215413280968e-16 -7.0081757760584718e-01 0.0000000000000000e+00  1.4874551976186983e-16 -7.0081757760584651e-01 0.0000000000000000e+00  8.3268357382011573e-17 -7.0081757760584706e-01 0.0000000000000000e+00  1.2453113282389102e-16 -7.0081757760584651e-01 0.0000000000000000e+00  1.2039418918613539e-16 -7.0081757760584673e-01 0.0000000000000000e+00  -2.0651084755245963e-32 -7.0081757760584673e-01 0.0000000000000000e+00  -1.6786059329742272e-33 -7.3794529315532309e-01 0.0000000000000000e+00  3.5544054221821982e-17 -7.3794529315532276e-01 0.0000000000000000e+00  -1.5015073011015720e-16 -7.3794529315532242e-01 0.0000000000000000e+00  -3.5344508654349605e-16 -7.3794529315532242e-01 0.0000000000000000e+00  -5.4376167160537856e-16 -7.3794529315532176e-01 0.0000000000000000e+00  -4.5540039996950460e-16 -7.3794529315532076e-01 0.0000000000000000e+00  -1.5514630112172051e-16 -7.3794529315531954e-01 0.0000000000000000e+00  -6.7970208950672322e-18 -7.3794529315532020e-01 0.0000000000000000e+00  -1.3594041790134426e-17 -7.3794529315532020e-01 0.0000000000000000e+00  8.5305730132372676e-17 -7.3794529315531998e-01 0.0000000000000000e+00  1.0833355937178193e-32 -7.3794529315532031e-01 0.0000000000000000e+00  2.0692294291836286e-17 -1.8378584717717233e-02 0.0000000000000000e+00  5.0398534317089760e-17 -1.8378584717717205e-02 0.0000000000000000e+00  5.5995769793296103e-17 -1.8378584717717205e-02 0.0000000000000000e+00  8.8852410753931379e-17 -1.8378584717717198e-02 0.0000000000000000e+00  1.1274823917839341e-16 -1.8378584717717188e-02 0.0000000000000000e+00  1.0766823329710305e-16 -1.8378584717717160e-02 0.0000000000000000e+00  7.6656580307981722e-17 -1.8378584717717170e-02 0.0000000000000000e+00  6.5076164894911662e-17 -1.8378584717717177e-02 0.0000000000000000e+00  4.0989568212052624e-17 -1.8378584717717156e-02 0.0000000000000000e+00  1.0328949427922916e-17 -1.8378584717717163e-02 0.0000000000000000e+00  3.8685969473409268e-17 -5.5136943099636897e-02 0.0000000000000000e+00  1.0738554207446662e-16 -5.5136943099636820e-02 0.0000000000000000e+00  1.7055350800062342e-16 -5.5136943099636786e-02 0.0000000000000000e+00  2.2529907846995931e-16 -5.5136943099636772e-02 0.0000000000000000e+00  2.6951665461826912e-16 -5.5136943099636730e-02 0.0000000000000000e+00  2.6016291319325421e-16 -5.5136943099636675e-02 0.0000000000000000e+00  1.9987048433214882e-16 -5.5136943099636626e-02 0.0000000000000000e+00  1.4107512390175022e-16 -5.5136943099636626e-02 0.0000000000000000e+00  9.3569524555383779e-17 -5.5136943099636591e-02 0.0000000000000000e+00  3.0247604007326370e-17 -5.5136943099636598e-02 0.0000000000000000e+00  3.9266573412909057e-17 -9.1898860990761819e-02 0.0000000000000000e+00  1.1800976272981716e-16 -9.1898860990761791e-02 0.0000000000000000e+00  2.4214386938360087e-16 -9.1898860990761680e-02 0.0000000000000000e+00  3.1053277975790873e-16 -9.1898860990761652e-02 0.0000000000000000e+00  3.2215662622339942e-16 -9.1898860990761555e-02 0.0000000000000000e+00  3.1974995358683815e-16 -9.1898860990761388e-02 0.0000000000000000e+00  2.4297922049435349e-16 -9.1898860990761375e-02 0.0000000000000000e+00  1.8529270005005976e-16 -9.1898860990761361e-02 0.0000000000000000e+00  1.1890817335835630e-16 -9.1898860990761319e-02 0.0000000000000000e+00  4.8292872491118762e-17 -9.1898860990761319e-02 0.0000000000000000e+00  4.4502116534630287e-17 -1.2866668700825407e-01 0.0000000000000000e+00  1.4739192049436583e-16 -1.2866668700825409e-01 0.0000000000000000e+00  2.4424946824780629e-16 -1.2866668700825409e-01 0.0000000000000000e+00  2.9057264326032127e-16 -1.2866668700825387e-01 0.0000000000000000e+00  2.9478384098873171e-16 -1.2866668700825362e-01 0.0000000000000000e+00  2.7737563787795981e-16 -1.2866668700825357e-01 0.0000000000000000e+00  2.5364182568044349e-16 -1.2866668700825351e-01 0.0000000000000000e+00  2.0634868869211226e-16 -1.2866668700825346e-01 0.0000000000000000e+00  1.4197451952102076e-16 -1.2866668700825340e-01 0.0000000000000000e+00  4.3908478483980453e-17 -1.2866668700825343e-01 0.0000000000000000e+00  6.8062060582375665e-17 -1.6544273334371196e-01 0.0000000000000000e+00  1.7747725849504425e-16 -1.6544273334371196e-01 0.0000000000000000e+00  2.0213749096370157e-16 -1.6544273334371176e-01 0.0000000000000000e+00  2.4946287163439308e-16 -1.6544273334371162e-01 0.0000000000000000e+00  2.7372785234667907e-16 -1.6544273334371135e-01 0.0000000000000000e+00  2.8480538334050194e-16 -1.6544273334371123e-01 0.0000000000000000e+00  2.7014821677648201e-16 -1.6544273334371118e-01 0.0000000000000000e+00  1.9371509550688069e-16 -1.6544273334371107e-01 0.0000000000000000e+00  1.1389136668952962e-16 -1.6544273334371107e-01 0