<?xml version="1.0"?>
<VTKFile type="UnstructuredGrid"  version="0.1"  >
<UnstructuredGrid>
<Piece  NumberOfPoints="1876" NumberOfCells="3600">
<Points>
<DataArray  type="Float64"  NumberOfComponents="3"  format="ascii">-0.75 -3 0  -0.65 -3 0  -0.55 -3 0  -0.45 -3 0  -0.35 -3 0  -0.25 -3 0  -0.15 -3 0  -0.05000000000000004 -3 0  0.05000000000000004 -3 0  0.15 -3 0  0.25 -3 0  0.3500000000000001 -3 0  0.45 -3 0  0.55 -3 0  0.6499999999999999 -3 0  0.75 -3 0  -0.75 -2.95 0  -0.65 -2.95 0  -0.55 -2.95 0  -0.45 -2.95 0  -0.35 -2.95 0  -0.25 -2.95 0  -0.15 -2.95 0  -0.05000000000000004 -2.95 0  0.05000000000000004 -2.95 0  0.15 -2.95 0  0.25 -2.95 0  0.3500000000000001 -2.95 0  0.45 -2.95 0  0.55 -2.95 0  0.6499999999999999 -2.95 0  0.75 -2.95 0  -0.75 -2.9 0  -0.65 -2.9 0  -0.55 -2.9 0  -0.45 -2.9 0  -0.35 -2.9 0  -0.25 -2.9 0  -0.15 -2.9 0  -0.05000000000000004 -2.9 0  0.05000000000000004 -2.9 0  0.15 -2.9 0  0.25 -2.9 0  0.3500000000000001 -2.9 0  0.45 -2.9 0  0.55 -2.9 0  0.6499999999999999 -2.9 0  0.75 -2.9 0  -0.75 -2.85 0  -0.65 -2.85 0  -0.55 -2.85 0  -0.45 -2.85 0  -0.35 -2.85 0  -0.25 -2.85 0  -0.15 -2.85 0  -0.05000000000000004 -2.85 0  0.05000000000000004 -2.85 0  0.15 -2.85 0  0.25 -2.85 0  0.3500000000000001 -2.85 0  0.45 -2.85 0  0.55 -2.85 0  0.6499999999999999 -2.85 0  0.75 -2.85 0  -0.75 -2.8 0  -0.65 -2.8 0  -0.55 -2.8 0  -0.45 -2.8 0  -0.35 -2.8 0  -0.25 -2.8 0  -0.15 -2.8 0  -0.05000000000000004 -2.8 0  0.05000000000000004 -2.8 0  0.15 -2.8 0  0.25 -2.8 0  0.3500000000000001 -2.8 0  0.45 -2.8 0  0.55 -2.8 0  0.6499999999999999 -2.8 0  0.75 -2.8 0  -0.75 -2.75 0  -0.65 -2.75 0  -0.55 -2.75 0  -0.45 -2.75 0  -0.35 -2.75 0  -0.25 -2.75 0  -0.15 -2.75 0  -0.05000000000000004 -2.75 0  0.05000000000000004 -2.75 0  0.15 -2.75 0  0.25 -2.75 0  0.3500000000000001 -2.75 0  0.45 -2.75 0  0.55 -2.75 0  0.6499999999999999 -2.75 0  0.75 -2.75 0  -0.75 -2.7 0  -0.65 -2.7 0  -0.55 -2.7 0  -0.45 -2.7 0  -0.35 -2.7 0  -0.25 -2.7 0  -0.15 -2.7 0  -0.05000000000000004 -2.7 0  0.05000000000000004 -2.7 0  0.15 -2.7 0  0.25 -2.7 0  0.3500000000000001 -2.7 0  0.45 -2.7 0  0.55 -2.7 0  0.6499999999999999 -2.7 0  0.75 -2.7 0  -0.75 -2.65 0  -0.65 -2.65 0  -0.55 -2.65 0  -0.45 -2.65 0  -0.35 -2.65 0  -0.25 -2.65 0  -0.15 -2.65 0  -0.05000000000000004 -2.65 0  0.05000000000000004 -2.65 0  0.15 -2.65 0  0.25 -2.65 0  0.3500000000000001 -2.65 0  0.45 -2.65 0  0.55 -2.65 0  0.6499999999999999 -2.65 0  0.75 -2.65 0  -0.75 -2.6 0  -0.65 -2.6 0  -0.55 -2.6 0  -0.45 -2.6 0  -0.35 -2.6 0  -0.25 -2.6 0  -0.15 -2.6 0  -0.05000000000000004 -2.6 0  0.05000000000000004 -2.6 0  0.15 -2.6 0  0.25 -2.6 0  0.3500000000000001 -2.6 0  0.45 -2.6 0  0.55 -2.6 0  0.6499999999999999 -2.6 0  0.75 -2.6 0  -0.75 -2.55 0  -0.65 -2.55 0  -0.55 -2.55 0  -0.45 -2.55 0  -0.35 -2.55 0  -0.25 -2.55 0  -0.15 -2.55 0  -0.05000000000000004 -2.55 0  0.05000000000000004 -2.55 0  0.15 -2.55 0  0.25 -2.55 0  0.3500000000000001 -2.55 0  0.45 -2.55 0  0.55 -2.55 0  0.6499999999999999 -2.55 0  0.75 -2.55 0  -0.75 -2.5 0  -0.65 -2.5 0  -0.55 -2.5 0  -0.45 -2.5 0  -0.35 -2.5 0  -0.25 -2.5 0  -0.15 -2.5 0  -0.05000000000000004 -2.5 0  0.05000000000000004 -2.5 0  0.15 -2.5 0  0.25 -2.5 0  0.3500000000000001 -2.5 0  0.45 -2.5 0  0.55 -2.5 0  0.6499999999999999 -2.5 0  0.75 -2.5 0  -0.75 -2.45 0  -0.65 -2.45 0  -0.55 -2.45 0  -0.45 -2.45 0  -0.35 -2.45 0  -0.25 -2.45 0  -0.15 -2.45 0  -0.05000000000000004 -2.45 0  0.05000000000000004 -2.45 0  0.15 -2.45 0  0.25 -2.45 0  0.3500000000000001 -2.45 0  0.45 -2.45 0  0.55 -2.45 0  0.6499999999999999 -2.45 0  0.75 -2.45 0  -0.75 -2.4 0  -0.65 -2.4 0  -0.55 -2.4 0  -0.45 -2.4 0  -0.35 -2.4 0  -0.25 -2.4 0  -0.15 -2.4 0  -0.05000000000000004 -2.4 0  0.05000000000000004 -2.4 0  0.15 -2.4 0  0.25 -2.4 0  0.3500000000000001 -2.4 0  0.45 -2.4 0  0.55 -2.4 0  0.6499999999999999 -2.4 0  0.75 -2.4 0  -0.75 -2.35 0  -0.65 -2.35 0  -0.55 -2.35 0  -0.45 -2.35 0  -0.35 -2.35 0  -0.25 -2.35 0  -0.15 -2.35 0  -0.05000000000000004 -2.35 0  0.05000000000000004 -2.35 0  0.15 -2.35 0  0.25 -2.35 0  0.3500000000000001 -2.35 0  0.45 -2.35 0  0.55 -2.35 0  0.6499999999999999 -2.35 0  0.75 -2.35 0  -0.75 -2.3 0  -0.65 -2.3 0  -0.55 -2.3 0  -0.45 -2.3 0  -0.35 -2.3 0  -0.25 -2.3 0  -0.15 -2.3 0  -0.05000000000000004 -2.3 0  0.05000000000000004 -2.3 0  0.15 -2.3 0  0.25 -2.3 0  0.3500000000000001 -2.3 0  0.45 -2.3 0  0.55 -2.3 0  0.6499999999999999 -2.3 0  0.75 -2.3 0  -0.75 -2.25 0  -0.65 -2.25 0  -0.55 -2.25 0  -0.45 -2.25 0  -0.35 -2.25 0  -0.25 -2.25 0  -0.15 -2.25 0  -0.05000000000000004 -2.25 0  0.05000000000000004 -2.25 0  0.15 -2.25 0  0.25 -2.25 0  0.3500000000000001 -2.25 0  0.45 -2.25 0  0.55 -2.25 0  0.6499999999999999 -2.25 0  0.75 -2.25 0  -0.75 -2.2 0  -0.65 -2.2 0  -0.55 -2.2 0  -0.45 -2.2 0  -0.35 -2.2 0  -0.25 -2.2 0  -0.15 -2.2 0  -0.05000000000000004 -2.2 0  0.05000000000000004 -2.2 0  0.15 -2.2 0  0.25 -2.2 0  0.3500000000000001 -2.2 0  0.45 -2.2 0  0.55 -2.2 0  0.6499999999999999 -2.2 0  0.75 -2.2 0  -0.75 -2.15 0  -0.65 -2.15 0  -0.55 -2.15 0  -0.45 -2.15 0  -0.35 -2.15 0  -0.25 -2.15 0  -0.15 -2.15 0  -0.05000000000000004 -2.15 0  0.05000000000000004 -2.15 0  0.15 -2.15 0  0.25 -2.15 0  0.3500000000000001 -2.15 0  0.45 -2.15 0  0.55 -2.15 0  0.6499999999999999 -2.15 0  0.75 -2.15 0  -0.75 -2.1 0  -0.65 -2.1 0  -0.55 -2.1 0  -0.45 -2.1 0  -0.35 -2.1 0  -0.25 -2.1 0  -0.15 -2.1 0  -0.05000000000000004 -2.1 0  0.05000000000000004 -2.1 0  0.15 -2.1 0  0.25 -2.1 0  0.3500000000000001 -2.1 0  0.45 -2.1 0  0.55 -2.1 0  0.6499999999999999 -2.1 0  0.75 -2.1 0  -0.75 -2.05 0  -0.65 -2.05 0  -0.55 -2.05 0  -0.45 -2.05 0  -0.35 -2.05 0  -0.25 -2.05 0  -0.15 -2.05 0  -0.05000000000000004 -2.05 0  0.05000000000000004 -2.05 0  0.15 -2.05 0  0.25 -2.05 0  0.3500000000000001 -2.05 0  0.45 -2.05 0  0.55 -2.05 0  0.6499999999999999 -2.05 0  0.75 -2.05 0  -0.75 -2 0  -0.65 -2 0  -0.55 -2 0  -0.45 -2 0  -0.35 -2 0  -0.25 -2 0  -0.15 -2 0  -0.05000000000000004 -2 0  0.05000000000000004 -2 0  0.15 -2 0  0.25 -2 0  0.3500000000000001 -2 0  0.45 -2 0  0.55 -2 0  0.6499999999999999 -2 0  0.75 -2 0  -0.75 -1.95 0  -0.65 -1.95 0  -0.55 -1.95 0  -0.45 -1.95 0  -0.35 -1.95 0  -0.25 -1.95 0  -0.15 -1.95 0  -0.05000000000000004 -1.95 0  0.05000000000000004 -1.95 0  0.15 -1.95 0  0.25 -1.95 0  0.3500000000000001 -1.95 0  0.45 -1.95 0  0.55 -1.95 0  0.6499999999999999 -1.95 0  0.75 -1.95 0  -0.75 -1.9 0  -0.65 -1.9 0  -0.55 -1.9 0  -0.45 -1.9 0  -0.35 -1.9 0  -0.25 -1.9 0  -0.15 -1.9 0  -0.05000000000000004 -1.9 0  0.05000000000000004 -1.9 0  0.15 -1.9 0  0.25 -1.9 0  0.3500000000000001 -1.9 0  0.45 -1.9 0  0.55 -1.9 0  0.6499999999999999 -1.9 0  0.75 -1.9 0  -0.75 -1.85 0  -0.65 -1.85 0  -0.55 -1.85 0  -0.45 -1.85 0  -0.35 -1.85 0  -0.25 -1.85 0  -0.15 -1.85 0  -0.05000000000000004 -1.85 0  0.05000000000000004 -1.85 0  0.15 -1.85 0  0.25 -1.85 0  0.3500000000000001 -1.85 0  0.45 -1.85 0  0.55 -1.85 0  0.6499999999999999 -1.85 0  0.75 -1.85 0  -0.75 -1.8 0  -0.65 -1.8 0  -0.55 -1.8 0  -0.45 -1.8 0  -0.35 -1.8 0  -0.25 -1.8 0  -0.15 -1.8 0  -0.05000000000000004 -1.8 0  0.05000000000000004 -1.8 0  0.15 -1.8 0  0.25 -1.8 0  0.3500000000000001 -1.8 0  0.45 -1.8 0  0.55 -1.8 0  0.6499999999999999 -1.8 0  0.75 -1.8 0  -0.75 -1.75 0  -0.65 -1.75 0  -0.55 -1.75 0  -0.45 -1.75 0  -0.35 -1.75 0  -0.25 -1.75 0  -0.15 -1.75 0  -0.05000000000000004 -1.75 0  0.05000000000000004 -1.75 0  0.15 -1.75 0  0.25 -1.75 0  0.3500000000000001 -1.75 0  0.45 -1.75 0  0.55 -1.75 0  0.6499999999999999 -1.75 0  0.75 -1.75 0  -0.75 -1.7 0  -0.65 -1.7 0  -0.55 -1.7 0  -0.45 -1.7 0  -0.35 -1.7 0  -0.25 -1.7 0  -0.15 -1.7 0  -0.05000000000000004 -1.7 0  0.05000000000000004 -1.7 0  0.15 -1.7 0  0.25 -1.7 0  0.3500000000000001 -1.7 0  0.45 -1.7 0  0.55 -1.7 0  0.6499999999999999 -1.7 0  0.75 -1.7 0  -0.75 -1.65 0  -0.65 -1.65 0  -0.55 -1.65 0  -0.45 -1.65 0  -0.35 -1.65 0  -0.25 -1.65 0  -0.15 -1.65 0  -0.05000000000000004 -1.65 0  0.05000000000000004 -1.65 0  0.15 -1.65 0  0.25 -1.65 0  0.3500000000000001 -1.65 0  0.45 -1.65 0  0.55 -1.65 0  0.6499999999999999 -1.65 0  0.75 -1.65 0  -0.75 -1.6 0  -0.65 -1.6 0  -0.55 -1.6 0  -0.45 -1.6 0  -0.35 -1.6 0  -0.25 -1.6 0  -0.15 -1.6 0  -0.05000000000000004 -1.6 0  0.05000000000000004 -1.6 0  0.15 -1.6 0  0.25 -1.6 0  0.3500000000000001 -1.6 0  0.45 -1.6 0  0.55 -1.6 0  0.6499999999999999 -1.6 0  0.75 -1.6 0  -0.75 -1.55 0  -0.65 -1.55 0  -0.55 -1.55 0  -0.45 -1.55 0  -0.35 -1.55 0  -0.25 -1.55 0  -0.15 -1.55 0  -0.05000000000000004 -1.55 0  0.05000000000000004 -1.55 0  0.15 -1.55 0  0.25 -1.55 0  0.3500000000000001 -1.55 0  0.45 -1.55 0  0.55 -1.55 0  0.6499999999999999 -1.55 0  0.75 -1.55 0  -0.75 -1.5 0  -0.65 -1.5 0  -0.55 -1.5 0  -0.45 -1.5 0  -0.35 -1.5 0  -0.25 -1.5 0  -0.15 -1.5 0  -0.05000000000000004 -1.5 0  0.05000000000000004 -1.5 0  0.15 -1.5 0  0.25 -1.5 0  0.3500000000000001 -1.5 0  0.45 -1.5 0  0.55 -1.5 0  0.6499999999999999 -1.5 0  0.75 -1.5 0  -0.75 -1.45 0  -0.65 -1.45 0  -0.55 -1.45 0  -0.45 -1.45 0  -0.35 -1.45 0  -0.25 -1.45 0  -0.15 -1.45 0  -0.05000000000000004 -1.45 0  0.05000000000000004 -1.45 0  0.15 -1.45 0  0.25 -1.45 0  0.3500000000000001 -1.45 0  0.45 -1.45 0  0.55 -1.45 0  0.6499999999999999 -1.45 0  0.75 -1.45 0  -0.75 -1.4 0  -0.65 -1.4 0  -0.55 -1.4 0  -0.45 -1.4 0  -0.35 -1.4 0  -0.25 -1.4 0  -0.15 -1.4 0  -0.05000000000000004 -1.4 0  0.05000000000000004 -1.4 0  0.15 -1.4 0  0.25 -1.4 0  0.3500000000000001 -1.4 0  0.45 -1.4 0  0.55 -1.4 0  0.6499999999999999 -1.4 0  0.75 -1.4 0  -0.75 -1.35 0  -0.65 -1.35 0  -0.55 -1.35 0  -0.45 -1.35 0  -0.35 -1.35 0  -0.25 -1.35 0  -0.15 -1.35 0  -0.05000000000000004 -1.35 0  0.05000000000000004 -1.35 0  0.15 -1.35 0  0.25 -1.35 0  0.3500000000000001 -1.35 0  0.45 -1.35 0  0.55 -1.35 0  0.6499999999999999 -1.35 0  0.75 -1.35 0  -0.75 -1.3 0  -0.65 -1.3 0  -0.55 -1.3 0  -0.45 -1.3 0  -0.35 -1.3 0  -0.25 -1.3 0  -0.15 -1.3 0  -0.05000000000000004 -1.3 0  0.05000000000000004 -1.3 0  0.15 -1.3 0  0.25 -1.3 0  0.3500000000000001 -1.3 0  0.45 -1.3 0  0.55 -1.3 0  0.6499999999999999 -1.
[...]
<PointData  Vectors="displacement"> 
<DataArray  type="Float64"  Name="displacement"  NumberOfComponents="3" format="ascii">1.7632415262334337e-35 -4.7645603283054526e-20 0.0000000000000000e+00  2.8870389088059908e-35 3.5734202462290922e-20 0.0000000000000000e+00  1.9748305093814499e-34 -5.7571770633690919e-20 0.0000000000000000e+00  -2.3186626069969698e-34 4.2186211240204554e-21 0.0000000000000000e+00  3.9496610187628989e-34 -1.3896634290890910e-20 0.0000000000000000e+00  -1.6763607156682440e-34 2.1003571239160870e-21 0.0000000000000000e+00  1.6927118651841000e-34 -3.9704669402545471e-21 0.0000000000000000e+00  3.1721230060760421e-34 2.2333988835029904e-20 0.0000000000000000e+00  1.6927118651840996e-34 -2.5808035111654548e-20 0.0000000000000000e+00  -1.7410299916507943e-34 1.5885037596064409e-20 0.0000000000000000e+00  9.5920339027098917e-34 -1.1911400820763630e-20 0.0000000000000000e+00  -9.3737165345386933e-34 6.1494799896726591e-22 0.0000000000000000e+00  1.9748305093814494e-34 1.9852334701272728e-21 0.0000000000000000e+00  5.7368370424522379e-35 1.4765173934071586e-20 0.0000000000000000e+00  -1.4105932209867510e-34 1.1911400820763648e-20 0.0000000000000000e+00  8.4635593259204914e-35 -7.9409338805090852e-21 0.0000000000000000e+00  -1.4105932209867399e-35 -1.4912280701752541e-04 0.0000000000000000e+00  6.1954556412912513e-19 -1.4912280701752574e-04 0.0000000000000000e+00  1.4634798528780185e-18 -1.4912280701752574e-04 0.0000000000000000e+00  2.4103488775174366e-18 -1.4912280701752576e-04 0.0000000000000000e+00  3.1863344282707729e-18 -1.4912280701752533e-04 0.0000000000000000e+00  4.2541029541936888e-18 -1.4912280701752514e-04 0.0000000000000000e+00  5.1320269035356572e-18 -1.4912280701752422e-04 0.0000000000000000e+00  5.4375372383312739e-18 -1.4912280701752338e-04 0.0000000000000000e+00  5.3867302459336503e-18 -1.4912280701752229e-04 0.0000000000000000e+00  4.9024241478993727e-18 -1.4912280701752159e-04 0.0000000000000000e+00  4.3259019163339917e-18 -1.4912280701752107e-04 0.0000000000000000e+00  3.7961328967774553e-18 -1.4912280701752045e-04 0.0000000000000000e+00  3.0774481932861870e-18 -1.4912280701752012e-04 0.0000000000000000e+00  2.2055256968344497e-18 -1.4912280701751969e-04 0.0000000000000000e+00  1.1616642662700677e-18 -1.4912280701751934e-04 0.0000000000000000e+00  -1.5870822058867299e-34 -1.4912280701751926e-04 0.0000000000000000e+00  -1.0932097462647282e-34 -2.9824561403505261e-04 0.0000000000000000e+00  1.2693867709399937e-18 -2.9824561403505266e-04 0.0000000000000000e+00  2.8153305694935579e-18 -2.9824561403505337e-04 0.0000000000000000e+00  4.4562000632067831e-18 -2.9824561403505266e-04 0.0000000000000000e+00  6.1005955239672926e-18 -2.9824561403505250e-04 0.0000000000000000e+00  7.8580976040496597e-18 -2.9824561403505239e-04 0.0000000000000000e+00  9.2964181529109303e-18 -2.9824561403504990e-04 0.0000000000000000e+00  9.9251262839866865e-18 -2.9824561403504773e-04 0.0000000000000000e+00  9.8140370701719300e-18 -2.9824561403504583e-04 0.0000000000000000e+00  9.0826469670869403e-18 -2.9824561403504399e-04 0.0000000000000000e+00  8.0592466023247865e-18 -2.9824561403504318e-04 0.0000000000000000e+00  7.0231661164158085e-18 -2.9824561403504231e-04 0.0000000000000000e+00  5.7637299546902890e-18 -2.9824561403504128e-04 0.0000000000000000e+00  4.0406201712073691e-18 -2.9824561403504058e-04 0.0000000000000000e+00  2.0846419242183633e-18 -2.9824561403503960e-04 0.0000000000000000e+00  2.1360411632084993e-34 -2.9824561403503965e-04 0.0000000000000000e+00  -1.6927118651840953e-34 -4.4736842105257851e-04 0.0000000000000000e+00  1.9343036509561817e-18 -4.4736842105257900e-04 0.0000000000000000e+00  3.9560684367474579e-18 -4.4736842105257975e-04 0.0000000000000000e+00  6.2971502148407159e-18 -4.4736842105257851e-04 0.0000000000000000e+00  8.6861779357064919e-18 -4.4736842105257835e-04 0.0000000000000000e+00  1.0926025215240053e-17 -4.4736842105257807e-04 0.0000000000000000e+00  1.2772797862491651e-17 -4.4736842105257450e-04 0.0000000000000000e+00  1.3620338757688670e-17 -4.4736842105257135e-04 0.0000000000000000e+00  1.3456950377012567e-17 -4.4736842105256810e-04 0.0000000000000000e+00  1.2560015486646852e-17 -4.4736842105256561e-04 0.0000000000000000e+00  1.1322283200394734e-17 -4.4736842105256376e-04 0.0000000000000000e+00  9.7875738213614271e-18 -4.4736842105256317e-04 0.0000000000000000e+00  7.9774595076885464e-18 -4.4736842105256105e-04 0.0000000000000000e+00  5.5752764380101582e-18 -4.4736842105255959e-04 0.0000000000000000e+00  2.8088223415754913e-18 -4.4736842105255856e-04 0.0000000000000000e+00  -6.2066101723416806e-34 -4.4736842105255829e-04 0.0000000000000000e+00  2.5508829454580803e-34 -5.9649122807010674e-04 0.0000000000000000e+00  2.4702764769434302e-18 -5.9649122807010674e-04 0.0000000000000000e+00  5.1234680211166200e-18 -5.9649122807010760e-04 0.0000000000000000e+00  7.8342246499625958e-18 -5.9649122807010685e-04 0.0000000000000000e+00  1.0739018816601493e-17 -5.9649122807010609e-04 0.0000000000000000e+00  1.3355965087267476e-17 -5.9649122807010457e-04 0.0000000000000000e+00  1.5588828081385932e-17 -5.9649122807010077e-04 0.0000000000000000e+00  1.6739346956256349e-17 -5.9649122807009568e-04 0.0000000000000000e+00  1.6484641013327268e-17 -5.9649122807009123e-04 0.0000000000000000e+00  1.5481239489191843e-17 -5.9649122807008852e-04 0.0000000000000000e+00  1.4143908521471750e-17 -5.9649122807008635e-04 0.0000000000000000e+00  1.2119317235534554e-17 -5.9649122807008386e-04 0.0000000000000000e+00  9.6674140680606933e-18 -5.9649122807008180e-04 0.0000000000000000e+00  6.7548685408833182e-18 -5.9649122807007942e-04 0.0000000000000000e+00  3.3836549735343448e-18 -5.9649122807007801e-04 0.0000000000000000e+00  2.1304916753692296e-34 -5.9649122807007811e-04 0.0000000000000000e+00  1.6927118651840987e-34 -7.4561403508763269e-04 0.0000000000000000e+00  2.9528527057693046e-18 -7.4561403508763345e-04 0.0000000000000000e+00  6.0226329596589736e-18 -7.4561403508763421e-04 0.0000000000000000e+00  9.1328095424998986e-18 -7.4561403508763356e-04 0.0000000000000000e+00  1.2329308064684328e-17 -7.4561403508763236e-04 0.0000000000000000e+00  1.5534948745283190e-17 -7.4561403508763074e-04 0.0000000000000000e+00  1.8056614469468648e-17 -7.4561403508762532e-04 0.0000000000000000e+00  1.9167162500233082e-17 -7.4561403508762011e-04 0.0000000000000000e+00  1.8895012164043478e-17 -7.4561403508761339e-04 0.0000000000000000e+00  1.7973421656814456e-17 -7.4561403508760916e-04 0.0000000000000000e+00  1.6401405900611800e-17 -7.4561403508760645e-04 0.0000000000000000e+00  1.4005896646798617e-17 -7.4561403508760428e-04 0.0000000000000000e+00  1.1003815254092364e-17 -7.4561403508760179e-04 0.0000000000000000e+00  7.6933366975995853e-18 -7.4561403508759800e-04 0.0000000000000000e+00  4.0201025683251483e-18 -7.4561403508759691e-04 0.0000000000000000e+00  -6.1289173425920337e-34 -7.4561403508759615e-04 0.0000000000000000e+00  2.2921386502980104e-34 -8.9473684210515973e-04 0.0000000000000000e+00  3.1362306375848912e-18 -8.9473684210516049e-04 0.0000000000000000e+00  6.5862090729833979e-18 -8.9473684210516027e-04 0.0000000000000000e+00  1.0286687110616928e-17 -8.9473684210515886e-04 0.0000000000000000e+00  1.3650929463663238e-17 -8.9473684210515875e-04 0.0000000000000000e+00  1.7351491142822363e-17 -8.9473684210515561e-04 0.0000000000000000e+00  2.0126267313937689e-17 -8.9473684210515127e-04 0.0000000000000000e+00  2.0999974017487366e-17 -8.9473684210514249e-04 0.0000000000000000e+00  2.0680011637368002e-17 -8.9473684210513598e-04 0.0000000000000000e+00  1.9922717964992088e-17 -8.9473684210513121e-04 0.0000000000000000e+00  1.8186939666462515e-17 -8.9473684210512796e-04 0.0000000000000000e+00  1.5368057250463438e-17 -8.9473684210512330e-04 0.0000000000000000e+00  1.2055325755176632e-17 -8.9473684210512070e-04 0.0000000000000000e+00  8.5634889638001606e-18 -8.9473684210511679e-04 0.0000000000000000e+00  4.6171756196640764e-18 -8.9473684210511592e-04 0.0000000000000000e+00  4.0302663456764254e-36 -8.9473684210511343e-04 0.0000000000000000e+00  1.6927118651840953e-34 -1.0438596491226875e-03 0.0000000000000000e+00  3.2863656367664714e-18 -1.0438596491226880e-03 0.0000000000000000e+00  7.3408173542725111e-18 -1.0438596491226888e-03 0.0000000000000000e+00  1.1264968727485790e-17 -1.0438596491226869e-03 0.0000000000000000e+00  1.4911440784405130e-17 -1.0438596491226860e-03 0.0000000000000000e+00  1.8678379102289917e-17 -1.0438596491226851e-03 0.0000000000000000e+00  2.1349437791622415e-17 -1.0438596491226762e-03 0.0000000000000000e+00  2.2302983202349768e-17 -1.0438596491226674e-03 0.0000000000000000e+00  2.2150186743750793e-17 -1.0438596491226595e-03 0.0000000000000000e+00  2.1289930962297282e-17 -1.0438596491226543e-03 0.0000000000000000e+00  1.9479401432634181e-17 -1.0438596491226498e-03 0.0000000000000000e+00  1.6529183995245099e-17 -1.0438596491226437e-03 0.0000000000000000e+00  1.3128318935322063e-17 -1.0438596491226409e-03 0.0000000000000000e+00  9.3482005792497922e-18 -1.0438596491226370e-03 0.0000000000000000e+00  4.7565722753815579e-18 -1.0438596491226353e-03 0.0000000000000000e+00  -5.6423728839469832e-35 -1.0438596491226331e-03 0.0000000000000000e+00  -7.3274388576540346e-34 -1.1929824561402139e-03 0.0000000000000000e+00  3.9113450710192018e-18 -1.1929824561402146e-03 0.0000000000000000e+00  7.7837084120764024e-18 -1.1929824561402169e-03 0.0000000000000000e+00  1.1971482420139577e-17 -1.1929824561402137e-03 0.0000000000000000e+00  1.6059379871651813e-17 -1.1929824561402130e-03 0.0000000000000000e+00  1.9725728339657709e-17 -1.1929824561402104e-03 0.0000000000000000e+00  2.2094232171424806e-17 -1.1929824561402009e-03 0.0000000000000000e+00  2.3375007328866397e-17 -1.1929824561401911e-03 0.0000000000000000e+00  2.3282761217349230e-17 -1.1929824561401822e-03 0.0000000000000000e+00  2.2167785762886282e-17 -1.1929824561401773e-03 0.0000000000000000e+00  2.0189548024891292e-17 -1.1929824561401690e-03 0.0000000000000000e+00  1.7326242484431569e-17 -1.1929824561401638e-03 0.0000000000000000e+00  1.4109822249406819e-17 -1.1929824561401610e-03 0.0000000000000000e+00  9.7400361928309037e-18 -1.1929824561401551e-03 0.0000000000000000e+00  4.7678981664543819e-18 -1.1929824561401536e-03 0.0000000000000000e+00  -5.7189731517950936e-34 -1.1929824561401517e-03 0.0000000000000000e+00  0.0000000000000000e+00 -1.3421052631577425e-03 0.0000000000000000e+00  4.1739466466831982e-18 -1.3421052631577422e-03 0.0000000000000000e+00  8.3362608538943783e-18 -1.3421052631577446e-03 0.0000000000000000e+00  1.2557295633015811e-17 -1.3421052631577420e-03 0.0000000000000000e+00  1.6866485333901064e-17 -1.3421052631577416e-03 0.0000000000000000e+00  2.0167832788107723e-17 -1.3421052631577375e-03 0.0000000000000000e+00  2.2534713973357949e-17 -1.3421052631577271e-03 0.0000000000000000e+00  2.4232359150003643e-17 -1.3421052631577162e-03 0.0000000000000000e+00  2.3865486213461608e-17 -1.3421052631577060e-03 0.0000000000000000e+00  2.2539893963233999e-17 -1.3421052631576976e-03 0.0000000000000000e+00  2.1155110083344166e-17 -1.3421052631576913e-03 0.0000000000000000e+00  1.8209766038371653e-17 -1.3421052631576848e-03 0.0000000000000000e+00  1.4355609902584688e-17 -1.3421052631576809e-03 0.0000000000000000e+00  9.9418658112387686e-18 -1.3421052631576748e-03 0.0000000000000000e+00  4.8138470938444894e-18 -1.3421052631576726e-03 0.0000000000000000e+00  1.0724037498735502e-34 -1.3421052631576718e-03 0.0000000000000000e+00  1.4833029465466700e-34 -1.4912280701752704e-03 0.0000000000000000e+00  4.2433786342851277e-18 -1.4912280701752699e-03 0.0000000000000000e+00  8.9488316963032867e-18 -1.4912280701752730e-03 0.0000000000000000e+00  1.3255453255978267e-17 -1.4912280701752699e-03 0.0000000000000000e+00  1.6943151973028343e-17 -1.4912280701752665e-03 0.0000000000000000e+00  2.0414643681420852e-17 -1.4912280701752630e-03 0.0000000000000000e+00  2.2977269480876006e-17 -1.4912280701752541e-03 0.0000000000000000e+00  2.4586279597998785e-17 -1.4912280701752394e-03 0.0000000000000000e+00  2.4333252368765139e-17 -1.4912280701752285e-03 0.0000000000000000e+00  2.3025050591243494e-17 -1.4912280701752222e-03 0.0000000000000000e+00  2.1602257727654992e-17 -1.4912280701752131e-03 0.0000000000000000e+00  1.8565915058927032e-17 -1.4912280701752027e-03 0.0000000000000000e+00  1.4358253028424043e-17 -1.4912280701752005e-03 0.0000000000000000e+00  9.8916798535150951e-18 -1.4912280701751943e-03 0.0000000000000000e+00  4.9072215077895429e-18 -1.4912280701751899e-03 0.0000000000000000e+00  -6.2066101723416909e-34 -1.4912280701751886e-03 0.0000000000000000e+00  -6.2066101723416558e-34 -1.6403508771927961e-03 0.0000000000000000e+00  4.4578328038113401e-18 -1.6403508771927978e-03 0.0000000000000000e+00  9.1412304471588164e-18 -1.6403508771927981e-03 0.0000000000000000e+00  1.3333710705107979e-17 -1.6403508771927957e-03 0.0000000000000000e+00  1.7131478270451350e-17 -1.6403508771927933e-03 0.0000000000000000e+00  2.0712031810388097e-17 -1.6403508771927879e-03 0.0000000000000000e+00  2.3127135871754265e-17 -1.6403508771927770e-03 0.0000000000000000e+00  2.4600982380732339e-17 -1.6403508771927653e-03 0.0000000000000000e+00  2.4539130254478873e-17 -1.6403508771927512e-03 0.0000000000000000e+00  2.3479742766609793e-17 -1.6403508771927438e-03 0.0000000000000000e+00  2.1293068135367961e-17 -1.6403508771927334e-03 0.0000000000000000e+00  1.8438063995962591e-17 -1.6403508771927217e-03 0.0000000000000000e+00  1.4608689051435080e-17 -1.6403508771927209e-03 0.0000000000000000e+00  9.8768905863025457e-18 -1.6403508771927124e-03 0.0000000000000000e+00  5.2515487015604982e-18 -1.6403508771927100e-03 0.0000000000000000e+00  7.8993220375257413e-34 -1.6403508771927078e-03 0.0000000000000000e+00  5.7039105954685115e-34 -1.7894736842103234e-03 0.0000000000000000e+00  4.6070264553845367e-18 -1.7894736842103238e-03 0.0000000000000000e+00  9.3039083407808569e-18 -1.7894736842103273e-03 0.0000000000000000e+00  1.3237907255939811e-17 -1.7894736842103223e-03 0.0000000000000000e+00  1.7296790377517999e-17 -1.7894736842103205e-03 0.0000000000000000e+00  2.0514383962472698e-17 -1.7894736842103145e-03 0.0000000000000000e+00  2.3221013988966824e-17 -1.7894736842103038e-03 0.0000000000000000e+00  2.4514995156573766e-17 -1.7894736842102889e-03 0.0000000000000000e+00  2.4449576297779026e-17 -1.7894736842102757e-03 0.0000000000000000e+00  2.3615287278836744e-17 -1.7894736842102670e-03 0.0000000000000000e+00  2.0943918497161148e-17 -1.7894736842102570e-03 0.0000000000000000e+00  1.8240051658670771e-17 -1.7894736842102470e-03 0.0000000000000000e+00  1.4843777915607401e-17 -1.7894736842102405e-03 0.0000000000000000e+00  1.0250233314338593e-17 -1.7894736842102347e-03 0.0000000000000000e+00  5.3130021913781671e-18 -1.7894736842102305e-03 0.0000000000000000e+00  -8.0506599158044242e-34 -1.7894736842102273e-03 0.0000000000000000e+00  -1.4105932209867460e-33 -1.9385964912278497e-03 0.0000000000000000e+00  5.1996536495381423e-18 -1.9385964912278534e-03 0.0000000000000000e+00  9.2371947053121216e-18 -1.9385964912278513e-03 0.0000000000000000e+00  1.3552126716051834e-17 -1.9385964912278493e-03 0.0000000000000000e+00  1.7176217691832138e-17 -1.9385964912278456e-03 0.0000000000000000e+00  2.0446165802248107e-17 -1.9385964912278419e-03 0.0000000000000000e+00  2.3264361135307635e-17 -1.9385964912278287e-03 0.0000000000000000e+00  2.4342260429821185e-17 -1.9385964912278124e-03 0.0000000000000000e+00  2.4403921849431757e-17 -1.9385964912277988e-03 0.0000000000000000e+00  2.3035714545211176e-17 -1.9385964912277866e-03 0.0000000000000000e+00  2.0744803748098941e-17 -1.9385964912277765e-03 0.0000000000000000e+00  1.7881567272355945e-17 -1.9385964912277660e-03 0.0000000000000000e+00  1.4798186764041492e-17 -1.9385964912277613e-03 0.0000000000000000e+00  1.0433220182124974e-17 -1.9385964912277526e-03 0.0000000000000000e+00  5.0412788903045421e-18 -1.9385964912277491e-03 0.0000000000000000e+00  2.1187302959010663e-34 -1.9385964912277478e-03 0.0000000000000000e+00  1.1938316035176301e-33 -2.0877192982453811e-03 0.0000000000000000e+00  5.4137008182184724e-18 -2.0877192982453785e-03 0.0000000000000000e+00  1.0136729709086955e-17 -2.0877192982453807e-03 0.0000000000000000e+00  1.3848073480186958e-17 -2.0877192982453789e-03 0.0000000000000000e+00  1.7269984452487235e-17 -2.0877192982453737e-03 0.0000000000000000e+00  2.0176207492160674e-17 -2.0877192982453672e-03 0.0000000000000000e+00  2.2856722503449022e-17 -2.0877192982453547e-03 0.0000000000000000e+00  2.4154265847467731e-17 -2.0877192982453386e-03 0.0000000000000000e+00  2.3935238501112703e-17 -2.0877192982453217e-03 0.0000000000000000e+00  2.2445662092053967e-17 -2.0877192982453122e-03 0.0000000000000000e+00  2.0764309858532324e-17 -2.0877192982453005e-03 0.0000000000000000e+00  1.7902313015637884e-17 -2.0877192982452896e-03 0.0000000000000000e+00  1.4335423244125858e-17 -2.0877192982452831e-03 0.0000000000000000e+00  1.0453217738402732e-17 -2.0877192982452753e-03 0.0000000000000000e+00  5.0443711259878714e-18 -2.0877192982452692e-03 0.0000000000000000e+00  -3.7481477014790500e-34 -2.0877192982452679e-03 0.0000000000000000e+00  2.2569491535787984e-34 -2.2368421052629097e-03 0.0000000000000000e+00  5.9752218479053630e-18 -2.2368421052629053e-03 0.0000000000000000e+00  1.0793533754471652e-17 -2.2368421052629079e-03 0.0000000000000000e+00  1.4389827038280786e-17 -2.2368421052629023e-03 0.0000000000000000e+00  1.7555217693690353e-17 -2.2368421052629001e-03 0.0000000000000000e+00  2.0233190412497993e-17 -2.2368421052628958e-03 0.0000000000000000e+00  2.2364372746269090e-17 -2.2368421052628793e-03 0.0000000000000000e+00  2.3324691660581568e-17 -2.2368421052628628e-03 0.0000000000000000e+00  2.3272443962400954e-17 -2.2368421052628442e-03 0.0000000000000000e+00  2.2333254155068495e-17 -2.2368421052628338e-03 0.0000000000000000e+00  2.0349350102000917e-17 -2.2368421052628229e-03 0.0000000000000000e+00  1.7730640719480067e-17 -2.2368421052628091e-03 0.0000000000000000e+00  1.4195905866667639e-17 -2.2368421052628052e-03 0.0000000000000000e+00  9.8768905863024918e-18 -2.2368421052627913e-03 0.0000000000000000e+00  5.3418819027506493e-18 -2.2368421052627900e-03 0.0000000000000000e+00  5.0781355955522957e-34 -2.2368421052627861e-03 0.0000000000000000e+00  2.2467675403146649e-34 -2.3859649122804361e-03 0.0000000000000000e+00  5.8655502194916017e-18 -2.3859649122804361e-03 0.0000000000000000e+00  1.1245424668651360e-17 -2.3859649122804330e-03 0.0000000000000000e+00  1.5242038139853245e-17 -2.3859649122804296e-03 0.0000000000000000e+00  1.7753746005981920e-17 -2.3859649122804265e-03 0.0000000000000000e+00  2.0478411495899181e-17 -2.3859649122804222e-03 0.0000000000000000e+00  2.2109387625497410e-17 -2.3859649122804070e-03 0.0000000000000000e+00  2.2416756691083543e-17 -2.3859649122803857e-03 0.0000000000000000e+00  2.2215924248340722e-17 -2.3859649122803706e-03 0.0000000000000000e+00  2.2649366296665149e-17 -2.3859649122803558e-03 0.0000000000000000e+00  2.0406702824426875e-17 -2.3859649122803450e-03 0.0000000000000000e+00  1.7516363797269449e-17 -2.3859649122803337e-03 0.0000000000000000e+00  1.3922630389558784e-17 -2.3859649122803237e-03 0.0000000000000000e+00  9.6020641297222222e-18 -2.3859649122803159e-03 0.0000000000000000e+00  5.5511470060696158e-18 -2.3859649122803094e-03 0.0000000000000000e+00  5.1495538006343601e-34 -2.3859649122803068e-03 0.0000000000000000e+00  -5.6423728839469843e-35 -2.5350877192979655e-03 0.0000000000000000e+00  5.4967470500888098e-18 -2.5350877192979650e-03 0.0000000000000000e+00  1.1760617568733189e-17 -2.5350877192979655e-03 0.0000000000000000e+00  1.6022142430148625e-17 -2.5350877192979559e-03 0.0000000000000000e+00  1.8066164583498699e-17 -2.5350877192979512e-03 0.0000000000000000e+00  2.0359619501205909e-17 -2.5350877192979481e-03 0.0000000000000000e+00  2.1738979301154125e-17 -2.5350877192979317e-03 0.0000000000000000e+00  2.1581957928503740e-17 -2.5350877192979130e-03 0.0000000