<?xml version="1.0"?>
<VTKFile type="UnstructuredGrid"  version="0.1"  >
<UnstructuredGrid>
<Piece  NumberOfPoints="1876" NumberOfCells="3600">
<Points>
<DataArray  type="Float64"  NumberOfComponents="3"  format="ascii">-0.75 -3 0  -0.65 -3 0  -0.55 -3 0  -0.45 -3 0  -0.35 -3 0  -0.25 -3 0  -0.15 -3 0  -0.05000000000000004 -3 0  0.05000000000000004 -3 0  0.15 -3 0  0.25 -3 0  0.3500000000000001 -3 0  0.45 -3 0  0.55 -3 0  0.6499999999999999 -3 0  0.75 -3 0  -0.75 -2.95 0  -0.65 -2.95 0  -0.55 -2.95 0  -0.45 -2.95 0  -0.35 -2.95 0  -0.25 -2.95 0  -0.15 -2.95 0  -0.05000000000000004 -2.95 0  0.05000000000000004 -2.95 0  0.15 -2.95 0  0.25 -2.95 0  0.3500000000000001 -2.95 0  0.45 -2.95 0  0.55 -2.95 0  0.6499999999999999 -2.95 0  0.75 -2.95 0  -0.75 -2.9 0  -0.65 -2.9 0  -0.55 -2.9 0  -0.45 -2.9 0  -0.35 -2.9 0  -0.25 -2.9 0  -0.15 -2.9 0  -0.05000000000000004 -2.9 0  0.05000000000000004 -2.9 0  0.15 -2.9 0  0.25 -2.9 0  0.3500000000000001 -2.9 0  0.45 -2.9 0  0.55 -2.9 0  0.6499999999999999 -2.9 0  0.75 -2.9 0  -0.75 -2.85 0  -0.65 -2.85 0  -0.55 -2.85 0  -0.45 -2.85 0  -0.35 -2.85 0  -0.25 -2.85 0  -0.15 -2.85 0  -0.05000000000000004 -2.85 0  0.05000000000000004 -2.85 0  0.15 -2.85 0  0.25 -2.85 0  0.3500000000000001 -2.85 0  0.45 -2.85 0  0.55 -2.85 0  0.6499999999999999 -2.85 0  0.75 -2.85 0  -0.75 -2.8 0  -0.65 -2.8 0  -0.55 -2.8 0  -0.45 -2.8 0  -0.35 -2.8 0  -0.25 -2.8 0  -0.15 -2.8 0  -0.05000000000000004 -2.8 0  0.05000000000000004 -2.8 0  0.15 -2.8 0  0.25 -2.8 0  0.3500000000000001 -2.8 0  0.45 -2.8 0  0.55 -2.8 0  0.6499999999999999 -2.8 0  0.75 -2.8 0  -0.75 -2.75 0  -0.65 -2.75 0  -0.55 -2.75 0  -0.45 -2.75 0  -0.35 -2.75 0  -0.25 -2.75 0  -0.15 -2.75 0  -0.05000000000000004 -2.75 0  0.05000000000000004 -2.75 0  0.15 -2.75 0  0.25 -2.75 0  0.3500000000000001 -2.75 0  0.45 -2.75 0  0.55 -2.75 0  0.6499999999999999 -2.75 0  0.75 -2.75 0  -0.75 -2.7 0  -0.65 -2.7 0  -0.55 -2.7 0  -0.45 -2.7 0  -0.35 -2.7 0  -0.25 -2.7 0  -0.15 -2.7 0  -0.05000000000000004 -2.7 0  0.05000000000000004 -2.7 0  0.15 -2.7 0  0.25 -2.7 0  0.3500000000000001 -2.7 0  0.45 -2.7 0  0.55 -2.7 0  0.6499999999999999 -2.7 0  0.75 -2.7 0  -0.75 -2.65 0  -0.65 -2.65 0  -0.55 -2.65 0  -0.45 -2.65 0  -0.35 -2.65 0  -0.25 -2.65 0  -0.15 -2.65 0  -0.05000000000000004 -2.65 0  0.05000000000000004 -2.65 0  0.15 -2.65 0  0.25 -2.65 0  0.3500000000000001 -2.65 0  0.45 -2.65 0  0.55 -2.65 0  0.6499999999999999 -2.65 0  0.75 -2.65 0  -0.75 -2.6 0  -0.65 -2.6 0  -0.55 -2.6 0  -0.45 -2.6 0  -0.35 -2.6 0  -0.25 -2.6 0  -0.15 -2.6 0  -0.05000000000000004 -2.6 0  0.05000000000000004 -2.6 0  0.15 -2.6 0  0.25 -2.6 0  0.3500000000000001 -2.6 0  0.45 -2.6 0  0.55 -2.6 0  0.6499999999999999 -2.6 0  0.75 -2.6 0  -0.75 -2.55 0  -0.65 -2.55 0  -0.55 -2.55 0  -0.45 -2.55 0  -0.35 -2.55 0  -0.25 -2.55 0  -0.15 -2.55 0  -0.05000000000000004 -2.55 0  0.05000000000000004 -2.55 0  0.15 -2.55 0  0.25 -2.55 0  0.3500000000000001 -2.55 0  0.45 -2.55 0  0.55 -2.55 0  0.6499999999999999 -2.55 0  0.75 -2.55 0  -0.75 -2.5 0  -0.65 -2.5 0  -0.55 -2.5 0  -0.45 -2.5 0  -0.35 -2.5 0  -0.25 -2.5 0  -0.15 -2.5 0  -0.05000000000000004 -2.5 0  0.05000000000000004 -2.5 0  0.15 -2.5 0  0.25 -2.5 0  0.3500000000000001 -2.5 0  0.45 -2.5 0  0.55 -2.5 0  0.6499999999999999 -2.5 0  0.75 -2.5 0  -0.75 -2.45 0  -0.65 -2.45 0  -0.55 -2.45 0  -0.45 -2.45 0  -0.35 -2.45 0  -0.25 -2.45 0  -0.15 -2.45 0  -0.05000000000000004 -2.45 0  0.05000000000000004 -2.45 0  0.15 -2.45 0  0.25 -2.45 0  0.3500000000000001 -2.45 0  0.45 -2.45 0  0.55 -2.45 0  0.6499999999999999 -2.45 0  0.75 -2.45 0  -0.75 -2.4 0  -0.65 -2.4 0  -0.55 -2.4 0  -0.45 -2.4 0  -0.35 -2.4 0  -0.25 -2.4 0  -0.15 -2.4 0  -0.05000000000000004 -2.4 0  0.05000000000000004 -2.4 0  0.15 -2.4 0  0.25 -2.4 0  0.3500000000000001 -2.4 0  0.45 -2.4 0  0.55 -2.4 0  0.6499999999999999 -2.4 0  0.75 -2.4 0  -0.75 -2.35 0  -0.65 -2.35 0  -0.55 -2.35 0  -0.45 -2.35 0  -0.35 -2.35 0  -0.25 -2.35 0  -0.15 -2.35 0  -0.05000000000000004 -2.35 0  0.05000000000000004 -2.35 0  0.15 -2.35 0  0.25 -2.35 0  0.3500000000000001 -2.35 0  0.45 -2.35 0  0.55 -2.35 0  0.6499999999999999 -2.35 0  0.75 -2.35 0  -0.75 -2.3 0  -0.65 -2.3 0  -0.55 -2.3 0  -0.45 -2.3 0  -0.35 -2.3 0  -0.25 -2.3 0  -0.15 -2.3 0  -0.05000000000000004 -2.3 0  0.05000000000000004 -2.3 0  0.15 -2.3 0  0.25 -2.3 0  0.3500000000000001 -2.3 0  0.45 -2.3 0  0.55 -2.3 0  0.6499999999999999 -2.3 0  0.75 -2.3 0  -0.75 -2.25 0  -0.65 -2.25 0  -0.55 -2.25 0  -0.45 -2.25 0  -0.35 -2.25 0  -0.25 -2.25 0  -0.15 -2.25 0  -0.05000000000000004 -2.25 0  0.05000000000000004 -2.25 0  0.15 -2.25 0  0.25 -2.25 0  0.3500000000000001 -2.25 0  0.45 -2.25 0  0.55 -2.25 0  0.6499999999999999 -2.25 0  0.75 -2.25 0  -0.75 -2.2 0  -0.65 -2.2 0  -0.55 -2.2 0  -0.45 -2.2 0  -0.35 -2.2 0  -0.25 -2.2 0  -0.15 -2.2 0  -0.05000000000000004 -2.2 0  0.05000000000000004 -2.2 0  0.15 -2.2 0  0.25 -2.2 0  0.3500000000000001 -2.2 0  0.45 -2.2 0  0.55 -2.2 0  0.6499999999999999 -2.2 0  0.75 -2.2 0  -0.75 -2.15 0  -0.65 -2.15 0  -0.55 -2.15 0  -0.45 -2.15 0  -0.35 -2.15 0  -0.25 -2.15 0  -0.15 -2.15 0  -0.05000000000000004 -2.15 0  0.05000000000000004 -2.15 0  0.15 -2.15 0  0.25 -2.15 0  0.3500000000000001 -2.15 0  0.45 -2.15 0  0.55 -2.15 0  0.6499999999999999 -2.15 0  0.75 -2.15 0  -0.75 -2.1 0  -0.65 -2.1 0  -0.55 -2.1 0  -0.45 -2.1 0  -0.35 -2.1 0  -0.25 -2.1 0  -0.15 -2.1 0  -0.05000000000000004 -2.1 0  0.05000000000000004 -2.1 0  0.15 -2.1 0  0.25 -2.1 0  0.3500000000000001 -2.1 0  0.45 -2.1 0  0.55 -2.1 0  0.6499999999999999 -2.1 0  0.75 -2.1 0  -0.75 -2.05 0  -0.65 -2.05 0  -0.55 -2.05 0  -0.45 -2.05 0  -0.35 -2.05 0  -0.25 -2.05 0  -0.15 -2.05 0  -0.05000000000000004 -2.05 0  0.05000000000000004 -2.05 0  0.15 -2.05 0  0.25 -2.05 0  0.3500000000000001 -2.05 0  0.45 -2.05 0  0.55 -2.05 0  0.6499999999999999 -2.05 0  0.75 -2.05 0  -0.75 -2 0  -0.65 -2 0  -0.55 -2 0  -0.45 -2 0  -0.35 -2 0  -0.25 -2 0  -0.15 -2 0  -0.05000000000000004 -2 0  0.05000000000000004 -2 0  0.15 -2 0  0.25 -2 0  0.3500000000000001 -2 0  0.45 -2 0  0.55 -2 0  0.6499999999999999 -2 0  0.75 -2 0  -0.75 -1.95 0  -0.65 -1.95 0  -0.55 -1.95 0  -0.45 -1.95 0  -0.35 -1.95 0  -0.25 -1.95 0  -0.15 -1.95 0  -0.05000000000000004 -1.95 0  0.05000000000000004 -1.95 0  0.15 -1.95 0  0.25 -1.95 0  0.3500000000000001 -1.95 0  0.45 -1.95 0  0.55 -1.95 0  0.6499999999999999 -1.95 0  0.75 -1.95 0  -0.75 -1.9 0  -0.65 -1.9 0  -0.55 -1.9 0  -0.45 -1.9 0  -0.35 -1.9 0  -0.25 -1.9 0  -0.15 -1.9 0  -0.05000000000000004 -1.9 0  0.05000000000000004 -1.9 0  0.15 -1.9 0  0.25 -1.9 0  0.3500000000000001 -1.9 0  0.45 -1.9 0  0.55 -1.9 0  0.6499999999999999 -1.9 0  0.75 -1.9 0  -0.75 -1.85 0  -0.65 -1.85 0  -0.55 -1.85 0  -0.45 -1.85 0  -0.35 -1.85 0  -0.25 -1.85 0  -0.15 -1.85 0  -0.05000000000000004 -1.85 0  0.05000000000000004 -1.85 0  0.15 -1.85 0  0.25 -1.85 0  0.3500000000000001 -1.85 0  0.45 -1.85 0  0.55 -1.85 0  0.6499999999999999 -1.85 0  0.75 -1.85 0  -0.75 -1.8 0  -0.65 -1.8 0  -0.55 -1.8 0  -0.45 -1.8 0  -0.35 -1.8 0  -0.25 -1.8 0  -0.15 -1.8 0  -0.05000000000000004 -1.8 0  0.05000000000000004 -1.8 0  0.15 -1.8 0  0.25 -1.8 0  0.3500000000000001 -1.8 0  0.45 -1.8 0  0.55 -1.8 0  0.6499999999999999 -1.8 0  0.75 -1.8 0  -0.75 -1.75 0  -0.65 -1.75 0  -0.55 -1.75 0  -0.45 -1.75 0  -0.35 -1.75 0  -0.25 -1.75 0  -0.15 -1.75 0  -0.05000000000000004 -1.75 0  0.05000000000000004 -1.75 0  0.15 -1.75 0  0.25 -1.75 0  0.3500000000000001 -1.75 0  0.45 -1.75 0  0.55 -1.75 0  0.6499999999999999 -1.75 0  0.75 -1.75 0  -0.75 -1.7 0  -0.65 -1.7 0  -0.55 -1.7 0  -0.45 -1.7 0  -0.35 -1.7 0  -0.25 -1.7 0  -0.15 -1.7 0  -0.05000000000000004 -1.7 0  0.05000000000000004 -1.7 0  0.15 -1.7 0  0.25 -1.7 0  0.3500000000000001 -1.7 0  0.45 -1.7 0  0.55 -1.7 0  0.6499999999999999 -1.7 0  0.75 -1.7 0  -0.75 -1.65 0  -0.65 -1.65 0  -0.55 -1.65 0  -0.45 -1.65 0  -0.35 -1.65 0  -0.25 -1.65 0  -0.15 -1.65 0  -0.05000000000000004 -1.65 0  0.05000000000000004 -1.65 0  0.15 -1.65 0  0.25 -1.65 0  0.3500000000000001 -1.65 0  0.45 -1.65 0  0.55 -1.65 0  0.6499999999999999 -1.65 0  0.75 -1.65 0  -0.75 -1.6 0  -0.65 -1.6 0  -0.55 -1.6 0  -0.45 -1.6 0  -0.35 -1.6 0  -0.25 -1.6 0  -0.15 -1.6 0  -0.05000000000000004 -1.6 0  0.05000000000000004 -1.6 0  0.15 -1.6 0  0.25 -1.6 0  0.3500000000000001 -1.6 0  0.45 -1.6 0  0.55 -1.6 0  0.6499999999999999 -1.6 0  0.75 -1.6 0  -0.75 -1.55 0  -0.65 -1.55 0  -0.55 -1.55 0  -0.45 -1.55 0  -0.35 -1.55 0  -0.25 -1.55 0  -0.15 -1.55 0  -0.05000000000000004 -1.55 0  0.05000000000000004 -1.55 0  0.15 -1.55 0  0.25 -1.55 0  0.3500000000000001 -1.55 0  0.45 -1.55 0  0.55 -1.55 0  0.6499999999999999 -1.55 0  0.75 -1.55 0  -0.75 -1.5 0  -0.65 -1.5 0  -0.55 -1.5 0  -0.45 -1.5 0  -0.35 -1.5 0  -0.25 -1.5 0  -0.15 -1.5 0  -0.05000000000000004 -1.5 0  0.05000000000000004 -1.5 0  0.15 -1.5 0  0.25 -1.5 0  0.3500000000000001 -1.5 0  0.45 -1.5 0  0.55 -1.5 0  0.6499999999999999 -1.5 0  0.75 -1.5 0  -0.75 -1.45 0  -0.65 -1.45 0  -0.55 -1.45 0  -0.45 -1.45 0  -0.35 -1.45 0  -0.25 -1.45 0  -0.15 -1.45 0  -0.05000000000000004 -1.45 0  0.05000000000000004 -1.45 0  0.15 -1.45 0  0.25 -1.45 0  0.3500000000000001 -1.45 0  0.45 -1.45 0  0.55 -1.45 0  0.6499999999999999 -1.45 0  0.75 -1.45 0  -0.75 -1.4 0  -0.65 -1.4 0  -0.55 -1.4 0  -0.45 -1.4 0  -0.35 -1.4 0  -0.25 -1.4 0  -0.15 -1.4 0  -0.05000000000000004 -1.4 0  0.05000000000000004 -1.4 0  0.15 -1.4 0  0.25 -1.4 0  0.3500000000000001 -1.4 0  0.45 -1.4 0  0.55 -1.4 0  0.6499999999999999 -1.4 0  0.75 -1.4 0  -0.75 -1.35 0  -0.65 -1.35 0  -0.55 -1.35 0  -0.45 -1.35 0  -0.35 -1.35 0  -0.25 -1.35 0  -0.15 -1.35 0  -0.05000000000000004 -1.35 0  0.05000000000000004 -1.35 0  0.15 -1.35 0  0.25 -1.35 0  0.3500000000000001 -1.35 0  0.45 -1.35 0  0.55 -1.35 0  0.6499999999999999 -1.35 0  0.75 -1.35 0  -0.75 -1.3 0  -0.65 -1.3 0  -0.55 -1.3 0  -0.45 -1.3 0  -0.35 -1.3 0  -0.25 -1.3 0  -0.15 -1.3 0  -0.05000000000000004 -1.3 0  0.05000000000000004 -1.3 0  0.15 -1.3 0  0.25 -1.3 0  0.3500000000000001 -1.3 0  0.45 -1.3 0  0.55 -1.3 0  0.6499999999999999 -1.
[...]
<PointData  Vectors="displacement"> 
<DataArray  type="Float64"  Name="displacement"  NumberOfComponents="3" format="ascii">2.3111159332646743e-31 -5.2041704279304361e-16 0.0000000000000000e+00  3.9295993833833507e-31 2.3378109344218773e-16 0.0000000000000000e+00  6.9333477997940727e-31 -1.7889335846010885e-16 0.0000000000000000e+00  4.3044534257054868e-30 -1.0672615135404221e-17 0.0000000000000000e+00  -4.6222318665293808e-30 0.0000000000000000e+00 0.0000000000000000e+00  1.2034469373512071e-29 -2.1163944859627004e-16 0.0000000000000000e+00  -1.2017802852976395e-29 -9.7578195523695744e-17 0.0000000000000000e+00  3.2333049839213854e-30 -4.2684842549617879e-17 0.0000000000000000e+00  1.4791141972894019e-29 1.9515639104739144e-16 0.0000000000000000e+00  -8.8459590599277927e-30 -3.2367483458617658e-17 0.0000000000000000e+00  1.3404472412935198e-29 -1.6263032587282610e-17 0.0000000000000000e+00  -1.2361391623261302e-29 3.0764852893832670e-17 0.0000000000000000e+00  3.4666738998970357e-30 2.1141942363467405e-16 0.0000000000000000e+00  2.3224647301047274e-30 -1.9007419336386554e-16 0.0000000000000000e+00  -9.2444637330587706e-31 -6.5052130349130537e-17 0.0000000000000000e+00  -6.9333477997940666e-31 1.3010426069826085e-16 0.0000000000000000e+00  -9.2444637330586988e-31 -1.4912280701752541e+00 0.0000000000000000e+00  7.2513151384611854e-15 -1.4912280701752583e+00 0.0000000000000000e+00  1.5266710203556750e-14 -1.4912280701752585e+00 0.0000000000000000e+00  2.5352720951324783e-14 -1.4912280701752565e+00 0.0000000000000000e+00  3.3391582123071745e-14 -1.4912280701752556e+00 0.0000000000000000e+00  4.4033722373708006e-14 -1.4912280701752529e+00 0.0000000000000000e+00  5.2902116393929322e-14 -1.4912280701752434e+00 0.0000000000000000e+00  5.5171997963449676e-14 -1.4912280701752343e+00 0.0000000000000000e+00  5.6917249596776514e-14 -1.4912280701752252e+00 0.0000000000000000e+00  5.0192398252455138e-14 -1.4912280701752159e+00 0.0000000000000000e+00  4.3116000409405006e-14 -1.4912280701752116e+00 0.0000000000000000e+00  3.8399808168180181e-14 -1.4912280701752063e+00 0.0000000000000000e+00  3.0575436283223111e-14 -1.4912280701752003e+00 0.0000000000000000e+00  2.0458785756920429e-14 -1.4912280701751970e+00 0.0000000000000000e+00  1.0886509302296535e-14 -1.4912280701751941e+00 0.0000000000000000e+00  -1.9066991976695646e-30 -1.4912280701751954e+00 0.0000000000000000e+00  1.9066706449433649e-30 -2.9824561403505330e+00 0.0000000000000000e+00  1.4001263547081221e-14 -2.9824561403505330e+00 0.0000000000000000e+00  2.9823500242710937e-14 -2.9824561403505365e+00 0.0000000000000000e+00  4.7132882224375697e-14 -2.9824561403505303e+00 0.0000000000000000e+00  6.4677785163900049e-14 -2.9824561403505263e+00 0.0000000000000000e+00  8.0712219613059014e-14 -2.9824561403505241e+00 0.0000000000000000e+00  9.6161791250064227e-14 -2.9824561403505037e+00 0.0000000000000000e+00  1.0294394571912259e-13 -2.9824561403504837e+00 0.0000000000000000e+00  1.0261728848708916e-13 -2.9824561403504619e+00 0.0000000000000000e+00  9.2748184062708669e-14 -2.9824561403504455e+00 0.0000000000000000e+00  8.0932818893916326e-14 -2.9824561403504362e+00 0.0000000000000000e+00  7.1461970873297526e-14 -2.9824561403504228e+00 0.0000000000000000e+00  5.7011626510714822e-14 -2.9824561403504086e+00 0.0000000000000000e+00  3.7565433376132047e-14 -2.9824561403504055e+00 0.0000000000000000e+00  1.8961204968863041e-14 -2.9824561403503980e+00 0.0000000000000000e+00  2.6412753523024951e-30 -2.9824561403503962e+00 0.0000000000000000e+00  -3.0044507132440900e-30 -4.4736842105257972e+00 0.0000000000000000e+00  2.1787996324370437e-14 -4.4736842105257990e+00 0.0000000000000000e+00  4.1657443183372657e-14 -4.4736842105258026e+00 0.0000000000000000e+00  6.6381788595528323e-14 -4.4736842105257946e+00 0.0000000000000000e+00  9.2414233585981275e-14 -4.4736842105257884e+00 0.0000000000000000e+00  1.1217154816655560e-13 -4.4736842105257857e+00 0.0000000000000000e+00  1.3183606168501161e-13 -4.4736842105257546e+00 0.0000000000000000e+00  1.4201344142899470e-13 -4.4736842105257217e+00 0.0000000000000000e+00  1.4015782282343432e-13 -4.4736842105256880e+00 0.0000000000000000e+00  1.2867614889642359e-13 -4.4736842105256640e+00 0.0000000000000000e+00  1.1510346603118472e-13 -4.4736842105256445e+00 0.0000000000000000e+00  9.8538445082677657e-14 -4.4736842105256285e+00 0.0000000000000000e+00  8.0185659311570765e-14 -4.4736842105256098e+00 0.0000000000000000e+00  5.1677045053004513e-14 -4.4736842105255938e+00 0.0000000000000000e+00  2.4363357132076351e-14 -4.4736842105255903e+00 0.0000000000000000e+00  -4.6222318665293674e-30 -4.4736842105255841e+00 0.0000000000000000e+00  3.7396304502800877e-30 -5.9649122807010757e+00 0.0000000000000000e+00  2.6992239890240113e-14 -5.9649122807010748e+00 0.0000000000000000e+00  5.3099701799255693e-14 -5.9649122807010846e+00 0.0000000000000000e+00  8.2880137018342938e-14 -5.9649122807010810e+00 0.0000000000000000e+00  1.1372632379432919e-13 -5.9649122807010651e+00 0.0000000000000000e+00  1.3782983909860076e-13 -5.9649122807010571e+00 0.0000000000000000e+00  1.6143930895198153e-13 -5.9649122807010153e+00 0.0000000000000000e+00  1.7508982627750519e-13 -5.9649122807009682e+00 0.0000000000000000e+00  1.6995774073322906e-13 -5.9649122807009229e+00 0.0000000000000000e+00  1.5766415959395473e-13 -5.9649122807008910e+00 0.0000000000000000e+00  1.4628436417816902e-13 -5.9649122807008634e+00 0.0000000000000000e+00  1.2240077242554573e-13 -5.9649122807008501e+00 0.0000000000000000e+00  9.6491693814465808e-14 -5.9649122807008217e+00 0.0000000000000000e+00  6.4267909173861830e-14 -5.9649122807008021e+00 0.0000000000000000e+00  3.0325811723724230e-14 -5.9649122807007871e+00 0.0000000000000000e+00  7.5833491560247094e-32 -5.9649122807007826e+00 0.0000000000000000e+00  -3.6977854932235033e-30 -7.4561403508763480e+00 0.0000000000000000e+00  3.0047163933200800e-14 -7.4561403508763524e+00 0.0000000000000000e+00  6.3651750282621977e-14 -7.4561403508763480e+00 0.0000000000000000e+00  9.7957462827654872e-14 -7.4561403508763435e+00 0.0000000000000000e+00  1.3029113481469458e-13 -7.4561403508763311e+00 0.0000000000000000e+00  1.5960664114808927e-13 -7.4561403508763178e+00 0.0000000000000000e+00  1.8608540841188590e-13 -7.4561403508762725e+00 0.0000000000000000e+00  2.0103495591046655e-13 -7.4561403508762218e+00 0.0000000000000000e+00  1.9679935735115992e-13 -7.4561403508761392e+00 0.0000000000000000e+00  1.8435756036724978e-13 -7.4561403508761064e+00 0.0000000000000000e+00  1.6802422077234049e-13 -7.4561403508760806e+00 0.0000000000000000e+00  1.4041439447130010e-13 -7.4561403508760353e+00 0.0000000000000000e+00  1.1002704771562710e-13 -7.4561403508760185e+00 0.0000000000000000e+00  7.4172560129731452e-14 -7.4561403508759847e+00 0.0000000000000000e+00  3.7299564162118305e-14 -7.4561403508759811e+00 0.0000000000000000e+00  -1.0616688818434666e-30 -7.4561403508759714e+00 0.0000000000000000e+00  8.1179216689820585e-30 -8.9473684210516069e+00 0.0000000000000000e+00  3.2931132796798975e-14 -8.9473684210516122e+00 0.0000000000000000e+00  7.1709503637057838e-14 -8.9473684210516229e+00 0.0000000000000000e+00  1.0962155393575350e-13 -8.9473684210515998e+00 0.0000000000000000e+00  1.4597751103914881e-13 -8.9473684210515945e+00 0.0000000000000000e+00  1.7864653297578721e-13 -8.9473684210515749e+00 0.0000000000000000e+00  2.0636366657833274e-13 -8.9473684210515145e+00 0.0000000000000000e+00  2.2043950932610343e-13 -8.9473684210514417e+00 0.0000000000000000e+00  2.1454496219110913e-13 -8.9473684210513671e+00 0.0000000000000000e+00  2.0641965965635238e-13 -8.9473684210513191e+00 0.0000000000000000e+00  1.8488032189003243e-13 -8.9473684210512783e+00 0.0000000000000000e+00  1.5631075722699348e-13 -8.9473684210512374e+00 0.0000000000000000e+00  1.2195281217798994e-13 -8.9473684210512054e+00 0.0000000000000000e+00  8.2137439833933392e-14 -8.9473684210511717e+00 0.0000000000000000e+00  4.3534526861262923e-14 -8.9473684210511557e+00 0.0000000000000000e+00  6.9663637416978052e-30 -8.9473684210511415e+00 0.0000000000000000e+00  -5.5466782398352435e-30 -1.0438596491226907e+01 0.0000000000000000e+00  3.5538866841705411e-14 -1.0438596491226901e+01 0.0000000000000000e+00  7.9565995694816181e-14 -1.0438596491226921e+01 0.0000000000000000e+00  1.2184508363336068e-13 -1.0438596491226880e+01 0.0000000000000000e+00  1.5959812267757749e-13 -1.0438596491226878e+01 0.0000000000000000e+00  1.9320328061697727e-13 -1.0438596491226853e+01 0.0000000000000000e+00  2.2016439441394543e-13 -1.0438596491226777e+01 0.0000000000000000e+00  2.3387554103988314e-13 -1.0438596491226692e+01 0.0000000000000000e+00  2.3240799440662875e-13 -1.0438596491226610e+01 0.0000000000000000e+00  2.2037834428538197e-13 -1.0438596491226543e+01 0.0000000000000000e+00  1.9579603736085023e-13 -1.0438596491226500e+01 0.0000000000000000e+00  1.7018661096391360e-13 -1.0438596491226447e+01 0.0000000000000000e+00  1.3543587635801697e-13 -1.0438596491226424e+01 0.0000000000000000e+00  9.0164139559146891e-14 -1.0438596491226367e+01 0.0000000000000000e+00  4.5131569476776134e-14 -1.0438596491226352e+01 0.0000000000000000e+00  -6.9333477997940533e-30 -1.0438596491226340e+01 0.0000000000000000e+00  -4.9138185357610434e-32 -1.1929824561402169e+01 0.0000000000000000e+00  4.4432483961573381e-14 -1.1929824561402162e+01 0.0000000000000000e+00  8.4112927224775455e-14 -1.1929824561402199e+01 0.0000000000000000e+00  1.3188820308820842e-13 -1.1929824561402148e+01 0.0000000000000000e+00  1.7364854171884732e-13 -1.1929824561402150e+01 0.0000000000000000e+00  2.0384470063224155e-13 -1.1929824561402125e+01 0.0000000000000000e+00  2.2834399424677093e-13 -1.1929824561402016e+01 0.0000000000000000e+00  2.4507223413470081e-13 -1.1929824561401931e+01 0.0000000000000000e+00  2.4407916047353859e-13 -1.1929824561401825e+01 0.0000000000000000e+00  2.2607854680040703e-13 -1.1929824561401775e+01 0.0000000000000000e+00  2.0721773272519842e-13 -1.1929824561401700e+01 0.0000000000000000e+00  1.7870649306723674e-13 -1.1929824561401666e+01 0.0000000000000000e+00  1.4780146615280747e-13 -1.1929824561401599e+01 0.0000000000000000e+00  9.7686292916764689e-14 -1.1929824561401560e+01 0.0000000000000000e+00  4.2028724809118583e-14 -1.1929824561401551e+01 0.0000000000000000e+00  8.5247207445739328e-30 -1.1929824561401523e+01 0.0000000000000000e+00  9.2444637330586988e-31 -1.3421052631577444e+01 0.0000000000000000e+00  4.5424835385247175e-14 -1.3421052631577446e+01 0.0000000000000000e+00  9.0297713451933155e-14 -1.3421052631577462e+01 0.0000000000000000e+00  1.4018660589655688e-13 -1.3421052631577446e+01 0.0000000000000000e+00  1.8128212088219573e-13 -1.3421052631577432e+01 0.0000000000000000e+00  2.0958442914559568e-13 -1.3421052631577393e+01 0.0000000000000000e+00  2.3477080132359765e-13 -1.3421052631577288e+01 0.0000000000000000e+00  2.5520298176359850e-13 -1.3421052631577169e+01 0.0000000000000000e+00  2.4887437152219922e-13 -1.3421052631577064e+01 0.0000000000000000e+00  2.2934683050219921e-13 -1.3421052631576986e+01 0.0000000000000000e+00  2.1712971763104174e-13 -1.3421052631576925e+01 0.0000000000000000e+00  1.8682482192495821e-13 -1.3421052631576876e+01 0.0000000000000000e+00  1.5180754396646657e-13 -1.3421052631576840e+01 0.0000000000000000e+00  9.8612764096469147e-14 -1.3421052631576771e+01 0.0000000000000000e+00  4.3305190137607289e-14 -1.3421052631576750e+01 0.0000000000000000e+00  -1.5808096613777134e-29 -1.3421052631576712e+01 0.0000000000000000e+00  -9.5328079593764402e-30 -1.4912280701752719e+01 0.0000000000000000e+00  4.5853828628106950e-14 -1.4912280701752726e+01 0.0000000000000000e+00  9.7302992661651496e-14 -1.4912280701752746e+01 0.0000000000000000e+00  1.4619079074178144e-13 -1.4912280701752699e+01 0.0000000000000000e+00  1.8420881089433540e-13 -1.4912280701752707e+01 0.0000000000000000e+00  2.1507493988726678e-13 -1.4912280701752628e+01 0.0000000000000000e+00  2.3945370124156853e-13 -1.4912280701752566e+01 0.0000000000000000e+00  2.6033503401103325e-13 -1.4912280701752426e+01 0.0000000000000000e+00  2.5572990328431169e-13 -1.4912280701752282e+01 0.0000000000000000e+00  2.3609027154215519e-13 -1.4912280701752239e+01 0.0000000000000000e+00  2.2045682967095156e-13 -1.4912280701752138e+01 0.0000000000000000e+00  1.9009805904082497e-13 -1.4912280701752040e+01 0.0000000000000000e+00  1.5244446358508452e-13 -1.4912280701752023e+01 0.0000000000000000e+00  9.8935008960849100e-14 -1.4912280701751936e+01 0.0000000000000000e+00  4.8187269938715145e-14 -1.4912280701751907e+01 0.0000000000000000e+00  1.0631133293017567e-29 -1.4912280701751914e+01 0.0000000000000000e+00  5.5466782398352196e-30 -1.6403508771927978e+01 0.0000000000000000e+00  4.3885870389367879e-14 -1.6403508771927999e+01 0.0000000000000000e+00  9.9822816826414668e-14 -1.6403508771928021e+01 0.0000000000000000e+00  1.4975570992860401e-13 -1.6403508771927989e+01 0.0000000000000000e+00  1.8914889071496170e-13 -1.6403508771927942e+01 0.0000000000000000e+00  2.1800330577360462e-13 -1.6403508771927889e+01 0.0000000000000000e+00  2.4437993568621983e-13 -1.6403508771927804e+01 0.0000000000000000e+00  2.6267011358400221e-13 -1.6403508771927651e+01 0.0000000000000000e+00  2.6038532480410995e-13 -1.6403508771927509e+01 0.0000000000000000e+00  2.4329506107458460e-13 -1.6403508771927431e+01 0.0000000000000000e+00  2.1102488128491406e-13 -1.6403508771927346e+01 0.0000000000000000e+00  1.9204174266364276e-13 -1.6403508771927246e+01 0.0000000000000000e+00  1.5245777930654879e-13 -1.6403508771927214e+01 0.0000000000000000e+00  1.0512587450782704e-13 -1.6403508771927125e+01 0.0000000000000000e+00  5.1666151906620213e-14 -1.6403508771927118e+01 0.0000000000000000e+00  -6.4711246131410872e-30 -1.6403508771927090e+01 0.0000000000000000e+00  2.7887305824443471e-30 -1.7894736842103253e+01 0.0000000000000000e+00  4.2659400044603387e-14 -1.7894736842103292e+01 0.0000000000000000e+00  1.0019000327714109e-13 -1.7894736842103278e+01 0.0000000000000000e+00  1.4864883899723294e-13 -1.7894736842103256e+01 0.0000000000000000e+00  1.9065231500604373e-13 -1.7894736842103228e+01 0.0000000000000000e+00  2.1826290458274819e-13 -1.7894736842103164e+01 0.0000000000000000e+00  2.4671586001786491e-13 -1.7894736842103050e+01 0.0000000000000000e+00  2.6760096496614150e-13 -1.7894736842102905e+01 0.0000000000000000e+00  2.5954596887141201e-13 -1.7894736842102766e+01 0.0000000000000000e+00  2.4471328666303752e-13 -1.7894736842102663e+01 0.0000000000000000e+00  2.1061548047390499e-13 -1.7894736842102571e+01 0.0000000000000000e+00  1.9345531555431656e-13 -1.7894736842102475e+01 0.0000000000000000e+00  1.5841105474751803e-13 -1.7894736842102414e+01 0.0000000000000000e+00  1.0445890803256530e-13 -1.7894736842102343e+01 0.0000000000000000e+00  5.1462195116490886e-14 -1.7894736842102319e+01 0.0000000000000000e+00  4.7841205003882409e-30 -1.7894736842102290e+01 0.0000000000000000e+00  2.3111159332646848e-30 -1.9385964912278535e+01 0.0000000000000000e+00  4.9556835618198075e-14 -1.9385964912278549e+01 0.0000000000000000e+00  1.0138716345783119e-13 -1.9385964912278563e+01 0.0000000000000000e+00  1.5164331908920963e-13 -1.9385964912278510e+01 0.0000000000000000e+00  1.9064879738765777e-13 -1.9385964912278489e+01 0.0000000000000000e+00  2.1809893767456378e-13 -1.9385964912278453e+01 0.0000000000000000e+00  2.4727999892801935e-13 -1.9385964912278286e+01 0.0000000000000000e+00  2.6456708465056185e-13 -1.9385964912278155e+01 0.0000000000000000e+00  2.6171619422215352e-13 -1.9385964912278002e+01 0.0000000000000000e+00  2.4117797688917932e-13 -1.9385964912277863e+01 0.0000000000000000e+00  2.1683796612690436e-13 -1.9385964912277771e+01 0.0000000000000000e+00  1.8996860232998411e-13 -1.9385964912277704e+01 0.0000000000000000e+00  1.5837330778837179e-13 -1.9385964912277604e+01 0.0000000000000000e+00  1.0454561319372203e-13 -1.9385964912277540e+01 0.0000000000000000e+00  4.3774065342598801e-14 -1.9385964912277515e+01 0.0000000000000000e+00  -1.5208690100306485e-29 -1.9385964912277466e+01 0.0000000000000000e+00  2.9859437301847310e-30 -2.0877192982453820e+01 0.0000000000000000e+00  5.3499550669241639e-14 -2.0877192982453803e+01 0.0000000000000000e+00  1.0584873793565158e-13 -2.0877192982453849e+01 0.0000000000000000e+00  1.4983882253702212e-13 -2.0877192982453806e+01 0.0000000000000000e+00  1.9022491298080737e-13 -2.0877192982453764e+01 0.0000000000000000e+00  2.1784642902969344e-13 -2.0877192982453721e+01 0.0000000000000000e+00  2.4155351376139921e-13 -2.0877192982453558e+01 0.0000000000000000e+00  2.6511675448604197e-13 -2.0877192982453394e+01 0.0000000000000000e+00  2.6320841613663776e-13 -2.0877192982453220e+01 0.0000000000000000e+00  2.3851546872996292e-13 -2.0877192982453124e+01 0.0000000000000000e+00  2.2124275192426381e-13 -2.0877192982453000e+01 0.0000000000000000e+00  1.9013589929799159e-13 -2.0877192982452922e+01 0.0000000000000000e+00  1.5264591962874193e-13 -2.0877192982452836e+01 0.0000000000000000e+00  1.0244888731503468e-13 -2.0877192982452755e+01 0.0000000000000000e+00  4.4636490271064005e-14 -2.0877192982452701e+01 0.0000000000000000e+00  2.1130202818419873e-30 -2.0877192982452680e+01 0.0000000000000000e+00  1.0168910106364635e-29 -2.2368421052629117e+01 0.0000000000000000e+00  5.9148493365800045e-14 -2.2368421052629124e+01 0.0000000000000000e+00  1.1850809343340548e-13 -2.2368421052629106e+01 0.0000000000000000e+00  1.5980871772790579e-13 -2.2368421052629053e+01 0.0000000000000000e+00  1.8964349695889510e-13 -2.2368421052629014e+01 0.0000000000000000e+00  2.1395490102446881e-13 -2.2368421052628985e+01 0.0000000000000000e+00  2.4005663559484913e-13 -2.2368421052628843e+01 0.0000000000000000e+00  2.6076606055496487e-13 -2.2368421052628651e+01 0.0000000000000000e+00  2.6239097406878715e-13 -2.2368421052628456e+01 0.0000000000000000e+00  2.4099500083167454e-13 -2.2368421052628346e+01 0.0000000000000000e+00  2.2147629227696989e-13 -2.2368421052628257e+01 0.0000000000000000e+00  1.9090976929581380e-13 -2.2368421052628115e+01 0.0000000000000000e+00  1.4875669621107714e-13 -2.2368421052628058e+01 0.0000000000000000e+00  9.4888897963993192e-14 -2.2368421052627930e+01 0.0000000000000000e+00  4.8118665706378128e-14 -2.2368421052627909e+01 0.0000000000000000e+00  -3.6977854932235026e-30 -2.2368421052627891e+01 0.0000000000000000e+00  -8.3837451004913745e-30 -2.3859649122804388e+01 0.0000000000000000e+00  5.8725788651217356e-14 -2.3859649122804385e+01 0.0000000000000000e+00  1.2798020328750966e-13 -2.3859649122804363e+01 0.0000000000000000e+00  1.6704922905894067e-13 -2.3859649122804306e+01 0.0000000000000000e+00  1.8817858200532952e-13 -2.3859649122804271e+01 0.0000000000000000e+00  2.1063121646249513e-13 -2.3859649122804225e+01 0.0000000000000000e+00  2.4355318870647834e-13 -2.3859649122804075e+01 0.0000000000000000e+00  2.5604745417929288e-13 -2.3859649122803891e+01 0.0000000000000000e+00  2.5185981340283769e-13 -2.3859649122803734e+01 0.0000000000000000e+00  2.5001112348884528e-13 -2.3859649122803571e+01 0.0000000000000000e+00  2.1864549271666750e-13 -2.3859649122803486e+01 0.0000000000000000e+00  1.9004852080541484e-13 -2.3859649122803347e+01 0.0000000000000000e+00  1.4212030934185384e-13 -2.3859649122803269e+01 0.0000000000000000e+00  9.7353170149594199e-14 -2.3859649122803173e+01 0.0000000000000000e+00  5.0640848012113898e-14 -2.3859649122803127e+01 0.0000000000000000e+00  5.7347927595602603e-30 -2.3859649122803102e+01 0.0000000000000000e+00  6.4711246131411181e-30 -2.5350877192979716e+01 0.0000000000000000e+00  6.0860028441420877e-14 -2.5350877192979674e+01 0.0000000000000000e+00  1.3434305521286186e-13 -2.5350877192979688e+01 0.0000000000000000e+00  1.7435080446141741e-13 -2.5350877192979564e+01 0.0000000000000000e+00  2.0025177272634684e-13 -2.5350877192979542e+01 0.0000000000000000e+00  2.1708156326125455e-13 -2.5350877192979510e+01 0.0000000000000000e+00  2.3486169967180937e-13 -2.5350877192979308e+01 0.0000000000000000e+00  2.4521705975944194e-13 -2.5350877192979134e+01 0.000