<?xml version="1.0"?>
<VTKFile type="UnstructuredGrid"  version="0.1"  >
<UnstructuredGrid>
<Piece  NumberOfPoints="1411" NumberOfCells="2700">
<Points>
<DataArray  type="Float64"  NumberOfComponents="3"  format="ascii">-0.75 -4.5 0  -0.65 -4.5 0  -0.55 -4.5 0  -0.45 -4.5 0  -0.35 -4.5 0  -0.25 -4.5 0  -0.15 -4.5 0  -0.05000000000000004 -4.5 0  0.05000000000000004 -4.5 0  0.15 -4.5 0  0.25 -4.5 0  0.3500000000000001 -4.5 0  0.45 -4.5 0  0.55 -4.5 0  0.6499999999999999 -4.5 0  0.75 -4.5 0  -0.75 -4.4 0  -0.65 -4.4 0  -0.55 -4.4 0  -0.45 -4.4 0  -0.35 -4.4 0  -0.25 -4.4 0  -0.15 -4.4 0  -0.05000000000000004 -4.4 0  0.05000000000000004 -4.4 0  0.15 -4.4 0  0.25 -4.4 0  0.3500000000000001 -4.4 0  0.45 -4.4 0  0.55 -4.4 0  0.6499999999999999 -4.4 0  0.75 -4.4 0  -0.75 -4.3 0  -0.65 -4.3 0  -0.55 -4.3 0  -0.45 -4.3 0  -0.35 -4.3 0  -0.25 -4.3 0  -0.15 -4.3 0  -0.05000000000000004 -4.3 0  0.05000000000000004 -4.3 0  0.15 -4.3 0  0.25 -4.3 0  0.3500000000000001 -4.3 0  0.45 -4.3 0  0.55 -4.3 0  0.6499999999999999 -4.3 0  0.75 -4.3 0  -0.75 -4.2 0  -0.65 -4.2 0  -0.55 -4.2 0  -0.45 -4.2 0  -0.35 -4.2 0  -0.25 -4.2 0  -0.15 -4.2 0  -0.05000000000000004 -4.2 0  0.05000000000000004 -4.2 0  0.15 -4.2 0  0.25 -4.2 0  0.3500000000000001 -4.2 0  0.45 -4.2 0  0.55 -4.2 0  0.6499999999999999 -4.2 0  0.75 -4.2 0  -0.75 -4.1 0  -0.65 -4.1 0  -0.55 -4.1 0  -0.45 -4.1 0  -0.35 -4.1 0  -0.25 -4.1 0  -0.15 -4.1 0  -0.05000000000000004 -4.1 0  0.05000000000000004 -4.1 0  0.15 -4.1 0  0.25 -4.1 0  0.3500000000000001 -4.1 0  0.45 -4.1 0  0.55 -4.1 0  0.6499999999999999 -4.1 0  0.75 -4.1 0  -0.75 -4 0  -0.65 -4 0  -0.55 -4 0  -0.45 -4 0  -0.35 -4 0  -0.25 -4 0  -0.15 -4 0  -0.05000000000000004 -4 0  0.05000000000000004 -4 0  0.15 -4 0  0.25 -4 0  0.3500000000000001 -4 0  0.45 -4 0  0.55 -4 0  0.6499999999999999 -4 0  0.75 -4 0  -0.75 -3.9 0  -0.65 -3.9 0  -0.55 -3.9 0  -0.45 -3.9 0  -0.35 -3.9 0  -0.25 -3.9 0  -0.15 -3.9 0  -0.05000000000000004 -3.9 0  0.05000000000000004 -3.9 0  0.15 -3.9 0  0.25 -3.9 0  0.3500000000000001 -3.9 0  0.45 -3.9 0  0.55 -3.9 0  0.6499999999999999 -3.9 0  0.75 -3.9 0  -0.75 -3.8 0  -0.65 -3.8 0  -0.55 -3.8 0  -0.45 -3.8 0  -0.35 -3.8 0  -0.25 -3.8 0  -0.15 -3.8 0  -0.05000000000000004 -3.8 0  0.05000000000000004 -3.8 0  0.15 -3.8 0  0.25 -3.8 0  0.3500000000000001 -3.8 0  0.45 -3.8 0  0.55 -3.8 0  0.6499999999999999 -3.8 0  0.75 -3.8 0  -0.75 -3.7 0  -0.65 -3.7 0  -0.55 -3.7 0  -0.45 -3.7 0  -0.35 -3.7 0  -0.25 -3.7 0  -0.15 -3.7 0  -0.05000000000000004 -3.7 0  0.05000000000000004 -3.7 0  0.15 -3.7 0  0.25 -3.7 0  0.3500000000000001 -3.7 0  0.45 -3.7 0  0.55 -3.7 0  0.6499999999999999 -3.7 0  0.75 -3.7 0  -0.75 -3.6 0  -0.65 -3.6 0  -0.55 -3.6 0  -0.45 -3.6 0  -0.35 -3.6 0  -0.25 -3.6 0  -0.15 -3.6 0  -0.05000000000000004 -3.6 0  0.05000000000000004 -3.6 0  0.15 -3.6 0  0.25 -3.6 0  0.3500000000000001 -3.6 0  0.45 -3.6 0  0.55 -3.6 0  0.6499999999999999 -3.6 0  0.75 -3.6 0  -0.75 -3.5 0  -0.65 -3.5 0  -0.55 -3.5 0  -0.45 -3.5 0  -0.35 -3.5 0  -0.25 -3.5 0  -0.15 -3.5 0  -0.05000000000000004 -3.5 0  0.05000000000000004 -3.5 0  0.15 -3.5 0  0.25 -3.5 0  0.3500000000000001 -3.5 0  0.45 -3.5 0  0.55 -3.5 0  0.6499999999999999 -3.5 0  0.75 -3.5 0  -0.75 -3.4 0  -0.65 -3.4 0  -0.55 -3.4 0  -0.45 -3.4 0  -0.35 -3.4 0  -0.25 -3.4 0  -0.15 -3.4 0  -0.05000000000000004 -3.4 0  0.05000000000000004 -3.4 0  0.15 -3.4 0  0.25 -3.4 0  0.3500000000000001 -3.4 0  0.45 -3.4 0  0.55 -3.4 0  0.6499999999999999 -3.4 0  0.75 -3.4 0  -0.75 -3.3 0  -0.65 -3.3 0  -0.55 -3.3 0  -0.45 -3.3 0  -0.35 -3.3 0  -0.25 -3.3 0  -0.15 -3.3 0  -0.05000000000000004 -3.3 0  0.05000000000000004 -3.3 0  0.15 -3.3 0  0.25 -3.3 0  0.3500000000000001 -3.3 0  0.45 -3.3 0  0.55 -3.3 0  0.6499999999999999 -3.3 0  0.75 -3.3 0  -0.75 -3.2 0  -0.65 -3.2 0  -0.55 -3.2 0  -0.45 -3.2 0  -0.35 -3.2 0  -0.25 -3.2 0  -0.15 -3.2 0  -0.05000000000000004 -3.2 0  0.05000000000000004 -3.2 0  0.15 -3.2 0  0.25 -3.2 0  0.3500000000000001 -3.2 0  0.45 -3.2 0  0.55 -3.2 0  0.6499999999999999 -3.2 0  0.75 -3.2 0  -0.75 -3.1 0  -0.65 -3.1 0  -0.55 -3.1 0  -0.45 -3.1 0  -0.35 -3.1 0  -0.25 -3.1 0  -0.15 -3.1 0  -0.05000000000000004 -3.1 0  0.05000000000000004 -3.1 0  0.15 -3.1 0  0.25 -3.1 0  0.3500000000000001 -3.1 0  0.45 -3.1 0  0.55 -3.1 0  0.6499999999999999 -3.1 0  0.75 -3.1 0  -0.75 -3 0  -0.65 -3 0  -0.55 -3 0  -0.45 -3 0  -0.35 -3 0  -0.25 -3 0  -0.15 -3 0  -0.05000000000000004 -3 0  0.05000000000000004 -3 0  0.15 -3 0  0.25 -3 0  0.3500000000000001 -3 0  0.45 -3 0  0.55 -3 0  0.6499999999999999 -3 0  0.75 -3 0  -0.75 -2.9 0  -0.65 -2.9 0  -0.55 -2.9 0  -0.45 -2.9 0  -0.35 -2.9 0  -0.25 -2.9 0  -0.15 -2.9 0  -0.05000000000000004 -2.9 0  0.05000000000000004 -2.9 0  0.15 -2.9 0  0.25 -2.9 0  0.3500000000000001 -2.9 0  0.45 -2.9 0  0.55 -2.9 0  0.6499999999999999 -2.9 0  0.75 -2.9 0  -0.75 -2.8 0  -0.65 -2.8 0  -0.55 -2.8 0  -0.45 -2.8 0  -0.35 -2.8 0  -0.25 -2.8 0  -0.15 -2.8 0  -0.05000000000000004 -2.8 0  0.05000000000000004 -2.8 0  0.15 -2.8 0  0.25 -2.8 0  0.3500000000000001 -2.8 0  0.45 -2.8 0  0.55 -2.8 0  0.6499999999999999 -2.8 0  0.75 -2.8 0  -0.75 -2.7 0  -0.65 -2.7 0  -0.55 -2.7 0  -0.45 -2.7 0  -0.35 -2.7 0  -0.25 -2.7 0  -0.15 -2.7 0  -0.05000000000000004 -2.7 0  0.05000000000000004 -2.7 0  0.15 -2.7 0  0.25 -2.7 0  0.3500000000000001 -2.7 0  0.45 -2.7 0  0.55 -2.7 0  0.6499999999999999 -2.7 0  0.75 -2.7 0  -0.75 -2.6 0  -0.65 -2.6 0  -0.55 -2.6 0  -0.45 -2.6 0  -0.35 -2.6 0  -0.25 -2.6 0  -0.15 -2.6 0  -0.05000000000000004 -2.6 0  0.05000000000000004 -2.6 0  0.15 -2.6 0  0.25 -2.6 0  0.3500000000000001 -2.6 0  0.45 -2.6 0  0.55 -2.6 0  0.6499999999999999 -2.6 0  0.75 -2.6 0  -0.75 -2.5 0  -0.65 -2.5 0  -0.55 -2.5 0  -0.45 -2.5 0  -0.35 -2.5 0  -0.25 -2.5 0  -0.15 -2.5 0  -0.05000000000000004 -2.5 0  0.05000000000000004 -2.5 0  0.15 -2.5 0  0.25 -2.5 0  0.3500000000000001 -2.5 0  0.45 -2.5 0  0.55 -2.5 0  0.6499999999999999 -2.5 0  0.75 -2.5 0  -0.75 -2.4 0  -0.65 -2.4 0  -0.55 -2.4 0  -0.45 -2.4 0  -0.35 -2.4 0  -0.25 -2.4 0  -0.15 -2.4 0  -0.05000000000000004 -2.4 0  0.05000000000000004 -2.4 0  0.15 -2.4 0  0.25 -2.4 0  0.3500000000000001 -2.4 0  0.45 -2.4 0  0.55 -2.4 0  0.6499999999999999 -2.4 0  0.75 -2.4 0  -0.75 -2.3 0  -0.65 -2.3 0  -0.55 -2.3 0  -0.45 -2.3 0  -0.35 -2.3 0  -0.25 -2.3 0  -0.15 -2.3 0  -0.05000000000000004 -2.3 0  0.05000000000000004 -2.3 0  0.15 -2.3 0  0.25 -2.3 0  0.3500000000000001 -2.3 0  0.45 -2.3 0  0.55 -2.3 0  0.6499999999999999 -2.3 0  0.75 -2.3 0  -0.75 -2.2 0  -0.65 -2.2 0  -0.55 -2.2 0  -0.45 -2.2 0  -0.35 -2.2 0  -0.25 -2.2 0  -0.15 -2.2 0  -0.05000000000000004 -2.2 0  0.05000000000000004 -2.2 0  0.15 -2.2 0  0.25 -2.2 0  0.3500000000000001 -2.2 0  0.45 -2.2 0  0.55 -2.2 0  0.6499999999999999 -2.2 0  0.75 -2.2 0  -0.75 -2.1 0  -0.65 -2.1 0  -0.55 -2.1 0  -0.45 -2.1 0  -0.35 -2.1 0  -0.25 -2.1 0  -0.15 -2.1 0  -0.05000000000000004 -2.1 0  0.05000000000000004 -2.1 0  0.15 -2.1 0  0.25 -2.1 0  0.3500000000000001 -2.1 0  0.45 -2.1 0  0.55 -2.1 0  0.6499999999999999 -2.1 0  0.75 -2.1 0  -0.75 -2 0  -0.65 -2 0  -0.55 -2 0  -0.45 -2 0  -0.35 -2 0  -0.25 -2 0  -0.15 -2 0  -0.05000000000000004 -2 0  0.05000000000000004 -2 0  0.15 -2 0  0.25 -2 0  0.3500000000000001 -2 0  0.45 -2 0  0.55 -2 0  0.6499999999999999 -2 0  0.75 -2 0  -0.75 -1.9 0  -0.65 -1.9 0  -0.55 -1.9 0  -0.45 -1.9 0  -0.35 -1.9 0  -0.25 -1.9 0  -0.15 -1.9 0  -0.05000000000000004 -1.9 0  0.05000000000000004 -1.9 0  0.15 -1.9 0  0.25 -1.9 0  0.3500000000000001 -1.9 0  0.45 -1.9 0  0.55 -1.9 0  0.6499999999999999 -1.9 0  0.75 -1.9 0  -0.75 -1.8 0  -0.65 -1.8 0  -0.55 -1.8 0  -0.45 -1.8 0  -0.35 -1.8 0  -0.25 -1.8 0  -0.15 -1.8 0  -0.05000000000000004 -1.8 0  0.05000000000000004 -1.8 0  0.15 -1.8 0  0.25 -1.8 0  0.3500000000000001 -1.8 0  0.45 -1.8 0  0.55 -1.8 0  0.6499999999999999 -1.8 0  0.75 -1.8 0  -0.75 -1.7 0  -0.65 -1.7 0  -0.55 -1.7 0  -0.45 -1.7 0  -0.35 -1.7 0  -0.25 -1.7 0  -0.15 -1.7 0  -0.05000000000000004 -1.7 0  0.05000000000000004 -1.7 0  0.15 -1.7 0  0.25 -1.7 0  0.3500000000000001 -1.7 0  0.45 -1.7 0  0.55 -1.7 0  0.6499999999999999 -1.7 0  0.75 -1.7 0  -0.75 -1.6 0  -0.65 -1.6 0  -0.55 -1.6 0  -0.45 -1.6 0  -0.35 -1.6 0  -0.25 -1.6 0  -0.15 -1.6 0  -0.05000000000000004 -1.6 0  0.05000000000000004 -1.6 0  0.15 -1.6 0  0.25 -1.6 0  0.3500000000000001 -1.6 0  0.45 -1.6 0  0.55 -1.6 0  0.6499999999999999 -1.6 0  0.75 -1.6 0  -0.75 -1.5 0  -0.65 -1.5 0  -0.55 -1.5 0  -0.45 -1.5 0  -0.35 -1.5 0  -0.25 -1.5 0  -0.15 -1.5 0  -0.05000000000000004 -1.5 0  0.05000000000000004 -1.5 0  0.15 -1.5 0  0.25 -1.5 0  0.3500000000000001 -1.5 0  0.45 -1.5 0  0.55 -1.5 0  0.6499999999999999 -1.5 0  0.75 -1.5 0  -0.75 -1.4 0  -0.65 -1.4 0  -0.55 -1.4 0  -0.45 -1.4 0  -0.35 -1.4 0  -0.25 -1.4 0  -0.15 -1.4 0  -0.05000000000000004 -1.4 0  0.05000000000000004 -1.4 0  0.15 -1.4 0  0.25 -1.4 0  0.3500000000000001 -1.4 0  0.45 -1.4 0  0.55 -1.4 0  0.6499999999999999 -1.4 0  0.75 -1.4 0  -0.75 -1.3 0  -0.65 -1.3 0  -0.55 -1.3 0  -0.45 -1.3 0  -0.35 -1.3 0  -0.25 -1.3 0  -0.15 -1.3 0  -0.05000000000000004 -1.3 0  0.05000000000000004 -1.3 0  0.15 -1.3 0  0.25 -1.3 0  0.3500000000000001 -1.3 0  0.45 -1.3 0  0.55 -1.3 0  0.6499999999999999 -1.3 0  0.75 -1.3 0  -0.75 -1.2 0  -0.65 -1.2 0  -0.55 -1.2 0  -0.45 -1.2 0  -0.35 -1.2 0  -0.25 -1.2 0  -0.15 -1.2 0  -0.05000000000000004 -1.2 0  0.05000000000000004 -1.2 0  0.15 -1.2 0  0.25 -1.2 0  0.3500000000000001 -1.2 0  0.45 -1.2 0  0.55 -1.2 0  0.6499999999999999 -1.2 0  0.75 -1.2 0  -0.75 -1.1 0  -0.65 -1.1 0  -0.55 -1.1 0  -0.45 -1.1 0  -0.35 -1.1 0  -0.25 -1.1 0  -0.15 -1.1 0  -0.05000000000000004 -1.1 0  0.05000000000000004 -1.1 0  0.15 -1.1 0  0.25 -1.1 0  0.3500000000000001 -1.1 0  0.45 -1.1 0  0.55 -1.1 0  0.6499999999999999 -1.1 0  0.75 -1.1 0  -0.75 -1 0  -0.65 -1 0  -0.55 -1 0  -0.45 -1 0  -0.35 -1 0  -0.25 -1 0  -0.15 -1 0  -0.05000000000000004 -1 0  0.05000000000000004 -1 0  0.15 -1 0  0.25 -1 0  0.3500000000000001 -1 0  0.45 -1 0  0.55 -1 0  0.6499999999999999 -1 0  0.75 -1 0  -0.75 -0.8999999999999999 0  -0.65 -0.899999
[...]
<PointData  Vectors="displacement"> 
<DataArray  type="Float64"  Name="displacement"  NumberOfComponents="3" format="ascii">1.2122285492854853e-36 9.9261673506363603e-22 0.0000000000000000e+00  -1.7812384512079033e-36 -1.2462176394075698e-21 0.0000000000000000e+00  -5.2897245787003118e-36 -4.9630836753181830e-22 0.0000000000000000e+00  -3.4495349511938702e-36 -1.0439924059214225e-21 0.0000000000000000e+00  1.7632415262334369e-36 -1.2407709188295455e-22 0.0000000000000000e+00  -2.4957555009492436e-35 -1.7466129160050769e-21 0.0000000000000000e+00  2.2922139841034689e-35 8.6853964318068226e-22 0.0000000000000000e+00  -5.2801686591517644e-35 -1.8495241508802917e-21 0.0000000000000000e+00  2.8211864419734991e-35 8.6853964318068188e-22 0.0000000000000000e+00  3.6149131795501934e-36 -6.2613692879200894e-22 0.0000000000000000e+00  1.4105932209867488e-35 -4.9630836753181792e-22 0.0000000000000000e+00  1.7155444654163818e-35 -1.1157850591837775e-21 0.0000000000000000e+00  -1.6750794499217650e-35 -1.2407709188295455e-22 0.0000000000000000e+00  -3.5264830524668725e-36 8.2976555196725824e-22 0.0000000000000000e+00  -7.0529661049337544e-36 -2.4815418376590934e-22 0.0000000000000000e+00  4.4081038155835888e-36 -9.9261673506363565e-22 0.0000000000000000e+00  -1.3224311446750688e-36 -8.5922688441547596e-06 0.0000000000000000e+00  -2.8978997840857474e-20 -8.5922688441547596e-06 0.0000000000000000e+00  -4.8000022028224752e-20 -8.5922688441547596e-06 0.0000000000000000e+00  -5.1713698727212047e-20 -8.5922688441547478e-06 0.0000000000000000e+00  -7.1204362874681252e-20 -8.5922688441547664e-06 0.0000000000000000e+00  -1.1913278910580778e-19 -8.5922688441547732e-06 0.0000000000000000e+00  -1.7157869735856245e-19 -8.5922688441547969e-06 0.0000000000000000e+00  -2.1660747501799570e-19 -8.5922688441548071e-06 0.0000000000000000e+00  -2.2790405077237609e-19 -8.5922688441548240e-06 0.0000000000000000e+00  -2.2877934191024407e-19 -8.5922688441548308e-06 0.0000000000000000e+00  -2.0663983210240313e-19 -8.5922688441548325e-06 0.0000000000000000e+00  -1.5060649824206326e-19 -8.5922688441548681e-06 0.0000000000000000e+00  -1.2046538682283296e-19 -8.5922688441549019e-06 0.0000000000000000e+00  -8.2432519766026083e-20 -8.5922688441549121e-06 0.0000000000000000e+00  -4.7293724476279347e-20 -8.5922688441549511e-06 0.0000000000000000e+00  7.3448791595752117e-37 -8.5922688441549477e-06 0.0000000000000000e+00  2.6448622893501489e-36 -1.7186951436510677e-05 0.0000000000000000e+00  -4.2873750226833771e-20 -1.7186951436510683e-05 0.0000000000000000e+00  -8.0230425453241124e-20 -1.7186951436510683e-05 0.0000000000000000e+00  -1.1582520382266640e-19 -1.7186951436510704e-05 0.0000000000000000e+00  -1.6083912386787040e-19 -1.7186951436510714e-05 0.0000000000000000e+00  -2.3377962414286573e-19 -1.7186951436510751e-05 0.0000000000000000e+00  -3.0723423539960100e-19 -1.7186951436510758e-05 0.0000000000000000e+00  -3.8383924598419064e-19 -1.7186951436510799e-05 0.0000000000000000e+00  -4.2733258188778957e-19 -1.7186951436510843e-05 0.0000000000000000e+00  -4.2479898950505576e-19 -1.7186951436510870e-05 0.0000000000000000e+00  -3.5874528459222942e-19 -1.7186951436510900e-05 0.0000000000000000e+00  -2.7613977771116719e-19 -1.7186951436510981e-05 0.0000000000000000e+00  -2.1433010421308303e-19 -1.7186951436511046e-05 0.0000000000000000e+00  -1.4272570422734475e-19 -1.7186951436511080e-05 0.0000000000000000e+00  -8.1106527490968921e-20 -1.7186951436511134e-05 0.0000000000000000e+00  2.0249726902837072e-36 -1.7186951436511141e-05 0.0000000000000000e+00  -9.0779387952174379e-36 -2.5786916552333220e-05 0.0000000000000000e+00  -7.3150573840628743e-20 -2.5786916552333240e-05 0.0000000000000000e+00  -1.3144285853176634e-19 -2.5786916552333315e-05 0.0000000000000000e+00  -1.7999062552338962e-19 -2.5786916552333284e-05 0.0000000000000000e+00  -2.5232213136542186e-19 -2.5786916552333321e-05 0.0000000000000000e+00  -3.6006769190795603e-19 -2.5786916552333335e-05 0.0000000000000000e+00  -4.5188912206040112e-19 -2.5786916552333406e-05 0.0000000000000000e+00  -5.2893890502871212e-19 -2.5786916552333460e-05 0.0000000000000000e+00  -5.7024180400774659e-19 -2.5786916552333501e-05 0.0000000000000000e+00  -5.2796509324398853e-19 -2.5786916552333562e-05 0.0000000000000000e+00  -4.6947513873943236e-19 -2.5786916552333626e-05 0.0000000000000000e+00  -3.8141884002420045e-19 -2.5786916552333731e-05 0.0000000000000000e+00  -2.9500516306458221e-19 -2.5786916552333846e-05 0.0000000000000000e+00  -1.9069241418170847e-19 -2.5786916552333931e-05 0.0000000000000000e+00  -1.0805300741308856e-19 -2.5786916552333962e-05 0.0000000000000000e+00  1.7506469439031932e-35 -2.5786916552334026e-05 0.0000000000000000e+00  3.5264830524668498e-36 -3.4395997966859635e-05 0.0000000000000000e+00  -8.4574178404936517e-20 -3.4395997966859628e-05 0.0000000000000000e+00  -1.7293014352331467e-19 -3.4395997966859675e-05 0.0000000000000000e+00  -2.5588147067256069e-19 -3.4395997966859702e-05 0.0000000000000000e+00  -3.4822671195332149e-19 -3.4395997966859797e-05 0.0000000000000000e+00  -4.5145449549353273e-19 -3.4395997966859851e-05 0.0000000000000000e+00  -5.4839100703647987e-19 -3.4395997966859872e-05 0.0000000000000000e+00  -6.5209186441429891e-19 -3.4395997966859919e-05 0.0000000000000000e+00  -6.8170506033325354e-19 -3.4395997966860028e-05 0.0000000000000000e+00  -6.6527913316621926e-19 -3.4395997966860021e-05 0.0000000000000000e+00  -5.9181974019704479e-19 -3.4395997966860204e-05 0.0000000000000000e+00  -4.8404464384533117e-19 -3.4395997966860380e-05 0.0000000000000000e+00  -3.5795165092500376e-19 -3.4395997966860522e-05 0.0000000000000000e+00  -2.3477956080001164e-19 -3.4395997966860624e-05 0.0000000000000000e+00  -1.2559776558237815e-19 -3.4395997966860719e-05 0.0000000000000000e+00  1.7632415262334242e-36 -3.4395997966860712e-05 0.0000000000000000e+00  -1.7632415267183520e-35 -4.3019616208582386e-05 0.0000000000000000e+00  -1.1412722335252716e-19 -4.3019616208582393e-05 0.0000000000000000e+00  -2.2422292587195337e-19 -4.3019616208582406e-05 0.0000000000000000e+00  -3.3361892805803851e-19 -4.3019616208582535e-05 0.0000000000000000e+00  -4.3940492776540351e-19 -4.3019616208582603e-05 0.0000000000000000e+00  -5.5739032420146590e-19 -4.3019616208582684e-05 0.0000000000000000e+00  -6.4859964997988747e-19 -4.3019616208582677e-05 0.0000000000000000e+00  -7.4006401115737349e-19 -4.3019616208582799e-05 0.0000000000000000e+00  -7.7432917197305918e-19 -4.3019616208582915e-05 0.0000000000000000e+00  -7.6440593514068482e-19 -4.3019616208583009e-05 0.0000000000000000e+00  -7.0323612343126422e-19 -4.3019616208583192e-05 0.0000000000000000e+00  -5.6401882092208713e-19 -4.3019616208583362e-05 0.0000000000000000e+00  -4.2629758510865723e-19 -4.3019616208583585e-05 0.0000000000000000e+00  -2.6940532336404201e-19 -4.3019616208583714e-05 0.0000000000000000e+00  -1.3534400658561080e-19 -4.3019616208583789e-05 0.0000000000000000e+00  1.6910501190102550e-35 -4.3019616208583816e-05 0.0000000000000000e+00  5.2897245787002871e-36 -5.1665572276884166e-05 0.0000000000000000e+00  -1.4339317201078445e-19 -5.1665572276884126e-05 0.0000000000000000e+00  -2.7711166686152414e-19 -5.1665572276884153e-05 0.0000000000000000e+00  -3.9748360047238603e-19 -5.1665572276884288e-05 0.0000000000000000e+00  -5.4688275413320503e-19 -5.1665572276884376e-05 0.0000000000000000e+00  -6.6971291983600325e-19 -5.1665572276884553e-05 0.0000000000000000e+00  -7.8171027439833348e-19 -5.1665572276884566e-05 0.0000000000000000e+00  -8.5170930599572468e-19 -5.1665572276884641e-05 0.0000000000000000e+00  -8.9032150689986425e-19 -5.1665572276884796e-05 0.0000000000000000e+00  -8.7704594199308598e-19 -5.1665572276884932e-05 0.0000000000000000e+00  -7.7865739229356366e-19 -5.1665572276885088e-05 0.0000000000000000e+00  -6.3804301505182843e-19 -5.1665572276885366e-05 0.0000000000000000e+00  -5.0085907040850133e-19 -5.1665572276885589e-05 0.0000000000000000e+00  -3.2447322407122812e-19 -5.1665572276885772e-05 0.0000000000000000e+00  -1.6254455305070236e-19 -5.1665572276885874e-05 0.0000000000000000e+00  1.0106797011245072e-35 -5.1665572276885874e-05 0.0000000000000000e+00  -9.4073941000574466e-43 -6.0345077456898052e-05 0.0000000000000000e+00  -1.7381548738868513e-19 -6.0345077456897910e-05 0.0000000000000000e+00  -3.3740324809439635e-19 -6.0345077456898086e-05 0.0000000000000000e+00  -4.7568196985829756e-19 -6.0345077456898133e-05 0.0000000000000000e+00  -6.2347485885111105e-19 -6.0345077456898438e-05 0.0000000000000000e+00  -7.7306237578169329e-19 -6.0345077456898479e-05 0.0000000000000000e+00  -9.0475745919029322e-19 -6.0345077456898560e-05 0.0000000000000000e+00  -9.8894556006048154e-19 -6.0345077456898662e-05 0.0000000000000000e+00  -1.0086775875034459e-18 -6.0345077456898818e-05 0.0000000000000000e+00  -9.6213170734321358e-19 -6.0345077456898967e-05 0.0000000000000000e+00  -8.4326737927496841e-19 -6.0345077456899177e-05 0.0000000000000000e+00  -7.1193945954823730e-19 -6.0345077456899461e-05 0.0000000000000000e+00  -5.6081868435475818e-19 -6.0345077456899726e-05 0.0000000000000000e+00  -3.6819053994610462e-19 -6.0345077456899956e-05 0.0000000000000000e+00  -1.8860933966442954e-19 -6.0345077456900044e-05 0.0000000000000000e+00  1.4609715503076994e-35 -6.0345077456900044e-05 0.0000000000000000e+00  -1.7632415262334309e-36 -6.9074086616286839e-05 0.0000000000000000e+00  -1.9416758776235224e-19 -6.9074086616286825e-05 0.0000000000000000e+00  -3.8409193981494139e-19 -6.9074086616286880e-05 0.0000000000000000e+00  -5.7167424533438855e-19 -6.9074086616287083e-05 0.0000000000000000e+00  -7.1574191876924585e-19 -6.9074086616287232e-05 0.0000000000000000e+00  -8.8158845382008070e-19 -6.9074086616287381e-05 0.0000000000000000e+00  -1.0307313209821033e-18 -6.9074086616287476e-05 0.0000000000000000e+00  -1.1085436347774109e-18 -6.9074086616287557e-05 0.0000000000000000e+00  -1.1067631237343226e-18 -6.9074086616287706e-05 0.0000000000000000e+00  -1.0343918734257710e-18 -6.9074086616287950e-05 0.0000000000000000e+00  -9.2297537765529743e-19 -6.9074086616288126e-05 0.0000000000000000e+00  -7.7303021103464662e-19 -6.9074086616288465e-05 0.0000000000000000e+00  -6.1582026230813570e-19 -6.9074086616288790e-05 0.0000000000000000e+00  -4.0621931203167519e-19 -6.9074086616289007e-05 0.0000000000000000e+00  -2.2658591735249266e-19 -6.9074086616289116e-05 0.0000000000000000e+00  -7.0529661049337224e-36 -6.9074086616289102e-05 0.0000000000000000e+00  3.7832383059211432e-36 -7.7875003209455714e-05 0.0000000000000000e+00  -2.1440130696310445e-19 -7.7875003209455660e-05 0.0000000000000000e+00  -4.3595962648247032e-19 -7.7875003209455768e-05 0.0000000000000000e+00  -6.5293719856907171e-19 -7.7875003209455944e-05 0.0000000000000000e+00  -8.4337056529886954e-19 -7.7875003209456147e-05 0.0000000000000000e+00  -1.0184168328931164e-18 -7.7875003209456229e-05 0.0000000000000000e+00  -1.1436591735384790e-18 -7.7875003209456405e-05 0.0000000000000000e+00  -1.1972404901163769e-18 -7.7875003209456500e-05 0.0000000000000000e+00  -1.1787538560669633e-18 -7.7875003209456649e-05 0.0000000000000000e+00  -1.1360522677829687e-18 -7.7875003209456852e-05 0.0000000000000000e+00  -1.0223025736553348e-18 -7.7875003209457042e-05 0.0000000000000000e+00  -8.5466516377557981e-19 -7.7875003209457408e-05 0.0000000000000000e+00  -6.7576595962009231e-19 -7.7875003209457747e-05 0.0000000000000000e+00  -4.6238060984894338e-19 -7.7875003209458072e-05 0.0000000000000000e+00  -2.2488666825440268e-19 -7.7875003209458153e-05 0.0000000000000000e+00  -1.1475717576657616e-35 -7.7875003209458085e-05 0.0000000000000000e+00  -1.4105932209867461e-35 -8.6778820572658625e-05 0.0000000000000000e+00  -2.6343046531126719e-19 -8.6778820572658746e-05 0.0000000000000000e+00  -5.0680889980357439e-19 -8.6778820572658679e-05 0.0000000000000000e+00  -7.2371556571880995e-19 -8.6778820572658936e-05 0.0000000000000000e+00  -9.3222959822185149e-19 -8.6778820572659167e-05 0.0000000000000000e+00  -1.0965836489456899e-18 -8.6778820572659275e-05 0.0000000000000000e+00  -1.1952895728718659e-18 -8.6778820572659397e-05 0.0000000000000000e+00  -1.2591954142187641e-18 -8.6778820572659533e-05 0.0000000000000000e+00  -1.2661770227883844e-18 -8.6778820572659682e-05 0.0000000000000000e+00  -1.2105293272004146e-18 -8.6778820572659736e-05 0.0000000000000000e+00  -1.0959485535696722e-18 -8.6778820572660210e-05 0.0000000000000000e+00  -9.0789699540031087e-19 -8.6778820572660427e-05 0.0000000000000000e+00  -7.0005855625818753e-19 -8.6778820572660915e-05 0.0000000000000000e+00  -4.7376700553136697e-19 -8.6778820572661186e-05 0.0000000000000000e+00  -2.5303661961355697e-19 -8.6778820572661321e-05 0.0000000000000000e+00  6.1918520604134655e-35 -8.6778820572661281e-05 0.0000000000000000e+00  4.9810519170131308e-35 -9.5827753662321857e-05 0.0000000000000000e+00  -2.8796132239981705e-19 -9.5827753662321695e-05 0.0000000000000000e+00  -5.5739032420146542e-19 -9.5827753662321939e-05 0.0000000000000000e+00  -7.8205604994728343e-19 -9.5827753662322101e-05 0.0000000000000000e+00  -9.8217674734783793e-19 -9.5827753662322291e-05 0.0000000000000000e+00  -1.1485618801727182e-18 -9.5827753662322535e-05 0.0000000000000000e+00  -1.2549590268410630e-18 -9.5827753662322562e-05 0.0000000000000000e+00  -1.3081782002849545e-18 -9.5827753662322603e-05 0.0000000000000000e+00  -1.3150610589849915e-18 -9.5827753662322874e-05 0.0000000000000000e+00  -1.2499055754820754e-18 -9.5827753662323023e-05 0.0000000000000000e+00  -1.1194032189424704e-18 -9.5827753662323348e-05 0.0000000000000000e+00  -9.4417545168731855e-19 -9.5827753662323687e-05 0.0000000000000000e+00  -7.1968566062141342e-19 -9.5827753662324107e-05 0.0000000000000000e+00  -4.8117878793778942e-19 -9.5827753662324446e-05 0.0000000000000000e+00  -2.5591732110439791e-19 -9.5827753662324676e-05 0.0000000000000000e+00  -6.3980478237612973e-35 -9.5827753662324622e-05 0.0000000000000000e+00  -1.4105932209867447e-35 -1.0507839583536847e-04 0.0000000000000000e+00  -3.1564124018562159e-19 -1.0507839583536848e-04 0.0000000000000000e+00  -5.8704061846112718e-19 -1.0507839583536865e-04 0.0000000000000000e+00  -8.1757115573456843e-19 -1.0507839583536888e-04 0.0000000000000000e+00  -1.0050927484985918e-18 -1.0507839583536909e-04 0.0000000000000000e+00  -1.1671415576461011e-18 -1.0507839583536928e-04 0.0000000000000000e+00  -1.2953086930625768e-18 -1.0507839583536930e-04 0.0000000000000000e+00  -1.3513784671397223e-18 -1.0507839583536945e-04 0.0000000000000000e+00  -1.3446030486685390e-18 -1.0507839583536965e-04 0.0000000000000000e+00  -1.2957921730924747e-18 -1.0507839583536985e-04 0.0000000000000000e+00  -1.1683162609873717e-18 -1.0507839583537006e-04 0.0000000000000000e+00  -9.9063462164896952e-19 -1.0507839583537062e-04 0.0000000000000000e+00  -7.5241684604517410e-19 -1.0507839583537092e-04 0.0000000000000000e+00  -4.7800442954247042e-19 -1.0507839583537126e-04 0.0000000000000000e+00  -2.3962388477614882e-19 -1.0507839583537149e-04 0.0000000000000000e+00  7.0529661049337224e-36 -1.0507839583537153e-04 0.0000000000000000e+00  4.5814529451138296e-35 -1.1460540453444905e-04 0.0000000000000000e+00  -3.1808337715221814e-19 -1.1460540453444905e-04 0.0000000000000000e+00  -6.1275966193954173e-19 -1.1460540453444917e-04 0.0000000000000000e+00  -8.7170820976589073e-19 -1.1460540453444940e-04 0.0000000000000000e+00  -1.0557372226401356e-18 -1.1460540453444967e-04 0.0000000000000000e+00  -1.2287923056259610e-18 -1.1460540453444989e-04 0.0000000000000000e+00  -1.3571609863511490e-18 -1.1460540453444992e-04 0.0000000000000000e+00  -1.4307935149743509e-18 -1.1460540453444996e-04 0.0000000000000000e+00  -1.3941219834888730e-18 -1.1460540453445020e-04 0.0000000000000000e+00  -1.3416966252865010e-18 -1.1460540453445039e-04 0.0000000000000000e+00  -1.2488315472771764e-18 -1.1460540453445076e-04 0.0000000000000000e+00  -1.0214599956389003e-18 -1.1460540453445123e-04 0.0000000000000000e+00  -7.7679927484082561e-19 -1.1460540453445172e-04 0.0000000000000000e+00  -4.8644973748491698e-19 -1.1460540453445200e-04 0.0000000000000000e+00  -2.5987779897849548e-19 -1.1460540453445217e-04 0.0000000000000000e+00  3.9917001164718058e-35 -1.1460540453445219e-04 0.0000000000000000e+00  -2.4685381367268006e-35 -1.2450567642397907e-04 0.0000000000000000e+00  -3.1633736589465659e-19 -1.2450567642397924e-04 0.0000000000000000e+00  -6.4851525571562276e-19 -1.2450567642397926e-04 0.0000000000000000e+00  -9.2170823793869048e-19 -1.2450567642397948e-04 0.0000000000000000e+00  -1.0919809163226908e-18 -1.2450567642397989e-04 0.0000000000000000e+00  -1.2708432030801441e-18 -1.2450567642397999e-04 0.0000000000000000e+00  -1.4381705506695880e-18 -1.2450567642398002e-04 0.0000000000000000e+00  -1.4981976289900009e-18 -1.2450567642398002e-04 0.0000000000000000e+00  -1.4641849515595010e-18 -1.2450567642398018e-04 0.0000000000000000e+00  -1.4299671537534403e-18 -1.2450567642398046e-04 0.0000000000000000e+00  -1.3382363392552965e-18 -1.2450567642398100e-04 0.0000000000000000e+00  -1.1136070071693372e-18 -1.2450567642398146e-04 0.0000000000000000e+00  -8.3101830153673091e-19 -1.2450567642398203e-04 0.0000000000000000e+00  -5.3691045244103327e-19 -1.2450567642398211e-04 0.0000000000000000e+00  -2.6547470340198002e-19 -1.2450567642398241e-04 0.0000000000000000e+00  3.3611136508379841e-35 -1.2450567642398227e-04 0.0000000000000000e+00  -5.7715448005962006e-36 -1.3490291633592557e-04 0.0000000000000000e+00  -3.4097338856302157e-19 -1.3490291633592576e-04 0.0000000000000000e+00  -6.6918508808959943e-19 -1.3490291633592563e-04 0.0000000000000000e+00  -9.4112400383637423e-19 -1.3490291633592622e-04 0.0000000000000000e+00  -1.1527845341439380e-18 -1.3490291633592647e-04 0.0000000000000000e+00  -1.3210501244820908e-18 -1.3490291633592647e-04 0.0000000000000000e+00  -1.4232976080643462e-18 -1.3490291633592636e-04 0.0000000000000000e+00  -1.5209999604346022e-18 -1.3490291633592663e-04 0.0000000000000000e+00  -1.5549286689033145e-18 -1.3490291633592674e-04 0.0000000000000000e+00  -1.4928916829866470e-18 -1.3490291633592687e-04 0.0000000000000000e+00  -1.3993388473177879e-18 -1.3490291633592750e-04 0.0000000000000000e+00  -1.1920552160763139e-18 -1.3490291633592817e-04 0.0000000000000000e+00  -9.3111607116530382e-19 -1.3490291633592847e-04 0.0000000000000000e+00  -6.1018739481908007e-19 -1.3490291633592893e-04 0.0000000000000000e+00  -2.9855233267098934e-19 -1.3490291633592885e-04 0.0000000000000000e+00  4.0302663456764180e-36 -1.3490291633592904e-04 0.0000000000000000e+00  -7.0529661049337157e-36 -1.4595243660784981e-04 0.0000000000000000e+00  -3.5759231789125509e-19 -1.4595243660784997e-04 0.0000000000000000e+00  -6.9198317990531788e-19 -1.4595243660785000e-04 0.0000000000000000e+00  -9.0047342757276551e-19 -1.4595243660785038e-04 0.0000000000000000e+00  -1.1491259276588451e-18 -1.4595243660785046e-04 0.0000000000000000e+00  -1.3471956745961252e-18 -1.4595243660785065e-04 0.0000000000000000e+00  -1.4553660124274934e-18 -1.4595243660785065e-04 0.0000000000000000e+00  -1.5473309360502128e-18 -1.4595243660785060e-04 0.0000000000000000e+00  -1.6139999159812760e-18 -1.4595243660785092e-04 0.0000000000000000e+00  -1.5768445592040331e-18 -1.4595243660785122e-04 0.0000000000000000e+00  -1.4454269417144365e-18 -1.4595243660785168e-04 0.0000000000000000e+00  -1.2321704288029356e-18 -1.4595243660785230e-04 0.0000000000000000e+00  -9.7335809363290052e-19 -1.4595243660785285e-04 0.0000000000000000e+00  -6.7393557380722754e-19 -1.4595243660785309e-04 0.0000000000000000e+00  -3.4568728662205024e-19 -1.4595243660785331e-04 0.0000000000000000e+00  4.2317796629602286e-35 -1.4595243660785339e-04 0.0000000000000000e+00  -3.5205857649401895e-35 -1.5784594727737350e-04 0.0000000000000000e+00  -3.4692588924852637e-19 -1.5784594727737337e-04 0.0000000000000000e+00  -6.6831263563233328e-19 -1.5784594727737367e-04 0.0000000000000000e+00  -9.2611180535882273e-19 -1.5784594727737386e-04 0.0000000000000000e+00  -1.1522145435428906e-18 -1.57845947