<?xml version="1.0"?>
<VTKFile type="UnstructuredGrid"  version="0.1"  >
<UnstructuredGrid>
<Piece  NumberOfPoints="431" NumberOfCells="800">
<Points>
<DataArray  type="Float64"  NumberOfComponents="3"  format="ascii">-0.25 -1 0  -0.2 -1 0  -0.15 -1 0  -0.1 -1 0  -0.04999999999999999 -1 0  0 -1 0  0.04999999999999999 -1 0  0.09999999999999998 -1 0  0.15 -1 0  0.2 -1 0  0.25 -1 0  -0.25 -0.95 0  -0.2 -0.95 0  -0.15 -0.95 0  -0.1 -0.95 0  -0.04999999999999999 -0.95 0  0 -0.95 0  0.04999999999999999 -0.95 0  0.09999999999999998 -0.95 0  0.15 -0.95 0  0.2 -0.95 0  0.25 -0.95 0  -0.25 -0.9 0  -0.2 -0.9 0  -0.15 -0.9 0  -0.1 -0.9 0  -0.04999999999999999 -0.9 0  0 -0.9 0  0.04999999999999999 -0.9 0  0.09999999999999998 -0.9 0  0.15 -0.9 0  0.2 -0.9 0  0.25 -0.9 0  -0.25 -0.85 0  -0.2 -0.85 0  -0.15 -0.85 0  -0.1 -0.85 0  -0.04999999999999999 -0.85 0  0 -0.85 0  0.04999999999999999 -0.85 0  0.09999999999999998 -0.85 0  0.15 -0.85 0  0.2 -0.85 0  0.25 -0.85 0  -0.25 -0.8 0  -0.2 -0.8 0  -0.15 -0.8 0  -0.1 -0.8 0  -0.04999999999999999 -0.8 0  0 -0.8 0  0.04999999999999999 -0.8 0  0.09999999999999998 -0.8 0  0.15 -0.8 0  0.2 -0.8 0  0.25 -0.8 0  -0.25 -0.75 0  -0.2 -0.75 0  -0.15 -0.75 0  -0.1 -0.75 0  -0.04999999999999999 -0.75 0  0 -0.75 0  0.04999999999999999 -0.75 0  0.09999999999999998 -0.75 0  0.15 -0.75 0  0.2 -0.75 0  0.25 -0.75 0  -0.25 -0.7 0  -0.2 -0.7 0  -0.15 -0.7 0  -0.1 -0.7 0  -0.04999999999999999 -0.7 0  0 -0.7 0  0.04999999999999999 -0.7 0  0.09999999999999998 -0.7 0  0.15 -0.7 0  0.2 -0.7 0  0.25 -0.7 0  -0.25 -0.65 0  -0.2 -0.65 0  -0.15 -0.65 0  -0.1 -0.65 0  -0.04999999999999999 -0.65 0  0 -0.65 0  0.04999999999999999 -0.65 0  0.09999999999999998 -0.65 0  0.15 -0.65 0  0.2 -0.65 0  0.25 -0.65 0  -0.25 -0.6 0  -0.2 -0.6 0  -0.15 -0.6 0  -0.1 -0.6 0  -0.04999999999999999 -0.6 0  0 -0.6 0  0.04999999999999999 -0.6 0  0.09999999999999998 -0.6 0  0.15 -0.6 0  0.2 -0.6 0  0.25 -0.6 0  -0.25 -0.55 0  -0.2 -0.55 0  -0.15 -0.55 0  -0.1 -0.55 0  -0.04999999999999999 -0.55 0  0 -0.55 0  0.04999999999999999 -0.55 0  0.09999999999999998 -0.55 0  0.15 -0.55 0  0.2 -0.55 0  0.25 -0.55 0  -0.25 -0.5 0  -0.2 -0.5 0  -0.15 -0.5 0  -0.1 -0.5 0  -0.04999999999999999 -0.5 0  0 -0.5 0  0.04999999999999999 -0.5 0  0.09999999999999998 -0.5 0  0.15 -0.5 0  0.2 -0.5 0  0.25 -0.5 0  -0.25 -0.45 0  -0.2 -0.45 0  -0.15 -0.45 0  -0.1 -0.45 0  -0.04999999999999999 -0.45 0  0 -0.45 0  0.04999999999999999 -0.45 0  0.09999999999999998 -0.45 0  0.15 -0.45 0  0.2 -0.45 0  0.25 -0.45 0  -0.25 -0.4 0  -0.2 -0.4 0  -0.15 -0.4 0  -0.1 -0.4 0  -0.04999999999999999 -0.4 0  0 -0.4 0  0.04999999999999999 -0.4 0  0.09999999999999998 -0.4 0  0.15 -0.4 0  0.2 -0.4 0  0.25 -0.4 0  -0.25 -0.35 0  -0.2 -0.35 0  -0.15 -0.35 0  -0.1 -0.35 0  -0.04999999999999999 -0.35 0  0 -0.35 0  0.04999999999999999 -0.35 0  0.09999999999999998 -0.35 0  0.15 -0.35 0  0.2 -0.35 0  0.25 -0.35 0  -0.25 -0.3 0  -0.2 -0.3 0  -0.15 -0.3 0  -0.1 -0.3 0  -0.04999999999999999 -0.3 0  0 -0.3 0  0.04999999999999999 -0.3 0  0.09999999999999998 -0.3 0  0.15 -0.3 0  0.2 -0.3 0  0.25 -0.3 0  -0.25 -0.25 0  -0.2 -0.25 0  -0.15 -0.25 0  -0.1 -0.25 0  -0.04999999999999999 -0.25 0  0 -0.25 0  0.04999999999999999 -0.25 0  0.09999999999999998 -0.25 0  0.15 -0.25 0  0.2 -0.25 0  0.25 -0.25 0  -0.25 -0.2 0  -0.2 -0.2 0  -0.15 -0.2 0  -0.1 -0.2 0  -0.04999999999999999 -0.2 0  0 -0.2 0  0.04999999999999999 -0.2 0  0.09999999999999998 -0.2 0  0.15 -0.2 0  0.2 -0.2 0  0.25 -0.2 0  -0.25 -0.15 0  -0.2 -0.15 0  -0.15 -0.15 0  -0.1 -0.15 0  -0.04999999999999999 -0.15 0  0 -0.15 0  0.04999999999999999 -0.15 0  0.09999999999999998 -0.15 0  0.15 -0.15 0  0.2 -0.15 0  0.25 -0.15 0  -0.25 -0.09999999999999998 0  -0.2 -0.09999999999999998 0  -0.15 -0.09999999999999998 0  -0.1 -0.09999999999999998 0  -0.04999999999999999 -0.09999999999999998 0  0 -0.09999999999999998 0  0.04999999999999999 -0.09999999999999998 0  0.09999999999999998 -0.09999999999999998 0  0.15 -0.09999999999999998 0  0.2 -0.09999999999999998 0  0.25 -0.09999999999999998 0  -0.25 -0.05000000000000004 0  -0.2 -0.05000000000000004 0  -0.15 -0.05000000000000004 0  -0.1 -0.05000000000000004 0  -0.04999999999999999 -0.05000000000000004 0  0 -0.05000000000000004 0  0.04999999999999999 -0.05000000000000004 0  0.09999999999999998 -0.05000000000000004 0  0.15 -0.05000000000000004 0  0.2 -0.05000000000000004 0  0.25 -0.05000000000000004 0  -0.25 0 0  -0.2 0 0  -0.15 0 0  -0.1 0 0  -0.04999999999999999 0 0  0 0 0  0.04999999999999999 0 0  0.09999999999999998 0 0  0.15 0 0  0.2 0 0  0.25 0 0  -0.225 -0.975 0  -0.175 -0.975 0  -0.125 -0.975 0  -0.07500000000000001 -0.975 0  -0.02499999999999999 -0.975 0  0.02500000000000002 -0.975 0  0.07500000000000001 -0.975 0  0.125 -0.975 0  0.175 -0.975 0  0.225 -0.975 0  -0.225 -0.925 0  -0.175 -0.925 0  -0.125 -0.925 0  -0.07500000000000001 -0.925 0  -0.02499999999999999 -0.925 0  0.02500000000000002 -0.925 0  0.07500000000000001 -0.925 0  0.125 -0.925 0  0.175 -0.925 0  0.225 -0.925 0  -0.225 -0.875 0  -0.175 -0.875 0  -0.125 -0.875 0  -0.07500000000000001 -0.875 0  -0.02499999999999999 -0.875 0  0.02500000000000002 -0.875 0  0.07500000000000001 -0.875 0  0.125 -0.875 0  0.175 -0.875 0  0.225 -0.875 0  -0.225 -0.825 0  -0.175 -0.825 0  -0.125 -0.825 0  -0.07500000000000001 -0.825 0  -0.02499999999999999 -0.825 0  0.02500000000000002 -0.825 0  0.07500000000000001 -0.825 0  0.125 -0.825 0  0.175 -0.825 0  0.225 -0.825 0  -0.225 -0.775 0  -0.175 -0.775 0  -0.125 -0.775 0  -0.07500000000000001 -0.775 0  -0.02499999999999999 -0.775 0  0.02500000000000002 -0.775 0  0.07500000000000001 -0.775 0  0.125 -0.775 0  0.175 -0.775 0  0.225 -0.775 0  -0.225 -0.725 0  -0.175 -0.725 0  -0.125 -0.725 0  -0.07500000000000001 -0.725 0  -0.02499999999999999 -0.725 0  0.02500000000000002 -0.725 0  0.07500000000000001 -0.725 0  0.125 -0.725 0  0.175 -0.725 0  0.225 -0.725 0  -0.225 -0.675 0  -0.175 -0.675 0  -0.125 -0.675 0  -0.07500000000000001 -0.675 0  -0.02499999999999999 -0.675 0  0.02500000000000002 -0.675 0  0.07500000000000001 -0.675 0  0.125 -0.675 0  0.175 -0.675 0  0.225 -0.675 0  -0.225 -0.625 0  -0.175 -0.625 0  -0.125 -0.625 0  -0.07500000000000001 -0.625 0  -0.02499999999999999 -0.625 0  0.02500000000000002 -0.625 0  0.07500000000000001 -0.625 0  0.125 -0.625 0  0.175 -0.625 0  0.225 -0.625 0  -0.225 -0.575 0  -0.175 -0.575 0  -0.125 -0.575 0  -0.07500000000000001 -0.575 0  -0.02499999999999999 -0.575 0  0.02500000000000002 -0.575 0  0.07500000000000001 -0.575 0  0.125 -0.575 0  0.175 -0.575 0  0.225 -0.575 0  -0.225 -0.525 0  -0.175 -0.525 0  -0.125 -0.525 0  -0.07500000000000001 -0.525 0  -0.02499999999999999 -0.525 0  0.02500000000000002 -0.525 0  0.07500000000000001 -0.525 0  0.125 -0.525 0  0.175 -0.525 0  0.225 -0.525 0  -0.225 -0.475 0  -0.175 -0.475 0  -0.125 -0.475 0  -0.07500000000000001 -0.475 0  -0.02499999999999999 -0.475 0  0.02500000000000002 -0.475 0  0.07500000000000001 -0.475 0  0.125 -0.475 0  0.175 -0.475 0  0.225 -0.475 0  -0.225 -0.425 0  -0.175 -0.425 0  -0.125 -0.425 0  -0.07500000000000001 -0.425 0  -0.02499999999999999 -0.425 0  0.02500000000000002 -0.425 0  0.07500000000000001 -0.425 0  0.125 -0.425 0  0.175 -0.425 0  0.225 -0.425 0  -0.225 -0.375 0  -0.175 -0.375 0  -0.125 -0.375 0  -0.07500000000000001 -0.375 0  -0.02499999999999999 -0.375 0  0.02500000000000002 -0.375 0  0.07500000000000001 -0.375 0  0.125 -0.375 0  0.175 -0.375 0  0.225 -0.375 0  -0.225 -0.325 0  -0.175 -0.325 0  -0.125 -0.325 0  -0.07500000000000001 -0.325 0  -0.02499999999999999 -0.325 0  0.02500000000000002 -0.325 0  0.07500000000000001 -0.325 0  0.125 -0.325 0  0.175 -0.325 0  0.225 -0.325 0  -0.225 -0.275 0  -0.175 -0.275 0  -0.125 -0.275 0  -0.07500000000000001 -0.275 0  -0.02499999999999999 -0.275 0  0.02500000000000002 -0.275 0  0.07500000000000001 -0.275 0  0.125 -0.275 0  0.175 -0.275 0  0.225 -0.275 0  -0.225 -0.225 0  -0.175 -0.225 0  -0.125 -0.225 0  -0.07500000000000001 -0.225 0  -0.02499999999999999 -0.225 0  0.02500000000000002 -0.225 0  0.07500000000000001 -0.225 0  0.125 -0.225 0  0.175 -0.225 0  0.225 -0.225 0  -0.225 -0.175 0  -0.175 -0.175 0  -0.125 -0.175 0  -0.07500000000000001 -0.175 0  -0.02499999999999999 -0.175 0  0.02500000000000002 -0.175 0  0.07500000000000001 -0.175 0  0.125 -0.175 0  0.175 -0.175 0  0.225 -0.175 0  -0.225 -0.125 0  -0.175 -0.125 0  -0.125 -0.125 0  -0.07500000000000001 -0.125 0  -0.02499999999999999 -0.125 0  0.02500000000000002 -0.125 0  0.07500000000000001 -0.125 0  0.125 -0.125 0  0.175 -0.125 0  0.225 -0.125 0  -0.225 -0.07499999999999996 0  -0.175 -0.07499999999999996 0  -0.125 -0.07499999999999996 0  -0.07500000000000001 -0.07499999999999996 0  -0.02499999999999999 -0.07499999999999996 0  0.02500000000000002 -0.07499999999999996 0  0.07500000000000001 -0.07499999999999996 0  0.125 -0.07499999999999996 0  0.175 -0.07499999999999996 0  0.225 -0.07499999999999996 0  -0.225 -0.02500000000000002 0  -0.175 -0.02500000000000002 0  -0.125 -0.02500000000000002 0  -0.07500000000000001 -0.02500000000000002 0  -0.02499999999999999 -0.02500000000000002 0  0.02500000000000002 -0.02500000000000002 0  0.07500000000000001 -0.02500000000000002 0  0.125 -0.02500000000000002 0  0.175 -0.02500000000000002 0  0.225 -0.02500000000000002 0  </DataArray>
</Points>
<Cells>
[...]
<PointData  Vectors="displacement"> 
<DataArray  type="Float64"  Name="displacement"  NumberOfComponents="3" format="ascii">2.0312542382209118e-33 -2.0328790734103189e-18 0.0000000000000000e+00  -3.6111186457260631e-33 7.6232965252886944e-19 0.0000000000000000e+00  1.4818281786465743e-32 -5.4653477432603591e-18 0.0000000000000000e+00  9.9305762757466767e-33 -2.5410988417628991e-19 0.0000000000000000e+00  1.5386190979894444e-32 -2.5771400390917029e-18 0.0000000000000000e+00  2.7083389842945473e-33 -1.7787691892340288e-18 0.0000000000000000e+00  7.5537266983840141e-33 -6.9919922817882277e-18 0.0000000000000000e+00  7.2222372914521262e-33 -1.0164395367051593e-18 0.0000000000000000e+00  9.2998170893075304e-34 -2.9063818002663146e-18 0.0000000000000000e+00  -5.4166779685890967e-33 -1.0164395367051596e-18 0.0000000000000000e+00  2.7083389842945470e-33 -3.0493186101154774e-18 0.0000000000000000e+00  -4.5138983071575875e-33 -2.2078885091673533e-02 0.0000000000000000e+00  3.6113858950096551e-17 -2.2078885091673505e-02 0.0000000000000000e+00  6.3364750865491522e-17 -2.2078885091673481e-02 0.0000000000000000e+00  8.4796704438599094e-17 -2.2078885091673488e-02 0.0000000000000000e+00  9.2000921941108921e-17 -2.2078885091673439e-02 0.0000000000000000e+00  9.2745089491176581e-17 -2.2078885091673418e-02 0.0000000000000000e+00  8.4184597578438725e-17 -2.2078885091673429e-02 0.0000000000000000e+00  6.8171306182717504e-17 -2.2078885091673411e-02 0.0000000000000000e+00  5.0428490051082849e-17 -2.2078885091673408e-02 0.0000000000000000e+00  2.0416051731854095e-17 -2.2078885091673404e-02 0.0000000000000000e+00  -4.5701868552959875e-33 -2.2078885091673408e-02 0.0000000000000000e+00  -9.7996489145380085e-34 -4.4250572392535291e-02 0.0000000000000000e+00  5.5217854325642660e-17 -4.4250572392535277e-02 0.0000000000000000e+00  1.1558971361798797e-16 -4.4250572392535298e-02 0.0000000000000000e+00  1.4355672256087446e-16 -4.4250572392535173e-02 0.0000000000000000e+00  1.5899408881156332e-16 -4.4250572392535187e-02 0.0000000000000000e+00  1.4296028857034056e-16 -4.4250572392535124e-02 0.0000000000000000e+00  1.2059212436876939e-16 -4.4250572392535090e-02 0.0000000000000000e+00  1.0167832423067854e-16 -4.4250572392535097e-02 0.0000000000000000e+00  6.9887823598137211e-17 -4.4250572392535041e-02 0.0000000000000000e+00  3.8584607223451084e-17 -4.4250572392535055e-02 0.0000000000000000e+00  6.7063631992055517e-33 -4.4250572392535097e-02 0.0000000000000000e+00  1.8055593228630331e-32 -6.6607295944401582e-02 0.0000000000000000e+00  6.3646625423637424e-17 -6.6607295944401498e-02 0.0000000000000000e+00  1.2804390137542010e-16 -6.6607295944401443e-02 0.0000000000000000e+00  1.8771554874017955e-16 -6.6607295944401387e-02 0.0000000000000000e+00  1.8962596232035805e-16 -6.6607295944401304e-02 0.0000000000000000e+00  1.8400851903732853e-16 -6.6607295944401221e-02 0.0000000000000000e+00  1.6171751276435855e-16 -6.6607295944401151e-02 0.0000000000000000e+00  1.2631505298934430e-16 -6.6607295944401082e-02 0.0000000000000000e+00  9.3398349617918389e-17 -6.6607295944401096e-02 0.0000000000000000e+00  4.8449555053096789e-17 -6.6607295944401110e-02 0.0000000000000000e+00  -5.4166779685890981e-33 -6.6607295944401110e-02 0.0000000000000000e+00  -1.4918227023524498e-32 -8.9240156736845988e-02 0.0000000000000000e+00  6.7438199135416012e-17 -8.9240156736845988e-02 0.0000000000000000e+00  1.2223875213184847e-16 -8.9240156736845919e-02 0.0000000000000000e+00  1.5155611824574248e-16 -8.9240156736845849e-02 0.0000000000000000e+00  1.8690479917752402e-16 -8.9240156736845752e-02 0.0000000000000000e+00  1.8668859929414912e-16 -8.9240156736845516e-02 0.0000000000000000e+00  1.7101410774947540e-16 -8.9240156736845502e-02 0.0000000000000000e+00  1.2355823334870439e-16 -8.9240156736845475e-02 0.0000000000000000e+00  1.1098891061711404e-16 -8.9240156736845419e-02 0.0000000000000000e+00  7.5364893805913376e-17 -8.9240156736845405e-02 0.0000000000000000e+00  -2.1645871956693168e-33 -8.9240156736845377e-02 0.0000000000000000e+00  1.8958372890061839e-32 -1.1223856437927893e-01 0.0000000000000000e+00  7.2881084522721393e-17 -1.1223856437927889e-01 0.0000000000000000e+00  1.0010054600253739e-16 -1.1223856437927872e-01 0.0000000000000000e+00  1.5006474822479566e-16 -1.1223856437927855e-01 0.0000000000000000e+00  1.9025589736983345e-16 -1.1223856437927848e-01 0.0000000000000000e+00  2.0955898247716986e-16 -1.1223856437927826e-01 0.0000000000000000e+00  2.1103135491288173e-16 -1.1223856437927822e-01 0.0000000000000000e+00  1.8409420069365154e-16 -1.1223856437927815e-01 0.0000000000000000e+00  1.3413513701818130e-16 -1.1223856437927809e-01 0.0000000000000000e+00  6.1808919929061976e-17 -1.1223856437927804e-01 0.0000000000000000e+00  5.0263902192879328e-33 -1.1223856437927808e-01 0.0000000000000000e+00  8.1862964588179716e-33 -1.3568968858768277e-01 0.0000000000000000e+00  8.6554592374242415e-17 -1.3568968858768268e-01 0.0000000000000000e+00  1.2626073189088955e-16 -1.3568968858768260e-01 0.0000000000000000e+00  1.7072023791536312e-16 -1.3568968858768238e-01 0.0000000000000000e+00  2.1792948244180942e-16 -1.3568968858768249e-01 0.0000000000000000e+00  2.5242684400259121e-16 -1.3568968858768210e-01 0.0000000000000000e+00  2.0715299262799988e-16 -1.3568968858768199e-01 0.0000000000000000e+00  1.8477685256178387e-16 -1.3568968858768196e-01 0.0000000000000000e+00  1.3343870096048451e-16 -1.3568968858768179e-01 0.0000000000000000e+00  4.4916449539034642e-17 -1.3568968858768179e-01 0.0000000000000000e+00  9.0277966143151732e-34 -1.3568968858768188e-01 0.0000000000000000e+00  -6.3194576300206163e-33 -1.5967792371709627e-01 0.0000000000000000e+00  6.1863976700168993e-17 -1.5967792371709616e-01 0.0000000000000000e+00  1.7287304410338302e-16 -1.5967792371709602e-01 0.0000000000000000e+00  2.3496493480000239e-16 -1.5967792371709583e-01 0.0000000000000000e+00  2.7500625165275968e-16 -1.5967792371709580e-01 0.0000000000000000e+00  2.5781307109726300e-16 -1.5967792371709552e-01 0.0000000000000000e+00  2.2529558792304031e-16 -1.5967792371709522e-01 0.0000000000000000e+00  1.4215920928086587e-16 -1.5967792371709533e-01 0.0000000000000000e+00  1.0896474122090476e-16 -1.5967792371709533e-01 0.0000000000000000e+00  7.0745527040504418e-17 -1.5967792371709510e-01 0.0000000000000000e+00  0.0000000000000000e+00 -1.5967792371709538e-01 0.0000000000000000e+00  1.1888224151257120e-32 -1.8428436953271529e-01 0.0000000000000000e+00  5.9178151254735872e-17 -1.8428436953271507e-01 0.0000000000000000e+00  1.7209510716634938e-16 -1.8428436953271513e-01 0.0000000000000000e+00  2.6462865725076859e-16 -1.8428436953271496e-01 0.0000000000000000e+00  2.9024834343068359e-16 -1.8428436953271468e-01 0.0000000000000000e+00  2.5079186471478077e-16 -1.8428436953271457e-01 0.0000000000000000e+00  2.1271213266757281e-16 -1.8428436953271418e-01 0.0000000000000000e+00  1.6472214191739753e-16 -1.8428436953271432e-01 0.0000000000000000e+00  1.1491023801371207e-16 -1.8428436953271432e-01 0.0000000000000000e+00  8.0654306927371652e-17 -1.8428436953271438e-01 0.0000000000000000e+00  9.6830927329574865e-33 -1.8428436953271424e-01 0.0000000000000000e+00  0.0000000000000000e+00 -2.0958633136057933e-01 0.0000000000000000e+00  9.3460990518606293e-17 -2.0958633136057955e-01 0.0000000000000000e+00  1.6669011008197910e-16 -2.0958633136057922e-01 0.0000000000000000e+00  1.9959639275561501e-16 -2.0958633136057897e-01 0.0000000000000000e+00  1.9890389270482596e-16 -2.0958633136057894e-01 0.0000000000000000e+00  2.0662989060775075e-16 -2.0958633136057844e-01 0.0000000000000000e+00  1.9468799497901714e-16 -2.0958633136057830e-01 0.0000000000000000e+00  1.7844597874048437e-16 -2.0958633136057811e-01 0.0000000000000000e+00  1.5151520261832329e-16 -2.0958633136057833e-01 0.0000000000000000e+00  8.2261024784307709e-17 -2.0958633136057833e-01 0.0000000000000000e+00  -9.1741456609925497e-33 -2.0958633136057819e-01 0.0000000000000000e+00  -9.0044014269931436e-33 -2.3565684269086279e-01 0.0000000000000000e+00  7.8461257910089679e-17 -2.3565684269086298e-01 0.0000000000000000e+00  1.6258231229785774e-16 -2.3565684269086276e-01 0.0000000000000000e+00  2.1574779431791724e-16 -2.3565684269086257e-01 0.0000000000000000e+00  1.9025589736983342e-16 -2.3565684269086210e-01 0.0000000000000000e+00  1.7480512048763705e-16 -2.3565684269086215e-01 0.0000000000000000e+00  2.0943269931532562e-16 -2.3565684269086165e-01 0.0000000000000000e+00  1.8460211027362653e-16 -2.3565684269086182e-01 0.0000000000000000e+00  1.4208363333913996e-16 -2.3565684269086165e-01 0.0000000000000000e+00  7.5442705117106715e-17 -2.3565684269086165e-01 0.0000000000000000e+00  3.6756029072568855e-33 -2.3565684269086176e-01 0.0000000000000000e+00  -1.3541694921472762e-33 -2.6256421322038787e-01 0.0000000000000000e+00  1.1092067392943850e-16 -2.6256421322038753e-01 0.0000000000000000e+00  1.0366888675809976e-16 -2.6256421322038737e-01 0.0000000000000000e+00  2.2032216504193794e-16 -2.6256421322038742e-01 0.0000000000000000e+00  2.7673585071975802e-16 -2.6256421322038709e-01 0.0000000000000000e+00  2.8231648078532263e-16 -2.6256421322038659e-01 0.0000000000000000e+00  2.0215505487089955e-16 -2.6256421322038626e-01 0.0000000000000000e+00  1.7876387476739727e-16 -2.6256421322038648e-01 0.0000000000000000e+00  1.5912311416386068e-16 -2.6256421322038653e-01 0.0000000000000000e+00  6.0947615745153556e-17 -2.6256421322038637e-01 0.0000000000000000e+00  -9.0277966143151732e-34 -2.6256421322038648e-01 0.0000000000000000e+00  4.5386663404713936e-33 -2.9037160521375754e-01 0.0000000000000000e+00  5.1257557396549449e-17 -2.9037160521375688e-01 0.0000000000000000e+00  1.6426461764036817e-16 -2.9037160521375721e-01 0.0000000000000000e+00  2.1349738483262575e-16 -2.9037160521375677e-01 0.0000000000000000e+00  3.6153463384559484e-16 -2.9037160521375638e-01 0.0000000000000000e+00  3.7078279998780132e-16 -2.9037160521375632e-01 0.0000000000000000e+00  3.1223510116180842e-16 -2.9037160521375588e-01 0.0000000000000000e+00  2.0686233493865260e-16 -2.9037160521375616e-01 0.0000000000000000e+00  1.2799033095788806e-16 -2.9037160521375605e-01 0.0000000000000000e+00  7.4129613381207629e-17 -2.9037160521375616e-01 0.0000000000000000e+00  -4.5604982617794672e-33 -2.9037160521375610e-01 0.0000000000000000e+00  1.8055593228630329e-33 -3.1913664093241184e-01 0.0000000000000000e+00  6.3536719414205011e-17 -3.1913664093241173e-01 0.0000000000000000e+00  2.2625317795173967e-16 -3.1913664093241151e-01 0.0000000000000000e+00  3.6982513164420403e-16 -3.1913664093241151e-01 0.0000000000000000e+00  4.4623655928560979e-16 -3.1913664093241106e-01 0.0000000000000000e+00  4.2678284409624721e-16 -3.1913664093241095e-01 0.0000000000000000e+00  3.4330514606013335e-16 -3.1913664093241084e-01 0.0000000000000000e+00  2.6814190535560943e-16 -3.1913664093241073e-01 0.0000000000000000e+00  1.7190372658077817e-16 -3.1913664093241068e-01 0.0000000000000000e+00  8.6299113260222460e-17 -3.1913664093241062e-01 0.0000000000000000e+00  1.3291314624747597e-32 -3.1913664093241068e-01 0.0000000000000000e+00  1.8070540162109381e-32 -3.4891104372625759e-01 0.0000000000000000e+00  1.4372989489809306e-16 -3.4891104372625770e-01 0.0000000000000000e+00  3.2170542646171862e-16 -3.4891104372625803e-01 0.0000000000000000e+00  4.1299675911386096e-16 -3.4891104372625714e-01 0.0000000000000000e+00  3.3662321841458048e-16 -3.4891104372625686e-01 0.0000000000000000e+00  3.3340988315183227e-16 -3.4891104372625659e-01 0.0000000000000000e+00  3.9434858727565476e-16 -3.4891104372625625e-01 0.0000000000000000e+00  3.6576808474871721e-16 -3.4891104372625659e-01 0.0000000000000000e+00  2.2481663865876334e-16 -3.4891104372625648e-01 0.0000000000000000e+00  9.0099623564996852e-17 -3.4891104372625642e-01 0.0000000000000000e+00  -8.5119225220685935e-33 -3.4891104372625620e-01 0.0000000000000000e+00  1.2638915260041224e-32 -3.7974031520224560e-01 0.0000000000000000e+00  2.1158973694943798e-16 -3.7974031520224588e-01 0.0000000000000000e+00  3.2513741760128931e-16 -3.7974031520224583e-01 0.0000000000000000e+00  4.0670387210854875e-16 -3.7974031520224522e-01 0.0000000000000000e+00  4.0472618167764580e-16 -3.7974031520224510e-01 0.0000000000000000e+00  3.5310801613220975e-16 -3.7974031520224449e-01 0.0000000000000000e+00  4.0502539342823077e-16 -3.7974031520224499e-01 0.0000000000000000e+00  3.1613748608430993e-16 -3.7974031520224444e-01 0.0000000000000000e+00  2.2138868057580629e-16 -3.7974031520224411e-01 0.0000000000000000e+00  1.2906961445445741e-16 -3.7974031520224455e-01 0.0000000000000000e+00  1.8055593228630314e-32 -3.7974031520224455e-01 0.0000000000000000e+00  2.8997050949320792e-33 -4.1166345067797661e-01 0.0000000000000000e+00  2.1770317975929592e-16 -4.1166345067797666e-01 0.0000000000000000e+00  2.6315194500118392e-16 -4.1166345067797638e-01 0.0000000000000000e+00  4.0283443269811603e-16 -4.1166345067797599e-01 0.0000000000000000e+00  4.6283488969379721e-16 -4.1166345067797583e-01 0.0000000000000000e+00  4.8677403741838650e-16 -4.1166345067797605e-01 0.0000000000000000e+00  3.7510288416518898e-16 -4.1166345067797605e-01 0.0000000000000000e+00  2.3891674237537579e-16 -4.1166345067797516e-01 0.0000000000000000e+00  2.0403863993497743e-16 -4.1166345067797533e-01 0.0000000000000000e+00  9.0108592601001516e-17 -4.1166345067797522e-01 0.0000000000000000e+00  -1.1887156386673237e-32 -4.1166345067797544e-01 0.0000000000000000e+00  6.3194576300206163e-33 -4.4471269489646309e-01 0.0000000000000000e+00  1.1298111774902257e-16 -4.4471269489646309e-01 0.0000000000000000e+00  3.4338338094274253e-16 -4.4471269489646287e-01 0.0000000000000000e+00  4.4134503692425447e-16 -4.4471269489646253e-01 0.0000000000000000e+00  5.8705496288218076e-16 -4.4471269489646209e-01 0.0000000000000000e+00  5.0925064737788307e-16 -4.4471269489646181e-01 0.0000000000000000e+00  3.4060103098071115e-16 -4.4471269489646137e-01 0.0000000000000000e+00  2.4035177503400166e-16 -4.4471269489646181e-01 0.0000000000000000e+00  1.2276099627875991e-16 -4.4471269489646131e-01 0.0000000000000000e+00  4.6915374692150755e-17 -4.4471269489646154e-01 0.0000000000000000e+00  1.4753206292930422e-32 -4.4471269489646131e-01 0.0000000000000000e+00  1.7999169499790861e-32 -4.7891333972178624e-01 0.0000000000000000e+00  6.6134383337463280e-17 -4.7891333972178590e-01 0.0000000000000000e+00  1.5220471789586690e-16 -4.7891333972178646e-01 0.0000000000000000e+00  3.3083987153430448e-16 -4.7891333972178607e-01 0.0000000000000000e+00  5.1775100469278660e-16 -4.7891333972178501e-01 0.0000000000000000e+00  4.6007335182159785e-16 -4.7891333972178446e-01 0.0000000000000000e+00  2.8178276674728900e-16 -4.7891333972178440e-01 0.0000000000000000e+00  1.3620592652613104e-16 -4.7891333972178463e-01 0.0000000000000000e+00  9.8965496614819690e-17 -4.7891333972178474e-01 0.0000000000000000e+00  3.7591651683084794e-17 -4.7891333972178451e-01 0.0000000000000000e+00  -9.6303214329937863e-33 -4.7891333972178501e-01 0.0000000000000000e+00  7.2222372914521399e-33 -5.1428356525660535e-01 0.0000000000000000e+00  1.4610666884833199e-16 -5.1428356525660590e-01 0.0000000000000000e+00  1.1100688614073852e-17 -5.1428356525660512e-01 0.0000000000000000e+00  -1.2418996018624515e-17 -5.1428356525660568e-01 0.0000000000000000e+00  1.6457223505958855e-16 -5.1428356525660479e-01 0.0000000000000000e+00  1.7814100616185514e-16 -5.1428356525660401e-01 0.0000000000000000e+00  1.4528632162787289e-16 -5.1428356525660324e-01 0.0000000000000000e+00  6.6754301364093460e-17 -5.1428356525660379e-01 0.0000000000000000e+00  9.6857547751915256e-17 -5.1428356525660346e-01 0.0000000000000000e+00  7.5297870031864483e-17 -5.1428356525660401e-01 0.0000000000000000e+00  8.4353474615007420e-33 -5.1428356525660401e-01 0.0000000000000000e+00  -3.0694508488671550e-32 -5.5083432552407663e-01 0.0000000000000000e+00  1.4217621688728782e-17 -5.5083432552407641e-01 0.0000000000000000e+00  -9.0949980765831277e-17 -5.5083432552407641e-01 0.0000000000000000e+00  -2.0391062685201686e-16 -5.5083432552407663e-01 0.0000000000000000e+00  -4.0782125370403407e-16 -5.5083432552407563e-01 0.0000000000000000e+00  -3.1945998206816006e-16 -5.5083432552407507e-01 0.0000000000000000e+00  -7.5384485164455495e-17 -5.5083432552407430e-01 0.0000000000000000e+00  1.1554935521614297e-16 -5.5083432552407474e-01 0.0000000000000000e+00  1.6312850148161358e-16 -5.5083432552407474e-01 0.0000000000000000e+00  1.1374097350983031e-16 -5.5083432552407485e-01 0.0000000000000000e+00  2.7083389842945484e-33 -5.5083432552407552e-01 0.0000000000000000e+00  1.0566277936256819e-17 -1.1033419393567417e-02 0.0000000000000000e+00  2.8513479226407555e-17 -1.1033419393567409e-02 0.0000000000000000e+00  3.6321580406462279e-17 -1.1033419393567402e-02 0.0000000000000000e+00  4.9007886108347482e-17 -1.1033419393567400e-02 0.0000000000000000e+00  4.8050424079382409e-17 -1.1033419393567384e-02 0.0000000000000000e+00  4.5130560535031730e-17 -1.1033419393567381e-02 0.0000000000000000e+00  4.1666213271195005e-17 -1.1033419393567378e-02 0.0000000000000000e+00  3.3294782039257120e-17 -1.1033419393567369e-02 0.0000000000000000e+00  1.8841131396264501e-17 -1.1033419393567365e-02 0.0000000000000000e+00  4.1824850164349889e-18 -1.1033419393567369e-02 0.0000000000000000e+00  2.5953309204168298e-17 -3.3146696158264231e-02 0.0000000000000000e+00  6.5273564790361975e-17 -3.3146696158264183e-02 0.0000000000000000e+00  1.0949114093867178e-16 -3.3146696158264183e-02 0.0000000000000000e+00  1.2212473412390319e-16 -3.3146696158264134e-02 0.0000000000000000e+00  1.2423033298810839e-16 -3.3146696158264113e-02 0.0000000000000000e+00  1.1627922869843490e-16 -3.3146696158264058e-02 0.0000000000000000e+00  9.2921197231310532e-17 -3.3146696158264051e-02 0.0000000000000000e+00  7.7907157975593417e-17 -3.3146696158264037e-02 0.0000000000000000e+00  4.3397141915061127e-17 -3.3146696158264023e-02 0.0000000000000000e+00  1.6517802153121857e-17 -3.3146696158264023e-02 0.0000000000000000e+00  3.2722144510757539e-17 -5.5399002559092136e-02 0.0000000000000000e+00  9.5134813621630897e-17 -5.5399002559092109e-02 0.0000000000000000e+00  1.5055031879067351e-16 -5.5399002559092074e-02 0.0000000000000000e+00  1.7063282045710194e-16 -5.5399002559092067e-02 0.0000000000000000e+00  1.7897590345744413e-16 -5.5399002559091970e-02 0.0000000000000000e+00  1.5180847268564466e-16 -5.5399002559091894e-02 0.0000000000000000e+00  1.3478652729328625e-16 -5.5399002559091894e-02 0.0000000000000000e+00  9.3699149457132479e-17 -5.5399002559091810e-02 0.0000000000000000e+00  6.5329964759571232e-17 -5.5399002559091824e-02 0.0000000000000000e+00  2.1274589226286313e-17 -5.5399002559091838e-02 0.0000000000000000e+00  2.8795487169466676e-17 -7.7882079006719993e-02 0.0000000000000000e+00  1.0317434434605612e-16 -7.7882079006719951e-02 0.0000000000000000e+00  1.5370871708698152e-16 -7.7882079006719854e-02 0.0000000000000000e+00  1.8739829891426518e-16 -7.7882079006719715e-02 0.0000000000000000e+00  1.9160949664267557e-16 -7.7882079006719646e-02 0.0000000000000000e+00  1.7695607954623585e-16 -7.7882079006719576e-02 0.0000000000000000e+00  1.4197987341304025e-16 -7.7882079006719535e-02 0.0000000000000000e+00  1.1791353639549268e-16 -7.7882079006719465e-02 0.0000000000000000e+00  8.5651196419922281e-17 -7.7882079006719479e-02 0.0000000000000000e+00  3.7329235100056446e-17 -7.7882079006719451e-02 0.0000000000000000e+00  3.4031030291187845e-17 -1.0068625263387587e-01 0.0000000000000000e+00  1.0362862506000470e-16 -1.0068625263387584e-01 0.0000000000000000e+00  1.3054712958072395e-16 -1.0068625263387575e-01 0.0000000000000000e+00  1.6924771599803840e-16 -1.0068625263387554e-01 0.0000000000000000e+00  1.9792629323529121e-16 -1.0068625263387551e-01 0.0000000000000000e+00  2.0741446199640206e-16 -1.0068625263387543e-01 0.0000000000000000e+00  1.7580377235521299e-16 -1.0068625263387525e-01 0.0000000000000000e+00  1.2633593185231341e-16 -1.0068625263387526e-01 0.0000000000000000e+00  1.0933534336593346e-16 -1.0068625263387529e-