<?xml version="1.0"?>
<VTKFile type="UnstructuredGrid"  version="0.1"  >
<UnstructuredGrid>
<Piece  NumberOfPoints="431" NumberOfCells="800">
<Points>
<DataArray  type="Float64"  NumberOfComponents="3"  format="ascii">-0.75 -3 0  -0.6 -3 0  -0.45 -3 0  -0.3 -3 0  -0.15 -3 0  0 -3 0  0.15 -3 0  0.3 -3 0  0.45 -3 0  0.6000000000000001 -3 0  0.75 -3 0  -0.75 -2.85 0  -0.6 -2.85 0  -0.45 -2.85 0  -0.3 -2.85 0  -0.15 -2.85 0  0 -2.85 0  0.15 -2.85 0  0.3 -2.85 0  0.45 -2.85 0  0.6000000000000001 -2.85 0  0.75 -2.85 0  -0.75 -2.7 0  -0.6 -2.7 0  -0.45 -2.7 0  -0.3 -2.7 0  -0.15 -2.7 0  0 -2.7 0  0.15 -2.7 0  0.3 -2.7 0  0.45 -2.7 0  0.6000000000000001 -2.7 0  0.75 -2.7 0  -0.75 -2.55 0  -0.6 -2.55 0  -0.45 -2.55 0  -0.3 -2.55 0  -0.15 -2.55 0  0 -2.55 0  0.15 -2.55 0  0.3 -2.55 0  0.45 -2.55 0  0.6000000000000001 -2.55 0  0.75 -2.55 0  -0.75 -2.4 0  -0.6 -2.4 0  -0.45 -2.4 0  -0.3 -2.4 0  -0.15 -2.4 0  0 -2.4 0  0.15 -2.4 0  0.3 -2.4 0  0.45 -2.4 0  0.6000000000000001 -2.4 0  0.75 -2.4 0  -0.75 -2.25 0  -0.6 -2.25 0  -0.45 -2.25 0  -0.3 -2.25 0  -0.15 -2.25 0  0 -2.25 0  0.15 -2.25 0  0.3 -2.25 0  0.45 -2.25 0  0.6000000000000001 -2.25 0  0.75 -2.25 0  -0.75 -2.1 0  -0.6 -2.1 0  -0.45 -2.1 0  -0.3 -2.1 0  -0.15 -2.1 0  0 -2.1 0  0.15 -2.1 0  0.3 -2.1 0  0.45 -2.1 0  0.6000000000000001 -2.1 0  0.75 -2.1 0  -0.75 -1.95 0  -0.6 -1.95 0  -0.45 -1.95 0  -0.3 -1.95 0  -0.15 -1.95 0  0 -1.95 0  0.15 -1.95 0  0.3 -1.95 0  0.45 -1.95 0  0.6000000000000001 -1.95 0  0.75 -1.95 0  -0.75 -1.8 0  -0.6 -1.8 0  -0.45 -1.8 0  -0.3 -1.8 0  -0.15 -1.8 0  0 -1.8 0  0.15 -1.8 0  0.3 -1.8 0  0.45 -1.8 0  0.6000000000000001 -1.8 0  0.75 -1.8 0  -0.75 -1.65 0  -0.6 -1.65 0  -0.45 -1.65 0  -0.3 -1.65 0  -0.15 -1.65 0  0 -1.65 0  0.15 -1.65 0  0.3 -1.65 0  0.45 -1.65 0  0.6000000000000001 -1.65 0  0.75 -1.65 0  -0.75 -1.5 0  -0.6 -1.5 0  -0.45 -1.5 0  -0.3 -1.5 0  -0.15 -1.5 0  0 -1.5 0  0.15 -1.5 0  0.3 -1.5 0  0.45 -1.5 0  0.6000000000000001 -1.5 0  0.75 -1.5 0  -0.75 -1.35 0  -0.6 -1.35 0  -0.45 -1.35 0  -0.3 -1.35 0  -0.15 -1.35 0  0 -1.35 0  0.15 -1.35 0  0.3 -1.35 0  0.45 -1.35 0  0.6000000000000001 -1.35 0  0.75 -1.35 0  -0.75 -1.2 0  -0.6 -1.2 0  -0.45 -1.2 0  -0.3 -1.2 0  -0.15 -1.2 0  0 -1.2 0  0.15 -1.2 0  0.3 -1.2 0  0.45 -1.2 0  0.6000000000000001 -1.2 0  0.75 -1.2 0  -0.75 -1.05 0  -0.6 -1.05 0  -0.45 -1.05 0  -0.3 -1.05 0  -0.15 -1.05 0  0 -1.05 0  0.15 -1.05 0  0.3 -1.05 0  0.45 -1.05 0  0.6000000000000001 -1.05 0  0.75 -1.05 0  -0.75 -0.8999999999999999 0  -0.6 -0.8999999999999999 0  -0.45 -0.8999999999999999 0  -0.3 -0.8999999999999999 0  -0.15 -0.8999999999999999 0  0 -0.8999999999999999 0  0.15 -0.8999999999999999 0  0.3 -0.8999999999999999 0  0.45 -0.8999999999999999 0  0.6000000000000001 -0.8999999999999999 0  0.75 -0.8999999999999999 0  -0.75 -0.75 0  -0.6 -0.75 0  -0.45 -0.75 0  -0.3 -0.75 0  -0.15 -0.75 0  0 -0.75 0  0.15 -0.75 0  0.3 -0.75 0  0.45 -0.75 0  0.6000000000000001 -0.75 0  0.75 -0.75 0  -0.75 -0.6000000000000001 0  -0.6 -0.6000000000000001 0  -0.45 -0.6000000000000001 0  -0.3 -0.6000000000000001 0  -0.15 -0.6000000000000001 0  0 -0.6000000000000001 0  0.15 -0.6000000000000001 0  0.3 -0.6000000000000001 0  0.45 -0.6000000000000001 0  0.6000000000000001 -0.6000000000000001 0  0.75 -0.6000000000000001 0  -0.75 -0.4500000000000002 0  -0.6 -0.4500000000000002 0  -0.45 -0.4500000000000002 0  -0.3 -0.4500000000000002 0  -0.15 -0.4500000000000002 0  0 -0.4500000000000002 0  0.15 -0.4500000000000002 0  0.3 -0.4500000000000002 0  0.45 -0.4500000000000002 0  0.6000000000000001 -0.4500000000000002 0  0.75 -0.4500000000000002 0  -0.75 -0.2999999999999998 0  -0.6 -0.2999999999999998 0  -0.45 -0.2999999999999998 0  -0.3 -0.2999999999999998 0  -0.15 -0.2999999999999998 0  0 -0.2999999999999998 0  0.15 -0.2999999999999998 0  0.3 -0.2999999999999998 0  0.45 -0.2999999999999998 0  0.6000000000000001 -0.2999999999999998 0  0.75 -0.2999999999999998 0  -0.75 -0.1499999999999999 0  -0.6 -0.1499999999999999 0  -0.45 -0.1499999999999999 0  -0.3 -0.1499999999999999 0  -0.15 -0.1499999999999999 0  0 -0.1499999999999999 0  0.15 -0.1499999999999999 0  0.3 -0.1499999999999999 0  0.45 -0.1499999999999999 0  0.6000000000000001 -0.1499999999999999 0  0.75 -0.1499999999999999 0  -0.75 0 0  -0.6 0 0  -0.45 0 0  -0.3 0 0  -0.15 0 0  0 0 0  0.15 0 0  0.3 0 0  0.45 0 0  0.6000000000000001 0 0  0.75 0 0  -0.675 -2.925 0  -0.525 -2.925 0  -0.375 -2.925 0  -0.225 -2.925 0  -0.07499999999999996 -2.925 0  0.07499999999999996 -2.925 0  0.225 -2.925 0  0.375 -2.925 0  0.5249999999999999 -2.925 0  0.675 -2.925 0  -0.675 -2.775 0  -0.525 -2.775 0  -0.375 -2.775 0  -0.225 -2.775 0  -0.07499999999999996 -2.775 0  0.07499999999999996 -2.775 0  0.225 -2.775 0  0.375 -2.775 0  0.5249999999999999 -2.775 0  0.675 -2.775 0  -0.675 -2.625 0  -0.525 -2.625 0  -0.375 -2.625 0  -0.225 -2.625 0  -0.07499999999999996 -2.625 0  0.07499999999999996 -2.625 0  0.225 -2.625 0  0.375 -2.625 0  0.5249999999999999 -2.625 0  0.675 -2.625 0  -0.675 -2.475 0  -0.525 -2.475 0  -0.375 -2.475 0  -0.225 -2.475 0  -0.07499999999999996 -2.475 0  0.07499999999999996 -2.475 0  0.225 -2.475 0  0.375 -2.475 0  0.5249999999999999 -2.475 0  0.675 -2.475 0  -0.675 -2.325 0  -0.525 -2.325 0  -0.375 -2.325 0  -0.225 -2.325 0  -0.07499999999999996 -2.325 0  0.07499999999999996 -2.325 0  0.225 -2.325 0  0.375 -2.325 0  0.5249999999999999 -2.325 0  0.675 -2.325 0  -0.675 -2.175 0  -0.525 -2.175 0  -0.375 -2.175 0  -0.225 -2.175 0  -0.07499999999999996 -2.175 0  0.07499999999999996 -2.175 0  0.225 -2.175 0  0.375 -2.175 0  0.5249999999999999 -2.175 0  0.675 -2.175 0  -0.675 -2.025 0  -0.525 -2.025 0  -0.375 -2.025 0  -0.225 -2.025 0  -0.07499999999999996 -2.025 0  0.07499999999999996 -2.025 0  0.225 -2.025 0  0.375 -2.025 0  0.5249999999999999 -2.025 0  0.675 -2.025 0  -0.675 -1.875 0  -0.525 -1.875 0  -0.375 -1.875 0  -0.225 -1.875 0  -0.07499999999999996 -1.875 0  0.07499999999999996 -1.875 0  0.225 -1.875 0  0.375 -1.875 0  0.5249999999999999 -1.875 0  0.675 -1.875 0  -0.675 -1.725 0  -0.525 -1.725 0  -0.375 -1.725 0  -0.225 -1.725 0  -0.07499999999999996 -1.725 0  0.07499999999999996 -1.725 0  0.225 -1.725 0  0.375 -1.725 0  0.5249999999999999 -1.725 0  0.675 -1.725 0  -0.675 -1.575 0  -0.525 -1.575 0  -0.375 -1.575 0  -0.225 -1.575 0  -0.07499999999999996 -1.575 0  0.07499999999999996 -1.575 0  0.225 -1.575 0  0.375 -1.575 0  0.5249999999999999 -1.575 0  0.675 -1.575 0  -0.675 -1.425 0  -0.525 -1.425 0  -0.375 -1.425 0  -0.225 -1.425 0  -0.07499999999999996 -1.425 0  0.07499999999999996 -1.425 0  0.225 -1.425 0  0.375 -1.425 0  0.5249999999999999 -1.425 0  0.675 -1.425 0  -0.675 -1.275 0  -0.525 -1.275 0  -0.375 -1.275 0  -0.225 -1.275 0  -0.07499999999999996 -1.275 0  0.07499999999999996 -1.275 0  0.225 -1.275 0  0.375 -1.275 0  0.5249999999999999 -1.275 0  0.675 -1.275 0  -0.675 -1.125 0  -0.525 -1.125 0  -0.375 -1.125 0  -0.225 -1.125 0  -0.07499999999999996 -1.125 0  0.07499999999999996 -1.125 0  0.225 -1.125 0  0.375 -1.125 0  0.5249999999999999 -1.125 0  0.675 -1.125 0  -0.675 -0.9750000000000001 0  -0.525 -0.9750000000000001 0  -0.375 -0.9750000000000001 0  -0.225 -0.9750000000000001 0  -0.07499999999999996 -0.9750000000000001 0  0.07499999999999996 -0.9750000000000001 0  0.225 -0.9750000000000001 0  0.375 -0.9750000000000001 0  0.5249999999999999 -0.9750000000000001 0  0.675 -0.9750000000000001 0  -0.675 -0.8250000000000002 0  -0.525 -0.8250000000000002 0  -0.375 -0.8250000000000002 0  -0.225 -0.8250000000000002 0  -0.07499999999999996 -0.8250000000000002 0  0.07499999999999996 -0.8250000000000002 0  0.225 -0.8250000000000002 0  0.375 -0.8250000000000002 0  0.5249999999999999 -0.8250000000000002 0  0.675 -0.8250000000000002 0  -0.675 -0.6749999999999998 0  -0.525 -0.6749999999999998 0  -0.375 -0.6749999999999998 0  -0.225 -0.6749999999999998 0  -0.07499999999999996 -0.6749999999999998 0  0.07499999999999996 -0.6749999999999998 0  0.225 -0.6749999999999998 0  0.375 -0.6749999999999998 0  0.5249999999999999 -0.6749999999999998 0  0.675 -0.6749999999999998 0  -0.675 -0.5249999999999999 0  -0.525 -0.5249999999999999 0  -0.375 -0.5249999999999999 0  -0.225 -0.5249999999999999 0  -0.07499999999999996 -0.5249999999999999 0  0.07499999999999996 -0.5249999999999999 0  0.225 -0.5249999999999999 0  0.375 -0.5249999999999999 0  0.5249999999999999 -0.5249999999999999 0  0.675 -0.5249999999999999 0  -0.675 -0.375 0  -0.525 -0.375 0  -0.375 -0.375 0  -0.225 -0.375 0  -0.07499999999999996 -0.375 0  0.07499999999999996 -0.375 0  0.225 -0.375 0  0.375 -0.375 0  0.5249999999999999 -0.375 0  0.675 -0.375 0  -0.675 -0.2250000000000001 0  -0.525 -0.2250000000000001 0  -0.375 -0.2250000000000001 0  -0.225 -0.2250000000000001 0  -0.07499999999999996 -0.2250000000000001 0  0.07499999999999996 -0.2250000000000001 0  0.225 -0.2250000000000001 0  0.375 -0.2250000000000001 0  0.5249999999999999 -0.2250000000000001 0  0.675 -0.2250000000000001 0  -0.675 -0.07500000000000018 0  -0.525 -0.07500000000000018 0  -0.375 -0.07500000000000018 0  -0.225 -0.07500000000000018 0  -0.07499999999999996 -0.07500000000000018 0  0.07499999999999996 -0.07500000000000018 0  0.225 -0.07500000000000018 0  0.375 -0.07500000000000018 0  0.5249999999999999 -0.07500000000000018 0  0.675 -0.07500000000000018 0  </DataArray>
</Points>
<Cells>
[...]
<PointData  Vectors="displacement"> 
<DataArray  type="Float64"  Name="displacement"  NumberOfComponents="3" format="ascii">-6.5738408768417319e-30 -1.8503717077085924e-15 0.0000000000000000e+00  6.5738408768417591e-29 -7.4014868308343696e-15 0.0000000000000000e+00  1.0107280348144205e-28 -2.4033148156761993e-15 0.0000000000000000e+00  -2.6295363507367034e-29 -1.1564823173178702e-14 0.0000000000000000e+00  3.6930540591436177e-28 -1.8752925231079476e-15 0.0000000000000000e+00  -8.4145163223574509e-28 -4.6259292692714814e-15 0.0000000000000000e+00  2.2704146137732969e-28 -4.8346381874749394e-15 0.0000000000000000e+00  7.8886090522101102e-29 -1.3877787807814443e-15 0.0000000000000000e+00  -2.2010677444960075e-30 -2.3129646346357411e-15 0.0000000000000000e+00  5.2590727014734034e-29 -5.5511151231257732e-15 0.0000000000000000e+00  0.0000000000000000e+00 -5.5511151231257811e-15 0.0000000000000000e+00  1.0518145402946832e-28 -4.9619295558268881e+01 0.0000000000000000e+00  1.5942758060898801e-12 -4.9619295558266280e+01 0.0000000000000000e+00  -8.1468876322825693e-13 -4.9619295558266856e+01 0.0000000000000000e+00  2.5381717545694270e-12 -4.9619295558268128e+01 0.0000000000000000e+00  -1.2658513301269519e-12 -4.9619295558264291e+01 0.0000000000000000e+00  -4.1933926638489414e-12 -4.9619295558268121e+01 0.0000000000000000e+00  -1.5893031370616065e-12 -4.9619295558266572e+01 0.0000000000000000e+00  6.2534839938847322e-15 -4.9619295558263957e+01 0.0000000000000000e+00  -2.8617583151747074e-12 -4.9619295558267076e+01 0.0000000000000000e+00  -1.1790652011573575e-12 -4.9619295558266252e+01 0.0000000000000000e+00  3.6979903346590562e-28 -4.9619295558265357e+01 0.0000000000000000e+00  -2.6455947991009612e-28 -9.9238591126273505e+01 0.0000000000000000e+00  2.2856545857237200e-12 -9.9238591126269426e+01 0.0000000000000000e+00  -1.5451510535389022e-13 -9.9238591126273434e+01 0.0000000000000000e+00  5.1662709833342547e-13 -9.9238591126270165e+01 0.0000000000000000e+00  -2.4676359409907679e-12 -9.9238591126272794e+01 0.0000000000000000e+00  -2.4760001819998738e-12 -9.9238591126273150e+01 0.0000000000000000e+00  -1.7693065016203602e-12 -9.9238591126274628e+01 0.0000000000000000e+00  -5.3947169079203732e-12 -9.9238591126272780e+01 0.0000000000000000e+00  -8.8511115867435905e-13 -9.9238591126267238e+01 0.0000000000000000e+00  -3.8476128453158564e-12 -9.9238591126273889e+01 0.0000000000000000e+00  -3.2117908283998358e-28 -9.9238591126270876e+01 0.0000000000000000e+00  -1.8406754455156943e-28 -1.4885788672793669e+02 0.0000000000000000e+00  1.2915864651385338e-12 -1.4885788672794118e+02 0.0000000000000000e+00  -2.6629963367917054e-12 -1.4885788672793208e+02 0.0000000000000000e+00  1.4361512668144077e-12 -1.4885788672793723e+02 0.0000000000000000e+00  -2.4483998014784038e-12 -1.4885788672793907e+02 0.0000000000000000e+00  -1.0111197960789740e-12 -1.4885788672793799e+02 0.0000000000000000e+00  -4.7248633491871218e-12 -1.4885788672793038e+02 0.0000000000000000e+00  -8.7991354031948223e-13 -1.4885788672793598e+02 0.0000000000000000e+00  -4.7852190869174431e-12 -1.4885788672793802e+02 0.0000000000000000e+00  -4.0739444432397048e-13 -1.4885788672793186e+02 0.0000000000000000e+00  7.8886090522101225e-29 -1.4885788672793689e+02 0.0000000000000000e+00  -3.1037489721069898e-28 -1.9847718243622415e+02 0.0000000000000000e+00  1.8971687402954320e-12 -1.9847718243622529e+02 0.0000000000000000e+00  1.4378710397604984e-11 -1.9847718243622091e+02 0.0000000000000000e+00  -1.0645581054150417e-12 -1.9847718243621907e+02 0.0000000000000000e+00  -2.7371777476654150e-12 -1.9847718243623081e+02 0.0000000000000000e+00  -5.9811297446877526e-12 -1.9847718243622424e+02 0.0000000000000000e+00  -4.0228900861072307e-12 -1.9847718243622575e+02 0.0000000000000000e+00  -8.5074565242561007e-12 -1.9847718243622191e+02 0.0000000000000000e+00  -3.1164278672930507e-12 -1.9847718243621659e+02 0.0000000000000000e+00  1.8156840648705802e-12 -1.9847718243621389e+02 0.0000000000000000e+00  1.0500012108949389e-27 -1.9847718243621637e+02 0.0000000000000000e+00  4.1086505480261000e-29 -2.4809647847943145e+02 0.0000000000000000e+00  5.7631299708945090e-12 -2.4809647847942637e+02 0.0000000000000000e+00  -3.4006404467457461e-12 -2.4809647847942165e+02 0.0000000000000000e+00  7.7773560401216803e-13 -2.4809647847943307e+02 0.0000000000000000e+00  -7.0625221463540751e-12 -2.4809647847941653e+02 0.0000000000000000e+00  -7.0931958615245302e-13 -2.4809647847941872e+02 0.0000000000000000e+00  -3.4015412786521656e-12 -2.4809647847942082e+02 0.0000000000000000e+00  -4.0724358409604862e-12 -2.4809647847942151e+02 0.0000000000000000e+00  -6.0576441547395308e-12 -2.4809647847942611e+02 0.0000000000000000e+00  -4.2982434607690600e-12 -2.4809647847942085e+02 0.0000000000000000e+00  7.6165678980270681e-28 -2.4809647847943094e+02 0.0000000000000000e+00  -1.2016866667990868e-30 -2.9771577557382972e+02 0.0000000000000000e+00  1.5951203068312938e-13 -2.9771577557384336e+02 0.0000000000000000e+00  3.3583013471438672e-12 -2.9771577557384410e+02 0.0000000000000000e+00  -1.3165612618432896e-12 -2.9771577557383756e+02 0.0000000000000000e+00  -3.5672943494339418e-12 -2.9771577557383830e+02 0.0000000000000000e+00  -8.6933257226390577e-12 -2.9771577557384097e+02 0.0000000000000000e+00  -5.7696814424602989e-12 -2.9771577557383529e+02 0.0000000000000000e+00  -4.9991332156953290e-12 -2.9771577557382716e+02 0.0000000000000000e+00  3.3312032212365350e-12 -2.9771577557382130e+02 0.0000000000000000e+00  -9.4755410255776786e-12 -2.9771577557382324e+02 0.0000000000000000e+00  1.4500014734062420e-27 -2.9771577557381329e+02 0.0000000000000000e+00  -1.8932661725304291e-27 -3.4733507596721773e+02 0.0000000000000000e+00  1.9230468636539959e-12 -3.4733507596722143e+02 0.0000000000000000e+00  -4.3947264838371928e-13 -3.4733507596723297e+02 0.0000000000000000e+00  -8.3531676544314072e-12 -3.4733507596722546e+02 0.0000000000000000e+00  -4.1222068037903324e-12 -3.4733507596723746e+02 0.0000000000000000e+00  -7.2158990107260365e-13 -3.4733507596723047e+02 0.0000000000000000e+00  2.9598667658225145e-12 -3.4733507596722615e+02 0.0000000000000000e+00  -6.6241907414299301e-12 -3.4733507596722114e+02 0.0000000000000000e+00  4.0141069750196060e-12 -3.4733507596721080e+02 0.0000000000000000e+00  4.1748813305797836e-12 -3.4733507596721273e+02 0.0000000000000000e+00  3.1554436208840499e-28 -3.4733507596721000e+02 0.0000000000000000e+00  -2.3312721335902339e-28 -3.9695438671380475e+02 0.0000000000000000e+00  -4.9834860529591929e-12 -3.9695438671380521e+02 0.0000000000000000e+00  6.1616902399313503e-13 -3.9695438671382334e+02 0.0000000000000000e+00  4.1150001485389456e-12 -3.9695438671382431e+02 0.0000000000000000e+00  -4.9703400436873112e-13 -3.9695438671382510e+02 0.0000000000000000e+00  -2.1619965754145091e-12 -3.9695438671381845e+02 0.0000000000000000e+00  -1.4467564665681655e-12 -3.9695438671382004e+02 0.0000000000000000e+00  1.6291325408647338e-11 -3.9695438671379958e+02 0.0000000000000000e+00  1.1494615125953809e-12 -3.9695438671380208e+02 0.0000000000000000e+00  3.9615384916837584e-12 -3.9695438671380492e+02 0.0000000000000000e+00  1.1415995600830218e-27 -3.9695438671379179e+02 0.0000000000000000e+00  1.6829032644714913e-27 -4.4657372995178878e+02 0.0000000000000000e+00  -2.3154206965967199e-12 -4.4657372995177036e+02 0.0000000000000000e+00  -1.9869649359965779e-11 -4.4657372995176001e+02 0.0000000000000000e+00  -1.5090239078639742e-12 -4.4657372995178196e+02 0.0000000000000000e+00  -1.5170009304158463e-12 -4.4657372995176928e+02 0.0000000000000000e+00  9.1711772925198059e-12 -4.4657372995177428e+02 0.0000000000000000e+00  2.0750099944505667e-11 -4.4657372995176092e+02 0.0000000000000000e+00  1.4260169078671542e-11 -4.4657372995177019e+02 0.0000000000000000e+00  4.3619432490101739e-12 -4.4657372995176684e+02 0.0000000000000000e+00  1.7762383770037324e-13 -4.4657372995175422e+02 0.0000000000000000e+00  1.6880904357883750e-27 -4.4657372995178696e+02 0.0000000000000000e+00  -1.3790650363281612e-27 -4.9619317515723822e+02 0.0000000000000000e+00  -1.0582764344573737e-11 -4.9619317515725095e+02 0.0000000000000000e+00  -8.5038531966304402e-13 -4.9619317515724811e+02 0.0000000000000000e+00  -6.2078488892853278e-12 -4.9619317515724515e+02 0.0000000000000000e+00  4.3239931508290198e-12 -4.9619317515723566e+02 0.0000000000000000e+00  1.7951124442371537e-12 -4.9619317515722844e+02 0.0000000000000000e+00  1.6561496639752293e-12 -4.9619317515723367e+02 0.0000000000000000e+00  1.1163253457043008e-11 -4.9619317515724271e+02 0.0000000000000000e+00  8.1238326546171696e-12 -4.9619317515723111e+02 0.0000000000000000e+00  5.5504621502124842e-12 -4.9619317515724100e+02 0.0000000000000000e+00  2.8549251807998569e-28 -4.9619317515721076e+02 0.0000000000000000e+00  2.5309287375840780e-28 -5.4581294036662598e+02 0.0000000000000000e+00  -1.7779387735788790e-12 -5.4581294036661814e+02 0.0000000000000000e+00  4.5552625445499901e-12 -5.4581294036659358e+02 0.0000000000000000e+00  4.2439637767762857e-12 -5.4581294036658471e+02 0.0000000000000000e+00  -9.5271982423266072e-12 -5.4581294036660438e+02 0.0000000000000000e+00  -1.2093565319091188e-12 -5.4581294036658971e+02 0.0000000000000000e+00  -8.0406073577024236e-12 -5.4581294036658971e+02 0.0000000000000000e+00  4.3017178618145136e-12 -5.4581294036660302e+02 0.0000000000000000e+00  1.4874536438851828e-11 -5.4581294036661177e+02 0.0000000000000000e+00  3.4895830507505286e-12 -5.4581294036659040e+02 0.0000000000000000e+00  4.2072581611787308e-28 -5.4581294036660722e+02 0.0000000000000000e+00  -2.2709899853441857e-27 -5.9543370984222042e+02 0.0000000000000000e+00  4.0569425969786903e-13 -5.9543370984223623e+02 0.0000000000000000e+00  5.5376389367570145e-12 -5.9543370984223952e+02 0.0000000000000000e+00  -1.7174360295949013e-11 -5.9543370984224589e+02 0.0000000000000000e+00  8.4439750598656532e-12 -5.9543370984224225e+02 0.0000000000000000e+00  -5.4410247147931503e-13 -5.9543370984224327e+02 0.0000000000000000e+00  1.6831354774990626e-11 -5.9543370984224282e+02 0.0000000000000000e+00  -1.9378426880291803e-11 -5.9543370984223759e+02 0.0000000000000000e+00  3.7965560696185211e-12 -5.9543370984221690e+02 0.0000000000000000e+00  1.6335010090076444e-11 -5.9543370984224134e+02 0.0000000000000000e+00  3.7783443914687224e-28 -5.9543370984222543e+02 0.0000000000000000e+00  1.0518145402946827e-28 -6.4505763100018453e+02 0.0000000000000000e+00  8.1251216462024511e-12 -6.4505763100014565e+02 0.0000000000000000e+00  -1.6206866828451018e-11 -6.4505763100018089e+02 0.0000000000000000e+00  3.8799698631442101e-12 -6.4505763100018476e+02 0.0000000000000000e+00  -7.0841421121082114e-12 -6.4505763100016327e+02 0.0000000000000000e+00  4.0325889180365049e-13 -6.4505763100017418e+02 0.0000000000000000e+00  -1.3500964838536710e-11 -6.4505763100016043e+02 0.0000000000000000e+00  1.0816232398423351e-11 -6.4505763100015804e+02 0.0000000000000000e+00  1.1620050368087336e-11 -6.4505763100016270e+02 0.0000000000000000e+00  -5.4015562270290164e-12 -6.4505763100015599e+02 0.0000000000000000e+00  6.0047927759401557e-28 -6.4505763100014360e+02 0.0000000000000000e+00  3.1951399635349600e-28 -6.9469144306246653e+02 0.0000000000000000e+00  -1.0464210025718335e-11 -6.9469144306248154e+02 0.0000000000000000e+00  -4.5690194293759966e-12 -6.9469144306245687e+02 0.0000000000000000e+00  -4.9852150500458213e-12 -6.9469144306244539e+02 0.0000000000000000e+00  -1.2249962679489259e-11 -6.9469144306248086e+02 0.0000000000000000e+00  -3.4411994014243771e-12 -6.9469144306247608e+02 0.0000000000000000e+00  4.9942120892075140e-12 -6.9469144306247290e+02 0.0000000000000000e+00  4.8967167698894152e-12 -6.9469144306245573e+02 0.0000000000000000e+00  -2.0979482528518748e-11 -6.9469144306244777e+02 0.0000000000000000e+00  2.0549046528898968e-11 -6.9469144306244141e+02 0.0000000000000000e+00  -1.6227995764546544e-27 -6.9469144306242538e+02 0.0000000000000000e+00  2.6295363507367041e-28 -7.4435629568650586e+02 0.0000000000000000e+00  2.9301028124386184e-12 -7.4435629568646959e+02 0.0000000000000000e+00  -1.1836845951461024e-12 -7.4435629568648028e+02 0.0000000000000000e+00  -2.3703815757269651e-11 -7.4435629568648676e+02 0.0000000000000000e+00  -9.7145712788625451e-12 -7.4435629568645129e+02 0.0000000000000000e+00  7.3149058142084882e-13 -7.4435629568644583e+02 0.0000000000000000e+00  -3.8444121288239871e-12 -7.4435629568644458e+02 0.0000000000000000e+00  -6.9022103123709502e-12 -7.4435629568646573e+02 0.0000000000000000e+00  2.0063328219846672e-11 -7.4435629568646164e+02 0.0000000000000000e+00  4.7245262176648219e-13 -7.4435629568645504e+02 0.0000000000000000e+00  -8.4145163223574581e-28 -7.4435629568649472e+02 0.0000000000000000e+00  7.7010904742769862e-28 -7.9411856270627050e+02 0.0000000000000000e+00  1.0499490021466020e-12 -7.9411856270629687e+02 0.0000000000000000e+00  -3.8597558222857166e-11 -7.9411856270628357e+02 0.0000000000000000e+00  9.9481119506026294e-12 -7.9411856270628084e+02 0.0000000000000000e+00  -4.6216026227194723e-12 -7.9411856270627618e+02 0.0000000000000000e+00  -2.2687254506276485e-11 -7.9411856270626845e+02 0.0000000000000000e+00  -8.5835611978865609e-13 -7.9411856270627482e+02 0.0000000000000000e+00  6.0521447046521809e-12 -7.9411856270623389e+02 0.0000000000000000e+00  1.0864032791457933e-12 -7.9411856270626845e+02 0.0000000000000000e+00  -3.8500169985898510e-12 -7.9411856270621286e+02 0.0000000000000000e+00  2.8846693274070050e-27 -7.9411856270626890e+02 0.0000000000000000e+00  0.0000000000000000e+00 -8.4418654469927174e+02 0.0000000000000000e+00  7.5404431743040393e-12 -8.4418654469926025e+02 0.0000000000000000e+00  -1.1359910461307313e-11 -8.4418654469925423e+02 0.0000000000000000e+00  -8.5506964557643780e-12 -8.4418654469927264e+02 0.0000000000000000e+00  -1.7650719902678841e-11 -8.4418654469923842e+02 0.0000000000000000e+00  -2.4259820376383537e-12 -8.4418654469925684e+02 0.0000000000000000e+00  -7.1173597901707959e-12 -8.4418654469924741e+02 0.0000000000000000e+00  7.4802477542112481e-12 -8.4418654469924854e+02 0.0000000000000000e+00  1.5396202565661789e-11 -8.4418654469921910e+02 0.0000000000000000e+00  -2.3467090966254010e-13 -8.4418654469924991e+02 0.0000000000000000e+00  8.2084611779163245e-27 -8.4418654469922762e+02 0.0000000000000000e+00  -2.3731565565398773e-27 -8.9521395003137468e+02 0.0000000000000000e+00  -3.5068976874357035e-11 -8.9521395003139514e+02 0.0000000000000000e+00  -1.3606165114608633e-11 -8.9521395003140117e+02 0.0000000000000000e+00  -3.2373984449031131e-11 -8.9521395003135831e+02 0.0000000000000000e+00  -1.4300256098507334e-11 -8.9521395003139526e+02 0.0000000000000000e+00  -1.8490025295279358e-11 -8.9521395003137263e+02 0.0000000000000000e+00  5.8945935796770123e-12 -8.9521395003135956e+02 0.0000000000000000e+00  1.5678979331287299e-11 -8.9521395003136024e+02 0.0000000000000000e+00  -1.8872428439555798e-11 -8.9521395003136900e+02 0.0000000000000000e+00  -1.4532991541383446e-12 -8.9521395003140424e+02 0.0000000000000000e+00  1.4072861814587271e-27 -8.9521395003133921e+02 0.0000000000000000e+00  -8.4145163223574652e-28 -9.4925230747363423e+02 0.0000000000000000e+00  -3.1174103242001644e-11 -9.4925230747362707e+02 0.0000000000000000e+00  9.9923774667162636e-12 -9.4925230747362411e+02 0.0000000000000000e+00  -5.4732181008002074e-11 -9.4925230747360729e+02 0.0000000000000000e+00  -3.6809827227192086e-11 -9.4925230747358694e+02 0.0000000000000000e+00  -3.0038278602314938e-11 -9.4925230747356932e+02 0.0000000000000000e+00  1.6899606564490082e-12 -9.4925230747358341e+02 0.0000000000000000e+00  -1.5270665075963190e-11 -9.4925230747360422e+02 0.0000000000000000e+00  7.0913487673595869e-12 -9.4925230747361991e+02 0.0000000000000000e+00  3.9052253634264678e-12 -9.4925230747359956e+02 0.0000000000000000e+00  -3.1359275307809274e-27 -9.4925230747363889e+02 0.0000000000000000e+00  -2.3139919886482996e-27 -1.0127399166065300e+03 0.0000000000000000e+00  2.9620023990566961e-12 -1.0127399166065691e+03 0.0000000000000000e+00  -6.2182742073605586e-11 -1.0127399166065509e+03 0.0000000000000000e+00  -4.0952022875216608e-11 -1.0127399166065135e+03 0.0000000000000000e+00  -4.9929748498621616e-11 -1.0127399166064841e+03 0.0000000000000000e+00  -3.5231200869135173e-11 -1.0127399166064804e+03 0.0000000000000000e+00  -2.4360578906916540e-11 -1.0127399166064561e+03 0.0000000000000000e+00  -5.6641802040410276e-12 -1.0127399166064911e+03 0.0000000000000000e+00  -3.0105117784478045e-11 -1.0127399166064857e+03 0.0000000000000000e+00  -3.1782285741878323e-11 -1.0127399166064992e+03 0.0000000000000000e+00  1.6829032644714916e-27 -1.0127399166064462e+03 0.0000000000000000e+00  1.0823081843781991e-13 -2.4809647770010148e+01 0.0000000000000000e+00  4.3967345617705590e-12 -2.4809647770011008e+01 0.0000000000000000e+00  2.1841791808293688e-12 -2.4809647770016507e+01 0.0000000000000000e+00  -4.5835445458400508e-12 -2.4809647770010052e+01 0.0000000000000000e+00  2.2511785422045034e-12 -2.4809647770009647e+01 0.0000000000000000e+00  -5.8155445673616340e-12 -2.4809647770019698e+01 0.0000000000000000e+00  -4.0514907937433971e-13 -2.4809647770013751e+01 0.0000000000000000e+00  -2.4829175097843783e-13 -2.4809647770005011e+01 0.0000000000000000e+00  9.9032725856798557e-13 -2.4809647770014962e+01 0.0000000000000000e+00  3.2744408629069244e-12 -2.4809647770010621e+01 0.0000000000000000e+00  1.5148977935086366e-12 -7.4428943301624443e+01 0.0000000000000000e+00  1.8467841048535181e-12 -7.4428943301624969e+01 0.0000000000000000e+00  -8.0495221672356480e-13 -7.4428943301626703e+01 0.0000000000000000e+00  4.9613131177893820e-12 -7.4428943301624628e+01 0.0000000000000000e+00  -9.3786803234603866e-12 -7.4428943301625381e+01 0.0000000000000000e+00  -5.8825118399253424e-12 -7.4428943301626731e+01 0.0000000000000000e+00  5.8101319403289451e-12 -7.4428943301620990e+01 0.0000000000000000e+00  -6.6852707263581048e-12 -7.4428943301624926e+01 0.0000000000000000e+00  8.2907884992236324e-13 -7.4428943301621700e+01 0.0000000000000000e+00  -2.7513840844039929e-12 -7.4428943301628280e+01 0.0000000000000000e+00  5.5027681688079785e-12 -1.2404823879572002e+02 0.0000000000000000e+00  -3.7698577063479817e-12 -1.2404823879571990e+02 0.0000000000000000e+00  4.3120873517126053e-12 -1.2404823879571738e+02 0.0000000000000000e+00  -5.5777424485075705e-13 -1.2404823879571866e+02 0.0000000000000000e+00  -2.9215159473454687e-12 -1.2404823879571883e+02 0.0000000000000000e+00  -5.9088318034149326e-12 -1.2404823879571376e+02 0.0000000000000000e+00  1.0396385578391537e-12 -1.2404823879572115e+02 0.0000000000000000e+00  -1.2414249445927430e-12 -1.2404823879571047e+02 0.0000000000000000e+00  -7.8433491199004485e-12 -1.2404823879571600e+02 0.0000000000000000e+00  2.9967999095738173e-12 -1.2404823879571531e+02 0.0000000000000000e+00  7.1019883425833006e-29 -1.7366753416853902e+02 0.0000000000000000e+00  1.4331220120086571e-11 -1.7366753416852390e+02 0.0000000000000000e+00  6.2071247229637259e-12 -1.7366753416851375e+02 0.0000000000000000e+00  2.0134772069543126e-12 -1.7366753416851492e+02 0.0000000000000000e+00  -7.7161359630340569e-12 -1.7366753416851748e+02 0.0000000000000000e+00  -8.2074419481732394e-12 -1.7366753416851961e+02 0.0000000000000000e+00  -2.0178638675359098e-12 -1.7366753416851333e+02 0.0000000000000000e+00  -4.5621270048637977e-12 -1.7366753416853180e+02 0.0000000000000000e+00  -3.2066488851494601e-12 -1.7366753416851941e+02 0.0000000000000000e+00  -3.8612089826720057e-12 -1.7366753416852575e+02 0.0000000000000000e+00  1.2330781793533060e-11 -2.2328682915956747e+02 0.0000000000000000e+00  1.7393109206043232e-11 -2.2328682915956676e+02 0.0000000000000000e+00  4.6191535924245954e-12 -2.2328682915957057e+02 0.0000000000000000e+00  -8.3741350502740343e-12 -2.2328682915958871e+02 0.0000000000000000e+00  -1.9959305646279127e-12 -2.2328682915958925e+02 0.0000000000000000e+00  -1.5046245794887329e-12 -2.2328682915957032e+02 0.0000000000000000e+00  -1.2225623040918661e-11 -2.2328682915957924e+02 0.00000000