<?xml version="1.0"?>
<VTKFile type="UnstructuredGrid"  version="0.1"  >
<UnstructuredGrid>
<Piece  NumberOfPoints="431" NumberOfCells="800">
<Points>
<DataArray  type="Float64"  NumberOfComponents="3"  format="ascii">-0.75 -3 0  -0.6 -3 0  -0.45 -3 0  -0.3 -3 0  -0.15 -3 0  0 -3 0  0.15 -3 0  0.3 -3 0  0.45 -3 0  0.6000000000000001 -3 0  0.75 -3 0  -0.75 -2.85 0  -0.6 -2.85 0  -0.45 -2.85 0  -0.3 -2.85 0  -0.15 -2.85 0  0 -2.85 0  0.15 -2.85 0  0.3 -2.85 0  0.45 -2.85 0  0.6000000000000001 -2.85 0  0.75 -2.85 0  -0.75 -2.7 0  -0.6 -2.7 0  -0.45 -2.7 0  -0.3 -2.7 0  -0.15 -2.7 0  0 -2.7 0  0.15 -2.7 0  0.3 -2.7 0  0.45 -2.7 0  0.6000000000000001 -2.7 0  0.75 -2.7 0  -0.75 -2.55 0  -0.6 -2.55 0  -0.45 -2.55 0  -0.3 -2.55 0  -0.15 -2.55 0  0 -2.55 0  0.15 -2.55 0  0.3 -2.55 0  0.45 -2.55 0  0.6000000000000001 -2.55 0  0.75 -2.55 0  -0.75 -2.4 0  -0.6 -2.4 0  -0.45 -2.4 0  -0.3 -2.4 0  -0.15 -2.4 0  0 -2.4 0  0.15 -2.4 0  0.3 -2.4 0  0.45 -2.4 0  0.6000000000000001 -2.4 0  0.75 -2.4 0  -0.75 -2.25 0  -0.6 -2.25 0  -0.45 -2.25 0  -0.3 -2.25 0  -0.15 -2.25 0  0 -2.25 0  0.15 -2.25 0  0.3 -2.25 0  0.45 -2.25 0  0.6000000000000001 -2.25 0  0.75 -2.25 0  -0.75 -2.1 0  -0.6 -2.1 0  -0.45 -2.1 0  -0.3 -2.1 0  -0.15 -2.1 0  0 -2.1 0  0.15 -2.1 0  0.3 -2.1 0  0.45 -2.1 0  0.6000000000000001 -2.1 0  0.75 -2.1 0  -0.75 -1.95 0  -0.6 -1.95 0  -0.45 -1.95 0  -0.3 -1.95 0  -0.15 -1.95 0  0 -1.95 0  0.15 -1.95 0  0.3 -1.95 0  0.45 -1.95 0  0.6000000000000001 -1.95 0  0.75 -1.95 0  -0.75 -1.8 0  -0.6 -1.8 0  -0.45 -1.8 0  -0.3 -1.8 0  -0.15 -1.8 0  0 -1.8 0  0.15 -1.8 0  0.3 -1.8 0  0.45 -1.8 0  0.6000000000000001 -1.8 0  0.75 -1.8 0  -0.75 -1.65 0  -0.6 -1.65 0  -0.45 -1.65 0  -0.3 -1.65 0  -0.15 -1.65 0  0 -1.65 0  0.15 -1.65 0  0.3 -1.65 0  0.45 -1.65 0  0.6000000000000001 -1.65 0  0.75 -1.65 0  -0.75 -1.5 0  -0.6 -1.5 0  -0.45 -1.5 0  -0.3 -1.5 0  -0.15 -1.5 0  0 -1.5 0  0.15 -1.5 0  0.3 -1.5 0  0.45 -1.5 0  0.6000000000000001 -1.5 0  0.75 -1.5 0  -0.75 -1.35 0  -0.6 -1.35 0  -0.45 -1.35 0  -0.3 -1.35 0  -0.15 -1.35 0  0 -1.35 0  0.15 -1.35 0  0.3 -1.35 0  0.45 -1.35 0  0.6000000000000001 -1.35 0  0.75 -1.35 0  -0.75 -1.2 0  -0.6 -1.2 0  -0.45 -1.2 0  -0.3 -1.2 0  -0.15 -1.2 0  0 -1.2 0  0.15 -1.2 0  0.3 -1.2 0  0.45 -1.2 0  0.6000000000000001 -1.2 0  0.75 -1.2 0  -0.75 -1.05 0  -0.6 -1.05 0  -0.45 -1.05 0  -0.3 -1.05 0  -0.15 -1.05 0  0 -1.05 0  0.15 -1.05 0  0.3 -1.05 0  0.45 -1.05 0  0.6000000000000001 -1.05 0  0.75 -1.05 0  -0.75 -0.8999999999999999 0  -0.6 -0.8999999999999999 0  -0.45 -0.8999999999999999 0  -0.3 -0.8999999999999999 0  -0.15 -0.8999999999999999 0  0 -0.8999999999999999 0  0.15 -0.8999999999999999 0  0.3 -0.8999999999999999 0  0.45 -0.8999999999999999 0  0.6000000000000001 -0.8999999999999999 0  0.75 -0.8999999999999999 0  -0.75 -0.75 0  -0.6 -0.75 0  -0.45 -0.75 0  -0.3 -0.75 0  -0.15 -0.75 0  0 -0.75 0  0.15 -0.75 0  0.3 -0.75 0  0.45 -0.75 0  0.6000000000000001 -0.75 0  0.75 -0.75 0  -0.75 -0.6000000000000001 0  -0.6 -0.6000000000000001 0  -0.45 -0.6000000000000001 0  -0.3 -0.6000000000000001 0  -0.15 -0.6000000000000001 0  0 -0.6000000000000001 0  0.15 -0.6000000000000001 0  0.3 -0.6000000000000001 0  0.45 -0.6000000000000001 0  0.6000000000000001 -0.6000000000000001 0  0.75 -0.6000000000000001 0  -0.75 -0.4500000000000002 0  -0.6 -0.4500000000000002 0  -0.45 -0.4500000000000002 0  -0.3 -0.4500000000000002 0  -0.15 -0.4500000000000002 0  0 -0.4500000000000002 0  0.15 -0.4500000000000002 0  0.3 -0.4500000000000002 0  0.45 -0.4500000000000002 0  0.6000000000000001 -0.4500000000000002 0  0.75 -0.4500000000000002 0  -0.75 -0.2999999999999998 0  -0.6 -0.2999999999999998 0  -0.45 -0.2999999999999998 0  -0.3 -0.2999999999999998 0  -0.15 -0.2999999999999998 0  0 -0.2999999999999998 0  0.15 -0.2999999999999998 0  0.3 -0.2999999999999998 0  0.45 -0.2999999999999998 0  0.6000000000000001 -0.2999999999999998 0  0.75 -0.2999999999999998 0  -0.75 -0.1499999999999999 0  -0.6 -0.1499999999999999 0  -0.45 -0.1499999999999999 0  -0.3 -0.1499999999999999 0  -0.15 -0.1499999999999999 0  0 -0.1499999999999999 0  0.15 -0.1499999999999999 0  0.3 -0.1499999999999999 0  0.45 -0.1499999999999999 0  0.6000000000000001 -0.1499999999999999 0  0.75 -0.1499999999999999 0  -0.75 0 0  -0.6 0 0  -0.45 0 0  -0.3 0 0  -0.15 0 0  0 0 0  0.15 0 0  0.3 0 0  0.45 0 0  0.6000000000000001 0 0  0.75 0 0  -0.675 -2.925 0  -0.525 -2.925 0  -0.375 -2.925 0  -0.225 -2.925 0  -0.07499999999999996 -2.925 0  0.07499999999999996 -2.925 0  0.225 -2.925 0  0.375 -2.925 0  0.5249999999999999 -2.925 0  0.675 -2.925 0  -0.675 -2.775 0  -0.525 -2.775 0  -0.375 -2.775 0  -0.225 -2.775 0  -0.07499999999999996 -2.775 0  0.07499999999999996 -2.775 0  0.225 -2.775 0  0.375 -2.775 0  0.5249999999999999 -2.775 0  0.675 -2.775 0  -0.675 -2.625 0  -0.525 -2.625 0  -0.375 -2.625 0  -0.225 -2.625 0  -0.07499999999999996 -2.625 0  0.07499999999999996 -2.625 0  0.225 -2.625 0  0.375 -2.625 0  0.5249999999999999 -2.625 0  0.675 -2.625 0  -0.675 -2.475 0  -0.525 -2.475 0  -0.375 -2.475 0  -0.225 -2.475 0  -0.07499999999999996 -2.475 0  0.07499999999999996 -2.475 0  0.225 -2.475 0  0.375 -2.475 0  0.5249999999999999 -2.475 0  0.675 -2.475 0  -0.675 -2.325 0  -0.525 -2.325 0  -0.375 -2.325 0  -0.225 -2.325 0  -0.07499999999999996 -2.325 0  0.07499999999999996 -2.325 0  0.225 -2.325 0  0.375 -2.325 0  0.5249999999999999 -2.325 0  0.675 -2.325 0  -0.675 -2.175 0  -0.525 -2.175 0  -0.375 -2.175 0  -0.225 -2.175 0  -0.07499999999999996 -2.175 0  0.07499999999999996 -2.175 0  0.225 -2.175 0  0.375 -2.175 0  0.5249999999999999 -2.175 0  0.675 -2.175 0  -0.675 -2.025 0  -0.525 -2.025 0  -0.375 -2.025 0  -0.225 -2.025 0  -0.07499999999999996 -2.025 0  0.07499999999999996 -2.025 0  0.225 -2.025 0  0.375 -2.025 0  0.5249999999999999 -2.025 0  0.675 -2.025 0  -0.675 -1.875 0  -0.525 -1.875 0  -0.375 -1.875 0  -0.225 -1.875 0  -0.07499999999999996 -1.875 0  0.07499999999999996 -1.875 0  0.225 -1.875 0  0.375 -1.875 0  0.5249999999999999 -1.875 0  0.675 -1.875 0  -0.675 -1.725 0  -0.525 -1.725 0  -0.375 -1.725 0  -0.225 -1.725 0  -0.07499999999999996 -1.725 0  0.07499999999999996 -1.725 0  0.225 -1.725 0  0.375 -1.725 0  0.5249999999999999 -1.725 0  0.675 -1.725 0  -0.675 -1.575 0  -0.525 -1.575 0  -0.375 -1.575 0  -0.225 -1.575 0  -0.07499999999999996 -1.575 0  0.07499999999999996 -1.575 0  0.225 -1.575 0  0.375 -1.575 0  0.5249999999999999 -1.575 0  0.675 -1.575 0  -0.675 -1.425 0  -0.525 -1.425 0  -0.375 -1.425 0  -0.225 -1.425 0  -0.07499999999999996 -1.425 0  0.07499999999999996 -1.425 0  0.225 -1.425 0  0.375 -1.425 0  0.5249999999999999 -1.425 0  0.675 -1.425 0  -0.675 -1.275 0  -0.525 -1.275 0  -0.375 -1.275 0  -0.225 -1.275 0  -0.07499999999999996 -1.275 0  0.07499999999999996 -1.275 0  0.225 -1.275 0  0.375 -1.275 0  0.5249999999999999 -1.275 0  0.675 -1.275 0  -0.675 -1.125 0  -0.525 -1.125 0  -0.375 -1.125 0  -0.225 -1.125 0  -0.07499999999999996 -1.125 0  0.07499999999999996 -1.125 0  0.225 -1.125 0  0.375 -1.125 0  0.5249999999999999 -1.125 0  0.675 -1.125 0  -0.675 -0.9750000000000001 0  -0.525 -0.9750000000000001 0  -0.375 -0.9750000000000001 0  -0.225 -0.9750000000000001 0  -0.07499999999999996 -0.9750000000000001 0  0.07499999999999996 -0.9750000000000001 0  0.225 -0.9750000000000001 0  0.375 -0.9750000000000001 0  0.5249999999999999 -0.9750000000000001 0  0.675 -0.9750000000000001 0  -0.675 -0.8250000000000002 0  -0.525 -0.8250000000000002 0  -0.375 -0.8250000000000002 0  -0.225 -0.8250000000000002 0  -0.07499999999999996 -0.8250000000000002 0  0.07499999999999996 -0.8250000000000002 0  0.225 -0.8250000000000002 0  0.375 -0.8250000000000002 0  0.5249999999999999 -0.8250000000000002 0  0.675 -0.8250000000000002 0  -0.675 -0.6749999999999998 0  -0.525 -0.6749999999999998 0  -0.375 -0.6749999999999998 0  -0.225 -0.6749999999999998 0  -0.07499999999999996 -0.6749999999999998 0  0.07499999999999996 -0.6749999999999998 0  0.225 -0.6749999999999998 0  0.375 -0.6749999999999998 0  0.5249999999999999 -0.6749999999999998 0  0.675 -0.6749999999999998 0  -0.675 -0.5249999999999999 0  -0.525 -0.5249999999999999 0  -0.375 -0.5249999999999999 0  -0.225 -0.5249999999999999 0  -0.07499999999999996 -0.5249999999999999 0  0.07499999999999996 -0.5249999999999999 0  0.225 -0.5249999999999999 0  0.375 -0.5249999999999999 0  0.5249999999999999 -0.5249999999999999 0  0.675 -0.5249999999999999 0  -0.675 -0.375 0  -0.525 -0.375 0  -0.375 -0.375 0  -0.225 -0.375 0  -0.07499999999999996 -0.375 0  0.07499999999999996 -0.375 0  0.225 -0.375 0  0.375 -0.375 0  0.5249999999999999 -0.375 0  0.675 -0.375 0  -0.675 -0.2250000000000001 0  -0.525 -0.2250000000000001 0  -0.375 -0.2250000000000001 0  -0.225 -0.2250000000000001 0  -0.07499999999999996 -0.2250000000000001 0  0.07499999999999996 -0.2250000000000001 0  0.225 -0.2250000000000001 0  0.375 -0.2250000000000001 0  0.5249999999999999 -0.2250000000000001 0  0.675 -0.2250000000000001 0  -0.675 -0.07500000000000018 0  -0.525 -0.07500000000000018 0  -0.375 -0.07500000000000018 0  -0.225 -0.07500000000000018 0  -0.07499999999999996 -0.07500000000000018 0  0.07499999999999996 -0.07500000000000018 0  0.225 -0.07500000000000018 0  0.375 -0.07500000000000018 0  0.5249999999999999 -0.07500000000000018 0  0.675 -0.07500000000000018 0  </DataArray>
</Points>
<Cells>
[...]
<PointData  Vectors="displacement"> 
<DataArray  type="Float64"  Name="displacement"  NumberOfComponents="3" format="ascii">-2.6295363507367023e-29 0.0000000000000000e+00 0.0000000000000000e+00  -1.9721522630525276e-29 -8.3266726846886662e-15 0.0000000000000000e+00  -1.9146311553801621e-28 -9.2157184661267782e-15 0.0000000000000000e+00  1.1832913578315166e-28 -1.3877787807814443e-15 0.0000000000000000e+00  2.3825844799913469e-28 -1.3431816519863240e-14 0.0000000000000000e+00  -4.2072581611787254e-28 9.2518585385429620e-16 0.0000000000000000e+00  3.1043422796929687e-28 -3.2245979613339673e-15 0.0000000000000000e+00  2.1036290805893627e-28 -9.2518585385429620e-16 0.0000000000000000e+00  -3.1612137026490910e-28 -5.2041704279304173e-15 0.0000000000000000e+00  1.5777218104420209e-28 -9.2518585385429561e-16 0.0000000000000000e+00  -4.2072581611787281e-28 -3.7007434154171872e-15 0.0000000000000000e+00  5.2590727014734158e-29 -4.9619295558266984e+01 0.0000000000000000e+00  1.0635820952554089e-12 -4.9619295558265264e+01 0.0000000000000000e+00  -6.0347315794685718e-13 -4.9619295558265840e+01 0.0000000000000000e+00  1.5840090860236934e-12 -4.9619295558266387e+01 0.0000000000000000e+00  -9.2733322574062219e-13 -4.9619295558263950e+01 0.0000000000000000e+00  -2.8630205999329560e-12 -4.9619295558266444e+01 0.0000000000000000e+00  -1.1475419269083205e-12 -4.9619295558265485e+01 0.0000000000000000e+00  8.7204181901886102e-14 -4.9619295558263708e+01 0.0000000000000000e+00  -1.9230212736628164e-12 -4.9619295558265762e+01 0.0000000000000000e+00  -7.3988319669941567e-13 -4.9619295558265094e+01 0.0000000000000000e+00  9.6942525511501510e-29 -4.9619295558264568e+01 0.0000000000000000e+00  2.4354315845792748e-28 -9.9238591126269995e+01 0.0000000000000000e+00  1.5162263093414769e-12 -9.9238591126267394e+01 0.0000000000000000e+00  -2.9530100867371052e-13 -9.9238591126270123e+01 0.0000000000000000e+00  1.8151762914417624e-13 -9.9238591126267750e+01 0.0000000000000000e+00  -1.8274287862725732e-12 -9.9238591126269725e+01 0.0000000000000000e+00  -1.7153470864846747e-12 -9.9238591126269966e+01 0.0000000000000000e+00  -1.1019736903659463e-12 -9.9238591126270862e+01 0.0000000000000000e+00  -3.5213260429548070e-12 -9.9238591126269398e+01 0.0000000000000000e+00  -4.5365488221140963e-13 -9.9238591126265803e+01 0.0000000000000000e+00  -2.5746616527717061e-12 -9.9238591126270308e+01 0.0000000000000000e+00  -3.5874388785050793e-28 -9.9238591126268091e+01 0.0000000000000000e+00  6.0479336066944244e-28 -1.4885788672793191e+02 0.0000000000000000e+00  8.5048695772779926e-13 -1.4885788672793501e+02 0.0000000000000000e+00  -1.7648640017328593e-12 -1.4885788672792901e+02 0.0000000000000000e+00  8.2155869865751307e-13 -1.4885788672793231e+02 0.0000000000000000e+00  -1.6950537206829240e-12 -1.4885788672793342e+02 0.0000000000000000e+00  -7.9018533412159457e-13 -1.4885788672793319e+02 0.0000000000000000e+00  -3.2285815526189977e-12 -1.4885788672792737e+02 0.0000000000000000e+00  -1.8592861838936632e-13 -1.4885788672793140e+02 0.0000000000000000e+00  -2.9403153425637282e-12 -1.4885788672793299e+02 0.0000000000000000e+00  -2.3483188946248358e-13 -1.4885788672792867e+02 0.0000000000000000e+00  -1.3147681753683536e-28 -1.4885788672793200e+02 0.0000000000000000e+00  -1.2104620991217259e-27 -1.9847718243621767e+02 0.0000000000000000e+00  1.2786087533999052e-12 -1.9847718243621833e+02 0.0000000000000000e+00  1.0024452671588651e-11 -1.9847718243621512e+02 0.0000000000000000e+00  -7.0816648243655503e-13 -1.9847718243621406e+02 0.0000000000000000e+00  -2.0750662964447170e-12 -1.9847718243622214e+02 0.0000000000000000e+00  -4.1858843591755886e-12 -1.9847718243621736e+02 0.0000000000000000e+00  -2.5049883237849626e-12 -1.9847718243621864e+02 0.0000000000000000e+00  -5.7355967481934105e-12 -1.9847718243621603e+02 0.0000000000000000e+00  -1.9793320813562374e-12 -1.9847718243621185e+02 0.0000000000000000e+00  1.4882115748359534e-12 -1.9847718243621074e+02 0.0000000000000000e+00  8.9889213389682437e-28 -1.9847718243621188e+02 0.0000000000000000e+00  8.4145163223574527e-28 -2.4809647847942435e+02 0.0000000000000000e+00  4.0483989816726202e-12 -2.4809647847942077e+02 0.0000000000000000e+00  -2.5333645288372765e-12 -2.4809647847941798e+02 0.0000000000000000e+00  6.9182331848681972e-13 -2.4809647847942566e+02 0.0000000000000000e+00  -4.9149388814423235e-12 -2.4809647847941466e+02 0.0000000000000000e+00  -1.0542532809986789e-13 -2.4809647847941528e+02 0.0000000000000000e+00  -2.1088474929355722e-12 -2.4809647847941724e+02 0.0000000000000000e+00  -2.7559826137119921e-12 -2.4809647847941673e+02 0.0000000000000000e+00  -3.8493673401325623e-12 -2.4809647847941997e+02 0.0000000000000000e+00  -2.8855254685944599e-12 -2.4809647847941645e+02 0.0000000000000000e+00  -8.0416702325508272e-28 -2.4809647847942355e+02 0.0000000000000000e+00  -3.4818215330297607e-28 -2.9771577557382318e+02 0.0000000000000000e+00  2.2403333777986461e-13 -2.9771577557383262e+02 0.0000000000000000e+00  2.3854028882073396e-12 -2.9771577557383290e+02 0.0000000000000000e+00  -1.3504258060417489e-12 -2.9771577557382841e+02 0.0000000000000000e+00  -2.6088092010001749e-12 -2.9771577557382926e+02 0.0000000000000000e+00  -6.2529785928015947e-12 -2.9771577557383029e+02 0.0000000000000000e+00  -2.9933382591672607e-12 -2.9771577557382619e+02 0.0000000000000000e+00  -2.6864856269233138e-12 -2.9771577557382079e+02 0.0000000000000000e+00  3.0574829954395377e-12 -2.9771577557381619e+02 0.0000000000000000e+00  -6.0258343045189653e-12 -2.9771577557381744e+02 0.0000000000000000e+00  1.9533698605472689e-28 -2.9771577557381096e+02 0.0000000000000000e+00  -2.8924899858103772e-28 -3.4733507596721012e+02 0.0000000000000000e+00  1.1763070328519548e-12 -3.4733507596721302e+02 0.0000000000000000e+00  -5.8514366466460084e-14 -3.4733507596722103e+02 0.0000000000000000e+00  -5.6348021166629555e-12 -3.4733507596721586e+02 0.0000000000000000e+00  -2.8105955480388626e-12 -3.4733507596722438e+02 0.0000000000000000e+00  -7.1465489137788045e-14 -3.4733507596721927e+02 0.0000000000000000e+00  2.7249268970650707e-12 -3.4733507596721489e+02 0.0000000000000000e+00  -3.9510444554247072e-12 -3.4733507596721228e+02 0.0000000000000000e+00  3.3006481051328170e-12 -3.4733507596720511e+02 0.0000000000000000e+00  3.1532750444919413e-12 -3.4733507596720676e+02 0.0000000000000000e+00  2.1036290805893668e-28 -3.4733507596720500e+02 0.0000000000000000e+00  -1.2304309751976123e-27 -3.9695438671379605e+02 0.0000000000000000e+00  -3.1997042614811136e-12 -3.9695438671379645e+02 0.0000000000000000e+00  1.9097636416161398e-13 -3.9695438671380896e+02 0.0000000000000000e+00  2.8268105223544668e-12 -3.9695438671381009e+02 0.0000000000000000e+00  5.2208839176611336e-13 -3.9695438671381049e+02 0.0000000000000000e+00  -8.6660029397864863e-13 -3.9695438671380577e+02 0.0000000000000000e+00  -6.3027456271449010e-13 -3.9695438671380640e+02 0.0000000000000000e+00  1.1884318270433106e-11 -3.9695438671379247e+02 0.0000000000000000e+00  1.4611493522176392e-12 -3.9695438671379389e+02 0.0000000000000000e+00  2.8348915557616905e-12 -3.9695438671379605e+02 0.0000000000000000e+00  1.0790160079854099e-28 -3.9695438671378565e+02 0.0000000000000000e+00  1.4725403564125549e-27 -4.4657372995177474e+02 0.0000000000000000e+00  -1.5011013917182957e-12 -4.4657372995176183e+02 0.0000000000000000e+00  -1.3767414025858313e-11 -4.4657372995175467e+02 0.0000000000000000e+00  -7.3935646279054696e-13 -4.4657372995176979e+02 0.0000000000000000e+00  -8.2155869865751297e-13 -4.4657372995176013e+02 0.0000000000000000e+00  6.5392669559039129e-12 -4.4657372995176405e+02 0.0000000000000000e+00  1.4988773184985057e-11 -4.4657372995175450e+02 0.0000000000000000e+00  1.0323533647604292e-11 -4.4657372995176144e+02 0.0000000000000000e+00  2.8369529113488655e-12 -4.4657372995175928e+02 0.0000000000000000e+00  1.9624664218389030e-13 -4.4657372995175098e+02 0.0000000000000000e+00  -3.8082054767016945e-29 -4.4657372995177354e+02 0.0000000000000000e+00  -2.0051043866628248e-27 -4.9619317515722520e+02 0.0000000000000000e+00  -7.7207231447215336e-12 -4.9619317515723367e+02 0.0000000000000000e+00  -1.5133976027901632e-13 -4.9619317515723128e+02 0.0000000000000000e+00  -3.9967566690971375e-12 -4.9619317515723037e+02 0.0000000000000000e+00  3.2285815526190029e-12 -4.9619317515722264e+02 0.0000000000000000e+00  1.3135028086092027e-12 -4.9619317515721900e+02 0.0000000000000000e+00  1.9829982061668058e-14 -4.9619317515722298e+02 0.0000000000000000e+00  7.8363062239764787e-12 -4.9619317515722798e+02 0.0000000000000000e+00  5.4400830068938732e-12 -4.9619317515722037e+02 0.0000000000000000e+00  3.8152324418953073e-12 -4.9619317515722690e+02 0.0000000000000000e+00  1.5025922004209903e-29 -4.9619317515720638e+02 0.0000000000000000e+00  3.1883128252682544e-28 -5.4581294036660927e+02 0.0000000000000000e+00  -1.2611458554854460e-12 -5.4581294036660165e+02 0.0000000000000000e+00  2.4869182815532078e-12 -5.4581294036658790e+02 0.0000000000000000e+00  2.4916289037793758e-12 -5.4581294036658016e+02 0.0000000000000000e+00  -6.9616289728347258e-12 -5.4581294036659324e+02 0.0000000000000000e+00  -7.9896446106476107e-13 -5.4581294036658278e+02 0.0000000000000000e+00  -5.3815990346360433e-12 -5.4581294036658278e+02 0.0000000000000000e+00  2.0011920861065479e-12 -5.4581294036659142e+02 0.0000000000000000e+00  9.5992647948404221e-12 -5.4581294036659801e+02 0.0000000000000000e+00  2.0134912785168715e-12 -5.4581294036658312e+02 0.0000000000000000e+00  1.2621774483536192e-27 -5.4581294036659585e+02 0.0000000000000000e+00  -1.2914114599677972e-27 -5.9543370984220974e+02 0.0000000000000000e+00  -3.1593941403838744e-13 -5.9543370984222111e+02 0.0000000000000000e+00  3.2941170738112506e-12 -5.9543370984222202e+02 0.0000000000000000e+00  -1.1697977928828739e-11 -5.9543370984222656e+02 0.0000000000000000e+00  5.1948031187902847e-12 -5.9543370984222452e+02 0.0000000000000000e+00  -9.3686518267961980e-13 -5.9543370984222565e+02 0.0000000000000000e+00  1.0980085761936237e-11 -5.9543370984222474e+02 0.0000000000000000e+00  -1.4294923809242873e-11 -5.9543370984222145e+02 0.0000000000000000e+00  2.1219095555787003e-12 -5.9543370984220587e+02 0.0000000000000000e+00  1.1098367068959451e-11 -5.9543370984222304e+02 0.0000000000000000e+00  2.1849290033084335e-27 -5.9543370984221178e+02 0.0000000000000000e+00  1.2621774483536192e-27 -6.4505763100016009e+02 0.0000000000000000e+00  4.8528782855124611e-12 -6.4505763100013405e+02 0.0000000000000000e+00  -1.1871388070815107e-11 -6.4505763100015713e+02 0.0000000000000000e+00  1.0505122313905658e-12 -6.4505763100016100e+02 0.0000000000000000e+00  -5.6932576485915402e-12 -6.4505763100014531e+02 0.0000000000000000e+00  2.4392331928705437e-13 -6.4505763100015372e+02 0.0000000000000000e+00  -1.0098297520001527e-11 -6.4505763100014406e+02 0.0000000000000000e+00  6.2559960801349742e-12 -6.4505763100014246e+02 0.0000000000000000e+00  6.0448735365253037e-12 -6.4505763100014428e+02 0.0000000000000000e+00  -4.3411171641290421e-12 -6.4505763100014053e+02 0.0000000000000000e+00  -1.1381989180669324e-27 -6.4505763100013166e+02 0.0000000000000000e+00  -1.7892127934735815e-27 -6.9469144306244641e+02 0.0000000000000000e+00  -7.8034784203801305e-12 -6.9469144306245630e+02 0.0000000000000000e+00  -3.7042207992101905e-12 -6.9469144306243959e+02 0.0000000000000000e+00  -3.9381445414287390e-12 -6.9469144306243163e+02 0.0000000000000000e+00  -9.1862333657456104e-12 -6.9469144306245562e+02 0.0000000000000000e+00  -3.0088791015409849e-12 -6.9469144306245221e+02 0.0000000000000000e+00  2.3061296804421434e-12 -6.9469144306245005e+02 0.0000000000000000e+00  1.4589209798644730e-12 -6.9469144306243788e+02 0.0000000000000000e+00  -1.4846330736072236e-11 -6.9469144306243243e+02 0.0000000000000000e+00  1.3490224139838348e-11 -6.9469144306242822e+02 0.0000000000000000e+00  -9.6165900826942534e-28 -6.9469144306241742e+02 0.0000000000000000e+00  -2.2219582163725147e-27 -7.4435629568648108e+02 0.0000000000000000e+00  2.7146865726142318e-12 -7.4435629568645550e+02 0.0000000000000000e+00  -1.7872013338287399e-12 -7.4435629568646357e+02 0.0000000000000000e+00  -1.6581397687733130e-11 -7.4435629568646777e+02 0.0000000000000000e+00  -8.1867603655696220e-12 -7.4435629568644208e+02 0.0000000000000000e+00  -6.1654228494960843e-13 -7.4435629568643776e+02 0.0000000000000000e+00  -3.4458838400678861e-12 -7.4435629568643947e+02 0.0000000000000000e+00  -5.5517965169776690e-12 -7.4435629568645356e+02 0.0000000000000000e+00  1.2741366484442855e-11 -7.4435629568645027e+02 0.0000000000000000e+00  7.5100208608569233e-13 -7.4435629568644640e+02 0.0000000000000000e+00  -4.2072581611787287e-27 -7.4435629568647278e+02 0.0000000000000000e+00  -2.1884654468848095e-28 -7.9411856270624708e+02 0.0000000000000000e+00  2.3856048275086689e-13 -7.9411856270626572e+02 0.0000000000000000e+00  -2.6500360393578814e-11 -7.9411856270625731e+02 0.0000000000000000e+00  6.0752103769147730e-12 -7.9411856270625526e+02 0.0000000000000000e+00  -3.2602095552480232e-12 -7.9411856270625219e+02 0.0000000000000000e+00  -1.7426832513222510e-11 -7.9411856270624639e+02 0.0000000000000000e+00  -1.1289335764492471e-12 -7.9411856270624821e+02 0.0000000000000000e+00  3.7621201561969571e-12 -7.9411856270622263e+02 0.0000000000000000e+00  -8.1074871578075008e-15 -7.9411856270624776e+02 0.0000000000000000e+00  -2.6682631903666239e-12 -7.9411856270620706e+02 0.0000000000000000e+00  9.8707262473199692e-28 -7.9411856270624855e+02 0.0000000000000000e+00  -6.3108872417680935e-28 -8.4418654469924252e+02 0.0000000000000000e+00  4.3598784258851973e-12 -8.4418654469923433e+02 0.0000000000000000e+00  -7.5672880889636669e-12 -8.4418654469923092e+02 0.0000000000000000e+00  -5.5684924295519971e-12 -8.4418654469924593e+02 0.0000000000000000e+00  -1.1655321737758241e-11 -8.4418654469922149e+02 0.0000000000000000e+00  -2.3560228176371348e-12 -8.4418654469923183e+02 0.0000000000000000e+00  -5.4038551270218624e-12 -8.4418654469922558e+02 0.0000000000000000e+00  3.6762738968632793e-12 -8.4418654469922626e+02 0.0000000000000000e+00  1.0308613619154143e-11 -8.4418654469920716e+02 0.0000000000000000e+00  2.6577276113777284e-13 -8.4418654469922978e+02 0.0000000000000000e+00  2.3789271742901741e-27 -8.4418654469921364e+02 0.0000000000000000e+00  -1.4593926746588720e-27 -8.9521395003135171e+02 0.0000000000000000e+00  -2.3779340178526845e-11 -8.9521395003136604e+02 0.0000000000000000e+00  -9.9740108679122608e-12 -8.9521395003137059e+02 0.0000000000000000e+00  -2.2577324862695826e-11 -8.9521395003133978e+02 0.0000000000000000e+00  -9.5456652964082596e-12 -8.9521395003136524e+02 0.0000000000000000e+00  -1.3117914221327523e-11 -8.9521395003134944e+02 0.0000000000000000e+00  4.1229950317084473e-12 -8.9521395003134171e+02 0.0000000000000000e+00  1.1317151240388526e-11 -8.9521395003134273e+02 0.0000000000000000e+00  -1.3817860612617961e-11 -8.9521395003134910e+02 0.0000000000000000e+00  -1.2738218844162170e-12 -8.9521395003137513e+02 0.0000000000000000e+00  2.3369417367094194e-28 -8.9521395003133023e+02 0.0000000000000000e+00  -1.6829032644714930e-27 -9.4925230747360467e+02 0.0000000000000000e+00  -2.1629326614943725e-11 -9.4925230747360001e+02 0.0000000000000000e+00  6.0888032137987587e-12 -9.4925230747359853e+02 0.0000000000000000e+00  -3.7792710497571311e-11 -9.4925230747358660e+02 0.0000000000000000e+00  -2.3896030653917060e-11 -9.4925230747357318e+02 0.0000000000000000e+00  -2.0755592756457061e-11 -9.4925230747356011e+02 0.0000000000000000e+00  1.6791506735719364e-12 -9.4925230747357170e+02 0.0000000000000000e+00  -1.0586124687773813e-11 -9.4925230747358637e+02 0.0000000000000000e+00  4.4969528768621760e-12 -9.4925230747359819e+02 0.0000000000000000e+00  3.8700807819198409e-12 -9.4925230747358353e+02 0.0000000000000000e+00  -6.9477280767121500e-28 -9.4925230747361081e+02 0.0000000000000000e+00  1.6829032644714902e-27 -1.0127399166064998e+03 0.0000000000000000e+00  2.7250422071321572e-12 -1.0127399166065268e+03 0.0000000000000000e+00  -4.3407754753523324e-11 -1.0127399166065150e+03 0.0000000000000000e+00  -3.0133438685498252e-11 -1.0127399166064882e+03 0.0000000000000000e+00  -3.5712656186478667e-11 -1.0127399166064658e+03 0.0000000000000000e+00  -2.2373511805962050e-11 -1.0127399166064636e+03 0.0000000000000000e+00  -1.4401660788921509e-11 -1.0127399166064490e+03 0.0000000000000000e+00  -1.2461196448890270e-12 -1.0127399166064768e+03 0.0000000000000000e+00  -2.3322261990138915e-11 -1.0127399166064713e+03 0.0000000000000000e+00  -1.9164155521896808e-11 -1.0127399166064799e+03 0.0000000000000000e+00  1.6829032644714916e-27 -1.0127399166064487e+03 0.0000000000000000e+00  1.2290618364972779e-13 -2.4809647770010706e+01 0.0000000000000000e+00  3.2467102294609064e-12 -2.4809647770011637e+01 0.0000000000000000e+00  8.8912093683707269e-13 -2.4809647770015623e+01 0.0000000000000000e+00  -3.0488650564590399e-12 -2.4809647770011111e+01 0.0000000000000000e+00  1.3399872275026808e-12 -2.4809647770010635e+01 0.0000000000000000e+00  -4.1452898996685857e-12 -2.4809647770017037e+01 0.0000000000000000e+00  -1.5449264505325031e-13 -2.4809647770013093e+01 0.0000000000000000e+00  2.1439795640042864e-13 -2.4809647770007505e+01 0.0000000000000000e+00  3.8949099060302090e-13 -2.4809647770014198e+01 0.0000000000000000e+00  2.2434964567704029e-12 -2.4809647770011082e+01 0.0000000000000000e+00  1.2046666633073144e-12 -7.4428943301622482e+01 0.0000000000000000e+00  1.0089319337679555e-12 -7.4428943301622951e+01 0.0000000000000000e+00  -1.1427250815067494e-12 -7.4428943301624045e+01 0.0000000000000000e+00  3.4588818685914479e-12 -7.4428943301622567e+01 0.0000000000000000e+00  -6.4900643304769155e-12 -7.4428943301623050e+01 0.0000000000000000e+00  -4.0576610379798222e-12 -7.4428943301624074e+01 0.0000000000000000e+00  4.0927543226326196e-12 -7.4428943301620080e+01 0.0000000000000000e+00  -4.3230540031666079e-12 -7.4428943301622638e+01 0.0000000000000000e+00  5.6807254531717473e-13 -7.4428943301620421e+01 0.0000000000000000e+00  -1.9060629088190185e-12 -7.4428943301624699e+01 0.0000000000000000e+00  3.5912515749851869e-12 -1.2404823879571514e+02 0.0000000000000000e+00  -2.5422011058127246e-12 -1.2404823879571516e+02 0.0000000000000000e+00  2.7153429000102776e-12 -1.2404823879571273e+02 0.0000000000000000e+00  -5.0524933955478916e-13 -1.2404823879571369e+02 0.0000000000000000e+00  -1.9959305646279091e-12 -1.2404823879571404e+02 0.0000000000000000e+00  -4.5051004173029952e-12 -1.2404823879571066e+02 0.0000000000000000e+00  1.3467047985511395e-12 -1.2404823879571560e+02 0.0000000000000000e+00  -3.3777286478318471e-13 -1.2404823879570799e+02 0.0000000000000000e+00  -5.3604992307149589e-12 -1.2404823879571184e+02 0.0000000000000000e+00  2.0505855614190271e-12 -1.2404823879571143e+02 0.0000000000000000e+00  1.4724949510189864e-13 -1.7366753416852870e+02 0.0000000000000000e+00  1.0102479319424358e-11 -1.7366753416851810e+02 0.0000000000000000e+00  4.6542468770773968e-12 -1.7366753416851108e+02 0.0000000000000000e+00  1.1624650541239483e-12 -1.7366753416851139e+02 0.0000000000000000e+00  -6.0535916026077337e-12 -1.7366753416851398e+02 0.0000000000000000e+00  -5.5228056722341567e-12 -1.7366753416851526e+02 0.0000000000000000e+00  -8.9049209806476055e-13 -1.7366753416851043e+02 0.0000000000000000e+00  -2.7635961664078790e-12 -1.7366753416852387e+02 0.0000000000000000e+00  -1.8643307471799196e-12 -1.7366753416851529e+02 0.0000000000000000e+00  -2.6123151168077542e-12 -1.7366753416851947e+02 0.0000000000000000e+00  8.5295633459025659e-12 -2.2328682915956361e+02 0.0000000000000000e+00  1.2115956526378670e-11 -2.2328682915956330e+02 0.0000000000000000e+00  3.6891815491254398e-12 -2.2328682915956563e+02 0.0000000000000000e+00  -6.3343378798301247e-12 -2.2328682915957879e+02 0.0000000000000000e+00  -1.7634375538031224e-12 -2.2328682915957836e+02 0.0000000000000000e+00  -4.1234609467038042e-13 -2.2328682915956512e+02 0.0000000000000000e+00  -8.4048416743452305e-12 -2.2328682915957233e+02 0.000