<?xml version="1.0"?>
<VTKFile type="UnstructuredGrid"  version="0.1"  >
<UnstructuredGrid>
<Piece  NumberOfPoints="1876" NumberOfCells="3600">
<Points>
<DataArray  type="Float64"  NumberOfComponents="3"  format="ascii">-0.75 -3 0  -0.65 -3 0  -0.55 -3 0  -0.45 -3 0  -0.35 -3 0  -0.25 -3 0  -0.15 -3 0  -0.05000000000000004 -3 0  0.05000000000000004 -3 0  0.15 -3 0  0.25 -3 0  0.3500000000000001 -3 0  0.45 -3 0  0.55 -3 0  0.6499999999999999 -3 0  0.75 -3 0  -0.75 -2.95 0  -0.65 -2.95 0  -0.55 -2.95 0  -0.45 -2.95 0  -0.35 -2.95 0  -0.25 -2.95 0  -0.15 -2.95 0  -0.05000000000000004 -2.95 0  0.05000000000000004 -2.95 0  0.15 -2.95 0  0.25 -2.95 0  0.3500000000000001 -2.95 0  0.45 -2.95 0  0.55 -2.95 0  0.6499999999999999 -2.95 0  0.75 -2.95 0  -0.75 -2.9 0  -0.65 -2.9 0  -0.55 -2.9 0  -0.45 -2.9 0  -0.35 -2.9 0  -0.25 -2.9 0  -0.15 -2.9 0  -0.05000000000000004 -2.9 0  0.05000000000000004 -2.9 0  0.15 -2.9 0  0.25 -2.9 0  0.3500000000000001 -2.9 0  0.45 -2.9 0  0.55 -2.9 0  0.6499999999999999 -2.9 0  0.75 -2.9 0  -0.75 -2.85 0  -0.65 -2.85 0  -0.55 -2.85 0  -0.45 -2.85 0  -0.35 -2.85 0  -0.25 -2.85 0  -0.15 -2.85 0  -0.05000000000000004 -2.85 0  0.05000000000000004 -2.85 0  0.15 -2.85 0  0.25 -2.85 0  0.3500000000000001 -2.85 0  0.45 -2.85 0  0.55 -2.85 0  0.6499999999999999 -2.85 0  0.75 -2.85 0  -0.75 -2.8 0  -0.65 -2.8 0  -0.55 -2.8 0  -0.45 -2.8 0  -0.35 -2.8 0  -0.25 -2.8 0  -0.15 -2.8 0  -0.05000000000000004 -2.8 0  0.05000000000000004 -2.8 0  0.15 -2.8 0  0.25 -2.8 0  0.3500000000000001 -2.8 0  0.45 -2.8 0  0.55 -2.8 0  0.6499999999999999 -2.8 0  0.75 -2.8 0  -0.75 -2.75 0  -0.65 -2.75 0  -0.55 -2.75 0  -0.45 -2.75 0  -0.35 -2.75 0  -0.25 -2.75 0  -0.15 -2.75 0  -0.05000000000000004 -2.75 0  0.05000000000000004 -2.75 0  0.15 -2.75 0  0.25 -2.75 0  0.3500000000000001 -2.75 0  0.45 -2.75 0  0.55 -2.75 0  0.6499999999999999 -2.75 0  0.75 -2.75 0  -0.75 -2.7 0  -0.65 -2.7 0  -0.55 -2.7 0  -0.45 -2.7 0  -0.35 -2.7 0  -0.25 -2.7 0  -0.15 -2.7 0  -0.05000000000000004 -2.7 0  0.05000000000000004 -2.7 0  0.15 -2.7 0  0.25 -2.7 0  0.3500000000000001 -2.7 0  0.45 -2.7 0  0.55 -2.7 0  0.6499999999999999 -2.7 0  0.75 -2.7 0  -0.75 -2.65 0  -0.65 -2.65 0  -0.55 -2.65 0  -0.45 -2.65 0  -0.35 -2.65 0  -0.25 -2.65 0  -0.15 -2.65 0  -0.05000000000000004 -2.65 0  0.05000000000000004 -2.65 0  0.15 -2.65 0  0.25 -2.65 0  0.3500000000000001 -2.65 0  0.45 -2.65 0  0.55 -2.65 0  0.6499999999999999 -2.65 0  0.75 -2.65 0  -0.75 -2.6 0  -0.65 -2.6 0  -0.55 -2.6 0  -0.45 -2.6 0  -0.35 -2.6 0  -0.25 -2.6 0  -0.15 -2.6 0  -0.05000000000000004 -2.6 0  0.05000000000000004 -2.6 0  0.15 -2.6 0  0.25 -2.6 0  0.3500000000000001 -2.6 0  0.45 -2.6 0  0.55 -2.6 0  0.6499999999999999 -2.6 0  0.75 -2.6 0  -0.75 -2.55 0  -0.65 -2.55 0  -0.55 -2.55 0  -0.45 -2.55 0  -0.35 -2.55 0  -0.25 -2.55 0  -0.15 -2.55 0  -0.05000000000000004 -2.55 0  0.05000000000000004 -2.55 0  0.15 -2.55 0  0.25 -2.55 0  0.3500000000000001 -2.55 0  0.45 -2.55 0  0.55 -2.55 0  0.6499999999999999 -2.55 0  0.75 -2.55 0  -0.75 -2.5 0  -0.65 -2.5 0  -0.55 -2.5 0  -0.45 -2.5 0  -0.35 -2.5 0  -0.25 -2.5 0  -0.15 -2.5 0  -0.05000000000000004 -2.5 0  0.05000000000000004 -2.5 0  0.15 -2.5 0  0.25 -2.5 0  0.3500000000000001 -2.5 0  0.45 -2.5 0  0.55 -2.5 0  0.6499999999999999 -2.5 0  0.75 -2.5 0  -0.75 -2.45 0  -0.65 -2.45 0  -0.55 -2.45 0  -0.45 -2.45 0  -0.35 -2.45 0  -0.25 -2.45 0  -0.15 -2.45 0  -0.05000000000000004 -2.45 0  0.05000000000000004 -2.45 0  0.15 -2.45 0  0.25 -2.45 0  0.3500000000000001 -2.45 0  0.45 -2.45 0  0.55 -2.45 0  0.6499999999999999 -2.45 0  0.75 -2.45 0  -0.75 -2.4 0  -0.65 -2.4 0  -0.55 -2.4 0  -0.45 -2.4 0  -0.35 -2.4 0  -0.25 -2.4 0  -0.15 -2.4 0  -0.05000000000000004 -2.4 0  0.05000000000000004 -2.4 0  0.15 -2.4 0  0.25 -2.4 0  0.3500000000000001 -2.4 0  0.45 -2.4 0  0.55 -2.4 0  0.6499999999999999 -2.4 0  0.75 -2.4 0  -0.75 -2.35 0  -0.65 -2.35 0  -0.55 -2.35 0  -0.45 -2.35 0  -0.35 -2.35 0  -0.25 -2.35 0  -0.15 -2.35 0  -0.05000000000000004 -2.35 0  0.05000000000000004 -2.35 0  0.15 -2.35 0  0.25 -2.35 0  0.3500000000000001 -2.35 0  0.45 -2.35 0  0.55 -2.35 0  0.6499999999999999 -2.35 0  0.75 -2.35 0  -0.75 -2.3 0  -0.65 -2.3 0  -0.55 -2.3 0  -0.45 -2.3 0  -0.35 -2.3 0  -0.25 -2.3 0  -0.15 -2.3 0  -0.05000000000000004 -2.3 0  0.05000000000000004 -2.3 0  0.15 -2.3 0  0.25 -2.3 0  0.3500000000000001 -2.3 0  0.45 -2.3 0  0.55 -2.3 0  0.6499999999999999 -2.3 0  0.75 -2.3 0  -0.75 -2.25 0  -0.65 -2.25 0  -0.55 -2.25 0  -0.45 -2.25 0  -0.35 -2.25 0  -0.25 -2.25 0  -0.15 -2.25 0  -0.05000000000000004 -2.25 0  0.05000000000000004 -2.25 0  0.15 -2.25 0  0.25 -2.25 0  0.3500000000000001 -2.25 0  0.45 -2.25 0  0.55 -2.25 0  0.6499999999999999 -2.25 0  0.75 -2.25 0  -0.75 -2.2 0  -0.65 -2.2 0  -0.55 -2.2 0  -0.45 -2.2 0  -0.35 -2.2 0  -0.25 -2.2 0  -0.15 -2.2 0  -0.05000000000000004 -2.2 0  0.05000000000000004 -2.2 0  0.15 -2.2 0  0.25 -2.2 0  0.3500000000000001 -2.2 0  0.45 -2.2 0  0.55 -2.2 0  0.6499999999999999 -2.2 0  0.75 -2.2 0  -0.75 -2.15 0  -0.65 -2.15 0  -0.55 -2.15 0  -0.45 -2.15 0  -0.35 -2.15 0  -0.25 -2.15 0  -0.15 -2.15 0  -0.05000000000000004 -2.15 0  0.05000000000000004 -2.15 0  0.15 -2.15 0  0.25 -2.15 0  0.3500000000000001 -2.15 0  0.45 -2.15 0  0.55 -2.15 0  0.6499999999999999 -2.15 0  0.75 -2.15 0  -0.75 -2.1 0  -0.65 -2.1 0  -0.55 -2.1 0  -0.45 -2.1 0  -0.35 -2.1 0  -0.25 -2.1 0  -0.15 -2.1 0  -0.05000000000000004 -2.1 0  0.05000000000000004 -2.1 0  0.15 -2.1 0  0.25 -2.1 0  0.3500000000000001 -2.1 0  0.45 -2.1 0  0.55 -2.1 0  0.6499999999999999 -2.1 0  0.75 -2.1 0  -0.75 -2.05 0  -0.65 -2.05 0  -0.55 -2.05 0  -0.45 -2.05 0  -0.35 -2.05 0  -0.25 -2.05 0  -0.15 -2.05 0  -0.05000000000000004 -2.05 0  0.05000000000000004 -2.05 0  0.15 -2.05 0  0.25 -2.05 0  0.3500000000000001 -2.05 0  0.45 -2.05 0  0.55 -2.05 0  0.6499999999999999 -2.05 0  0.75 -2.05 0  -0.75 -2 0  -0.65 -2 0  -0.55 -2 0  -0.45 -2 0  -0.35 -2 0  -0.25 -2 0  -0.15 -2 0  -0.05000000000000004 -2 0  0.05000000000000004 -2 0  0.15 -2 0  0.25 -2 0  0.3500000000000001 -2 0  0.45 -2 0  0.55 -2 0  0.6499999999999999 -2 0  0.75 -2 0  -0.75 -1.95 0  -0.65 -1.95 0  -0.55 -1.95 0  -0.45 -1.95 0  -0.35 -1.95 0  -0.25 -1.95 0  -0.15 -1.95 0  -0.05000000000000004 -1.95 0  0.05000000000000004 -1.95 0  0.15 -1.95 0  0.25 -1.95 0  0.3500000000000001 -1.95 0  0.45 -1.95 0  0.55 -1.95 0  0.6499999999999999 -1.95 0  0.75 -1.95 0  -0.75 -1.9 0  -0.65 -1.9 0  -0.55 -1.9 0  -0.45 -1.9 0  -0.35 -1.9 0  -0.25 -1.9 0  -0.15 -1.9 0  -0.05000000000000004 -1.9 0  0.05000000000000004 -1.9 0  0.15 -1.9 0  0.25 -1.9 0  0.3500000000000001 -1.9 0  0.45 -1.9 0  0.55 -1.9 0  0.6499999999999999 -1.9 0  0.75 -1.9 0  -0.75 -1.85 0  -0.65 -1.85 0  -0.55 -1.85 0  -0.45 -1.85 0  -0.35 -1.85 0  -0.25 -1.85 0  -0.15 -1.85 0  -0.05000000000000004 -1.85 0  0.05000000000000004 -1.85 0  0.15 -1.85 0  0.25 -1.85 0  0.3500000000000001 -1.85 0  0.45 -1.85 0  0.55 -1.85 0  0.6499999999999999 -1.85 0  0.75 -1.85 0  -0.75 -1.8 0  -0.65 -1.8 0  -0.55 -1.8 0  -0.45 -1.8 0  -0.35 -1.8 0  -0.25 -1.8 0  -0.15 -1.8 0  -0.05000000000000004 -1.8 0  0.05000000000000004 -1.8 0  0.15 -1.8 0  0.25 -1.8 0  0.3500000000000001 -1.8 0  0.45 -1.8 0  0.55 -1.8 0  0.6499999999999999 -1.8 0  0.75 -1.8 0  -0.75 -1.75 0  -0.65 -1.75 0  -0.55 -1.75 0  -0.45 -1.75 0  -0.35 -1.75 0  -0.25 -1.75 0  -0.15 -1.75 0  -0.05000000000000004 -1.75 0  0.05000000000000004 -1.75 0  0.15 -1.75 0  0.25 -1.75 0  0.3500000000000001 -1.75 0  0.45 -1.75 0  0.55 -1.75 0  0.6499999999999999 -1.75 0  0.75 -1.75 0  -0.75 -1.7 0  -0.65 -1.7 0  -0.55 -1.7 0  -0.45 -1.7 0  -0.35 -1.7 0  -0.25 -1.7 0  -0.15 -1.7 0  -0.05000000000000004 -1.7 0  0.05000000000000004 -1.7 0  0.15 -1.7 0  0.25 -1.7 0  0.3500000000000001 -1.7 0  0.45 -1.7 0  0.55 -1.7 0  0.6499999999999999 -1.7 0  0.75 -1.7 0  -0.75 -1.65 0  -0.65 -1.65 0  -0.55 -1.65 0  -0.45 -1.65 0  -0.35 -1.65 0  -0.25 -1.65 0  -0.15 -1.65 0  -0.05000000000000004 -1.65 0  0.05000000000000004 -1.65 0  0.15 -1.65 0  0.25 -1.65 0  0.3500000000000001 -1.65 0  0.45 -1.65 0  0.55 -1.65 0  0.6499999999999999 -1.65 0  0.75 -1.65 0  -0.75 -1.6 0  -0.65 -1.6 0  -0.55 -1.6 0  -0.45 -1.6 0  -0.35 -1.6 0  -0.25 -1.6 0  -0.15 -1.6 0  -0.05000000000000004 -1.6 0  0.05000000000000004 -1.6 0  0.15 -1.6 0  0.25 -1.6 0  0.3500000000000001 -1.6 0  0.45 -1.6 0  0.55 -1.6 0  0.6499999999999999 -1.6 0  0.75 -1.6 0  -0.75 -1.55 0  -0.65 -1.55 0  -0.55 -1.55 0  -0.45 -1.55 0  -0.35 -1.55 0  -0.25 -1.55 0  -0.15 -1.55 0  -0.05000000000000004 -1.55 0  0.05000000000000004 -1.55 0  0.15 -1.55 0  0.25 -1.55 0  0.3500000000000001 -1.55 0  0.45 -1.55 0  0.55 -1.55 0  0.6499999999999999 -1.55 0  0.75 -1.55 0  -0.75 -1.5 0  -0.65 -1.5 0  -0.55 -1.5 0  -0.45 -1.5 0  -0.35 -1.5 0  -0.25 -1.5 0  -0.15 -1.5 0  -0.05000000000000004 -1.5 0  0.05000000000000004 -1.5 0  0.15 -1.5 0  0.25 -1.5 0  0.3500000000000001 -1.5 0  0.45 -1.5 0  0.55 -1.5 0  0.6499999999999999 -1.5 0  0.75 -1.5 0  -0.75 -1.45 0  -0.65 -1.45 0  -0.55 -1.45 0  -0.45 -1.45 0  -0.35 -1.45 0  -0.25 -1.45 0  -0.15 -1.45 0  -0.05000000000000004 -1.45 0  0.05000000000000004 -1.45 0  0.15 -1.45 0  0.25 -1.45 0  0.3500000000000001 -1.45 0  0.45 -1.45 0  0.55 -1.45 0  0.6499999999999999 -1.45 0  0.75 -1.45 0  -0.75 -1.4 0  -0.65 -1.4 0  -0.55 -1.4 0  -0.45 -1.4 0  -0.35 -1.4 0  -0.25 -1.4 0  -0.15 -1.4 0  -0.05000000000000004 -1.4 0  0.05000000000000004 -1.4 0  0.15 -1.4 0  0.25 -1.4 0  0.3500000000000001 -1.4 0  0.45 -1.4 0  0.55 -1.4 0  0.6499999999999999 -1.4 0  0.75 -1.4 0  -0.75 -1.35 0  -0.65 -1.35 0  -0.55 -1.35 0  -0.45 -1.35 0  -0.35 -1.35 0  -0.25 -1.35 0  -0.15 -1.35 0  -0.05000000000000004 -1.35 0  0.05000000000000004 -1.35 0  0.15 -1.35 0  0.25 -1.35 0  0.3500000000000001 -1.35 0  0.45 -1.35 0  0.55 -1.35 0  0.6499999999999999 -1.35 0  0.75 -1.35 0  -0.75 -1.3 0  -0.65 -1.3 0  -0.55 -1.3 0  -0.45 -1.3 0  -0.35 -1.3 0  -0.25 -1.3 0  -0.15 -1.3 0  -0.05000000000000004 -1.3 0  0.05000000000000004 -1.3 0  0.15 -1.3 0  0.25 -1.3 0  0.3500000000000001 -1.3 0  0.45 -1.3 0  0.55 -1.3 0  0.6499999999999999 -1.
[...]
<PointData  Vectors="displacement"> 
<DataArray  type="Float64"  Name="displacement"  NumberOfComponents="3" format="ascii">6.9333477997940377e-31 -1.9515639104739134e-16 0.0000000000000000e+00  -1.1045668660179474e-30 6.9117888495951154e-17 0.0000000000000000e+00  4.6222318665293815e-30 -1.9515639104739146e-16 0.0000000000000000e+00  3.2500067811534717e-30 3.7862372742267355e-17 0.0000000000000000e+00  6.0089014264881955e-30 -2.4394548880923929e-16 0.0000000000000000e+00  -1.7941017237484089e-30 -2.1175496781652704e-16 0.0000000000000000e+00  1.3866695599588147e-30 -4.8789097761847872e-17 0.0000000000000000e+00  1.0629458435488722e-29 -6.5095571279473146e-17 0.0000000000000000e+00  -4.6222318665293809e-31 0.0000000000000000e+00 0.0000000000000000e+00  -3.7450624884455046e-30 -8.2541390613014185e-17 0.0000000000000000e+00  5.5466782398352540e-30 9.7578195523695658e-17 0.0000000000000000e+00  -9.1717370730677458e-30 -2.3788816926060555e-16 0.0000000000000000e+00  1.6177811532852834e-30 2.7647155398380452e-16 0.0000000000000000e+00  -4.5620573166037334e-31 -9.4528876913580189e-17 0.0000000000000000e+00  -4.6222318665293853e-31 -6.5052130349130537e-17 0.0000000000000000e+00  0.0000000000000000e+00 -6.5052130349130426e-17 0.0000000000000000e+00  -1.8488927466117398e-30 -1.4912280701752543e+00 0.0000000000000000e+00  7.1647072894994829e-15 -1.4912280701752583e+00 0.0000000000000000e+00  1.5291561061085239e-14 -1.4912280701752598e+00 0.0000000000000000e+00  2.5057023763505526e-14 -1.4912280701752576e+00 0.0000000000000000e+00  3.2772679686447997e-14 -1.4912280701752563e+00 0.0000000000000000e+00  4.3569988766888043e-14 -1.4912280701752536e+00 0.0000000000000000e+00  5.2338509431824382e-14 -1.4912280701752445e+00 0.0000000000000000e+00  5.5063580243813562e-14 -1.4912280701752345e+00 0.0000000000000000e+00  5.6219819312056184e-14 -1.4912280701752250e+00 0.0000000000000000e+00  5.0016365254705581e-14 -1.4912280701752170e+00 0.0000000000000000e+00  4.3316978185278783e-14 -1.4912280701752114e+00 0.0000000000000000e+00  3.8277209584902988e-14 -1.4912280701752059e+00 0.0000000000000000e+00  3.0380362853174327e-14 -1.4912280701752019e+00 0.0000000000000000e+00  2.0755014581253894e-14 -1.4912280701751990e+00 0.0000000000000000e+00  1.1235276190699636e-14 -1.4912280701751959e+00 0.0000000000000000e+00  -1.0109861660275707e-30 -1.4912280701751952e+00 0.0000000000000000e+00  1.1266690174665338e-30 -2.9824561403505334e+00 0.0000000000000000e+00  1.3926986286884503e-14 -2.9824561403505321e+00 0.0000000000000000e+00  2.9507485258235445e-14 -2.9824561403505325e+00 0.0000000000000000e+00  4.6474834195008994e-14 -2.9824561403505303e+00 0.0000000000000000e+00  6.3638979072275734e-14 -2.9824561403505281e+00 0.0000000000000000e+00  7.9694539412210376e-14 -2.9824561403505223e+00 0.0000000000000000e+00  9.5103353855944780e-14 -2.9824561403505037e+00 0.0000000000000000e+00  1.0246777258690657e-13 -2.9824561403504841e+00 0.0000000000000000e+00  1.0149502379030002e-13 -2.9824561403504615e+00 0.0000000000000000e+00  9.2425779283862421e-14 -2.9824561403504464e+00 0.0000000000000000e+00  8.0950833306159044e-14 -2.9824561403504357e+00 0.0000000000000000e+00  7.1191281589686502e-14 -2.9824561403504224e+00 0.0000000000000000e+00  5.7029190882847994e-14 -2.9824561403504144e+00 0.0000000000000000e+00  3.8204176161502777e-14 -2.9824561403504077e+00 0.0000000000000000e+00  1.9392748113391385e-14 -2.9824561403503997e+00 0.0000000000000000e+00  -1.9809565142268657e-31 -2.9824561403503989e+00 0.0000000000000000e+00  -3.0044507132440900e-30 -4.4736842105257937e+00 0.0000000000000000e+00  2.1391850936654613e-14 -4.4736842105257937e+00 0.0000000000000000e+00  4.1533282242540886e-14 -4.4736842105258043e+00 0.0000000000000000e+00  6.5242077128506470e-14 -4.4736842105257919e+00 0.0000000000000000e+00  9.0658831623368077e-14 -4.4736842105257875e+00 0.0000000000000000e+00  1.1096572569803020e-13 -4.4736842105257839e+00 0.0000000000000000e+00  1.3025126743412268e-13 -4.4736842105257510e+00 0.0000000000000000e+00  1.4073228135372236e-13 -4.4736842105257217e+00 0.0000000000000000e+00  1.3943525891858272e-13 -4.4736842105256871e+00 0.0000000000000000e+00  1.2824794663768147e-13 -4.4736842105256631e+00 0.0000000000000000e+00  1.1466344729415811e-13 -4.4736842105256454e+00 0.0000000000000000e+00  9.8677778930899916e-14 -4.4736842105256311e+00 0.0000000000000000e+00  7.9794180161753920e-14 -4.4736842105256072e+00 0.0000000000000000e+00  5.2169207386842650e-14 -4.4736842105256009e+00 0.0000000000000000e+00  2.4989503580260100e-14 -4.4736842105255921e+00 0.0000000000000000e+00  2.7733391199176207e-30 -4.4736842105255823e+00 0.0000000000000000e+00  2.3126319392445338e-30 -5.9649122807010713e+00 0.0000000000000000e+00  2.6940482747293522e-14 -5.9649122807010739e+00 0.0000000000000000e+00  5.3181023934886006e-14 -5.9649122807010855e+00 0.0000000000000000e+00  8.1895812350666652e-14 -5.9649122807010810e+00 0.0000000000000000e+00  1.1228916789928717e-13 -5.9649122807010659e+00 0.0000000000000000e+00  1.3663636310545875e-13 -5.9649122807010544e+00 0.0000000000000000e+00  1.5969063405016517e-13 -5.9649122807010135e+00 0.0000000000000000e+00  1.7327497767147710e-13 -5.9649122807009682e+00 0.0000000000000000e+00  1.6894540918153185e-13 -5.9649122807009221e+00 0.0000000000000000e+00  1.5736553288228441e-13 -5.9649122807008883e+00 0.0000000000000000e+00  1.4559948467599487e-13 -5.9649122807008652e+00 0.0000000000000000e+00  1.2201934661682112e-13 -5.9649122807008492e+00 0.0000000000000000e+00  9.6277526298881523e-14 -5.9649122807008199e+00 0.0000000000000000e+00  6.4429309678801343e-14 -5.9649122807008021e+00 0.0000000000000000e+00  3.0807133717834339e-14 -5.9649122807007942e+00 0.0000000000000000e+00  -4.0352316338142709e-30 -5.9649122807007826e+00 0.0000000000000000e+00  1.3866695599588137e-30 -7.4561403508763489e+00 0.0000000000000000e+00  3.0601050851848732e-14 -7.4561403508763506e+00 0.0000000000000000e+00  6.3217192522914874e-14 -7.4561403508763453e+00 0.0000000000000000e+00  9.6973093101171141e-14 -7.4561403508763364e+00 0.0000000000000000e+00  1.2873040924946601e-13 -7.4561403508763302e+00 0.0000000000000000e+00  1.5812209964233270e-13 -7.4561403508763160e+00 0.0000000000000000e+00  1.8491642660899783e-13 -7.4561403508762734e+00 0.0000000000000000e+00  1.9919890204118837e-13 -7.4561403508762218e+00 0.0000000000000000e+00  1.9542366913518342e-13 -7.4561403508761490e+00 0.0000000000000000e+00  1.8343703267273768e-13 -7.4561403508761082e+00 0.0000000000000000e+00  1.6703989610466428e-13 -7.4561403508760788e+00 0.0000000000000000e+00  1.4102481514717018e-13 -7.4561403508760407e+00 0.0000000000000000e+00  1.0973750872834060e-13 -7.4561403508760176e+00 0.0000000000000000e+00  7.4503488875389229e-14 -7.4561403508759865e+00 0.0000000000000000e+00  3.7624527175478884e-14 -7.4561403508759749e+00 0.0000000000000000e+00  4.7242459682711401e-30 -7.4561403508759767e+00 0.0000000000000000e+00  2.9410516009268282e-31 -8.9473684210516051e+00 0.0000000000000000e+00  3.2698689944943161e-14 -8.9473684210516140e+00 0.0000000000000000e+00  7.1367533021229937e-14 -8.9473684210516158e+00 0.0000000000000000e+00  1.0932502042216711e-13 -8.9473684210516051e+00 0.0000000000000000e+00  1.4433977358548318e-13 -8.9473684210515927e+00 0.0000000000000000e+00  1.7733100261332751e-13 -8.9473684210515732e+00 0.0000000000000000e+00  2.0530551756058074e-13 -8.9473684210515163e+00 0.0000000000000000e+00  2.1786382773719838e-13 -8.9473684210514417e+00 0.0000000000000000e+00  2.1276275711722488e-13 -8.9473684210513689e+00 0.0000000000000000e+00  2.0531342387932236e-13 -8.9473684210513191e+00 0.0000000000000000e+00  1.8514293614474639e-13 -8.9473684210512836e+00 0.0000000000000000e+00  1.5591702735992302e-13 -8.9473684210512410e+00 0.0000000000000000e+00  1.2160452491022808e-13 -8.9473684210512054e+00 0.0000000000000000e+00  8.2991921822963838e-14 -8.9473684210511770e+00 0.0000000000000000e+00  4.3750100390676564e-14 -8.9473684210511628e+00 0.0000000000000000e+00  4.7542956341444734e-30 -8.9473684210511415e+00 0.0000000000000000e+00  -3.6977854932234956e-30 -1.0438596491226903e+01 0.0000000000000000e+00  3.4904576699894016e-14 -1.0438596491226892e+01 0.0000000000000000e+00  7.9598792350614126e-14 -1.0438596491226914e+01 0.0000000000000000e+00  1.2100706669678129e-13 -1.0438596491226878e+01 0.0000000000000000e+00  1.5865040929845259e-13 -1.0438596491226875e+01 0.0000000000000000e+00  1.9231838571767285e-13 -1.0438596491226861e+01 0.0000000000000000e+00  2.1854881783635093e-13 -1.0438596491226775e+01 0.0000000000000000e+00  2.3118095226211938e-13 -1.0438596491226692e+01 0.0000000000000000e+00  2.3006470184589516e-13 -1.0438596491226610e+01 0.0000000000000000e+00  2.1955287034257415e-13 -1.0438596491226548e+01 0.0000000000000000e+00  1.9569286459939697e-13 -1.0438596491226507e+01 0.0000000000000000e+00  1.6913807449174421e-13 -1.0438596491226443e+01 0.0000000000000000e+00  1.3481949876116629e-13 -1.0438596491226415e+01 0.0000000000000000e+00  9.0557869426217375e-14 -1.0438596491226374e+01 0.0000000000000000e+00  4.5034162738967744e-14 -1.0438596491226356e+01 0.0000000000000000e+00  -1.8488927466117475e-30 -1.0438596491226342e+01 0.0000000000000000e+00  -4.6263926937664106e-30 -1.1929824561402166e+01 0.0000000000000000e+00  4.3049838856821993e-14 -1.1929824561402160e+01 0.0000000000000000e+00  8.4426731220447282e-14 -1.1929824561402198e+01 0.0000000000000000e+00  1.3145164476184043e-13 -1.1929824561402146e+01 0.0000000000000000e+00  1.7210030349242974e-13 -1.1929824561402146e+01 0.0000000000000000e+00  2.0284508317102060e-13 -1.1929824561402123e+01 0.0000000000000000e+00  2.2820235002725705e-13 -1.1929824561402016e+01 0.0000000000000000e+00  2.4274061507814257e-13 -1.1929824561401935e+01 0.0000000000000000e+00  2.4191768363993539e-13 -1.1929824561401835e+01 0.0000000000000000e+00  2.2535428868014608e-13 -1.1929824561401775e+01 0.0000000000000000e+00  2.0655324561835008e-13 -1.1929824561401709e+01 0.0000000000000000e+00  1.7773685867660865e-13 -1.1929824561401661e+01 0.0000000000000000e+00  1.4557206465422750e-13 -1.1929824561401601e+01 0.0000000000000000e+00  9.7093679481586525e-14 -1.1929824561401567e+01 0.0000000000000000e+00  4.2964261324639806e-14 -1.1929824561401539e+01 0.0000000000000000e+00  -2.4643210821015664e-30 -1.1929824561401528e+01 0.0000000000000000e+00  8.3200173597528295e-30 -1.3421052631577444e+01 0.0000000000000000e+00  4.4536873741501269e-14 -1.3421052631577448e+01 0.0000000000000000e+00  9.0122840520771643e-14 -1.3421052631577457e+01 0.0000000000000000e+00  1.4000847193941144e-13 -1.3421052631577446e+01 0.0000000000000000e+00  1.8077129784435999e-13 -1.3421052631577432e+01 0.0000000000000000e+00  2.0899147085797603e-13 -1.3421052631577398e+01 0.0000000000000000e+00  2.3422705007690217e-13 -1.3421052631577290e+01 0.0000000000000000e+00  2.5211606431636351e-13 -1.3421052631577171e+01 0.0000000000000000e+00  2.4687653311625868e-13 -1.3421052631577066e+01 0.0000000000000000e+00  2.2907306520400168e-13 -1.3421052631576998e+01 0.0000000000000000e+00  2.1632380180938189e-13 -1.3421052631576927e+01 0.0000000000000000e+00  1.8554519985697922e-13 -1.3421052631576879e+01 0.0000000000000000e+00  1.4949851439202800e-13 -1.3421052631576833e+01 0.0000000000000000e+00  9.8483082724335113e-14 -1.3421052631576774e+01 0.0000000000000000e+00  4.3748532534406369e-14 -1.3421052631576758e+01 0.0000000000000000e+00  -4.3262525294247344e-30 -1.3421052631576716e+01 0.0000000000000000e+00  -8.0720048398596891e-31 -1.4912280701752719e+01 0.0000000000000000e+00  4.5556719587320072e-14 -1.4912280701752726e+01 0.0000000000000000e+00  9.7078635847749613e-14 -1.4912280701752749e+01 0.0000000000000000e+00  1.4518347816471447e-13 -1.4912280701752692e+01 0.0000000000000000e+00  1.8484038969953549e-13 -1.4912280701752705e+01 0.0000000000000000e+00  2.1458277755342877e-13 -1.4912280701752623e+01 0.0000000000000000e+00  2.3764586979381584e-13 -1.4912280701752566e+01 0.0000000000000000e+00  2.5741339690660432e-13 -1.4912280701752417e+01 0.0000000000000000e+00  2.5481575836519185e-13 -1.4912280701752287e+01 0.0000000000000000e+00  2.3495829817432744e-13 -1.4912280701752238e+01 0.0000000000000000e+00  2.1848856734933330e-13 -1.4912280701752138e+01 0.0000000000000000e+00  1.8893258270544396e-13 -1.4912280701752035e+01 0.0000000000000000e+00  1.5047735362933750e-13 -1.4912280701752019e+01 0.0000000000000000e+00  9.8008696230624797e-14 -1.4912280701751937e+01 0.0000000000000000e+00  4.7421177219662621e-14 -1.4912280701751927e+01 0.0000000000000000e+00  -1.5847652113814964e-30 -1.4912280701751904e+01 0.0000000000000000e+00  -5.5466782398352196e-30 -1.6403508771927978e+01 0.0000000000000000e+00  4.4255725682715106e-14 -1.6403508771927999e+01 0.0000000000000000e+00  9.8706350972259483e-14 -1.6403508771928024e+01 0.0000000000000000e+00  1.4878864077981961e-13 -1.6403508771927992e+01 0.0000000000000000e+00  1.8759404025026981e-13 -1.6403508771927939e+01 0.0000000000000000e+00  2.1743731908969085e-13 -1.6403508771927903e+01 0.0000000000000000e+00  2.4368599823816038e-13 -1.6403508771927797e+01 0.0000000000000000e+00  2.6080604874459052e-13 -1.6403508771927662e+01 0.0000000000000000e+00  2.5736379339035374e-13 -1.6403508771927509e+01 0.0000000000000000e+00  2.4229690729529070e-13 -1.6403508771927431e+01 0.0000000000000000e+00  2.1274813306097464e-13 -1.6403508771927338e+01 0.0000000000000000e+00  1.9130349916288547e-13 -1.6403508771927239e+01 0.0000000000000000e+00  1.5009232224677404e-13 -1.6403508771927214e+01 0.0000000000000000e+00  1.0256663037186864e-13 -1.6403508771927143e+01 0.0000000000000000e+00  5.1557023618621203e-14 -1.6403508771927111e+01 0.0000000000000000e+00  9.2444637330586957e-30 -1.6403508771927093e+01 0.0000000000000000e+00  4.6699389109062917e-30 -1.7894736842103253e+01 0.0000000000000000e+00  4.4112451494132766e-14 -1.7894736842103281e+01 0.0000000000000000e+00  1.0007874616468634e-13 -1.7894736842103296e+01 0.0000000000000000e+00  1.4760699255424580e-13 -1.7894736842103256e+01 0.0000000000000000e+00  1.8903222299046626e-13 -1.7894736842103232e+01 0.0000000000000000e+00  2.1850691304452585e-13 -1.7894736842103168e+01 0.0000000000000000e+00  2.4566185962078886e-13 -1.7894736842103047e+01 0.0000000000000000e+00  2.6461107878807476e-13 -1.7894736842102901e+01 0.0000000000000000e+00  2.5513246837151676e-13 -1.7894736842102759e+01 0.0000000000000000e+00  2.4372828986815047e-13 -1.7894736842102667e+01 0.0000000000000000e+00  2.1294038698626628e-13 -1.7894736842102574e+01 0.0000000000000000e+00  1.9212657337840942e-13 -1.7894736842102478e+01 0.0000000000000000e+00  1.5496534668173833e-13 -1.7894736842102422e+01 0.0000000000000000e+00  1.0271240462563077e-13 -1.7894736842102343e+01 0.0000000000000000e+00  5.0769770078620135e-14 -1.7894736842102322e+01 0.0000000000000000e+00  -6.5546184412376730e-30 -1.7894736842102294e+01 0.0000000000000000e+00  -4.1600086798764322e-30 -1.9385964912278531e+01 0.0000000000000000e+00  5.1597412714104074e-14 -1.9385964912278542e+01 0.0000000000000000e+00  1.0042808256639500e-13 -1.9385964912278570e+01 0.0000000000000000e+00  1.5166660470753733e-13 -1.9385964912278524e+01 0.0000000000000000e+00  1.8780426174153016e-13 -1.9385964912278492e+01 0.0000000000000000e+00  2.1726693089402164e-13 -1.9385964912278453e+01 0.0000000000000000e+00  2.4567470229060699e-13 -1.9385964912278283e+01 0.0000000000000000e+00  2.6132060580082491e-13 -1.9385964912278155e+01 0.0000000000000000e+00  2.5862910417598307e-13 -1.9385964912278002e+01 0.0000000000000000e+00  2.4011522811853559e-13 -1.9385964912277878e+01 0.0000000000000000e+00  2.1723031242104338e-13 -1.9385964912277778e+01 0.0000000000000000e+00  1.8967163012147126e-13 -1.9385964912277707e+01 0.0000000000000000e+00  1.5574448057008090e-13 -1.9385964912277604e+01 0.0000000000000000e+00  1.0328737903966450e-13 -1.9385964912277547e+01 0.0000000000000000e+00  4.4170210730314573e-14 -1.9385964912277529e+01 0.0000000000000000e+00  1.1689135933518009e-30 -1.9385964912277466e+01 0.0000000000000000e+00  9.2551666091229354e-30 -2.0877192982453820e+01 0.0000000000000000e+00  5.4727736772416243e-14 -2.0877192982453813e+01 0.0000000000000000e+00  1.0562726488542470e-13 -2.0877192982453849e+01 0.0000000000000000e+00  1.4853459235235088e-13 -2.0877192982453799e+01 0.0000000000000000e+00  1.8868729596638984e-13 -2.0877192982453764e+01 0.0000000000000000e+00  2.1512415612065135e-13 -2.0877192982453721e+01 0.0000000000000000e+00  2.3893625791284891e-13 -2.0877192982453572e+01 0.0000000000000000e+00  2.6164042972055676e-13 -2.0877192982453384e+01 0.0000000000000000e+00  2.5986171226653841e-13 -2.0877192982453206e+01 0.0000000000000000e+00  2.3681551407501301e-13 -2.0877192982453142e+01 0.0000000000000000e+00  2.2168709477893173e-13 -2.0877192982453014e+01 0.0000000000000000e+00  1.8907824292320070e-13 -2.0877192982452922e+01 0.0000000000000000e+00  1.4968494440943637e-13 -2.0877192982452847e+01 0.0000000000000000e+00  1.0297102740359779e-13 -2.0877192982452748e+01 0.0000000000000000e+00  4.4896414949759177e-14 -2.0877192982452716e+01 0.0000000000000000e+00  -2.0800043399382063e-30 -2.0877192982452698e+01 0.0000000000000000e+00  2.7733391199176273e-30 -2.2368421052629113e+01 0.0000000000000000e+00  6.0310977353529723e-14 -2.2368421052629106e+01 0.0000000000000000e+00  1.1968909630543521e-13 -2.2368421052629110e+01 0.0000000000000000e+00  1.5615545737130538e-13 -2.2368421052629067e+01 0.0000000000000000e+00  1.8786224399782852e-13 -2.2368421052629010e+01 0.0000000000000000e+00  2.1197626019673241e-13 -2.2368421052628982e+01 0.0000000000000000e+00  2.3802909820335592e-13 -2.2368421052628836e+01 0.0000000000000000e+00  2.5546916343703185e-13 -2.2368421052628655e+01 0.0000000000000000e+00  2.5797649725605912e-13 -2.2368421052628456e+01 0.0000000000000000e+00  2.3923727477777219e-13 -2.2368421052628353e+01 0.0000000000000000e+00  2.2022307385387419e-13 -2.2368421052628253e+01 0.0000000000000000e+00  1.8965475534452662e-13 -2.2368421052628097e+01 0.0000000000000000e+00  1.4621960117190362e-13 -2.2368421052628047e+01 0.0000000000000000e+00  9.4888897963993192e-14 -2.2368421052627944e+01 0.0000000000000000e+00  4.7784033295976944e-14 -2.2368421052627916e+01 0.0000000000000000e+00  3.2355623065705646e-30 -2.2368421052627902e+01 0.0000000000000000e+00  -9.3028410834070961e-30 -2.3859649122804395e+01 0.0000000000000000e+00  5.8468776428081159e-14 -2.3859649122804392e+01 0.0000000000000000e+00  1.2620921631874049e-13 -2.3859649122804367e+01 0.0000000000000000e+00  1.6650431711618310e-13 -2.3859649122804321e+01 0.0000000000000000e+00  1.8645276910038749e-13 -2.3859649122804296e+01 0.0000000000000000e+00  2.0958874275522320e-13 -2.3859649122804225e+01 0.0000000000000000e+00  2.4225572623822685e-13 -2.3859649122804065e+01 0.0000000000000000e+00  2.5103970243248987e-13 -2.3859649122803884e+01 0.0000000000000000e+00  2.4868788228541835e-13 -2.3859649122803713e+01 0.0000000000000000e+00  2.4786818006092680e-13 -2.3859649122803585e+01 0.0000000000000000e+00  2.1529306814841863e-13 -2.3859649122803493e+01 0.0000000000000000e+00  1.8707406802137379e-13 -2.3859649122803344e+01 0.0000000000000000e+00  1.4248885433949751e-13 -2.3859649122803269e+01 0.0000000000000000e+00  9.6391771403132696e-14 -2.3859649122803184e+01 0.0000000000000000e+00  4.9452709490861155e-14 -2.3859649122803120e+01 0.0000000000000000e+00  1.3659587060068409e-30 -2.3859649122803098e+01 0.0000000000000000e+00  7.3955709864469913e-30 -2.5350877192979699e+01 0.0000000000000000e+00  6.0530020549419777e-14 -2.5350877192979659e+01 0.0000000000000000e+00  1.3309384684898104e-13 -2.5350877192979688e+01 0.0000000000000000e+00  1.7214821197247547e-13 -2.5350877192979585e+01 0.0000000000000000e+00  1.9576405127760720e-13 -2.5350877192979542e+01 0.0000000000000000e+00  2.1392780768119949e-13 -2.5350877192979510e+01 0.0000000000000000e+00  2.3239456094706724e-13 -2.5350877192979322e+01 0.0000000000000000e+00  2.4267201749140715e-13 -2.5350877192979123e+01 0