<?xml version="1.0"?>
<VTKFile type="UnstructuredGrid"  version="0.1"  >
<UnstructuredGrid>
<Piece  NumberOfPoints="1411" NumberOfCells="2700">
<Points>
<DataArray  type="Float64"  NumberOfComponents="3"  format="ascii">-0.75 -4.5 0  -0.65 -4.5 0  -0.55 -4.5 0  -0.45 -4.5 0  -0.35 -4.5 0  -0.25 -4.5 0  -0.15 -4.5 0  -0.05000000000000004 -4.5 0  0.05000000000000004 -4.5 0  0.15 -4.5 0  0.25 -4.5 0  0.3500000000000001 -4.5 0  0.45 -4.5 0  0.55 -4.5 0  0.6499999999999999 -4.5 0  0.75 -4.5 0  -0.75 -4.4 0  -0.65 -4.4 0  -0.55 -4.4 0  -0.45 -4.4 0  -0.35 -4.4 0  -0.25 -4.4 0  -0.15 -4.4 0  -0.05000000000000004 -4.4 0  0.05000000000000004 -4.4 0  0.15 -4.4 0  0.25 -4.4 0  0.3500000000000001 -4.4 0  0.45 -4.4 0  0.55 -4.4 0  0.6499999999999999 -4.4 0  0.75 -4.4 0  -0.75 -4.3 0  -0.65 -4.3 0  -0.55 -4.3 0  -0.45 -4.3 0  -0.35 -4.3 0  -0.25 -4.3 0  -0.15 -4.3 0  -0.05000000000000004 -4.3 0  0.05000000000000004 -4.3 0  0.15 -4.3 0  0.25 -4.3 0  0.3500000000000001 -4.3 0  0.45 -4.3 0  0.55 -4.3 0  0.6499999999999999 -4.3 0  0.75 -4.3 0  -0.75 -4.2 0  -0.65 -4.2 0  -0.55 -4.2 0  -0.45 -4.2 0  -0.35 -4.2 0  -0.25 -4.2 0  -0.15 -4.2 0  -0.05000000000000004 -4.2 0  0.05000000000000004 -4.2 0  0.15 -4.2 0  0.25 -4.2 0  0.3500000000000001 -4.2 0  0.45 -4.2 0  0.55 -4.2 0  0.6499999999999999 -4.2 0  0.75 -4.2 0  -0.75 -4.1 0  -0.65 -4.1 0  -0.55 -4.1 0  -0.45 -4.1 0  -0.35 -4.1 0  -0.25 -4.1 0  -0.15 -4.1 0  -0.05000000000000004 -4.1 0  0.05000000000000004 -4.1 0  0.15 -4.1 0  0.25 -4.1 0  0.3500000000000001 -4.1 0  0.45 -4.1 0  0.55 -4.1 0  0.6499999999999999 -4.1 0  0.75 -4.1 0  -0.75 -4 0  -0.65 -4 0  -0.55 -4 0  -0.45 -4 0  -0.35 -4 0  -0.25 -4 0  -0.15 -4 0  -0.05000000000000004 -4 0  0.05000000000000004 -4 0  0.15 -4 0  0.25 -4 0  0.3500000000000001 -4 0  0.45 -4 0  0.55 -4 0  0.6499999999999999 -4 0  0.75 -4 0  -0.75 -3.9 0  -0.65 -3.9 0  -0.55 -3.9 0  -0.45 -3.9 0  -0.35 -3.9 0  -0.25 -3.9 0  -0.15 -3.9 0  -0.05000000000000004 -3.9 0  0.05000000000000004 -3.9 0  0.15 -3.9 0  0.25 -3.9 0  0.3500000000000001 -3.9 0  0.45 -3.9 0  0.55 -3.9 0  0.6499999999999999 -3.9 0  0.75 -3.9 0  -0.75 -3.8 0  -0.65 -3.8 0  -0.55 -3.8 0  -0.45 -3.8 0  -0.35 -3.8 0  -0.25 -3.8 0  -0.15 -3.8 0  -0.05000000000000004 -3.8 0  0.05000000000000004 -3.8 0  0.15 -3.8 0  0.25 -3.8 0  0.3500000000000001 -3.8 0  0.45 -3.8 0  0.55 -3.8 0  0.6499999999999999 -3.8 0  0.75 -3.8 0  -0.75 -3.7 0  -0.65 -3.7 0  -0.55 -3.7 0  -0.45 -3.7 0  -0.35 -3.7 0  -0.25 -3.7 0  -0.15 -3.7 0  -0.05000000000000004 -3.7 0  0.05000000000000004 -3.7 0  0.15 -3.7 0  0.25 -3.7 0  0.3500000000000001 -3.7 0  0.45 -3.7 0  0.55 -3.7 0  0.6499999999999999 -3.7 0  0.75 -3.7 0  -0.75 -3.6 0  -0.65 -3.6 0  -0.55 -3.6 0  -0.45 -3.6 0  -0.35 -3.6 0  -0.25 -3.6 0  -0.15 -3.6 0  -0.05000000000000004 -3.6 0  0.05000000000000004 -3.6 0  0.15 -3.6 0  0.25 -3.6 0  0.3500000000000001 -3.6 0  0.45 -3.6 0  0.55 -3.6 0  0.6499999999999999 -3.6 0  0.75 -3.6 0  -0.75 -3.5 0  -0.65 -3.5 0  -0.55 -3.5 0  -0.45 -3.5 0  -0.35 -3.5 0  -0.25 -3.5 0  -0.15 -3.5 0  -0.05000000000000004 -3.5 0  0.05000000000000004 -3.5 0  0.15 -3.5 0  0.25 -3.5 0  0.3500000000000001 -3.5 0  0.45 -3.5 0  0.55 -3.5 0  0.6499999999999999 -3.5 0  0.75 -3.5 0  -0.75 -3.4 0  -0.65 -3.4 0  -0.55 -3.4 0  -0.45 -3.4 0  -0.35 -3.4 0  -0.25 -3.4 0  -0.15 -3.4 0  -0.05000000000000004 -3.4 0  0.05000000000000004 -3.4 0  0.15 -3.4 0  0.25 -3.4 0  0.3500000000000001 -3.4 0  0.45 -3.4 0  0.55 -3.4 0  0.6499999999999999 -3.4 0  0.75 -3.4 0  -0.75 -3.3 0  -0.65 -3.3 0  -0.55 -3.3 0  -0.45 -3.3 0  -0.35 -3.3 0  -0.25 -3.3 0  -0.15 -3.3 0  -0.05000000000000004 -3.3 0  0.05000000000000004 -3.3 0  0.15 -3.3 0  0.25 -3.3 0  0.3500000000000001 -3.3 0  0.45 -3.3 0  0.55 -3.3 0  0.6499999999999999 -3.3 0  0.75 -3.3 0  -0.75 -3.2 0  -0.65 -3.2 0  -0.55 -3.2 0  -0.45 -3.2 0  -0.35 -3.2 0  -0.25 -3.2 0  -0.15 -3.2 0  -0.05000000000000004 -3.2 0  0.05000000000000004 -3.2 0  0.15 -3.2 0  0.25 -3.2 0  0.3500000000000001 -3.2 0  0.45 -3.2 0  0.55 -3.2 0  0.6499999999999999 -3.2 0  0.75 -3.2 0  -0.75 -3.1 0  -0.65 -3.1 0  -0.55 -3.1 0  -0.45 -3.1 0  -0.35 -3.1 0  -0.25 -3.1 0  -0.15 -3.1 0  -0.05000000000000004 -3.1 0  0.05000000000000004 -3.1 0  0.15 -3.1 0  0.25 -3.1 0  0.3500000000000001 -3.1 0  0.45 -3.1 0  0.55 -3.1 0  0.6499999999999999 -3.1 0  0.75 -3.1 0  -0.75 -3 0  -0.65 -3 0  -0.55 -3 0  -0.45 -3 0  -0.35 -3 0  -0.25 -3 0  -0.15 -3 0  -0.05000000000000004 -3 0  0.05000000000000004 -3 0  0.15 -3 0  0.25 -3 0  0.3500000000000001 -3 0  0.45 -3 0  0.55 -3 0  0.6499999999999999 -3 0  0.75 -3 0  -0.75 -2.9 0  -0.65 -2.9 0  -0.55 -2.9 0  -0.45 -2.9 0  -0.35 -2.9 0  -0.25 -2.9 0  -0.15 -2.9 0  -0.05000000000000004 -2.9 0  0.05000000000000004 -2.9 0  0.15 -2.9 0  0.25 -2.9 0  0.3500000000000001 -2.9 0  0.45 -2.9 0  0.55 -2.9 0  0.6499999999999999 -2.9 0  0.75 -2.9 0  -0.75 -2.8 0  -0.65 -2.8 0  -0.55 -2.8 0  -0.45 -2.8 0  -0.35 -2.8 0  -0.25 -2.8 0  -0.15 -2.8 0  -0.05000000000000004 -2.8 0  0.05000000000000004 -2.8 0  0.15 -2.8 0  0.25 -2.8 0  0.3500000000000001 -2.8 0  0.45 -2.8 0  0.55 -2.8 0  0.6499999999999999 -2.8 0  0.75 -2.8 0  -0.75 -2.7 0  -0.65 -2.7 0  -0.55 -2.7 0  -0.45 -2.7 0  -0.35 -2.7 0  -0.25 -2.7 0  -0.15 -2.7 0  -0.05000000000000004 -2.7 0  0.05000000000000004 -2.7 0  0.15 -2.7 0  0.25 -2.7 0  0.3500000000000001 -2.7 0  0.45 -2.7 0  0.55 -2.7 0  0.6499999999999999 -2.7 0  0.75 -2.7 0  -0.75 -2.6 0  -0.65 -2.6 0  -0.55 -2.6 0  -0.45 -2.6 0  -0.35 -2.6 0  -0.25 -2.6 0  -0.15 -2.6 0  -0.05000000000000004 -2.6 0  0.05000000000000004 -2.6 0  0.15 -2.6 0  0.25 -2.6 0  0.3500000000000001 -2.6 0  0.45 -2.6 0  0.55 -2.6 0  0.6499999999999999 -2.6 0  0.75 -2.6 0  -0.75 -2.5 0  -0.65 -2.5 0  -0.55 -2.5 0  -0.45 -2.5 0  -0.35 -2.5 0  -0.25 -2.5 0  -0.15 -2.5 0  -0.05000000000000004 -2.5 0  0.05000000000000004 -2.5 0  0.15 -2.5 0  0.25 -2.5 0  0.3500000000000001 -2.5 0  0.45 -2.5 0  0.55 -2.5 0  0.6499999999999999 -2.5 0  0.75 -2.5 0  -0.75 -2.4 0  -0.65 -2.4 0  -0.55 -2.4 0  -0.45 -2.4 0  -0.35 -2.4 0  -0.25 -2.4 0  -0.15 -2.4 0  -0.05000000000000004 -2.4 0  0.05000000000000004 -2.4 0  0.15 -2.4 0  0.25 -2.4 0  0.3500000000000001 -2.4 0  0.45 -2.4 0  0.55 -2.4 0  0.6499999999999999 -2.4 0  0.75 -2.4 0  -0.75 -2.3 0  -0.65 -2.3 0  -0.55 -2.3 0  -0.45 -2.3 0  -0.35 -2.3 0  -0.25 -2.3 0  -0.15 -2.3 0  -0.05000000000000004 -2.3 0  0.05000000000000004 -2.3 0  0.15 -2.3 0  0.25 -2.3 0  0.3500000000000001 -2.3 0  0.45 -2.3 0  0.55 -2.3 0  0.6499999999999999 -2.3 0  0.75 -2.3 0  -0.75 -2.2 0  -0.65 -2.2 0  -0.55 -2.2 0  -0.45 -2.2 0  -0.35 -2.2 0  -0.25 -2.2 0  -0.15 -2.2 0  -0.05000000000000004 -2.2 0  0.05000000000000004 -2.2 0  0.15 -2.2 0  0.25 -2.2 0  0.3500000000000001 -2.2 0  0.45 -2.2 0  0.55 -2.2 0  0.6499999999999999 -2.2 0  0.75 -2.2 0  -0.75 -2.1 0  -0.65 -2.1 0  -0.55 -2.1 0  -0.45 -2.1 0  -0.35 -2.1 0  -0.25 -2.1 0  -0.15 -2.1 0  -0.05000000000000004 -2.1 0  0.05000000000000004 -2.1 0  0.15 -2.1 0  0.25 -2.1 0  0.3500000000000001 -2.1 0  0.45 -2.1 0  0.55 -2.1 0  0.6499999999999999 -2.1 0  0.75 -2.1 0  -0.75 -2 0  -0.65 -2 0  -0.55 -2 0  -0.45 -2 0  -0.35 -2 0  -0.25 -2 0  -0.15 -2 0  -0.05000000000000004 -2 0  0.05000000000000004 -2 0  0.15 -2 0  0.25 -2 0  0.3500000000000001 -2 0  0.45 -2 0  0.55 -2 0  0.6499999999999999 -2 0  0.75 -2 0  -0.75 -1.9 0  -0.65 -1.9 0  -0.55 -1.9 0  -0.45 -1.9 0  -0.35 -1.9 0  -0.25 -1.9 0  -0.15 -1.9 0  -0.05000000000000004 -1.9 0  0.05000000000000004 -1.9 0  0.15 -1.9 0  0.25 -1.9 0  0.3500000000000001 -1.9 0  0.45 -1.9 0  0.55 -1.9 0  0.6499999999999999 -1.9 0  0.75 -1.9 0  -0.75 -1.8 0  -0.65 -1.8 0  -0.55 -1.8 0  -0.45 -1.8 0  -0.35 -1.8 0  -0.25 -1.8 0  -0.15 -1.8 0  -0.05000000000000004 -1.8 0  0.05000000000000004 -1.8 0  0.15 -1.8 0  0.25 -1.8 0  0.3500000000000001 -1.8 0  0.45 -1.8 0  0.55 -1.8 0  0.6499999999999999 -1.8 0  0.75 -1.8 0  -0.75 -1.7 0  -0.65 -1.7 0  -0.55 -1.7 0  -0.45 -1.7 0  -0.35 -1.7 0  -0.25 -1.7 0  -0.15 -1.7 0  -0.05000000000000004 -1.7 0  0.05000000000000004 -1.7 0  0.15 -1.7 0  0.25 -1.7 0  0.3500000000000001 -1.7 0  0.45 -1.7 0  0.55 -1.7 0  0.6499999999999999 -1.7 0  0.75 -1.7 0  -0.75 -1.6 0  -0.65 -1.6 0  -0.55 -1.6 0  -0.45 -1.6 0  -0.35 -1.6 0  -0.25 -1.6 0  -0.15 -1.6 0  -0.05000000000000004 -1.6 0  0.05000000000000004 -1.6 0  0.15 -1.6 0  0.25 -1.6 0  0.3500000000000001 -1.6 0  0.45 -1.6 0  0.55 -1.6 0  0.6499999999999999 -1.6 0  0.75 -1.6 0  -0.75 -1.5 0  -0.65 -1.5 0  -0.55 -1.5 0  -0.45 -1.5 0  -0.35 -1.5 0  -0.25 -1.5 0  -0.15 -1.5 0  -0.05000000000000004 -1.5 0  0.05000000000000004 -1.5 0  0.15 -1.5 0  0.25 -1.5 0  0.3500000000000001 -1.5 0  0.45 -1.5 0  0.55 -1.5 0  0.6499999999999999 -1.5 0  0.75 -1.5 0  -0.75 -1.4 0  -0.65 -1.4 0  -0.55 -1.4 0  -0.45 -1.4 0  -0.35 -1.4 0  -0.25 -1.4 0  -0.15 -1.4 0  -0.05000000000000004 -1.4 0  0.05000000000000004 -1.4 0  0.15 -1.4 0  0.25 -1.4 0  0.3500000000000001 -1.4 0  0.45 -1.4 0  0.55 -1.4 0  0.6499999999999999 -1.4 0  0.75 -1.4 0  -0.75 -1.3 0  -0.65 -1.3 0  -0.55 -1.3 0  -0.45 -1.3 0  -0.35 -1.3 0  -0.25 -1.3 0  -0.15 -1.3 0  -0.05000000000000004 -1.3 0  0.05000000000000004 -1.3 0  0.15 -1.3 0  0.25 -1.3 0  0.3500000000000001 -1.3 0  0.45 -1.3 0  0.55 -1.3 0  0.6499999999999999 -1.3 0  0.75 -1.3 0  -0.75 -1.2 0  -0.65 -1.2 0  -0.55 -1.2 0  -0.45 -1.2 0  -0.35 -1.2 0  -0.25 -1.2 0  -0.15 -1.2 0  -0.05000000000000004 -1.2 0  0.05000000000000004 -1.2 0  0.15 -1.2 0  0.25 -1.2 0  0.3500000000000001 -1.2 0  0.45 -1.2 0  0.55 -1.2 0  0.6499999999999999 -1.2 0  0.75 -1.2 0  -0.75 -1.1 0  -0.65 -1.1 0  -0.55 -1.1 0  -0.45 -1.1 0  -0.35 -1.1 0  -0.25 -1.1 0  -0.15 -1.1 0  -0.05000000000000004 -1.1 0  0.05000000000000004 -1.1 0  0.15 -1.1 0  0.25 -1.1 0  0.3500000000000001 -1.1 0  0.45 -1.1 0  0.55 -1.1 0  0.6499999999999999 -1.1 0  0.75 -1.1 0  -0.75 -1 0  -0.65 -1 0  -0.55 -1 0  -0.45 -1 0  -0.35 -1 0  -0.25 -1 0  -0.15 -1 0  -0.05000000000000004 -1 0  0.05000000000000004 -1 0  0.15 -1 0  0.25 -1 0  0.3500000000000001 -1 0  0.45 -1 0  0.55 -1 0  0.6499999999999999 -1 0  0.75 -1 0  -0.75 -0.8999999999999999 0  -0.65 -0.899999
[...]
<PointData  Vectors="displacement"> 
<DataArray  type="Float64"  Name="displacement"  NumberOfComponents="3" format="ascii">3.5264830524668959e-36 -3.9704669402545441e-21 0.0000000000000000e+00  -1.0533334177773046e-35 2.9209757208636539e-21 0.0000000000000000e+00  -3.5264830524668743e-35 -2.9778502051909098e-21 0.0000000000000000e+00  8.8390230122439380e-36 -1.0901335744653962e-20 0.0000000000000000e+00  -5.6423728839469982e-35 3.4741585727227275e-21 0.0000000000000000e+00  -1.0676320840030382e-34 -1.7898220437340975e-20 0.0000000000000000e+00  -7.0529661049337504e-36 4.4667753077863652e-21 0.0000000000000000e+00  -1.8793106430173008e-34 -6.0371260019300082e-21 0.0000000000000000e+00  7.0529661049337478e-36 2.4815418376590909e-21 0.0000000000000000e+00  -1.4196732189799484e-35 -9.8640963263968378e-22 0.0000000000000000e+00  -4.2317796629602463e-35 -6.9483171454454505e-21 0.0000000000000000e+00  -1.7615196106804761e-35 1.2041778702468785e-21 0.0000000000000000e+00  -6.3476694944403729e-35 -3.9704669402545456e-21 0.0000000000000000e+00  7.3174523338687601e-35 1.2779940463944314e-20 0.0000000000000000e+00  -6.3476694944403793e-35 9.9261673506363735e-22 0.0000000000000000e+00  3.1738347472201843e-35 0.0000000000000000e+00 0.0000000000000000e+00  1.4105932209867399e-35 -6.2108646614094322e-05 0.0000000000000000e+00  -1.6942571087657327e-19 -6.2108646614094404e-05 0.0000000000000000e+00  -3.1370549752442128e-19 -6.2108646614094431e-05 0.0000000000000000e+00  -4.5050587545052023e-19 -6.2108646614094390e-05 0.0000000000000000e+00  -5.7081631882628833e-19 -6.2108646614094417e-05 0.0000000000000000e+00  -6.7839692570897784e-19 -6.2108646614094363e-05 0.0000000000000000e+00  -7.5381671043349049e-19 -6.2108646614094431e-05 0.0000000000000000e+00  -8.4393465040441914e-19 -6.2108646614094417e-05 0.0000000000000000e+00  -8.4208162983774482e-19 -6.2108646614094390e-05 0.0000000000000000e+00  -8.5666607197946170e-19 -6.2108646614094431e-05 0.0000000000000000e+00  -8.3190293013359413e-19 -6.2108646614094485e-05 0.0000000000000000e+00  -6.9729892269127012e-19 -6.2108646614094634e-05 0.0000000000000000e+00  -6.0036197812733598e-19 -6.2108646614094715e-05 0.0000000000000000e+00  -4.6024363122046854e-19 -6.2108646614094837e-05 0.0000000000000000e+00  -2.4203258996684137e-19 -6.2108646614094973e-05 0.0000000000000000e+00  -1.6715092160261837e-36 -6.2108646614094946e-05 0.0000000000000000e+00  -3.1738347472201784e-35 -1.2424751789388800e-04 0.0000000000000000e+00  -3.0409422841300651e-19 -1.2424751789388814e-04 0.0000000000000000e+00  -5.7523103722988310e-19 -1.2424751789388819e-04 0.0000000000000000e+00  -7.9399370097462997e-19 -1.2424751789388836e-04 0.0000000000000000e+00  -1.0223368080629370e-18 -1.2424751789388817e-04 0.0000000000000000e+00  -1.1539706982168206e-18 -1.2424751789388838e-04 0.0000000000000000e+00  -1.3253123900935114e-18 -1.2424751789388814e-04 0.0000000000000000e+00  -1.4669499896029461e-18 -1.2424751789388841e-04 0.0000000000000000e+00  -1.5267005432957548e-18 -1.2424751789388836e-04 0.0000000000000000e+00  -1.5554145903000713e-18 -1.2424751789388838e-04 0.0000000000000000e+00  -1.4136823390051212e-18 -1.2424751789388857e-04 0.0000000000000000e+00  -1.2355358145682880e-18 -1.2424751789388879e-04 0.0000000000000000e+00  -1.0601049018117089e-18 -1.2424751789388906e-04 0.0000000000000000e+00  -7.6007771482017977e-19 -1.2424751789388933e-04 0.0000000000000000e+00  -3.9779768251701390e-19 -1.2424751789388958e-04 0.0000000000000000e+00  2.3004791787576812e-35 -1.2424751789388949e-04 0.0000000000000000e+00  -7.5819385628037598e-35 -1.8644676348491564e-04 0.0000000000000000e+00  -4.3446965637405166e-19 -1.8644676348491586e-04 0.0000000000000000e+00  -7.5710868533500273e-19 -1.8644676348491594e-04 0.0000000000000000e+00  -1.0959106634690265e-18 -1.8644676348491586e-04 0.0000000000000000e+00  -1.3821769121822261e-18 -1.8644676348491599e-04 0.0000000000000000e+00  -1.6429371760163311e-18 -1.8644676348491605e-04 0.0000000000000000e+00  -1.8221400725361853e-18 -1.8644676348491621e-04 0.0000000000000000e+00  -1.9219719631622554e-18 -1.8644676348491624e-04 0.0000000000000000e+00  -2.0115958196546059e-18 -1.8644676348491618e-04 0.0000000000000000e+00  -1.9154142997679359e-18 -1.8644676348491634e-04 0.0000000000000000e+00  -1.8228157538200459e-18 -1.8644676348491659e-04 0.0000000000000000e+00  -1.6699799341370879e-18 -1.8644676348491683e-04 0.0000000000000000e+00  -1.4010765876518647e-18 -1.8644676348491732e-04 0.0000000000000000e+00  -9.5526989463997327e-19 -1.8644676348491789e-04 0.0000000000000000e+00  -4.9853770341341773e-19 -1.8644676348491835e-04 0.0000000000000000e+00  -1.6121065382705667e-35 -1.8644676348491821e-04 0.0000000000000000e+00  3.5264830524668497e-35 -2.4873638317858516e-04 0.0000000000000000e+00  -4.7088149596172185e-19 -2.4873638317858527e-04 0.0000000000000000e+00  -1.0217381235264296e-18 -2.4873638317858543e-04 0.0000000000000000e+00  -1.4442274515568881e-18 -2.4873638317858559e-04 0.0000000000000000e+00  -1.7892181401535268e-18 -2.4873638317858549e-04 0.0000000000000000e+00  -2.0297631131444204e-18 -2.4873638317858570e-04 0.0000000000000000e+00  -2.2375198746552654e-18 -2.4873638317858576e-04 0.0000000000000000e+00  -2.3916889022742557e-18 -2.4873638317858576e-04 0.0000000000000000e+00  -2.3518724765509868e-18 -2.4873638317858619e-04 0.0000000000000000e+00  -2.3444174848231377e-18 -2.4873638317858592e-04 0.0000000000000000e+00  -2.2689062639313386e-18 -2.4873638317858614e-04 0.0000000000000000e+00  -2.0042095679645637e-18 -2.4873638317858700e-04 0.0000000000000000e+00  -1.5317923336478005e-18 -2.4873638317858787e-04 0.0000000000000000e+00  -1.0569302889971757e-18 -2.4873638317858830e-04 0.0000000000000000e+00  -5.4202208287904243e-19 -2.4873638317858868e-04 0.0000000000000000e+00  2.8211864419734788e-35 -2.4873638317858890e-04 0.0000000000000000e+00  5.1001413670947907e-35 -3.1114615245014072e-04 0.0000000000000000e+00  -5.9264378632974749e-19 -3.1114615245014056e-04 0.0000000000000000e+00  -1.2228805900662463e-18 -3.1114615245014099e-04 0.0000000000000000e+00  -1.7844893298729253e-18 -3.1114615245014104e-04 0.0000000000000000e+00  -2.1346448891260783e-18 -3.1114615245014104e-04 0.0000000000000000e+00  -2.3106362530533534e-18 -3.1114615245014159e-04 0.0000000000000000e+00  -2.5050894684281799e-18 -3.1114615245014153e-04 0.0000000000000000e+00  -2.6724156861264939e-18 -3.1114615245014170e-04 0.0000000000000000e+00  -2.7987750521267565e-18 -3.1114615245014164e-04 0.0000000000000000e+00  -2.6678727790188324e-18 -3.1114615245014251e-04 0.0000000000000000e+00  -2.5483542107075881e-18 -3.1114615245014229e-04 0.0000000000000000e+00  -2.2046729656041873e-18 -3.1114615245014332e-04 0.0000000000000000e+00  -1.7174991906530027e-18 -3.1114615245014441e-04 0.0000000000000000e+00  -1.1773287103516771e-18 -3.1114615245014479e-04 0.0000000000000000e+00  -5.4808318384110338e-19 -3.1114615245014554e-04 0.0000000000000000e+00  2.8576419543916480e-35 -3.1114615245014538e-04 0.0000000000000000e+00  -7.0529661049337157e-36 -3.7370554855338127e-04 0.0000000000000000e+00  -7.4331850779413645e-19 -3.7370554855338159e-04 0.0000000000000000e+00  -1.4758703461171576e-18 -3.7370554855338154e-04 0.0000000000000000e+00  -2.0839619847222794e-18 -3.7370554855338181e-04 0.0000000000000000e+00  -2.3985652854515821e-18 -3.7370554855338246e-04 0.0000000000000000e+00  -2.5808861072116333e-18 -3.7370554855338224e-04 0.0000000000000000e+00  -2.7901827525840933e-18 -3.7370554855338246e-04 0.0000000000000000e+00  -2.9626140262102129e-18 -3.7370554855338235e-04 0.0000000000000000e+00  -3.1008240869806943e-18 -3.7370554855338273e-04 0.0000000000000000e+00  -3.0599832159266161e-18 -3.7370554855338333e-04 0.0000000000000000e+00  -2.8325562838965385e-18 -3.7370554855338354e-04 0.0000000000000000e+00  -2.4327765191709784e-18 -3.7370554855338495e-04 0.0000000000000000e+00  -1.9460400296599182e-18 -3.7370554855338615e-04 0.0000000000000000e+00  -1.3003745529585124e-18 -3.7370554855338729e-04 0.0000000000000000e+00  -6.0524641146573143e-19 -3.7370554855338723e-04 0.0000000000000000e+00  -5.1037717385414416e-36 -3.7370554855338680e-04 0.0000000000000000e+00  3.1634628166387697e-34 -4.3644367735555056e-04 0.0000000000000000e+00  -8.4996795452112373e-19 -4.3644367735555018e-04 0.0000000000000000e+00  -1.5707217109457611e-18 -4.3644367735555149e-04 0.0000000000000000e+00  -2.1636878948547857e-18 -4.3644367735555100e-04 0.0000000000000000e+00  -2.6214235853353842e-18 -4.3644367735555208e-04 0.0000000000000000e+00  -2.9368558369857609e-18 -4.3644367735555219e-04 0.0000000000000000e+00  -3.0896268614142913e-18 -4.3644367735555230e-04 0.0000000000000000e+00  -3.2396201267224663e-18 -4.3644367735555208e-04 0.0000000000000000e+00  -3.2663156525751876e-18 -4.3644367735555252e-04 0.0000000000000000e+00  -3.2817411000854147e-18 -4.3644367735555257e-04 0.0000000000000000e+00  -3.0083932493877784e-18 -4.3644367735555349e-04 0.0000000000000000e+00  -2.5622536465636145e-18 -4.3644367735555496e-04 0.0000000000000000e+00  -1.9997268961154869e-18 -4.3644367735555615e-04 0.0000000000000000e+00  -1.2917372465754365e-18 -4.3644367735555734e-04 0.0000000000000000e+00  -6.4689328807173396e-19 -4.3644367735555761e-04 0.0000000000000000e+00  1.2997608964806429e-34 -4.3644367735555756e-04 0.0000000000000000e+00  -6.3476694944403515e-35 -4.9938920109400282e-04 0.0000000000000000e+00  -7.8601374151372984e-19 -4.9938920109400271e-04 0.0000000000000000e+00  -1.5615799889852465e-18 -4.9938920109400303e-04 0.0000000000000000e+00  -2.2683562360514073e-18 -4.9938920109400379e-04 0.0000000000000000e+00  -2.8604204040060643e-18 -4.9938920109400423e-04 0.0000000000000000e+00  -3.1791738732734584e-18 -4.9938920109400499e-04 0.0000000000000000e+00  -3.3690129428050142e-18 -4.9938920109400412e-04 0.0000000000000000e+00  -3.4963550835619069e-18 -4.9938920109400412e-04 0.0000000000000000e+00  -3.4896657919813040e-18 -4.9938920109400455e-04 0.0000000000000000e+00  -3.3830584038074564e-18 -4.9938920109400499e-04 0.0000000000000000e+00  -3.2032478701325152e-18 -4.9938920109400640e-04 0.0000000000000000e+00  -2.6764170554137342e-18 -4.9938920109400748e-04 0.0000000000000000e+00  -2.0431344353963217e-18 -4.9938920109400889e-04 0.0000000000000000e+00  -1.3512492707914359e-18 -4.9938920109401073e-04 0.0000000000000000e+00  -7.1784746819728211e-19 -4.9938920109401062e-04 0.0000000000000000e+00  -4.2317796629602334e-35 -4.9938920109401062e-04 0.0000000000000000e+00  5.7091764322443917e-35 -5.6257026723395066e-04 0.0000000000000000e+00  -7.8645621106236102e-19 -5.6257026723395076e-04 0.0000000000000000e+00  -1.6227923985506650e-18 -5.6257026723395131e-04 0.0000000000000000e+00  -2.3998619648428471e-18 -5.6257026723395174e-04 0.0000000000000000e+00  -2.9127343375346062e-18 -5.6257026723395304e-04 0.0000000000000000e+00  -3.4249910438384877e-18 -5.6257026723395315e-04 0.0000000000000000e+00  -3.7604446407381329e-18 -5.6257026723395293e-04 0.0000000000000000e+00  -3.8114672444626852e-18 -5.6257026723395250e-04 0.0000000000000000e+00  -3.6875381467199622e-18 -5.6257026723395261e-04 0.0000000000000000e+00  -3.6893327746577303e-18 -5.6257026723395261e-04 0.0000000000000000e+00  -3.3851273887686197e-18 -5.6257026723395510e-04 0.0000000000000000e+00  -2.7682663771846595e-18 -5.6257026723395640e-04 0.0000000000000000e+00  -2.0983557034154848e-18 -5.6257026723395824e-04 0.0000000000000000e+00  -1.5632792833214792e-18 -5.6257026723395955e-04 0.0000000000000000e+00  -8.5216388022704271e-19 -5.6257026723395998e-04 0.0000000000000000e+00  2.5264557493496372e-35 -5.6257026723395976e-04 0.0000000000000000e+00  -2.8211864419734922e-35 -6.2601443860387158e-04 0.0000000000000000e+00  -9.3813953460262558e-19 -6.2601443860387158e-04 0.0000000000000000e+00  -1.7799487101762378e-18 -6.2601443860387115e-04 0.0000000000000000e+00  -2.4733842154674331e-18 -6.2601443860387331e-04 0.0000000000000000e+00  -3.1013653326432192e-18 -6.2601443860387407e-04 0.0000000000000000e+00  -3.5472404685260640e-18 -6.2601443860387375e-04 0.0000000000000000e+00  -3.8523584985000741e-18 -6.2601443860387440e-04 0.0000000000000000e+00  -3.9726728561268037e-18 -6.2601443860387407e-04 0.0000000000000000e+00  -3.9526760912236647e-18 -6.2601443860387375e-04 0.0000000000000000e+00  -3.7818088966275141e-18 -6.2601443860387483e-04 0.0000000000000000e+00  -3.4520880440582883e-18 -6.2601443860387635e-04 0.0000000000000000e+00  -2.9197639852475356e-18 -6.2601443860387819e-04 0.0000000000000000e+00  -2.3604506422709496e-18 -6.2601443860387982e-04 0.0000000000000000e+00  -1.7619036505856814e-18 -6.2601443860388047e-04 0.0000000000000000e+00  -9.8779518281959175e-19 -6.2601443860388188e-04 0.0000000000000000e+00  -1.5622075397080532e-34 -6.2601443860388155e-04 0.0000000000000000e+00  1.2959888369699187e-34 -6.8974862498197688e-04 0.0000000000000000e+00  -9.9891418054272719e-19 -6.8974862498197677e-04 0.0000000000000000e+00  -1.8631404984529679e-18 -6.8974862498197753e-04 0.0000000000000000e+00  -2.5036501184117710e-18 -6.8974862498197883e-04 0.0000000000000000e+00  -3.0377438146334542e-18 -6.8974862498197916e-04 0.0000000000000000e+00  -3.5775380107695941e-18 -6.8974862498198024e-04 0.0000000000000000e+00  -3.8214857639806279e-18 -6.8974862498197992e-04 0.0000000000000000e+00  -4.0469915660203343e-18 -6.8974862498197927e-04 0.0000000000000000e+00  -4.1646924975217500e-18 -6.8974862498197992e-04 0.0000000000000000e+00  -3.7041120635570106e-18 -6.8974862498197959e-04 0.0000000000000000e+00  -3.1919776480867690e-18 -6.8974862498198263e-04 0.0000000000000000e+00  -2.9375751428553860e-18 -6.8974862498198458e-04 0.0000000000000000e+00  -2.4536491687450781e-18 -6.8974862498198566e-04 0.0000000000000000e+00  -1.7748605219218642e-18 -6.8974862498198707e-04 0.0000000000000000e+00  -8.6142465878638314e-19 -6.8974862498198805e-04 0.0000000000000000e+00  7.0529661049337144e-35 -6.8974862498198805e-04 0.0000000000000000e+00  -2.1864194925294543e-34 -7.5379901630355582e-04 0.0000000000000000e+00  -1.0480550272190241e-18 -7.5379901630355452e-04 0.0000000000000000e+00  -1.8705295262344037e-18 -7.5379901630355615e-04 0.0000000000000000e+00  -2.4760765823056151e-18 -7.5379901630355777e-04 0.0000000000000000e+00  -2.9821552140566007e-18 -7.5379901630355853e-04 0.0000000000000000e+00  -3.5537855821814704e-18 -7.5379901630355929e-04 0.0000000000000000e+00  -3.8360039753790316e-18 -7.5379901630355907e-04 0.0000000000000000e+00  -4.0203890111718841e-18 -7.5379901630355853e-04 0.0000000000000000e+00  -4.1522505755008066e-18 -7.5379901630355918e-04 0.0000000000000000e+00  -3.8400396628790466e-18 -7.5379901630356016e-04 0.0000000000000000e+00  -3.3803968036893465e-18 -7.5379901630356124e-04 0.0000000000000000e+00  -2.9997733811569828e-18 -7.5379901630356395e-04 0.0000000000000000e+00  -2.3645285550875240e-18 -7.5379901630356525e-04 0.0000000000000000e+00  -1.3782742562072646e-18 -7.5379901630356645e-04 0.0000000000000000e+00  -6.2886486075964759e-19 -7.5379901630356775e-04 0.0000000000000000e+00  0.0000000000000000e+00 -7.5379901630356764e-04 0.0000000000000000e+00  2.1160680932870044e-34 -8.1819101765496843e-04 0.0000000000000000e+00  -8.5281157875929218e-19 -8.1819101765496821e-04 0.0000000000000000e+00  -1.5998131308318390e-18 -8.1819101765496886e-04 0.0000000000000000e+00  -2.4896359578784257e-18 -8.1819101765497168e-04 0.0000000000000000e+00  -3.1766428307374643e-18 -8.1819101765497288e-04 0.0000000000000000e+00  -3.6078355530131351e-18 -8.1819101765497374e-04 0.0000000000000000e+00  -3.9437476764239366e-18 -8.1819101765497255e-04 0.0000000000000000e+00  -4.1737899472999843e-18 -8.1819101765497309e-04 0.0000000000000000e+00  -4.1007019520821040e-18 -8.1819101765497288e-04 0.0000000000000000e+00  -3.9677239843995837e-18 -8.1819101765497472e-04 0.0000000000000000e+00  -3.7859789097054577e-18 -8.1819101765497580e-04 0.0000000000000000e+00  -3.0124413430706506e-18 -8.1819101765497765e-04 0.0000000000000000e+00  -2.1283389255134656e-18 -8.1819101765498003e-04 0.0000000000000000e+00  -1.3175208221962900e-18 -8.1819101765498122e-04 0.0000000000000000e+00  -6.5982396185112543e-19 -8.1819101765498220e-04 0.0000000000000000e+00  -4.0854654874154336e-35 -8.1819101765498209e-04 0.0000000000000000e+00  -7.7582627154270869e-35 -8.8294918621565743e-04 0.0000000000000000e+00  -8.5416130078978883e-19 -8.8294918621565710e-04 0.0000000000000000e+00  -1.6320456124548141e-18 -8.8294918621565830e-04 0.0000000000000000e+00  -2.2459008351778738e-18 -8.8294918621565960e-04 0.0000000000000000e+00  -3.0182483766893864e-18 -8.8294918621566112e-04 0.0000000000000000e+00  -3.7356793117898760e-18 -8.8294918621566274e-04 0.0000000000000000e+00  -4.1831321386401019e-18 -8.8294918621566177e-04 0.0000000000000000e+00  -4.3239976665325823e-18 -8.8294918621566090e-04 0.0000000000000000e+00  -4.1426820315580329e-18 -8.8294918621566187e-04 0.0000000000000000e+00  -4.1302573545840934e-18 -8.8294918621566198e-04 0.0000000000000000e+00  -3.9155821355128626e-18 -8.8294918621566458e-04 0.0000000000000000e+00  -3.1075988941809625e-18 -8.8294918621566719e-04 0.0000000000000000e+00  -2.1349738478504641e-18 -8.8294918621567011e-04 0.0000000000000000e+00  -1.4100233357533947e-18 -8.8294918621567066e-04 0.0000000000000000e+00  -7.0034491994245559e-19 -8.8294918621567142e-04 0.0000000000000000e+00  -2.0483984576271903e-35 -8.8294918621567152e-04 0.0000000000000000e+00  3.4582790536112477e-36 -9.4809717030466248e-04 0.0000000000000000e+00  -8.8341818152235539e-19 -9.4809717030466443e-04 0.0000000000000000e+00  -1.6070959161697455e-18 -9.4809717030466443e-04 0.0000000000000000e+00  -2.3152811724216920e-18 -9.4809717030466627e-04 0.0000000000000000e+00  -3.0183530586303580e-18 -9.4809717030466822e-04 0.0000000000000000e+00  -3.6365315591667395e-18 -9.4809717030466963e-04 0.0000000000000000e+00  -4.1468374179425310e-18 -9.4809717030466692e-04 0.0000000000000000e+00  -4.3712913910102735e-18 -9.4809717030466757e-04 0.0000000000000000e+00  -4.3376048053348334e-18 -9.4809717030466855e-04 0.0000000000000000e+00  -4.1687816120930697e-18 -9.4809717030466844e-04 0.0000000000000000e+00  -3.7648408277217210e-18 -9.4809717030467147e-04 0.0000000000000000e+00  -3.2323360486220912e-18 -9.4809717030467581e-04 0.0000000000000000e+00  -2.5776947828170593e-18 -9.4809717030467700e-04 0.0000000000000000e+00  -1.7251413012303536e-18 -9.4809717030467798e-04 0.0000000000000000e+00  -8.9068541257662946e-19 -9.4809717030467906e-04 0.0000000000000000e+00  -5.0378329320955206e-35 -9.4809717030467917e-04 0.0000000000000000e+00  2.8211864419734863e-35 -1.0136576506829843e-03 0.0000000000000000e+00  -9.1775455326707719e-19 -1.0136576506829843e-03 0.0000000000000000e+00  -1.8884239489407473e-18 -1.0136576506829854e-03 0.0000000000000000e+00  -2.1711907100555419e-18 -1.0136576506829867e-03 0.0000000000000000e+00  -2.7967704467880103e-18 -1.0136576506829887e-03 0.0000000000000000e+00  -3.4941592759125513e-18 -1.0136576506829889e-03 0.0000000000000000e+00  -3.9853033400892838e-18 -1.0136576506829880e-03 0.0000000000000000e+00  -4.2786959480928706e-18 -1.0136576506829874e-03 0.0000000000000000e+00  -4.5685617951944378e-18 -1.0136576506829889e-03 0.0000000000000000e+00  -4.2497185440200317e-18 -1.0136576506829891e-03 0.0000000000000000e+00  -3.7093054969380483e-18 -1.0136576506829932e-03 0.0000000000000000e+00  -3.3612325610936847e-18 -1.0136576506829963e-03 0.0000000000000000e+00  -2.7477054871184573e-18 -1.0136576506829991e-03 0.0000000000000000e+00  -1.9322864572317490e-18 -1.0136576506829995e-03 0.0000000000000000e+00  -9.0561700825890375e-19 -1.0136576506830006e-03 0.0000000000000000e+00  -8.4635593259204572e-35 -1.0136576506830010e-03 0.0000000000000000e+00  -1.4323899044684415e-35 -1.0796522842574296e-03 0.0000000000000000e+00  -9.3987996391681699e-19 -1.0796522842574294e-03 0.0000000000000000e+00  -1.6861270465065135e-18 -1.0796522842574300e-03 0.0000000000000000e+00  -2.1295206428970432e-18 -1.0796522842574324e-03 0.0000000000000000e+00  -2.7054990919851914e-18 -1.079652