<?xml version="1.0"?>
<VTKFile type="UnstructuredGrid"  version="0.1"  >
<UnstructuredGrid>
<Piece  NumberOfPoints="1876" NumberOfCells="3600">
<Points>
<DataArray  type="Float64"  NumberOfComponents="3"  format="ascii">-0.75 -3 0  -0.65 -3 0  -0.55 -3 0  -0.45 -3 0  -0.35 -3 0  -0.25 -3 0  -0.15 -3 0  -0.05000000000000004 -3 0  0.05000000000000004 -3 0  0.15 -3 0  0.25 -3 0  0.3500000000000001 -3 0  0.45 -3 0  0.55 -3 0  0.6499999999999999 -3 0  0.75 -3 0  -0.75 -2.95 0  -0.65 -2.95 0  -0.55 -2.95 0  -0.45 -2.95 0  -0.35 -2.95 0  -0.25 -2.95 0  -0.15 -2.95 0  -0.05000000000000004 -2.95 0  0.05000000000000004 -2.95 0  0.15 -2.95 0  0.25 -2.95 0  0.3500000000000001 -2.95 0  0.45 -2.95 0  0.55 -2.95 0  0.6499999999999999 -2.95 0  0.75 -2.95 0  -0.75 -2.9 0  -0.65 -2.9 0  -0.55 -2.9 0  -0.45 -2.9 0  -0.35 -2.9 0  -0.25 -2.9 0  -0.15 -2.9 0  -0.05000000000000004 -2.9 0  0.05000000000000004 -2.9 0  0.15 -2.9 0  0.25 -2.9 0  0.3500000000000001 -2.9 0  0.45 -2.9 0  0.55 -2.9 0  0.6499999999999999 -2.9 0  0.75 -2.9 0  -0.75 -2.85 0  -0.65 -2.85 0  -0.55 -2.85 0  -0.45 -2.85 0  -0.35 -2.85 0  -0.25 -2.85 0  -0.15 -2.85 0  -0.05000000000000004 -2.85 0  0.05000000000000004 -2.85 0  0.15 -2.85 0  0.25 -2.85 0  0.3500000000000001 -2.85 0  0.45 -2.85 0  0.55 -2.85 0  0.6499999999999999 -2.85 0  0.75 -2.85 0  -0.75 -2.8 0  -0.65 -2.8 0  -0.55 -2.8 0  -0.45 -2.8 0  -0.35 -2.8 0  -0.25 -2.8 0  -0.15 -2.8 0  -0.05000000000000004 -2.8 0  0.05000000000000004 -2.8 0  0.15 -2.8 0  0.25 -2.8 0  0.3500000000000001 -2.8 0  0.45 -2.8 0  0.55 -2.8 0  0.6499999999999999 -2.8 0  0.75 -2.8 0  -0.75 -2.75 0  -0.65 -2.75 0  -0.55 -2.75 0  -0.45 -2.75 0  -0.35 -2.75 0  -0.25 -2.75 0  -0.15 -2.75 0  -0.05000000000000004 -2.75 0  0.05000000000000004 -2.75 0  0.15 -2.75 0  0.25 -2.75 0  0.3500000000000001 -2.75 0  0.45 -2.75 0  0.55 -2.75 0  0.6499999999999999 -2.75 0  0.75 -2.75 0  -0.75 -2.7 0  -0.65 -2.7 0  -0.55 -2.7 0  -0.45 -2.7 0  -0.35 -2.7 0  -0.25 -2.7 0  -0.15 -2.7 0  -0.05000000000000004 -2.7 0  0.05000000000000004 -2.7 0  0.15 -2.7 0  0.25 -2.7 0  0.3500000000000001 -2.7 0  0.45 -2.7 0  0.55 -2.7 0  0.6499999999999999 -2.7 0  0.75 -2.7 0  -0.75 -2.65 0  -0.65 -2.65 0  -0.55 -2.65 0  -0.45 -2.65 0  -0.35 -2.65 0  -0.25 -2.65 0  -0.15 -2.65 0  -0.05000000000000004 -2.65 0  0.05000000000000004 -2.65 0  0.15 -2.65 0  0.25 -2.65 0  0.3500000000000001 -2.65 0  0.45 -2.65 0  0.55 -2.65 0  0.6499999999999999 -2.65 0  0.75 -2.65 0  -0.75 -2.6 0  -0.65 -2.6 0  -0.55 -2.6 0  -0.45 -2.6 0  -0.35 -2.6 0  -0.25 -2.6 0  -0.15 -2.6 0  -0.05000000000000004 -2.6 0  0.05000000000000004 -2.6 0  0.15 -2.6 0  0.25 -2.6 0  0.3500000000000001 -2.6 0  0.45 -2.6 0  0.55 -2.6 0  0.6499999999999999 -2.6 0  0.75 -2.6 0  -0.75 -2.55 0  -0.65 -2.55 0  -0.55 -2.55 0  -0.45 -2.55 0  -0.35 -2.55 0  -0.25 -2.55 0  -0.15 -2.55 0  -0.05000000000000004 -2.55 0  0.05000000000000004 -2.55 0  0.15 -2.55 0  0.25 -2.55 0  0.3500000000000001 -2.55 0  0.45 -2.55 0  0.55 -2.55 0  0.6499999999999999 -2.55 0  0.75 -2.55 0  -0.75 -2.5 0  -0.65 -2.5 0  -0.55 -2.5 0  -0.45 -2.5 0  -0.35 -2.5 0  -0.25 -2.5 0  -0.15 -2.5 0  -0.05000000000000004 -2.5 0  0.05000000000000004 -2.5 0  0.15 -2.5 0  0.25 -2.5 0  0.3500000000000001 -2.5 0  0.45 -2.5 0  0.55 -2.5 0  0.6499999999999999 -2.5 0  0.75 -2.5 0  -0.75 -2.45 0  -0.65 -2.45 0  -0.55 -2.45 0  -0.45 -2.45 0  -0.35 -2.45 0  -0.25 -2.45 0  -0.15 -2.45 0  -0.05000000000000004 -2.45 0  0.05000000000000004 -2.45 0  0.15 -2.45 0  0.25 -2.45 0  0.3500000000000001 -2.45 0  0.45 -2.45 0  0.55 -2.45 0  0.6499999999999999 -2.45 0  0.75 -2.45 0  -0.75 -2.4 0  -0.65 -2.4 0  -0.55 -2.4 0  -0.45 -2.4 0  -0.35 -2.4 0  -0.25 -2.4 0  -0.15 -2.4 0  -0.05000000000000004 -2.4 0  0.05000000000000004 -2.4 0  0.15 -2.4 0  0.25 -2.4 0  0.3500000000000001 -2.4 0  0.45 -2.4 0  0.55 -2.4 0  0.6499999999999999 -2.4 0  0.75 -2.4 0  -0.75 -2.35 0  -0.65 -2.35 0  -0.55 -2.35 0  -0.45 -2.35 0  -0.35 -2.35 0  -0.25 -2.35 0  -0.15 -2.35 0  -0.05000000000000004 -2.35 0  0.05000000000000004 -2.35 0  0.15 -2.35 0  0.25 -2.35 0  0.3500000000000001 -2.35 0  0.45 -2.35 0  0.55 -2.35 0  0.6499999999999999 -2.35 0  0.75 -2.35 0  -0.75 -2.3 0  -0.65 -2.3 0  -0.55 -2.3 0  -0.45 -2.3 0  -0.35 -2.3 0  -0.25 -2.3 0  -0.15 -2.3 0  -0.05000000000000004 -2.3 0  0.05000000000000004 -2.3 0  0.15 -2.3 0  0.25 -2.3 0  0.3500000000000001 -2.3 0  0.45 -2.3 0  0.55 -2.3 0  0.6499999999999999 -2.3 0  0.75 -2.3 0  -0.75 -2.25 0  -0.65 -2.25 0  -0.55 -2.25 0  -0.45 -2.25 0  -0.35 -2.25 0  -0.25 -2.25 0  -0.15 -2.25 0  -0.05000000000000004 -2.25 0  0.05000000000000004 -2.25 0  0.15 -2.25 0  0.25 -2.25 0  0.3500000000000001 -2.25 0  0.45 -2.25 0  0.55 -2.25 0  0.6499999999999999 -2.25 0  0.75 -2.25 0  -0.75 -2.2 0  -0.65 -2.2 0  -0.55 -2.2 0  -0.45 -2.2 0  -0.35 -2.2 0  -0.25 -2.2 0  -0.15 -2.2 0  -0.05000000000000004 -2.2 0  0.05000000000000004 -2.2 0  0.15 -2.2 0  0.25 -2.2 0  0.3500000000000001 -2.2 0  0.45 -2.2 0  0.55 -2.2 0  0.6499999999999999 -2.2 0  0.75 -2.2 0  -0.75 -2.15 0  -0.65 -2.15 0  -0.55 -2.15 0  -0.45 -2.15 0  -0.35 -2.15 0  -0.25 -2.15 0  -0.15 -2.15 0  -0.05000000000000004 -2.15 0  0.05000000000000004 -2.15 0  0.15 -2.15 0  0.25 -2.15 0  0.3500000000000001 -2.15 0  0.45 -2.15 0  0.55 -2.15 0  0.6499999999999999 -2.15 0  0.75 -2.15 0  -0.75 -2.1 0  -0.65 -2.1 0  -0.55 -2.1 0  -0.45 -2.1 0  -0.35 -2.1 0  -0.25 -2.1 0  -0.15 -2.1 0  -0.05000000000000004 -2.1 0  0.05000000000000004 -2.1 0  0.15 -2.1 0  0.25 -2.1 0  0.3500000000000001 -2.1 0  0.45 -2.1 0  0.55 -2.1 0  0.6499999999999999 -2.1 0  0.75 -2.1 0  -0.75 -2.05 0  -0.65 -2.05 0  -0.55 -2.05 0  -0.45 -2.05 0  -0.35 -2.05 0  -0.25 -2.05 0  -0.15 -2.05 0  -0.05000000000000004 -2.05 0  0.05000000000000004 -2.05 0  0.15 -2.05 0  0.25 -2.05 0  0.3500000000000001 -2.05 0  0.45 -2.05 0  0.55 -2.05 0  0.6499999999999999 -2.05 0  0.75 -2.05 0  -0.75 -2 0  -0.65 -2 0  -0.55 -2 0  -0.45 -2 0  -0.35 -2 0  -0.25 -2 0  -0.15 -2 0  -0.05000000000000004 -2 0  0.05000000000000004 -2 0  0.15 -2 0  0.25 -2 0  0.3500000000000001 -2 0  0.45 -2 0  0.55 -2 0  0.6499999999999999 -2 0  0.75 -2 0  -0.75 -1.95 0  -0.65 -1.95 0  -0.55 -1.95 0  -0.45 -1.95 0  -0.35 -1.95 0  -0.25 -1.95 0  -0.15 -1.95 0  -0.05000000000000004 -1.95 0  0.05000000000000004 -1.95 0  0.15 -1.95 0  0.25 -1.95 0  0.3500000000000001 -1.95 0  0.45 -1.95 0  0.55 -1.95 0  0.6499999999999999 -1.95 0  0.75 -1.95 0  -0.75 -1.9 0  -0.65 -1.9 0  -0.55 -1.9 0  -0.45 -1.9 0  -0.35 -1.9 0  -0.25 -1.9 0  -0.15 -1.9 0  -0.05000000000000004 -1.9 0  0.05000000000000004 -1.9 0  0.15 -1.9 0  0.25 -1.9 0  0.3500000000000001 -1.9 0  0.45 -1.9 0  0.55 -1.9 0  0.6499999999999999 -1.9 0  0.75 -1.9 0  -0.75 -1.85 0  -0.65 -1.85 0  -0.55 -1.85 0  -0.45 -1.85 0  -0.35 -1.85 0  -0.25 -1.85 0  -0.15 -1.85 0  -0.05000000000000004 -1.85 0  0.05000000000000004 -1.85 0  0.15 -1.85 0  0.25 -1.85 0  0.3500000000000001 -1.85 0  0.45 -1.85 0  0.55 -1.85 0  0.6499999999999999 -1.85 0  0.75 -1.85 0  -0.75 -1.8 0  -0.65 -1.8 0  -0.55 -1.8 0  -0.45 -1.8 0  -0.35 -1.8 0  -0.25 -1.8 0  -0.15 -1.8 0  -0.05000000000000004 -1.8 0  0.05000000000000004 -1.8 0  0.15 -1.8 0  0.25 -1.8 0  0.3500000000000001 -1.8 0  0.45 -1.8 0  0.55 -1.8 0  0.6499999999999999 -1.8 0  0.75 -1.8 0  -0.75 -1.75 0  -0.65 -1.75 0  -0.55 -1.75 0  -0.45 -1.75 0  -0.35 -1.75 0  -0.25 -1.75 0  -0.15 -1.75 0  -0.05000000000000004 -1.75 0  0.05000000000000004 -1.75 0  0.15 -1.75 0  0.25 -1.75 0  0.3500000000000001 -1.75 0  0.45 -1.75 0  0.55 -1.75 0  0.6499999999999999 -1.75 0  0.75 -1.75 0  -0.75 -1.7 0  -0.65 -1.7 0  -0.55 -1.7 0  -0.45 -1.7 0  -0.35 -1.7 0  -0.25 -1.7 0  -0.15 -1.7 0  -0.05000000000000004 -1.7 0  0.05000000000000004 -1.7 0  0.15 -1.7 0  0.25 -1.7 0  0.3500000000000001 -1.7 0  0.45 -1.7 0  0.55 -1.7 0  0.6499999999999999 -1.7 0  0.75 -1.7 0  -0.75 -1.65 0  -0.65 -1.65 0  -0.55 -1.65 0  -0.45 -1.65 0  -0.35 -1.65 0  -0.25 -1.65 0  -0.15 -1.65 0  -0.05000000000000004 -1.65 0  0.05000000000000004 -1.65 0  0.15 -1.65 0  0.25 -1.65 0  0.3500000000000001 -1.65 0  0.45 -1.65 0  0.55 -1.65 0  0.6499999999999999 -1.65 0  0.75 -1.65 0  -0.75 -1.6 0  -0.65 -1.6 0  -0.55 -1.6 0  -0.45 -1.6 0  -0.35 -1.6 0  -0.25 -1.6 0  -0.15 -1.6 0  -0.05000000000000004 -1.6 0  0.05000000000000004 -1.6 0  0.15 -1.6 0  0.25 -1.6 0  0.3500000000000001 -1.6 0  0.45 -1.6 0  0.55 -1.6 0  0.6499999999999999 -1.6 0  0.75 -1.6 0  -0.75 -1.55 0  -0.65 -1.55 0  -0.55 -1.55 0  -0.45 -1.55 0  -0.35 -1.55 0  -0.25 -1.55 0  -0.15 -1.55 0  -0.05000000000000004 -1.55 0  0.05000000000000004 -1.55 0  0.15 -1.55 0  0.25 -1.55 0  0.3500000000000001 -1.55 0  0.45 -1.55 0  0.55 -1.55 0  0.6499999999999999 -1.55 0  0.75 -1.55 0  -0.75 -1.5 0  -0.65 -1.5 0  -0.55 -1.5 0  -0.45 -1.5 0  -0.35 -1.5 0  -0.25 -1.5 0  -0.15 -1.5 0  -0.05000000000000004 -1.5 0  0.05000000000000004 -1.5 0  0.15 -1.5 0  0.25 -1.5 0  0.3500000000000001 -1.5 0  0.45 -1.5 0  0.55 -1.5 0  0.6499999999999999 -1.5 0  0.75 -1.5 0  -0.75 -1.45 0  -0.65 -1.45 0  -0.55 -1.45 0  -0.45 -1.45 0  -0.35 -1.45 0  -0.25 -1.45 0  -0.15 -1.45 0  -0.05000000000000004 -1.45 0  0.05000000000000004 -1.45 0  0.15 -1.45 0  0.25 -1.45 0  0.3500000000000001 -1.45 0  0.45 -1.45 0  0.55 -1.45 0  0.6499999999999999 -1.45 0  0.75 -1.45 0  -0.75 -1.4 0  -0.65 -1.4 0  -0.55 -1.4 0  -0.45 -1.4 0  -0.35 -1.4 0  -0.25 -1.4 0  -0.15 -1.4 0  -0.05000000000000004 -1.4 0  0.05000000000000004 -1.4 0  0.15 -1.4 0  0.25 -1.4 0  0.3500000000000001 -1.4 0  0.45 -1.4 0  0.55 -1.4 0  0.6499999999999999 -1.4 0  0.75 -1.4 0  -0.75 -1.35 0  -0.65 -1.35 0  -0.55 -1.35 0  -0.45 -1.35 0  -0.35 -1.35 0  -0.25 -1.35 0  -0.15 -1.35 0  -0.05000000000000004 -1.35 0  0.05000000000000004 -1.35 0  0.15 -1.35 0  0.25 -1.35 0  0.3500000000000001 -1.35 0  0.45 -1.35 0  0.55 -1.35 0  0.6499999999999999 -1.35 0  0.75 -1.35 0  -0.75 -1.3 0  -0.65 -1.3 0  -0.55 -1.3 0  -0.45 -1.3 0  -0.35 -1.3 0  -0.25 -1.3 0  -0.15 -1.3 0  -0.05000000000000004 -1.3 0  0.05000000000000004 -1.3 0  0.15 -1.3 0  0.25 -1.3 0  0.3500000000000001 -1.3 0  0.45 -1.3 0  0.55 -1.3 0  0.6499999999999999 -1.
[...]
<PointData  Vectors="displacement"> 
<DataArray  type="Float64"  Name="displacement"  NumberOfComponents="3" format="ascii">1.0226800852153918e-34 -2.3822801641527263e-20 0.0000000000000000e+00  -3.6985586588429615e-35 -9.9261673506363678e-22 0.0000000000000000e+00  8.4635593259204989e-35 -5.3601303693436374e-20 0.0000000000000000e+00  3.5264830524668745e-34 -4.0014862132252849e-21 0.0000000000000000e+00  -5.6423728839469982e-35 -1.1911400820763638e-20 0.0000000000000000e+00  1.1302934068880380e-33 -1.9687302358094909e-20 0.0000000000000000e+00  1.1284745767894001e-34 -6.1542237573945476e-20 0.0000000000000000e+00  3.5285303913581160e-34 3.2016274576497325e-20 0.0000000000000000e+00  -1.1284745767893996e-34 -1.1911400820763638e-20 0.0000000000000000e+00  6.2202849111571305e-35 1.7990875049113070e-20 0.0000000000000000e+00  -3.3854237303681970e-34 -1.1911400820763630e-20 0.0000000000000000e+00  1.1211493327876547e-33 2.4012120685715649e-20 0.0000000000000000e+00  2.8211864419734991e-35 -1.1911400820763638e-20 0.0000000000000000e+00  3.1480314115888353e-37 2.2706107814580673e-20 0.0000000000000000e+00  -1.4105932209867510e-34 3.1763735522036395e-20 0.0000000000000000e+00  8.4635593259204914e-35 0.0000000000000000e+00 0.0000000000000000e+00  -7.0529661049336994e-35 -1.4912280701752541e-04 0.0000000000000000e+00  6.5779571687566524e-19 -1.4912280701752576e-04 0.0000000000000000e+00  1.4864995781737855e-18 -1.4912280701752579e-04 0.0000000000000000e+00  2.4333003532288889e-18 -1.4912280701752571e-04 0.0000000000000000e+00  3.2395801586184603e-18 -1.4912280701752533e-04 0.0000000000000000e+00  4.2998752723547733e-18 -1.4912280701752522e-04 0.0000000000000000e+00  5.1442878664377268e-18 -1.4912280701752408e-04 0.0000000000000000e+00  5.3963695330646437e-18 -1.4912280701752340e-04 0.0000000000000000e+00  5.4713051993527645e-18 -1.4912280701752240e-04 0.0000000000000000e+00  4.9639303832088587e-18 -1.4912280701752159e-04 0.0000000000000000e+00  4.3153305791200111e-18 -1.4912280701752094e-04 0.0000000000000000e+00  3.8708976761084605e-18 -1.4912280701752056e-04 0.0000000000000000e+00  3.1426179022471610e-18 -1.4912280701751999e-04 0.0000000000000000e+00  2.2134555595986490e-18 -1.4912280701751964e-04 0.0000000000000000e+00  1.1586232603374235e-18 -1.4912280701751934e-04 0.0000000000000000e+00  -5.2889738457024319e-35 -1.4912280701751926e-04 0.0000000000000000e+00  -7.0529661049337304e-36 -2.9824561403505277e-04 0.0000000000000000e+00  1.2950767413042558e-18 -2.9824561403505299e-04 0.0000000000000000e+00  2.8323938860080753e-18 -2.9824561403505348e-04 0.0000000000000000e+00  4.5531554181541410e-18 -2.9824561403505266e-04 0.0000000000000000e+00  6.2385232009664817e-18 -2.9824561403505228e-04 0.0000000000000000e+00  7.9024875697962898e-18 -2.9824561403505212e-04 0.0000000000000000e+00  9.3358915456605219e-18 -2.9824561403504990e-04 0.0000000000000000e+00  9.9782815179225816e-18 -2.9824561403504773e-04 0.0000000000000000e+00  9.9306736706270028e-18 -2.9824561403504610e-04 0.0000000000000000e+00  9.1841114222313048e-18 -2.9824561403504394e-04 0.0000000000000000e+00  8.1069585169593165e-18 -2.9824561403504345e-04 0.0000000000000000e+00  7.1403190157058929e-18 -2.9824561403504215e-04 0.0000000000000000e+00  5.8700557089514584e-18 -2.9824561403504106e-04 0.0000000000000000e+00  4.0301747136147914e-18 -2.9824561403504063e-04 0.0000000000000000e+00  2.0477362039248516e-18 -2.9824561403503971e-04 0.0000000000000000e+00  -1.8136198555543870e-34 -2.9824561403503944e-04 0.0000000000000000e+00  -1.1284745767893969e-34 -4.4736842105257900e-04 0.0000000000000000e+00  2.0551976291409426e-18 -4.4736842105257927e-04 0.0000000000000000e+00  3.9862717565430816e-18 -4.4736842105257986e-04 0.0000000000000000e+00  6.3824627302942960e-18 -4.4736842105257840e-04 0.0000000000000000e+00  8.8767889112470803e-18 -4.4736842105257862e-04 0.0000000000000000e+00  1.1001138321375328e-17 -4.4736842105257791e-04 0.0000000000000000e+00  1.2827239535103782e-17 -4.4736842105257471e-04 0.0000000000000000e+00  1.3812871286890565e-17 -4.4736842105257108e-04 0.0000000000000000e+00  1.3615329013044222e-17 -4.4736842105256815e-04 0.0000000000000000e+00  1.2659056959676393e-17 -4.4736842105256550e-04 0.0000000000000000e+00  1.1396122694184489e-17 -4.4736842105256441e-04 0.0000000000000000e+00  9.9638077350671463e-18 -4.4736842105256257e-04 0.0000000000000000e+00  8.0832296948554079e-18 -4.4736842105256078e-04 0.0000000000000000e+00  5.4911666641608688e-18 -4.4736842105255926e-04 0.0000000000000000e+00  2.7221729529214927e-18 -4.4736842105255840e-04 0.0000000000000000e+00  1.6927118651840947e-34 -4.4736842105255807e-04 0.0000000000000000e+00  -1.3700127528294701e-34 -5.9649122807010652e-04 0.0000000000000000e+00  2.5682097357738929e-18 -5.9649122807010685e-04 0.0000000000000000e+00  5.1615567942632160e-18 -5.9649122807010760e-04 0.0000000000000000e+00  7.9784128337042405e-18 -5.9649122807010706e-04 0.0000000000000000e+00  1.0968234437666622e-17 -5.9649122807010609e-04 0.0000000000000000e+00  1.3428105969369460e-17 -5.9649122807010511e-04 0.0000000000000000e+00  1.5639775759386711e-17 -5.9649122807010077e-04 0.0000000000000000e+00  1.7001439019411732e-17 -5.9649122807009611e-04 0.0000000000000000e+00  1.6700209421837749e-17 -5.9649122807009167e-04 0.0000000000000000e+00  1.5515656791084471e-17 -5.9649122807008896e-04 0.0000000000000000e+00  1.4331509823784891e-17 -5.9649122807008625e-04 0.0000000000000000e+00  1.2325085789415851e-17 -5.9649122807008397e-04 0.0000000000000000e+00  9.7832058158766575e-18 -5.9649122807008158e-04 0.0000000000000000e+00  6.6682144372187001e-18 -5.9649122807007952e-04 0.0000000000000000e+00  3.3198242663358945e-18 -5.9649122807007801e-04 0.0000000000000000e+00  2.6217984604578867e-34 -5.9649122807007746e-04 0.0000000000000000e+00  2.8211864419734981e-34 -7.4561403508763302e-04 0.0000000000000000e+00  2.9913921984193298e-18 -7.4561403508763399e-04 0.0000000000000000e+00  6.1343637431512859e-18 -7.4561403508763421e-04 0.0000000000000000e+00  9.3250012337990009e-18 -7.4561403508763334e-04 0.0000000000000000e+00  1.2575776317062129e-17 -7.4561403508763193e-04 0.0000000000000000e+00  1.5637279148718026e-17 -7.4561403508763085e-04 0.0000000000000000e+00  1.8234247381523583e-17 -7.4561403508762553e-04 0.0000000000000000e+00  1.9407080183582437e-17 -7.4561403508762044e-04 0.0000000000000000e+00  1.9097871740197830e-17 -7.4561403508761361e-04 0.0000000000000000e+00  1.8144556818306200e-17 -7.4561403508760938e-04 0.0000000000000000e+00  1.6569625448310386e-17 -7.4561403508760710e-04 0.0000000000000000e+00  1.4180214974485787e-17 -7.4561403508760407e-04 0.0000000000000000e+00  1.1081141347367763e-17 -7.4561403508760114e-04 0.0000000000000000e+00  7.6595696252288236e-18 -7.4561403508759745e-04 0.0000000000000000e+00  3.9781674696423072e-18 -7.4561403508759702e-04 0.0000000000000000e+00  2.7914317412183081e-34 -7.4561403508759572e-04 0.0000000000000000e+00  7.8726108225104147e-34 -8.9473684210516005e-04 0.0000000000000000e+00  3.1703530809880646e-18 -8.9473684210516081e-04 0.0000000000000000e+00  6.7079743791391578e-18 -8.9473684210516005e-04 0.0000000000000000e+00  1.0515105250695903e-17 -8.9473684210515897e-04 0.0000000000000000e+00  1.3964079374678800e-17 -8.9473684210515810e-04 0.0000000000000000e+00  1.7534295742913041e-17 -8.9473684210515582e-04 0.0000000000000000e+00  2.0318518225593196e-17 -8.9473684210515159e-04 0.0000000000000000e+00  2.1279813853096303e-17 -8.9473684210514238e-04 0.0000000000000000e+00  2.0923325244222901e-17 -8.9473684210513609e-04 0.0000000000000000e+00  2.0154097581254491e-17 -8.9473684210513132e-04 0.0000000000000000e+00  1.8202717309415174e-17 -8.9473684210512807e-04 0.0000000000000000e+00  1.5524261116183544e-17 -8.9473684210512254e-04 0.0000000000000000e+00  1.2242660909062653e-17 -8.9473684210511994e-04 0.0000000000000000e+00  8.6721468092164942e-18 -8.9473684210511592e-04 0.0000000000000000e+00  4.5520870595644087e-18 -8.9473684210511517e-04 0.0000000000000000e+00  7.6575060567852080e-35 -8.9473684210511332e-04 0.0000000000000000e+00  -6.7708474607363812e-34 -1.0438596491226877e-03 0.0000000000000000e+00  3.3731704621258112e-18 -1.0438596491226880e-03 0.0000000000000000e+00  7.4969414451400145e-18 -1.0438596491226890e-03 0.0000000000000000e+00  1.1555902940271073e-17 -1.0438596491226869e-03 0.0000000000000000e+00  1.5172740328902509e-17 -1.0438596491226864e-03 0.0000000000000000e+00  1.8853100055062935e-17 -1.0438596491226845e-03 0.0000000000000000e+00  2.1585766296101088e-17 -1.0438596491226756e-03 0.0000000000000000e+00  2.2635855142159567e-17 -1.0438596491226678e-03 0.0000000000000000e+00  2.2415414574953020e-17 -1.0438596491226595e-03 0.0000000000000000e+00  2.1485122969583458e-17 -1.0438596491226550e-03 0.0000000000000000e+00  1.9412054419425513e-17 -1.0438596491226500e-03 0.0000000000000000e+00  1.6709401623825515e-17 -1.0438596491226437e-03 0.0000000000000000e+00  1.3415049319131141e-17 -1.0438596491226407e-03 0.0000000000000000e+00  9.3842476251852064e-18 -1.0438596491226372e-03 0.0000000000000000e+00  4.6484792058543662e-18 -1.0438596491226342e-03 0.0000000000000000e+00  -1.0720508479499269e-33 -1.0438596491226329e-03 0.0000000000000000e+00  5.5988418498991564e-35 -1.1929824561402137e-03 0.0000000000000000e+00  4.0022743334631883e-18 -1.1929824561402154e-03 0.0000000000000000e+00  8.0780414247134327e-18 -1.1929824561402169e-03 0.0000000000000000e+00  1.2319182658145460e-17 -1.1929824561402133e-03 0.0000000000000000e+00  1.6465158230744258e-17 -1.1929824561402128e-03 0.0000000000000000e+00  1.9932042809512430e-17 -1.1929824561402098e-03 0.0000000000000000e+00  2.2302415955411250e-17 -1.1929824561402015e-03 0.0000000000000000e+00  2.3655873895113169e-17 -1.1929824561401907e-03 0.0000000000000000e+00  2.3628366563696865e-17 -1.1929824561401822e-03 0.0000000000000000e+00  2.2181397696870841e-17 -1.1929824561401775e-03 0.0000000000000000e+00  2.0302282994851817e-17 -1.1929824561401692e-03 0.0000000000000000e+00  1.7569475844839166e-17 -1.1929824561401643e-03 0.0000000000000000e+00  1.4396080998809564e-17 -1.1929824561401599e-03 0.0000000000000000e+00  9.8027371661238267e-18 -1.1929824561401547e-03 0.0000000000000000e+00  4.6200980647278461e-18 -1.1929824561401534e-03 0.0000000000000000e+00  -2.4528102959156759e-34 -1.1929824561401512e-03 0.0000000000000000e+00  0.0000000000000000e+00 -1.3421052631577431e-03 0.0000000000000000e+00  4.2686147888213950e-18 -1.3421052631577420e-03 0.0000000000000000e+00  8.5495926449924257e-18 -1.3421052631577446e-03 0.0000000000000000e+00  1.3044652157362033e-17 -1.3421052631577420e-03 0.0000000000000000e+00  1.7432803590949335e-17 -1.3421052631577416e-03 0.0000000000000000e+00  2.0466040516601345e-17 -1.3421052631577377e-03 0.0000000000000000e+00  2.2713718380166390e-17 -1.3421052631577262e-03 0.0000000000000000e+00  2.4583327345504746e-17 -1.3421052631577169e-03 0.0000000000000000e+00  2.4190402082580276e-17 -1.3421052631577054e-03 0.0000000000000000e+00  2.2638536375882465e-17 -1.3421052631576978e-03 0.0000000000000000e+00  2.1313566889435233e-17 -1.3421052631576915e-03 0.0000000000000000e+00  1.8474111041898010e-17 -1.3421052631576852e-03 0.0000000000000000e+00  1.4829190876032020e-17 -1.3421052631576811e-03 0.0000000000000000e+00  1.0002021128822918e-17 -1.3421052631576750e-03 0.0000000000000000e+00  4.6399675517834410e-18 -1.3421052631576720e-03 0.0000000000000000e+00  -1.3056588082335115e-33 -1.3421052631576711e-03 0.0000000000000000e+00  -8.4450206052786358e-35 -1.4912280701752699e-03 0.0000000000000000e+00  4.2917362255590350e-18 -1.4912280701752702e-03 0.0000000000000000e+00  9.1912809355993353e-18 -1.4912280701752721e-03 0.0000000000000000e+00  1.3642672438701236e-17 -1.4912280701752702e-03 0.0000000000000000e+00  1.7493241651923794e-17 -1.4912280701752660e-03 0.0000000000000000e+00  2.0760094538301888e-17 -1.4912280701752628e-03 0.0000000000000000e+00  2.3185056293839611e-17 -1.4912280701752526e-03 0.0000000000000000e+00  2.4950622298615511e-17 -1.4912280701752389e-03 0.0000000000000000e+00  2.4596422040928194e-17 -1.4912280701752285e-03 0.0000000000000000e+00  2.3235325025866721e-17 -1.4912280701752216e-03 0.0000000000000000e+00  2.1677116026718159e-17 -1.4912280701752131e-03 0.0000000000000000e+00  1.8862093960238835e-17 -1.4912280701752021e-03 0.0000000000000000e+00  1.4801682729458681e-17 -1.4912280701752008e-03 0.0000000000000000e+00  1.0083534268337573e-17 -1.4912280701751930e-03 0.0000000000000000e+00  4.8260556732541543e-18 -1.4912280701751897e-03 0.0000000000000000e+00  4.6751089609846518e-34 -1.4912280701751886e-03 0.0000000000000000e+00  2.8211864419734798e-34 -1.6403508771927952e-03 0.0000000000000000e+00  4.2686338048645162e-18 -1.6403508771927978e-03 0.0000000000000000e+00  9.4095870405410424e-18 -1.6403508771927989e-03 0.0000000000000000e+00  1.3917942561912020e-17 -1.6403508771927957e-03 0.0000000000000000e+00  1.7557683183250879e-17 -1.6403508771927931e-03 0.0000000000000000e+00  2.1098035593946438e-17 -1.6403508771927863e-03 0.0000000000000000e+00  2.3578756688718501e-17 -1.6403508771927788e-03 0.0000000000000000e+00  2.5102261613271640e-17 -1.6403508771927634e-03 0.0000000000000000e+00  2.4856246543466878e-17 -1.6403508771927510e-03 0.0000000000000000e+00  2.3826760800438892e-17 -1.6403508771927423e-03 0.0000000000000000e+00  2.1202159403211013e-17 -1.6403508771927334e-03 0.0000000000000000e+00  1.8786518773338229e-17 -1.6403508771927213e-03 0.0000000000000000e+00  1.4994419898063930e-17 -1.6403508771927202e-03 0.0000000000000000e+00  1.0237361045656654e-17 -1.6403508771927122e-03 0.0000000000000000e+00  5.2741509428462895e-18 -1.6403508771927085e-03 0.0000000000000000e+00  -2.2569491535787830e-34 -1.6403508771927065e-03 0.0000000000000000e+00  9.0801267374513704e-34 -1.7894736842103244e-03 0.0000000000000000e+00  4.3968534111861447e-18 -1.7894736842103244e-03 0.0000000000000000e+00  9.5267809932473361e-18 -1.7894736842103270e-03 0.0000000000000000e+00  1.3607360293762652e-17 -1.7894736842103229e-03 0.0000000000000000e+00  1.7795661547926426e-17 -1.7894736842103201e-03 0.0000000000000000e+00  2.0886948575361159e-17 -1.7894736842103140e-03 0.0000000000000000e+00  2.3772640144978267e-17 -1.7894736842103019e-03 0.0000000000000000e+00  2.5225422353550793e-17 -1.7894736842102902e-03 0.0000000000000000e+00  2.4874182729752743e-17 -1.7894736842102757e-03 0.0000000000000000e+00  2.3903887647776605e-17 -1.7894736842102670e-03 0.0000000000000000e+00  2.0958779457054317e-17 -1.7894736842102564e-03 0.0000000000000000e+00  1.8611992166007251e-17 -1.7894736842102459e-03 0.0000000000000000e+00  1.5490692427308025e-17 -1.7894736842102401e-03 0.0000000000000000e+00  1.0461434740051965e-17 -1.7894736842102334e-03 0.0000000000000000e+00  5.3481124645874139e-18 -1.7894736842102288e-03 0.0000000000000000e+00  1.2275245565121869e-34 -1.7894736842102264e-03 0.0000000000000000e+00  -1.5798644075051558e-33 -1.9385964912278497e-03 0.0000000000000000e+00  5.1787430224185855e-18 -1.9385964912278526e-03 0.0000000000000000e+00  9.2465383178607497e-18 -1.9385964912278528e-03 0.0000000000000000e+00  1.3977006054129517e-17 -1.9385964912278489e-03 0.0000000000000000e+00  1.7758577035361988e-17 -1.9385964912278458e-03 0.0000000000000000e+00  2.0787383087139327e-17 -1.9385964912278419e-03 0.0000000000000000e+00  2.3783382683933147e-17 -1.9385964912278289e-03 0.0000000000000000e+00  2.5121917068066541e-17 -1.9385964912278120e-03 0.0000000000000000e+00  2.4924871853794384e-17 -1.9385964912277986e-03 0.0000000000000000e+00  2.3488135492609132e-17 -1.9385964912277862e-03 0.0000000000000000e+00  2.1179322295909889e-17 -1.9385964912277762e-03 0.0000000000000000e+00  1.8308900876127703e-17 -1.9385964912277691e-03 0.0000000000000000e+00  1.5387477004937009e-17 -1.9385964912277600e-03 0.0000000000000000e+00  1.0585622210969090e-17 -1.9385964912277517e-03 0.0000000000000000e+00  4.9566531055752138e-18 -1.9385964912277472e-03 0.0000000000000000e+00  -1.3866997161190674e-34 -1.9385964912277467e-03 0.0000000000000000e+00  1.0152043888422006e-33 -2.0877192982453811e-03 0.0000000000000000e+00  5.3692569333672488e-18 -2.0877192982453798e-03 0.0000000000000000e+00  1.0168270874280440e-17 -2.0877192982453807e-03 0.0000000000000000e+00  1.4207041979293738e-17 -2.0877192982453789e-03 0.0000000000000000e+00  1.7803192449629942e-17 -2.0877192982453729e-03 0.0000000000000000e+00  2.0498002475146604e-17 -2.0877192982453668e-03 0.0000000000000000e+00  2.3378427808648504e-17 -2.0877192982453547e-03 0.0000000000000000e+00  2.4984657699079062e-17 -2.0877192982453373e-03 0.0000000000000000e+00  2.4499975554100814e-17 -2.0877192982453226e-03 0.0000000000000000e+00  2.3010968247167007e-17 -2.0877192982453117e-03 0.0000000000000000e+00  2.1522797763769894e-17 -2.0877192982453000e-03 0.0000000000000000e+00  1.8577163996014859e-17 -2.0877192982452896e-03 0.0000000000000000e+00  1.4554732355333099e-17 -2.0877192982452831e-03 0.0000000000000000e+00  1.0489129768958178e-17 -2.0877192982452727e-03 0.0000000000000000e+00  4.9830345699838943e-18 -2.0877192982452679e-03 0.0000000000000000e+00  -2.0554358362949632e-34 -2.0877192982452653e-03 0.0000000000000000e+00  2.8211864419734981e-34 -2.2368421052629088e-03 0.0000000000000000e+00  6.1239906102509374e-18 -2.2368421052629058e-03 0.0000000000000000e+00  1.0988592122100883e-17 -2.2368421052629101e-03 0.0000000000000000e+00  1.4704065775747709e-17 -2.2368421052629027e-03 0.0000000000000000e+00  1.7839779181581121e-17 -2.2368421052629001e-03 0.0000000000000000e+00  2.0557603452762377e-17 -2.2368421052628971e-03 0.0000000000000000e+00  2.2964507432093427e-17 -2.2368421052628802e-03 0.0000000000000000e+00  2.4184563902165858e-17 -2.2368421052628641e-03 0.0000000000000000e+00  2.4161945500361745e-17 -2.2368421052628446e-03 0.0000000000000000e+00  2.3128407164277497e-17 -2.2368421052628329e-03 0.0000000000000000e+00  2.1336346458376080e-17 -2.2368421052628229e-03 0.0000000000000000e+00  1.8421542433242096e-17 -2.2368421052628078e-03 0.0000000000000000e+00  1.4465676616414769e-17 -2.2368421052628047e-03 0.0000000000000000e+00  9.9489846781733080e-18 -2.2368421052627913e-03 0.0000000000000000e+00  5.2493974926895085e-18 -2.2368421052627869e-03 0.0000000000000000e+00  -2.8211864419734977e-34 -2.2368421052627861e-03 0.0000000000000000e+00  -5.1014050420874573e-34 -2.3859649122804348e-03 0.0000000000000000e+00  6.0336026901529602e-18 -2.3859649122804365e-03 0.0000000000000000e+00  1.1868652398499397e-17 -2.3859649122804326e-03 0.0000000000000000e+00  1.5498438708703042e-17 -2.3859649122804278e-03 0.0000000000000000e+00  1.7820469452917586e-17 -2.3859649122804256e-03 0.0000000000000000e+00  2.0869863852103750e-17 -2.3859649122804213e-03 0.0000000000000000e+00  2.2798620914945309e-17 -2.3859649122804070e-03 0.0000000000000000e+00  2.3137697609791769e-17 -2.3859649122803857e-03 0.0000000000000000e+00  2.3154335779520604e-17 -2.3859649122803701e-03 0.0000000000000000e+00  2.3603221762582868e-17 -2.3859649122803567e-03 0.0000000000000000e+00  2.1414084438980663e-17 -2.3859649122803450e-03 0.0000000000000000e+00  1.8386431295156565e-17 -2.3859649122803337e-03 0.0000000000000000e+00  1.4201667202853024e-17 -2.3859649122803237e-03 0.0000000000000000e+00  9.8259178104095087e-18 -2.3859649122803133e-03 0.0000000000000000e+00  5.3795899918070183e-18 -2.3859649122803090e-03 0.0000000000000000e+00  5.7847252050636208e-34 -2.3859649122803064e-03 0.0000000000000000e+00  5.0781355955522855e-34 -2.5350877192979655e-03 0.0000000000000000e+00  5.6995340398493949e-18 -2.5350877192979655e-03 0.0000000000000000e+00  1.2436965342590034e-17 -2.5350877192979650e-03 0.0000000000000000e+00  1.6464507626808216e-17 -2.5350877192979542e-03 0.0000000000000000e+00  1.8369819598726634e-17 -2.5350877192979516e-03 0.0000000000000000e+00  2.0853147073713257e-17 -2.5350877192979464e-03 0.0000000000000000e+00  2.2100478235102883e-17 -2.5350877192979317e-03 0.0000000000000000e+00  2.2313384433776319e-17 -2.5350877192979113e-03 0.00