<?xml version="1.0"?>
<VTKFile type="UnstructuredGrid"  version="0.1"  >
<UnstructuredGrid>
<Piece  NumberOfPoints="1411" NumberOfCells="2700">
<Points>
<DataArray  type="Float64"  NumberOfComponents="3"  format="ascii">-0.75 -4.5 0  -0.65 -4.5 0  -0.55 -4.5 0  -0.45 -4.5 0  -0.35 -4.5 0  -0.25 -4.5 0  -0.15 -4.5 0  -0.05000000000000004 -4.5 0  0.05000000000000004 -4.5 0  0.15 -4.5 0  0.25 -4.5 0  0.3500000000000001 -4.5 0  0.45 -4.5 0  0.55 -4.5 0  0.6499999999999999 -4.5 0  0.75 -4.5 0  -0.75 -4.4 0  -0.65 -4.4 0  -0.55 -4.4 0  -0.45 -4.4 0  -0.35 -4.4 0  -0.25 -4.4 0  -0.15 -4.4 0  -0.05000000000000004 -4.4 0  0.05000000000000004 -4.4 0  0.15 -4.4 0  0.25 -4.4 0  0.3500000000000001 -4.4 0  0.45 -4.4 0  0.55 -4.4 0  0.6499999999999999 -4.4 0  0.75 -4.4 0  -0.75 -4.3 0  -0.65 -4.3 0  -0.55 -4.3 0  -0.45 -4.3 0  -0.35 -4.3 0  -0.25 -4.3 0  -0.15 -4.3 0  -0.05000000000000004 -4.3 0  0.05000000000000004 -4.3 0  0.15 -4.3 0  0.25 -4.3 0  0.3500000000000001 -4.3 0  0.45 -4.3 0  0.55 -4.3 0  0.6499999999999999 -4.3 0  0.75 -4.3 0  -0.75 -4.2 0  -0.65 -4.2 0  -0.55 -4.2 0  -0.45 -4.2 0  -0.35 -4.2 0  -0.25 -4.2 0  -0.15 -4.2 0  -0.05000000000000004 -4.2 0  0.05000000000000004 -4.2 0  0.15 -4.2 0  0.25 -4.2 0  0.3500000000000001 -4.2 0  0.45 -4.2 0  0.55 -4.2 0  0.6499999999999999 -4.2 0  0.75 -4.2 0  -0.75 -4.1 0  -0.65 -4.1 0  -0.55 -4.1 0  -0.45 -4.1 0  -0.35 -4.1 0  -0.25 -4.1 0  -0.15 -4.1 0  -0.05000000000000004 -4.1 0  0.05000000000000004 -4.1 0  0.15 -4.1 0  0.25 -4.1 0  0.3500000000000001 -4.1 0  0.45 -4.1 0  0.55 -4.1 0  0.6499999999999999 -4.1 0  0.75 -4.1 0  -0.75 -4 0  -0.65 -4 0  -0.55 -4 0  -0.45 -4 0  -0.35 -4 0  -0.25 -4 0  -0.15 -4 0  -0.05000000000000004 -4 0  0.05000000000000004 -4 0  0.15 -4 0  0.25 -4 0  0.3500000000000001 -4 0  0.45 -4 0  0.55 -4 0  0.6499999999999999 -4 0  0.75 -4 0  -0.75 -3.9 0  -0.65 -3.9 0  -0.55 -3.9 0  -0.45 -3.9 0  -0.35 -3.9 0  -0.25 -3.9 0  -0.15 -3.9 0  -0.05000000000000004 -3.9 0  0.05000000000000004 -3.9 0  0.15 -3.9 0  0.25 -3.9 0  0.3500000000000001 -3.9 0  0.45 -3.9 0  0.55 -3.9 0  0.6499999999999999 -3.9 0  0.75 -3.9 0  -0.75 -3.8 0  -0.65 -3.8 0  -0.55 -3.8 0  -0.45 -3.8 0  -0.35 -3.8 0  -0.25 -3.8 0  -0.15 -3.8 0  -0.05000000000000004 -3.8 0  0.05000000000000004 -3.8 0  0.15 -3.8 0  0.25 -3.8 0  0.3500000000000001 -3.8 0  0.45 -3.8 0  0.55 -3.8 0  0.6499999999999999 -3.8 0  0.75 -3.8 0  -0.75 -3.7 0  -0.65 -3.7 0  -0.55 -3.7 0  -0.45 -3.7 0  -0.35 -3.7 0  -0.25 -3.7 0  -0.15 -3.7 0  -0.05000000000000004 -3.7 0  0.05000000000000004 -3.7 0  0.15 -3.7 0  0.25 -3.7 0  0.3500000000000001 -3.7 0  0.45 -3.7 0  0.55 -3.7 0  0.6499999999999999 -3.7 0  0.75 -3.7 0  -0.75 -3.6 0  -0.65 -3.6 0  -0.55 -3.6 0  -0.45 -3.6 0  -0.35 -3.6 0  -0.25 -3.6 0  -0.15 -3.6 0  -0.05000000000000004 -3.6 0  0.05000000000000004 -3.6 0  0.15 -3.6 0  0.25 -3.6 0  0.3500000000000001 -3.6 0  0.45 -3.6 0  0.55 -3.6 0  0.6499999999999999 -3.6 0  0.75 -3.6 0  -0.75 -3.5 0  -0.65 -3.5 0  -0.55 -3.5 0  -0.45 -3.5 0  -0.35 -3.5 0  -0.25 -3.5 0  -0.15 -3.5 0  -0.05000000000000004 -3.5 0  0.05000000000000004 -3.5 0  0.15 -3.5 0  0.25 -3.5 0  0.3500000000000001 -3.5 0  0.45 -3.5 0  0.55 -3.5 0  0.6499999999999999 -3.5 0  0.75 -3.5 0  -0.75 -3.4 0  -0.65 -3.4 0  -0.55 -3.4 0  -0.45 -3.4 0  -0.35 -3.4 0  -0.25 -3.4 0  -0.15 -3.4 0  -0.05000000000000004 -3.4 0  0.05000000000000004 -3.4 0  0.15 -3.4 0  0.25 -3.4 0  0.3500000000000001 -3.4 0  0.45 -3.4 0  0.55 -3.4 0  0.6499999999999999 -3.4 0  0.75 -3.4 0  -0.75 -3.3 0  -0.65 -3.3 0  -0.55 -3.3 0  -0.45 -3.3 0  -0.35 -3.3 0  -0.25 -3.3 0  -0.15 -3.3 0  -0.05000000000000004 -3.3 0  0.05000000000000004 -3.3 0  0.15 -3.3 0  0.25 -3.3 0  0.3500000000000001 -3.3 0  0.45 -3.3 0  0.55 -3.3 0  0.6499999999999999 -3.3 0  0.75 -3.3 0  -0.75 -3.2 0  -0.65 -3.2 0  -0.55 -3.2 0  -0.45 -3.2 0  -0.35 -3.2 0  -0.25 -3.2 0  -0.15 -3.2 0  -0.05000000000000004 -3.2 0  0.05000000000000004 -3.2 0  0.15 -3.2 0  0.25 -3.2 0  0.3500000000000001 -3.2 0  0.45 -3.2 0  0.55 -3.2 0  0.6499999999999999 -3.2 0  0.75 -3.2 0  -0.75 -3.1 0  -0.65 -3.1 0  -0.55 -3.1 0  -0.45 -3.1 0  -0.35 -3.1 0  -0.25 -3.1 0  -0.15 -3.1 0  -0.05000000000000004 -3.1 0  0.05000000000000004 -3.1 0  0.15 -3.1 0  0.25 -3.1 0  0.3500000000000001 -3.1 0  0.45 -3.1 0  0.55 -3.1 0  0.6499999999999999 -3.1 0  0.75 -3.1 0  -0.75 -3 0  -0.65 -3 0  -0.55 -3 0  -0.45 -3 0  -0.35 -3 0  -0.25 -3 0  -0.15 -3 0  -0.05000000000000004 -3 0  0.05000000000000004 -3 0  0.15 -3 0  0.25 -3 0  0.3500000000000001 -3 0  0.45 -3 0  0.55 -3 0  0.6499999999999999 -3 0  0.75 -3 0  -0.75 -2.9 0  -0.65 -2.9 0  -0.55 -2.9 0  -0.45 -2.9 0  -0.35 -2.9 0  -0.25 -2.9 0  -0.15 -2.9 0  -0.05000000000000004 -2.9 0  0.05000000000000004 -2.9 0  0.15 -2.9 0  0.25 -2.9 0  0.3500000000000001 -2.9 0  0.45 -2.9 0  0.55 -2.9 0  0.6499999999999999 -2.9 0  0.75 -2.9 0  -0.75 -2.8 0  -0.65 -2.8 0  -0.55 -2.8 0  -0.45 -2.8 0  -0.35 -2.8 0  -0.25 -2.8 0  -0.15 -2.8 0  -0.05000000000000004 -2.8 0  0.05000000000000004 -2.8 0  0.15 -2.8 0  0.25 -2.8 0  0.3500000000000001 -2.8 0  0.45 -2.8 0  0.55 -2.8 0  0.6499999999999999 -2.8 0  0.75 -2.8 0  -0.75 -2.7 0  -0.65 -2.7 0  -0.55 -2.7 0  -0.45 -2.7 0  -0.35 -2.7 0  -0.25 -2.7 0  -0.15 -2.7 0  -0.05000000000000004 -2.7 0  0.05000000000000004 -2.7 0  0.15 -2.7 0  0.25 -2.7 0  0.3500000000000001 -2.7 0  0.45 -2.7 0  0.55 -2.7 0  0.6499999999999999 -2.7 0  0.75 -2.7 0  -0.75 -2.6 0  -0.65 -2.6 0  -0.55 -2.6 0  -0.45 -2.6 0  -0.35 -2.6 0  -0.25 -2.6 0  -0.15 -2.6 0  -0.05000000000000004 -2.6 0  0.05000000000000004 -2.6 0  0.15 -2.6 0  0.25 -2.6 0  0.3500000000000001 -2.6 0  0.45 -2.6 0  0.55 -2.6 0  0.6499999999999999 -2.6 0  0.75 -2.6 0  -0.75 -2.5 0  -0.65 -2.5 0  -0.55 -2.5 0  -0.45 -2.5 0  -0.35 -2.5 0  -0.25 -2.5 0  -0.15 -2.5 0  -0.05000000000000004 -2.5 0  0.05000000000000004 -2.5 0  0.15 -2.5 0  0.25 -2.5 0  0.3500000000000001 -2.5 0  0.45 -2.5 0  0.55 -2.5 0  0.6499999999999999 -2.5 0  0.75 -2.5 0  -0.75 -2.4 0  -0.65 -2.4 0  -0.55 -2.4 0  -0.45 -2.4 0  -0.35 -2.4 0  -0.25 -2.4 0  -0.15 -2.4 0  -0.05000000000000004 -2.4 0  0.05000000000000004 -2.4 0  0.15 -2.4 0  0.25 -2.4 0  0.3500000000000001 -2.4 0  0.45 -2.4 0  0.55 -2.4 0  0.6499999999999999 -2.4 0  0.75 -2.4 0  -0.75 -2.3 0  -0.65 -2.3 0  -0.55 -2.3 0  -0.45 -2.3 0  -0.35 -2.3 0  -0.25 -2.3 0  -0.15 -2.3 0  -0.05000000000000004 -2.3 0  0.05000000000000004 -2.3 0  0.15 -2.3 0  0.25 -2.3 0  0.3500000000000001 -2.3 0  0.45 -2.3 0  0.55 -2.3 0  0.6499999999999999 -2.3 0  0.75 -2.3 0  -0.75 -2.2 0  -0.65 -2.2 0  -0.55 -2.2 0  -0.45 -2.2 0  -0.35 -2.2 0  -0.25 -2.2 0  -0.15 -2.2 0  -0.05000000000000004 -2.2 0  0.05000000000000004 -2.2 0  0.15 -2.2 0  0.25 -2.2 0  0.3500000000000001 -2.2 0  0.45 -2.2 0  0.55 -2.2 0  0.6499999999999999 -2.2 0  0.75 -2.2 0  -0.75 -2.1 0  -0.65 -2.1 0  -0.55 -2.1 0  -0.45 -2.1 0  -0.35 -2.1 0  -0.25 -2.1 0  -0.15 -2.1 0  -0.05000000000000004 -2.1 0  0.05000000000000004 -2.1 0  0.15 -2.1 0  0.25 -2.1 0  0.3500000000000001 -2.1 0  0.45 -2.1 0  0.55 -2.1 0  0.6499999999999999 -2.1 0  0.75 -2.1 0  -0.75 -2 0  -0.65 -2 0  -0.55 -2 0  -0.45 -2 0  -0.35 -2 0  -0.25 -2 0  -0.15 -2 0  -0.05000000000000004 -2 0  0.05000000000000004 -2 0  0.15 -2 0  0.25 -2 0  0.3500000000000001 -2 0  0.45 -2 0  0.55 -2 0  0.6499999999999999 -2 0  0.75 -2 0  -0.75 -1.9 0  -0.65 -1.9 0  -0.55 -1.9 0  -0.45 -1.9 0  -0.35 -1.9 0  -0.25 -1.9 0  -0.15 -1.9 0  -0.05000000000000004 -1.9 0  0.05000000000000004 -1.9 0  0.15 -1.9 0  0.25 -1.9 0  0.3500000000000001 -1.9 0  0.45 -1.9 0  0.55 -1.9 0  0.6499999999999999 -1.9 0  0.75 -1.9 0  -0.75 -1.8 0  -0.65 -1.8 0  -0.55 -1.8 0  -0.45 -1.8 0  -0.35 -1.8 0  -0.25 -1.8 0  -0.15 -1.8 0  -0.05000000000000004 -1.8 0  0.05000000000000004 -1.8 0  0.15 -1.8 0  0.25 -1.8 0  0.3500000000000001 -1.8 0  0.45 -1.8 0  0.55 -1.8 0  0.6499999999999999 -1.8 0  0.75 -1.8 0  -0.75 -1.7 0  -0.65 -1.7 0  -0.55 -1.7 0  -0.45 -1.7 0  -0.35 -1.7 0  -0.25 -1.7 0  -0.15 -1.7 0  -0.05000000000000004 -1.7 0  0.05000000000000004 -1.7 0  0.15 -1.7 0  0.25 -1.7 0  0.3500000000000001 -1.7 0  0.45 -1.7 0  0.55 -1.7 0  0.6499999999999999 -1.7 0  0.75 -1.7 0  -0.75 -1.6 0  -0.65 -1.6 0  -0.55 -1.6 0  -0.45 -1.6 0  -0.35 -1.6 0  -0.25 -1.6 0  -0.15 -1.6 0  -0.05000000000000004 -1.6 0  0.05000000000000004 -1.6 0  0.15 -1.6 0  0.25 -1.6 0  0.3500000000000001 -1.6 0  0.45 -1.6 0  0.55 -1.6 0  0.6499999999999999 -1.6 0  0.75 -1.6 0  -0.75 -1.5 0  -0.65 -1.5 0  -0.55 -1.5 0  -0.45 -1.5 0  -0.35 -1.5 0  -0.25 -1.5 0  -0.15 -1.5 0  -0.05000000000000004 -1.5 0  0.05000000000000004 -1.5 0  0.15 -1.5 0  0.25 -1.5 0  0.3500000000000001 -1.5 0  0.45 -1.5 0  0.55 -1.5 0  0.6499999999999999 -1.5 0  0.75 -1.5 0  -0.75 -1.4 0  -0.65 -1.4 0  -0.55 -1.4 0  -0.45 -1.4 0  -0.35 -1.4 0  -0.25 -1.4 0  -0.15 -1.4 0  -0.05000000000000004 -1.4 0  0.05000000000000004 -1.4 0  0.15 -1.4 0  0.25 -1.4 0  0.3500000000000001 -1.4 0  0.45 -1.4 0  0.55 -1.4 0  0.6499999999999999 -1.4 0  0.75 -1.4 0  -0.75 -1.3 0  -0.65 -1.3 0  -0.55 -1.3 0  -0.45 -1.3 0  -0.35 -1.3 0  -0.25 -1.3 0  -0.15 -1.3 0  -0.05000000000000004 -1.3 0  0.05000000000000004 -1.3 0  0.15 -1.3 0  0.25 -1.3 0  0.3500000000000001 -1.3 0  0.45 -1.3 0  0.55 -1.3 0  0.6499999999999999 -1.3 0  0.75 -1.3 0  -0.75 -1.2 0  -0.65 -1.2 0  -0.55 -1.2 0  -0.45 -1.2 0  -0.35 -1.2 0  -0.25 -1.2 0  -0.15 -1.2 0  -0.05000000000000004 -1.2 0  0.05000000000000004 -1.2 0  0.15 -1.2 0  0.25 -1.2 0  0.3500000000000001 -1.2 0  0.45 -1.2 0  0.55 -1.2 0  0.6499999999999999 -1.2 0  0.75 -1.2 0  -0.75 -1.1 0  -0.65 -1.1 0  -0.55 -1.1 0  -0.45 -1.1 0  -0.35 -1.1 0  -0.25 -1.1 0  -0.15 -1.1 0  -0.05000000000000004 -1.1 0  0.05000000000000004 -1.1 0  0.15 -1.1 0  0.25 -1.1 0  0.3500000000000001 -1.1 0  0.45 -1.1 0  0.55 -1.1 0  0.6499999999999999 -1.1 0  0.75 -1.1 0  -0.75 -1 0  -0.65 -1 0  -0.55 -1 0  -0.45 -1 0  -0.35 -1 0  -0.25 -1 0  -0.15 -1 0  -0.05000000000000004 -1 0  0.05000000000000004 -1 0  0.15 -1 0  0.25 -1 0  0.3500000000000001 -1 0  0.45 -1 0  0.55 -1 0  0.6499999999999999 -1 0  0.75 -1 0  -0.75 -0.8999999999999999 0  -0.65 -0.899999
[...]
<PointData  Vectors="displacement"> 
<DataArray  type="Float64"  Name="displacement"  NumberOfComponents="3" format="ascii">-8.8162076311671683e-36 0.0000000000000000e+00 0.0000000000000000e+00  1.7546139172995580e-36 3.4592648010400173e-21 0.0000000000000000e+00  -5.2897245787003118e-36 0.0000000000000000e+00 0.0000000000000000e+00  -1.6536846491762084e-36 -2.8547424655882908e-21 0.0000000000000000e+00  -8.8162076311671844e-36 -1.2407709188295455e-21 0.0000000000000000e+00  -4.9468613463319726e-35 -2.0198853158186508e-21 0.0000000000000000e+00  1.0579449157400625e-35 9.9261673506363678e-22 0.0000000000000000e+00  -1.8983041383997188e-35 -6.7224580641272651e-21 0.0000000000000000e+00  -3.5264830524668737e-35 2.4815418376590909e-21 0.0000000000000000e+00  3.1876446874720126e-35 -5.0909982030325700e-22 0.0000000000000000e+00  -7.4056144101804305e-35 -2.4815418376590896e-22 0.0000000000000000e+00  2.6791284088541086e-35 -2.4815418376590936e-21 0.0000000000000000e+00  -1.9395656788567805e-35 7.4446255129772735e-22 0.0000000000000000e+00  -6.6121557233753859e-36 -5.5834691347329528e-22 0.0000000000000000e+00  1.7632415262334386e-36 0.0000000000000000e+00 0.0000000000000000e+00  -7.0529661049337424e-36 -2.9778502051909072e-21 0.0000000000000000e+00  7.0529661049336997e-36 -2.0539572323264404e-05 0.0000000000000000e+00  -6.0682021478755586e-20 -2.0539572323264438e-05 0.0000000000000000e+00  -1.0183088402639702e-19 -2.0539572323264428e-05 0.0000000000000000e+00  -1.2508527128035043e-19 -2.0539572323264428e-05 0.0000000000000000e+00  -1.4260221357996147e-19 -2.0539572323264435e-05 0.0000000000000000e+00  -2.0948680904380391e-19 -2.0539572323264435e-05 0.0000000000000000e+00  -2.7150827230627342e-19 -2.0539572323264479e-05 0.0000000000000000e+00  -3.0994520712991676e-19 -2.0539572323264469e-05 0.0000000000000000e+00  -3.1915088258640783e-19 -2.0539572323264479e-05 0.0000000000000000e+00  -3.2906683443387425e-19 -2.0539572323264502e-05 0.0000000000000000e+00  -3.0725365008476871e-19 -2.0539572323264516e-05 0.0000000000000000e+00  -2.6295321556952775e-19 -2.0539572323264570e-05 0.0000000000000000e+00  -2.1086544606219551e-19 -2.0539572323264635e-05 0.0000000000000000e+00  -1.4237842053421519e-19 -2.0539572323264685e-05 0.0000000000000000e+00  -7.3722570507141364e-20 -2.0539572323264733e-05 0.0000000000000000e+00  4.2337711518094805e-36 -2.0539572323264723e-05 0.0000000000000000e+00  -5.2897245787002978e-36 -4.1200686699892315e-05 0.0000000000000000e+00  -9.4587448954045595e-20 -4.1200686699892328e-05 0.0000000000000000e+00  -1.7608467060000820e-19 -4.1200686699892362e-05 0.0000000000000000e+00  -2.4589002054787903e-19 -4.1200686699892389e-05 0.0000000000000000e+00  -3.1157735912493696e-19 -4.1200686699892376e-05 0.0000000000000000e+00  -3.8999457270091935e-19 -4.1200686699892396e-05 0.0000000000000000e+00  -4.7223198198593623e-19 -4.1200686699892443e-05 0.0000000000000000e+00  -5.5211200673743551e-19 -4.1200686699892525e-05 0.0000000000000000e+00  -5.8610437120578232e-19 -4.1200686699892464e-05 0.0000000000000000e+00  -5.9877233311945201e-19 -4.1200686699892559e-05 0.0000000000000000e+00  -5.4493968640715740e-19 -4.1200686699892599e-05 0.0000000000000000e+00  -4.5422687021852361e-19 -4.1200686699892789e-05 0.0000000000000000e+00  -3.7333868304393400e-19 -4.1200686699892911e-05 0.0000000000000000e+00  -2.5251470747914846e-19 -4.1200686699892986e-05 0.0000000000000000e+00  -1.3083123780559569e-19 -4.1200686699893053e-05 0.0000000000000000e+00  1.4532967267002117e-35 -4.1200686699893074e-05 0.0000000000000000e+00  5.7856362579534510e-36 -6.2104842683882174e-05 0.0000000000000000e+00  -1.4154967536230431e-19 -6.2104842683882310e-05 0.0000000000000000e+00  -2.4540381304196827e-19 -6.2104842683882255e-05 0.0000000000000000e+00  -3.4894956754695874e-19 -6.2104842683882377e-05 0.0000000000000000e+00  -4.5640580190079284e-19 -6.2104842683882377e-05 0.0000000000000000e+00  -5.6012842902206495e-19 -6.2104842683882391e-05 0.0000000000000000e+00  -6.4769858968953579e-19 -6.2104842683882445e-05 0.0000000000000000e+00  -7.1273220439558680e-19 -6.2104842683882567e-05 0.0000000000000000e+00  -7.6405792725302036e-19 -6.2104842683882581e-05 0.0000000000000000e+00  -7.6688519657235392e-19 -6.2104842683882676e-05 0.0000000000000000e+00  -7.3159844716884462e-19 -6.2104842683882811e-05 0.0000000000000000e+00  -6.3100095832123419e-19 -6.2104842683883001e-05 0.0000000000000000e+00  -4.8824436542268495e-19 -6.2104842683883218e-05 0.0000000000000000e+00  -3.3031710689893644e-19 -6.2104842683883435e-05 0.0000000000000000e+00  -1.7627879218021202e-19 -6.2104842683883502e-05 0.0000000000000000e+00  3.0982672532387441e-35 -6.2104842683883543e-05 0.0000000000000000e+00  -2.2922139841034524e-35 -8.3373449320213553e-05 0.0000000000000000e+00  -1.5463583962932402e-19 -8.3373449320213593e-05 0.0000000000000000e+00  -3.2386313809533953e-19 -8.3373449320213661e-05 0.0000000000000000e+00  -4.6198577695541069e-19 -8.3373449320213661e-05 0.0000000000000000e+00  -6.1183186402000523e-19 -8.3373449320213756e-05 0.0000000000000000e+00  -7.2508918992417310e-19 -8.3373449320213851e-05 0.0000000000000000e+00  -8.1925113616341731e-19 -8.3373449320214000e-05 0.0000000000000000e+00  -9.0398461149903287e-19 -8.3373449320213986e-05 0.0000000000000000e+00  -9.1343396426298076e-19 -8.3373449320214027e-05 0.0000000000000000e+00  -9.2982840446335514e-19 -8.3373449320214000e-05 0.0000000000000000e+00  -9.0575538469502970e-19 -8.3373449320214393e-05 0.0000000000000000e+00  -7.7686356449073619e-19 -8.3373449320214651e-05 0.0000000000000000e+00  -5.9144629389471623e-19 -8.3373449320214962e-05 0.0000000000000000e+00  -4.1719821235685541e-19 -8.3373449320215152e-05 0.0000000000000000e+00  -2.2368729335220583e-19 -8.3373449320215410e-05 0.0000000000000000e+00  1.0579449157400545e-35 -8.3373449320215423e-05 0.0000000000000000e+00  4.2360708495060937e-35 -1.0512776624719564e-04 0.0000000000000000e+00  -1.9902420004918040e-19 -1.0512776624719557e-04 0.0000000000000000e+00  -4.0030759647196200e-19 -1.0512776624719572e-04 0.0000000000000000e+00  -5.9247741672994628e-19 -1.0512776624719586e-04 0.0000000000000000e+00  -7.5919238950145846e-19 -1.0512776624719586e-04 0.0000000000000000e+00  -8.9182451872234548e-19 -1.0512776624719604e-04 0.0000000000000000e+00  -9.8915669275904076e-19 -1.0512776624719605e-04 0.0000000000000000e+00  -1.0490894925098368e-18 -1.0512776624719631e-04 0.0000000000000000e+00  -1.1006347575993337e-18 -1.0512776624719623e-04 0.0000000000000000e+00  -1.0881779283842252e-18 -1.0512776624719650e-04 0.0000000000000000e+00  -1.0303828574204518e-18 -1.0512776624719663e-04 0.0000000000000000e+00  -8.9951098926005372e-19 -1.0512776624719715e-04 0.0000000000000000e+00  -7.0078615082864686e-19 -1.0512776624719746e-04 0.0000000000000000e+00  -4.8391614510218202e-19 -1.0512776624719777e-04 0.0000000000000000e+00  -2.4231585375666777e-19 -1.0512776624719793e-04 0.0000000000000000e+00  3.8545324115781409e-35 -1.0512776624719799e-04 0.0000000000000000e+00  -1.4105932209867431e-35 -1.2748882879561432e-04 0.0000000000000000e+00  -2.6340074385302086e-19 -1.2748882879561445e-04 0.0000000000000000e+00  -4.9605627526944828e-19 -1.2748882879561442e-04 0.0000000000000000e+00  -7.1341532554900220e-19 -1.2748882879561456e-04 0.0000000000000000e+00  -8.8556904154118632e-19 -1.2748882879561469e-04 0.0000000000000000e+00  -9.9147915244321390e-19 -1.2748882879561499e-04 0.0000000000000000e+00  -1.1045502741183362e-18 -1.2748882879561499e-04 0.0000000000000000e+00  -1.2313258980086912e-18 -1.2748882879561494e-04 0.0000000000000000e+00  -1.3045263828731443e-18 -1.2748882879561518e-04 0.0000000000000000e+00  -1.2852364010459088e-18 -1.2748882879561537e-04 0.0000000000000000e+00  -1.1637634344691209e-18 -1.2748882879561562e-04 0.0000000000000000e+00  -1.0060473086439321e-18 -1.2748882879561624e-04 0.0000000000000000e+00  -8.1637116075097630e-19 -1.2748882879561673e-04 0.0000000000000000e+00  -5.4524891856832000e-19 -1.2748882879561711e-04 0.0000000000000000e+00  -2.6746369181456488e-19 -1.2748882879561735e-04 0.0000000000000000e+00  -4.5926910275578007e-35 -1.2748882879561722e-04 0.0000000000000000e+00  8.3249018989509946e-36 -1.5057735235652776e-04 0.0000000000000000e+00  -3.0358316889032967e-19 -1.5057735235652763e-04 0.0000000000000000e+00  -5.7438650643564132e-19 -1.5057735235652779e-04 0.0000000000000000e+00  -7.8499137325039909e-19 -1.5057735235652798e-04 0.0000000000000000e+00  -9.6783229020436519e-19 -1.5057735235652847e-04 0.0000000000000000e+00  -1.1078132693504160e-18 -1.5057735235652836e-04 0.0000000000000000e+00  -1.2730299541607554e-18 -1.5057735235652847e-04 0.0000000000000000e+00  -1.3960094028864001e-18 -1.5057735235652852e-04 0.0000000000000000e+00  -1.4397623111840491e-18 -1.5057735235652863e-04 0.0000000000000000e+00  -1.4181783362353216e-18 -1.5057735235652909e-04 0.0000000000000000e+00  -1.3043871953037968e-18 -1.5057735235652934e-04 0.0000000000000000e+00  -1.1293488046036533e-18 -1.5057735235652993e-04 0.0000000000000000e+00  -9.1484623215130778e-19 -1.5057735235653047e-04 0.0000000000000000e+00  -5.9775681413900558e-19 -1.5057735235653104e-04 0.0000000000000000e+00  -3.0575940056539039e-19 -1.5057735235653110e-04 0.0000000000000000e+00  1.6121065382705643e-35 -1.5057735235653118e-04 0.0000000000000000e+00  1.7632415262334310e-35 -1.7451361179333724e-04 0.0000000000000000e+00  -3.0357454831042948e-19 -1.7451361179333718e-04 0.0000000000000000e+00  -5.9987706818862737e-19 -1.7451361179333748e-04 0.0000000000000000e+00  -8.7374077741441672e-19 -1.7451361179333754e-04 0.0000000000000000e+00  -1.0776924182776977e-18 -1.7451361179333800e-04 0.0000000000000000e+00  -1.2805171714319001e-18 -1.7451361179333810e-04 0.0000000000000000e+00  -1.4811131992288531e-18 -1.7451361179333816e-04 0.0000000000000000e+00  -1.5654944766783206e-18 -1.7451361179333805e-04 0.0000000000000000e+00  -1.5548268540573058e-18 -1.7451361179333840e-04 0.0000000000000000e+00  -1.5429049779103298e-18 -1.7451361179333873e-04 0.0000000000000000e+00  -1.4971217008941722e-18 -1.7451361179333924e-04 0.0000000000000000e+00  -1.2899333660756994e-18 -1.7451361179333979e-04 0.0000000000000000e+00  -1.0121990240899535e-18 -1.7451361179334054e-04 0.0000000000000000e+00  -6.8238088174967564e-19 -1.7451361179334111e-04 0.0000000000000000e+00  -3.6713950603991316e-19 -1.7451361179334114e-04 0.0000000000000000e+00  -2.8211864419734890e-35 -1.7451361179334114e-04 0.0000000000000000e+00  -3.5310219474169575e-35 -1.9941729228391784e-04 0.0000000000000000e+00  -3.1789704370410535e-19 -1.9941729228391795e-04 0.0000000000000000e+00  -6.4616196951127466e-19 -1.9941729228391793e-04 0.0000000000000000e+00  -9.7443660896373375e-19 -1.9941729228391833e-04 0.0000000000000000e+00  -1.2144186439690655e-18 -1.9941729228391887e-04 0.0000000000000000e+00  -1.4375429378044125e-18 -1.9941729228391887e-04 0.0000000000000000e+00  -1.5810981322168071e-18 -1.9941729228391898e-04 0.0000000000000000e+00  -1.6589907898581100e-18 -1.9941729228391901e-04 0.0000000000000000e+00  -1.6777395975289467e-18 -1.9941729228391966e-04 0.0000000000000000e+00  -1.7705588101338967e-18 -1.9941729228391936e-04 0.0000000000000000e+00  -1.6954454062235892e-18 -1.9941729228392026e-04 0.0000000000000000e+00  -1.4281015730676940e-18 -1.9941729228392093e-04 0.0000000000000000e+00  -1.1148407156858365e-18 -1.9941729228392159e-04 0.0000000000000000e+00  -7.9892613135543390e-19 -1.9941729228392213e-04 0.0000000000000000e+00  -4.3601207605905325e-19 -1.9941729228392226e-04 0.0000000000000000e+00  -7.3286178567022682e-36 -1.9941729228392221e-04 0.0000000000000000e+00  4.2317796629602382e-35 -2.2540730868259333e-04 0.0000000000000000e+00  -4.0486964131731700e-19 -2.2540730868259322e-04 0.0000000000000000e+00  -7.3634785988049536e-19 -2.2540730868259319e-04 0.0000000000000000e+00  -1.0592793440170350e-18 -2.2540730868259368e-04 0.0000000000000000e+00  -1.3342930041619347e-18 -2.2540730868259433e-04 0.0000000000000000e+00  -1.4980920626407176e-18 -2.2540730868259446e-04 0.0000000000000000e+00  -1.6326655984002734e-18 -2.2540730868259455e-04 0.0000000000000000e+00  -1.7667584215597938e-18 -2.2540730868259474e-04 0.0000000000000000e+00  -1.8801341864337719e-18 -2.2540730868259495e-04 0.0000000000000000e+00  -1.8740138324288649e-18 -2.2540730868259498e-04 0.0000000000000000e+00  -1.8092849727345405e-18 -2.2540730868259604e-04 0.0000000000000000e+00  -1.6044501595408988e-18 -2.2540730868259674e-04 0.0000000000000000e+00  -1.2668318745344139e-18 -2.2540730868259742e-04 0.0000000000000000e+00  -8.9922070503831677e-19 -2.2540730868259772e-04 0.0000000000000000e+00  -4.8253687634485679e-19 -2.2540730868259831e-04 0.0000000000000000e+00  1.0260064999383182e-34 -2.2540730868259831e-04 0.0000000000000000e+00  -8.8054562031930118e-36 -2.5260159127499932e-04 0.0000000000000000e+00  -4.0486964131731743e-19 -2.5260159127499948e-04 0.0000000000000000e+00  -8.1708354343169368e-19 -2.5260159127499959e-04 0.0000000000000000e+00  -1.0953168944689083e-18 -2.5260159127499969e-04 0.0000000000000000e+00  -1.3591671355579040e-18 -2.5260159127500056e-04 0.0000000000000000e+00  -1.5552034576015136e-18 -2.5260159127500083e-04 0.0000000000000000e+00  -1.7369916647087274e-18 -2.5260159127500056e-04 0.0000000000000000e+00  -1.9069505334044077e-18 -2.5260159127500051e-04 0.0000000000000000e+00  -2.0158093707025573e-18 -2.5260159127500132e-04 0.0000000000000000e+00  -1.9778911201209565e-18 -2.5260159127500159e-04 0.0000000000000000e+00  -1.8500661444871836e-18 -2.5260159127500235e-04 0.0000000000000000e+00  -1.6579251610084128e-18 -2.5260159127500327e-04 0.0000000000000000e+00  -1.3400072523970077e-18 -2.5260159127500371e-04 0.0000000000000000e+00  -9.0380953219124855e-19 -2.5260159127500463e-04 0.0000000000000000e+00  -4.4493428079268438e-19 -2.5260159127500463e-04 0.0000000000000000e+00  -3.2745914058620819e-35 -2.5260159127500506e-04 0.0000000000000000e+00  1.4105932209867447e-35 -2.8111683664502684e-04 0.0000000000000000e+00  -4.7821145491367682e-19 -2.8111683664502662e-04 0.0000000000000000e+00  -8.2517313668238816e-19 -2.8111683664502695e-04 0.0000000000000000e+00  -1.1095220839909127e-18 -2.8111683664502744e-04 0.0000000000000000e+00  -1.3608343574449530e-18 -2.8111683664502793e-04 0.0000000000000000e+00  -1.6206545941554781e-18 -2.8111683664502847e-04 0.0000000000000000e+00  -1.8313217559140199e-18 -2.8111683664502841e-04 0.0000000000000000e+00  -2.0251184364081894e-18 -2.8111683664502868e-04 0.0000000000000000e+00  -2.1311364324893889e-18 -2.8111683664502879e-04 0.0000000000000000e+00  -2.1009888241933780e-18 -2.8111683664502950e-04 0.0000000000000000e+00  -1.9013762247989164e-18 -2.8111683664502999e-04 0.0000000000000000e+00  -1.6502131719540384e-18 -2.8111683664503091e-04 0.0000000000000000e+00  -1.3001785957596555e-18 -2.8111683664503172e-04 0.0000000000000000e+00  -8.0399331612090401e-19 -2.8111683664503248e-04 0.0000000000000000e+00  -3.7656226880105457e-19 -2.8111683664503302e-04 0.0000000000000000e+00  6.3476694944403504e-35 -2.8111683664503291e-04 0.0000000000000000e+00  9.1992045004083787e-35 -3.1106822326422114e-04 0.0000000000000000e+00  -4.1284073728690213e-19 -3.1106822326422109e-04 0.0000000000000000e+00  -7.9884757856108441e-19 -3.1106822326422136e-04 0.0000000000000000e+00  -1.1334098241822683e-18 -3.1106822326422212e-04 0.0000000000000000e+00  -1.4714164728390633e-18 -3.1106822326422255e-04 0.0000000000000000e+00  -1.7076412659626766e-18 -3.1106822326422309e-04 0.0000000000000000e+00  -1.9018833486389434e-18 -3.1106822326422315e-04 0.0000000000000000e+00  -2.1087274142605789e-18 -3.1106822326422250e-04 0.0000000000000000e+00  -2.2256552033688210e-18 -3.1106822326422363e-04 0.0000000000000000e+00  -2.2362344407025112e-18 -3.1106822326422439e-04 0.0000000000000000e+00  -2.0221631158415256e-18 -3.1106822326422488e-04 0.0000000000000000e+00  -1.6972957637331772e-18 -3.1106822326422575e-04 0.0000000000000000e+00  -1.3124716265994046e-18 -3.1106822326422678e-04 0.0000000000000000e+00  -8.3397415931658940e-19 -3.1106822326422748e-04 0.0000000000000000e+00  -4.2201959009507600e-19 -3.1106822326422786e-04 0.0000000000000000e+00  2.9661987634926442e-35 -3.1106822326422748e-04 0.0000000000000000e+00  -1.4105932209867431e-35 -3.4256909233125558e-04 0.0000000000000000e+00  -4.1113170422233472e-19 -3.4256909233125596e-04 0.0000000000000000e+00  -8.2326076417624703e-19 -3.4256909233125590e-04 0.0000000000000000e+00  -1.2112591344262698e-18 -3.4256909233125639e-04 0.0000000000000000e+00  -1.4918028322232578e-18 -3.4256909233125715e-04 0.0000000000000000e+00  -1.8739928513885858e-18 -3.4256909233125785e-04 0.0000000000000000e+00  -2.0951415770137864e-18 -3.4256909233125731e-04 0.0000000000000000e+00  -2.1991581882130545e-18 -3.4256909233125791e-04 0.0000000000000000e+00  -2.2255251018770606e-18 -3.4256909233125818e-04 0.0000000000000000e+00  -2.3308259398168505e-18 -3.4256909233125883e-04 0.0000000000000000e+00  -2.2055356108891054e-18 -3.4256909233126008e-04 0.0000000000000000e+00  -1.8391079012990228e-18 -3.4256909233126062e-04 0.0000000000000000e+00  -1.3782742562072603e-18 -3.4256909233126181e-04 0.0000000000000000e+00  -9.0048095936335366e-19 -3.4256909233126208e-04 0.0000000000000000e+00  -4.5304736064437791e-19 -3.4256909233126289e-04 0.0000000000000000e+00  -1.1904325048175371e-34 -3.4256909233126251e-04 0.0000000000000000e+00  5.8876214149404850e-35 -3.7573059531259442e-04 0.0000000000000000e+00  -4.9274425437888836e-19 -3.7573059531259524e-04 0.0000000000000000e+00  -9.0473000492189412e-19 -3.7573059531259464e-04 0.0000000000000000e+00  -1.2707021462903451e-18 -3.7573059531259632e-04 0.0000000000000000e+00  -1.5919405471511545e-18 -3.7573059531259670e-04 0.0000000000000000e+00  -1.8835465906185203e-18 -3.7573059531259659e-04 0.0000000000000000e+00  -2.0861443830854673e-18 -3.7573059531259708e-04 0.0000000000000000e+00  -2.2481409742792407e-18 -3.7573059531259719e-04 0.0000000000000000e+00  -2.3753903602462025e-18 -3.7573059531259751e-04 0.0000000000000000e+00  -2.4462915124683238e-18 -3.7573059531259805e-04 0.0000000000000000e+00  -2.3417996280463159e-18 -3.7573059531259936e-04 0.0000000000000000e+00  -1.9822193404414564e-18 -3.7573059531260098e-04 0.0000000000000000e+00  -1.5284952622393821e-18 -3.7573059531260158e-04 0.0000000000000000e+00  -1.0472383839056430e-18 -3.7573059531260190e-04 0.0000000000000000e+00  -5.5647165664656265e-19 -3.7573059531260239e-04 0.0000000000000000e+00  6.4988044824032222e-35 -3.7573059531260261e-04 0.0000000000000000e+00  -2.1158898314801148e-35 -4.1066131054505917e-04 0.0000000000000000e+00  -4.9245933902515674e-19 -4.1066131054505890e-04 0.0000000000000000e+00  -1.0191298161489551e-18 -4.1066131054505922e-04 0.0000000000000000e+00  -1.3747240871767563e-18 -4.1066131054505998e-04 0.0000000000000000e+00  -1.6468200821469114e-18 -4.1066131054506047e-04 0.0000000000000000e+00  -1.8735964256396499e-18 -4.1066131054506107e-04 0.0000000000000000e+00  -2.0872446202115942e-18 -4.1066131054506069e-04 0.0000000000000000e+00  -2.3075165821254495e-18 -4.1066131054506052e-04 0.0000000000000000e+00  -2.5520314236927613e-18 -4.1066131054506134e-04 0.0000000000000000e+00  -2.5619633391030886e-18 -4.1066131054506210e-04 0.0000000000000000e+00  -2.3580623601256369e-18 -4.1066131054506329e-04 0.0000000000000000e+00  -2.0412309296893046e-18 -4.1066131054506426e-04 0.0000000000000000e+00  -1.6076151537045022e-18 -4.1066131054506605e-04 0.0000000000000000e+00  -1.1485618801727175e-18 -4.1066131054506654e-04 0.0000000000000000e+00  -5.8871386813348058e-19 -4.1066131054506681e-04 0.0000000000000000e+00  7.7582627154270858e-35 -4.1066131054506703e-04 0.0000000000000000e+00  -2.1254264831669837e-35 -4.4746683213652027e-04 0.0000000000000000e+00  -5.3574673067219905e-19 -4.4746683213651989e-04 0.0000000000000000e+00  -1.0051039841128561e-18 -4.4746683213652043e-04 0.0000000000000000e+00  -1.3381409576852677e-18 -4.4746683213652135e-04 0.0000000000000000e+00  -1.6635144532621134e-18 -4.474668321