<?xml version="1.0"?>
<VTKFile type="UnstructuredGrid"  version="0.1"  >
<UnstructuredGrid>
<Piece  NumberOfPoints="431" NumberOfCells="800">
<Points>
<DataArray  type="Float64"  NumberOfComponents="3"  format="ascii">-0.25 -1 0  -0.2 -1 0  -0.15 -1 0  -0.1 -1 0  -0.04999999999999999 -1 0  0 -1 0  0.04999999999999999 -1 0  0.09999999999999998 -1 0  0.15 -1 0  0.2 -1 0  0.25 -1 0  -0.25 -0.95 0  -0.2 -0.95 0  -0.15 -0.95 0  -0.1 -0.95 0  -0.04999999999999999 -0.95 0  0 -0.95 0  0.04999999999999999 -0.95 0  0.09999999999999998 -0.95 0  0.15 -0.95 0  0.2 -0.95 0  0.25 -0.95 0  -0.25 -0.9 0  -0.2 -0.9 0  -0.15 -0.9 0  -0.1 -0.9 0  -0.04999999999999999 -0.9 0  0 -0.9 0  0.04999999999999999 -0.9 0  0.09999999999999998 -0.9 0  0.15 -0.9 0  0.2 -0.9 0  0.25 -0.9 0  -0.25 -0.85 0  -0.2 -0.85 0  -0.15 -0.85 0  -0.1 -0.85 0  -0.04999999999999999 -0.85 0  0 -0.85 0  0.04999999999999999 -0.85 0  0.09999999999999998 -0.85 0  0.15 -0.85 0  0.2 -0.85 0  0.25 -0.85 0  -0.25 -0.8 0  -0.2 -0.8 0  -0.15 -0.8 0  -0.1 -0.8 0  -0.04999999999999999 -0.8 0  0 -0.8 0  0.04999999999999999 -0.8 0  0.09999999999999998 -0.8 0  0.15 -0.8 0  0.2 -0.8 0  0.25 -0.8 0  -0.25 -0.75 0  -0.2 -0.75 0  -0.15 -0.75 0  -0.1 -0.75 0  -0.04999999999999999 -0.75 0  0 -0.75 0  0.04999999999999999 -0.75 0  0.09999999999999998 -0.75 0  0.15 -0.75 0  0.2 -0.75 0  0.25 -0.75 0  -0.25 -0.7 0  -0.2 -0.7 0  -0.15 -0.7 0  -0.1 -0.7 0  -0.04999999999999999 -0.7 0  0 -0.7 0  0.04999999999999999 -0.7 0  0.09999999999999998 -0.7 0  0.15 -0.7 0  0.2 -0.7 0  0.25 -0.7 0  -0.25 -0.65 0  -0.2 -0.65 0  -0.15 -0.65 0  -0.1 -0.65 0  -0.04999999999999999 -0.65 0  0 -0.65 0  0.04999999999999999 -0.65 0  0.09999999999999998 -0.65 0  0.15 -0.65 0  0.2 -0.65 0  0.25 -0.65 0  -0.25 -0.6 0  -0.2 -0.6 0  -0.15 -0.6 0  -0.1 -0.6 0  -0.04999999999999999 -0.6 0  0 -0.6 0  0.04999999999999999 -0.6 0  0.09999999999999998 -0.6 0  0.15 -0.6 0  0.2 -0.6 0  0.25 -0.6 0  -0.25 -0.55 0  -0.2 -0.55 0  -0.15 -0.55 0  -0.1 -0.55 0  -0.04999999999999999 -0.55 0  0 -0.55 0  0.04999999999999999 -0.55 0  0.09999999999999998 -0.55 0  0.15 -0.55 0  0.2 -0.55 0  0.25 -0.55 0  -0.25 -0.5 0  -0.2 -0.5 0  -0.15 -0.5 0  -0.1 -0.5 0  -0.04999999999999999 -0.5 0  0 -0.5 0  0.04999999999999999 -0.5 0  0.09999999999999998 -0.5 0  0.15 -0.5 0  0.2 -0.5 0  0.25 -0.5 0  -0.25 -0.45 0  -0.2 -0.45 0  -0.15 -0.45 0  -0.1 -0.45 0  -0.04999999999999999 -0.45 0  0 -0.45 0  0.04999999999999999 -0.45 0  0.09999999999999998 -0.45 0  0.15 -0.45 0  0.2 -0.45 0  0.25 -0.45 0  -0.25 -0.4 0  -0.2 -0.4 0  -0.15 -0.4 0  -0.1 -0.4 0  -0.04999999999999999 -0.4 0  0 -0.4 0  0.04999999999999999 -0.4 0  0.09999999999999998 -0.4 0  0.15 -0.4 0  0.2 -0.4 0  0.25 -0.4 0  -0.25 -0.35 0  -0.2 -0.35 0  -0.15 -0.35 0  -0.1 -0.35 0  -0.04999999999999999 -0.35 0  0 -0.35 0  0.04999999999999999 -0.35 0  0.09999999999999998 -0.35 0  0.15 -0.35 0  0.2 -0.35 0  0.25 -0.35 0  -0.25 -0.3 0  -0.2 -0.3 0  -0.15 -0.3 0  -0.1 -0.3 0  -0.04999999999999999 -0.3 0  0 -0.3 0  0.04999999999999999 -0.3 0  0.09999999999999998 -0.3 0  0.15 -0.3 0  0.2 -0.3 0  0.25 -0.3 0  -0.25 -0.25 0  -0.2 -0.25 0  -0.15 -0.25 0  -0.1 -0.25 0  -0.04999999999999999 -0.25 0  0 -0.25 0  0.04999999999999999 -0.25 0  0.09999999999999998 -0.25 0  0.15 -0.25 0  0.2 -0.25 0  0.25 -0.25 0  -0.25 -0.2 0  -0.2 -0.2 0  -0.15 -0.2 0  -0.1 -0.2 0  -0.04999999999999999 -0.2 0  0 -0.2 0  0.04999999999999999 -0.2 0  0.09999999999999998 -0.2 0  0.15 -0.2 0  0.2 -0.2 0  0.25 -0.2 0  -0.25 -0.15 0  -0.2 -0.15 0  -0.15 -0.15 0  -0.1 -0.15 0  -0.04999999999999999 -0.15 0  0 -0.15 0  0.04999999999999999 -0.15 0  0.09999999999999998 -0.15 0  0.15 -0.15 0  0.2 -0.15 0  0.25 -0.15 0  -0.25 -0.09999999999999998 0  -0.2 -0.09999999999999998 0  -0.15 -0.09999999999999998 0  -0.1 -0.09999999999999998 0  -0.04999999999999999 -0.09999999999999998 0  0 -0.09999999999999998 0  0.04999999999999999 -0.09999999999999998 0  0.09999999999999998 -0.09999999999999998 0  0.15 -0.09999999999999998 0  0.2 -0.09999999999999998 0  0.25 -0.09999999999999998 0  -0.25 -0.05000000000000004 0  -0.2 -0.05000000000000004 0  -0.15 -0.05000000000000004 0  -0.1 -0.05000000000000004 0  -0.04999999999999999 -0.05000000000000004 0  0 -0.05000000000000004 0  0.04999999999999999 -0.05000000000000004 0  0.09999999999999998 -0.05000000000000004 0  0.15 -0.05000000000000004 0  0.2 -0.05000000000000004 0  0.25 -0.05000000000000004 0  -0.25 0 0  -0.2 0 0  -0.15 0 0  -0.1 0 0  -0.04999999999999999 0 0  0 0 0  0.04999999999999999 0 0  0.09999999999999998 0 0  0.15 0 0  0.2 0 0  0.25 0 0  -0.225 -0.975 0  -0.175 -0.975 0  -0.125 -0.975 0  -0.07500000000000001 -0.975 0  -0.02499999999999999 -0.975 0  0.02500000000000002 -0.975 0  0.07500000000000001 -0.975 0  0.125 -0.975 0  0.175 -0.975 0  0.225 -0.975 0  -0.225 -0.925 0  -0.175 -0.925 0  -0.125 -0.925 0  -0.07500000000000001 -0.925 0  -0.02499999999999999 -0.925 0  0.02500000000000002 -0.925 0  0.07500000000000001 -0.925 0  0.125 -0.925 0  0.175 -0.925 0  0.225 -0.925 0  -0.225 -0.875 0  -0.175 -0.875 0  -0.125 -0.875 0  -0.07500000000000001 -0.875 0  -0.02499999999999999 -0.875 0  0.02500000000000002 -0.875 0  0.07500000000000001 -0.875 0  0.125 -0.875 0  0.175 -0.875 0  0.225 -0.875 0  -0.225 -0.825 0  -0.175 -0.825 0  -0.125 -0.825 0  -0.07500000000000001 -0.825 0  -0.02499999999999999 -0.825 0  0.02500000000000002 -0.825 0  0.07500000000000001 -0.825 0  0.125 -0.825 0  0.175 -0.825 0  0.225 -0.825 0  -0.225 -0.775 0  -0.175 -0.775 0  -0.125 -0.775 0  -0.07500000000000001 -0.775 0  -0.02499999999999999 -0.775 0  0.02500000000000002 -0.775 0  0.07500000000000001 -0.775 0  0.125 -0.775 0  0.175 -0.775 0  0.225 -0.775 0  -0.225 -0.725 0  -0.175 -0.725 0  -0.125 -0.725 0  -0.07500000000000001 -0.725 0  -0.02499999999999999 -0.725 0  0.02500000000000002 -0.725 0  0.07500000000000001 -0.725 0  0.125 -0.725 0  0.175 -0.725 0  0.225 -0.725 0  -0.225 -0.675 0  -0.175 -0.675 0  -0.125 -0.675 0  -0.07500000000000001 -0.675 0  -0.02499999999999999 -0.675 0  0.02500000000000002 -0.675 0  0.07500000000000001 -0.675 0  0.125 -0.675 0  0.175 -0.675 0  0.225 -0.675 0  -0.225 -0.625 0  -0.175 -0.625 0  -0.125 -0.625 0  -0.07500000000000001 -0.625 0  -0.02499999999999999 -0.625 0  0.02500000000000002 -0.625 0  0.07500000000000001 -0.625 0  0.125 -0.625 0  0.175 -0.625 0  0.225 -0.625 0  -0.225 -0.575 0  -0.175 -0.575 0  -0.125 -0.575 0  -0.07500000000000001 -0.575 0  -0.02499999999999999 -0.575 0  0.02500000000000002 -0.575 0  0.07500000000000001 -0.575 0  0.125 -0.575 0  0.175 -0.575 0  0.225 -0.575 0  -0.225 -0.525 0  -0.175 -0.525 0  -0.125 -0.525 0  -0.07500000000000001 -0.525 0  -0.02499999999999999 -0.525 0  0.02500000000000002 -0.525 0  0.07500000000000001 -0.525 0  0.125 -0.525 0  0.175 -0.525 0  0.225 -0.525 0  -0.225 -0.475 0  -0.175 -0.475 0  -0.125 -0.475 0  -0.07500000000000001 -0.475 0  -0.02499999999999999 -0.475 0  0.02500000000000002 -0.475 0  0.07500000000000001 -0.475 0  0.125 -0.475 0  0.175 -0.475 0  0.225 -0.475 0  -0.225 -0.425 0  -0.175 -0.425 0  -0.125 -0.425 0  -0.07500000000000001 -0.425 0  -0.02499999999999999 -0.425 0  0.02500000000000002 -0.425 0  0.07500000000000001 -0.425 0  0.125 -0.425 0  0.175 -0.425 0  0.225 -0.425 0  -0.225 -0.375 0  -0.175 -0.375 0  -0.125 -0.375 0  -0.07500000000000001 -0.375 0  -0.02499999999999999 -0.375 0  0.02500000000000002 -0.375 0  0.07500000000000001 -0.375 0  0.125 -0.375 0  0.175 -0.375 0  0.225 -0.375 0  -0.225 -0.325 0  -0.175 -0.325 0  -0.125 -0.325 0  -0.07500000000000001 -0.325 0  -0.02499999999999999 -0.325 0  0.02500000000000002 -0.325 0  0.07500000000000001 -0.325 0  0.125 -0.325 0  0.175 -0.325 0  0.225 -0.325 0  -0.225 -0.275 0  -0.175 -0.275 0  -0.125 -0.275 0  -0.07500000000000001 -0.275 0  -0.02499999999999999 -0.275 0  0.02500000000000002 -0.275 0  0.07500000000000001 -0.275 0  0.125 -0.275 0  0.175 -0.275 0  0.225 -0.275 0  -0.225 -0.225 0  -0.175 -0.225 0  -0.125 -0.225 0  -0.07500000000000001 -0.225 0  -0.02499999999999999 -0.225 0  0.02500000000000002 -0.225 0  0.07500000000000001 -0.225 0  0.125 -0.225 0  0.175 -0.225 0  0.225 -0.225 0  -0.225 -0.175 0  -0.175 -0.175 0  -0.125 -0.175 0  -0.07500000000000001 -0.175 0  -0.02499999999999999 -0.175 0  0.02500000000000002 -0.175 0  0.07500000000000001 -0.175 0  0.125 -0.175 0  0.175 -0.175 0  0.225 -0.175 0  -0.225 -0.125 0  -0.175 -0.125 0  -0.125 -0.125 0  -0.07500000000000001 -0.125 0  -0.02499999999999999 -0.125 0  0.02500000000000002 -0.125 0  0.07500000000000001 -0.125 0  0.125 -0.125 0  0.175 -0.125 0  0.225 -0.125 0  -0.225 -0.07499999999999996 0  -0.175 -0.07499999999999996 0  -0.125 -0.07499999999999996 0  -0.07500000000000001 -0.07499999999999996 0  -0.02499999999999999 -0.07499999999999996 0  0.02500000000000002 -0.07499999999999996 0  0.07500000000000001 -0.07499999999999996 0  0.125 -0.07499999999999996 0  0.175 -0.07499999999999996 0  0.225 -0.07499999999999996 0  -0.225 -0.02500000000000002 0  -0.175 -0.02500000000000002 0  -0.125 -0.02500000000000002 0  -0.07500000000000001 -0.02500000000000002 0  -0.02499999999999999 -0.02500000000000002 0  0.02500000000000002 -0.02500000000000002 0  0.07500000000000001 -0.02500000000000002 0  0.125 -0.02500000000000002 0  0.175 -0.02500000000000002 0  0.225 -0.02500000000000002 0  </DataArray>
</Points>
<Cells>
[...]
<PointData  Vectors="displacement"> 
<DataArray  type="Float64"  Name="displacement"  NumberOfComponents="3" format="ascii">-2.9340338996524279e-33 -1.0164395367051594e-18 0.0000000000000000e+00  -2.7083389842945473e-33 -1.2705494208814490e-18 0.0000000000000000e+00  2.1342275433529433e-32 4.8439696671105252e-19 0.0000000000000000e+00  -1.8055593228630322e-33 -4.0657581468206385e-18 0.0000000000000000e+00  1.9785495629485315e-32 -3.0692860678916928e-18 0.0000000000000000e+00  2.0763932212924862e-32 -1.0164395367051593e-18 0.0000000000000000e+00  -1.4677442869557850e-32 -3.8736868085858255e-18 0.0000000000000000e+00  1.4895864413620011e-32 2.5410988417628981e-19 0.0000000000000000e+00  -8.8934884094807817e-34 -1.6834779826679200e-18 0.0000000000000000e+00  -9.0277966143151612e-34 -5.0821976835257982e-18 0.0000000000000000e+00  3.3854237303681837e-34 -2.0328790734103181e-18 0.0000000000000000e+00  8.1250169528836567e-33 -3.0471975040253556e-02 0.0000000000000000e+00  4.9140961726672038e-17 -3.0471975040253525e-02 0.0000000000000000e+00  9.9573179931486657e-17 -3.0471975040253500e-02 0.0000000000000000e+00  1.1913102375289733e-16 -3.0471975040253466e-02 0.0000000000000000e+00  1.3476831805267509e-16 -3.0471975040253441e-02 0.0000000000000000e+00  1.3961942441635129e-16 -3.0471975040253424e-02 0.0000000000000000e+00  1.0675829007427012e-16 -3.0471975040253400e-02 0.0000000000000000e+00  6.1875128383313609e-17 -3.0471975040253424e-02 0.0000000000000000e+00  3.1604399266962203e-17 -3.0471975040253424e-02 0.0000000000000000e+00  6.1722947096303018e-18 -3.0471975040253403e-02 0.0000000000000000e+00  -2.2564977592575579e-33 -3.0471975040253431e-02 0.0000000000000000e+00  -6.2863782457253512e-33 -6.0985078238454782e-02 0.0000000000000000e+00  5.6123065052292557e-17 -6.0985078238454726e-02 0.0000000000000000e+00  1.3474747799394891e-16 -6.0985078238454705e-02 0.0000000000000000e+00  1.7836490378421907e-16 -6.0985078238454622e-02 0.0000000000000000e+00  2.1878712678563456e-16 -6.0985078238454608e-02 0.0000000000000000e+00  2.2407581393748813e-16 -6.0985078238454483e-02 0.0000000000000000e+00  1.7481965680037983e-16 -6.0985078238454477e-02 0.0000000000000000e+00  1.2641016443275124e-16 -6.0985078238454435e-02 0.0000000000000000e+00  6.5442846259220258e-17 -6.0985078238454477e-02 0.0000000000000000e+00  3.3209918533967431e-17 -6.0985078238454532e-02 0.0000000000000000e+00  4.0625084764418243e-33 -6.0985078238454511e-02 0.0000000000000000e+00  2.3472271197219429e-32 -9.1580184186461772e-02 0.0000000000000000e+00  7.2462714741006515e-17 -9.1580184186461661e-02 0.0000000000000000e+00  1.4898199007432570e-16 -9.1580184186461647e-02 0.0000000000000000e+00  2.3768474678518284e-16 -9.1580184186461494e-02 0.0000000000000000e+00  2.5164317222041720e-16 -9.1580184186461480e-02 0.0000000000000000e+00  2.5678848322327753e-16 -9.1580184186461397e-02 0.0000000000000000e+00  2.3560382290770035e-16 -9.1580184186461272e-02 0.0000000000000000e+00  1.6794755395838929e-16 -9.1580184186461355e-02 0.0000000000000000e+00  1.2453113282389112e-16 -9.1580184186461258e-02 0.0000000000000000e+00  6.4368879181775563e-17 -9.1580184186461328e-02 0.0000000000000000e+00  -6.3194576300206135e-33 -9.1580184186461300e-02 0.0000000000000000e+00  6.3935258672247862e-33 -1.2229766190712406e-01 0.0000000000000000e+00  1.0772007647133565e-16 -1.2229766190712429e-01 0.0000000000000000e+00  1.8023738533110099e-16 -1.2229766190712422e-01 0.0000000000000000e+00  2.1819973229602776e-16 -1.2229766190712393e-01 0.0000000000000000e+00  2.4846771596850153e-16 -1.2229766190712393e-01 0.0000000000000000e+00  2.8374883443672831e-16 -1.2229766190712368e-01 0.0000000000000000e+00  2.6700685596789151e-16 -1.2229766190712370e-01 0.0000000000000000e+00  2.2365877935124182e-16 -1.2229766190712359e-01 0.0000000000000000e+00  1.8168569380306257e-16 -1.2229766190712367e-01 0.0000000000000000e+00  8.7826139798649041e-17 -1.2229766190712364e-01 0.0000000000000000e+00  -1.5643337598617635e-32 -1.2229766190712356e-01 0.0000000000000000e+00  7.2222372914521290e-33 -1.5317712596807834e-01 0.0000000000000000e+00  1.0894001613220379e-16 -1.5317712596807828e-01 0.0000000000000000e+00  1.6047436343495331e-16 -1.5317712596807820e-01 0.0000000000000000e+00  2.5251123524925521e-16 -1.5317712596807817e-01 0.0000000000000000e+00  2.9230224232274397e-16 -1.5317712596807792e-01 0.0000000000000000e+00  3.0204726445819371e-16 -1.5317712596807773e-01 0.0000000000000000e+00  3.2881299762766502e-16 -1.5317712596807773e-01 0.0000000000000000e+00  2.7965454914531786e-16 -1.5317712596807767e-01 0.0000000000000000e+00  1.9574872565682460e-16 -1.5317712596807745e-01 0.0000000000000000e+00  9.2543652882346069e-17 -1.5317712596807753e-01 0.0000000000000000e+00  1.6784082219986929e-32 -1.5317712596807767e-01 0.0000000000000000e+00  1.6281815405572152e-32 -1.8425719224659598e-01 0.0000000000000000e+00  1.2295632935558061e-16 -1.8425719224659581e-01 0.0000000000000000e+00  2.1619988337481084e-16 -1.8425719224659579e-01 0.0000000000000000e+00  2.9189337890596794e-16 -1.8425719224659562e-01 0.0000000000000000e+00  3.0786863392573071e-16 -1.8425719224659554e-01 0.0000000000000000e+00  3.3237679268475504e-16 -1.8425719224659531e-01 0.0000000000000000e+00  3.0058976243365223e-16 -1.8425719224659506e-01 0.0000000000000000e+00  2.8452726525505264e-16 -1.8425719224659501e-01 0.0000000000000000e+00  2.0975923558069175e-16 -1.8425719224659476e-01 0.0000000000000000e+00  8.3001543869519575e-17 -1.8425719224659490e-01 0.0000000000000000e+00  -8.8343438297227031e-33 -1.8425719224659495e-01 0.0000000000000000e+00  4.5138983071575833e-33 -2.1557523985117910e-01 0.0000000000000000e+00  1.0683502990064085e-16 -2.1557523985117891e-01 0.0000000000000000e+00  2.4207404519523441e-16 -2.1557523985117893e-01 0.0000000000000000e+00  3.2787483706615570e-16 -2.1557523985117868e-01 0.0000000000000000e+00  3.9088938914165824e-16 -2.1557523985117849e-01 0.0000000000000000e+00  3.7516459082584490e-16 -2.1557523985117830e-01 0.0000000000000000e+00  3.0476737435217993e-16 -2.1557523985117810e-01 0.0000000000000000e+00  2.4101297469575390e-16 -2.1557523985117807e-01 0.0000000000000000e+00  1.5912311416386080e-16 -2.1557523985117799e-01 0.0000000000000000e+00  9.4627719553049419e-17 -2.1557523985117791e-01 0.0000000000000000e+00  2.2569491535787912e-32 -2.1557523985117810e-01 0.0000000000000000e+00  6.1656109621382746e-33 -2.4716718066765975e-01 0.0000000000000000e+00  8.0676906012670508e-17 -2.4716718066765922e-01 0.0000000000000000e+00  2.0409268990582163e-16 -2.4716718066765936e-01 0.0000000000000000e+00  3.2581322424584027e-16 -2.4716718066765903e-01 0.0000000000000000e+00  3.7855248329658317e-16 -2.4716718066765889e-01 0.0000000000000000e+00  3.7424199812179804e-16 -2.4716718066765850e-01 0.0000000000000000e+00  3.1731776287178236e-16 -2.4716718066765819e-01 0.0000000000000000e+00  2.3150912164338107e-16 -2.4716718066765825e-01 0.0000000000000000e+00  1.7425710600009764e-16 -2.4716718066765819e-01 0.0000000000000000e+00  9.6968650131265639e-17 -2.4716718066765819e-01 0.0000000000000000e+00  -3.3227027103635971e-33 -2.4716718066765819e-01 0.0000000000000000e+00  -4.5138983071575875e-33 -2.7906723795058558e-01 0.0000000000000000e+00  9.7373718650791165e-17 -2.7906723795058541e-01 0.0000000000000000e+00  1.9274219602864376e-16 -2.7906723795058541e-01 0.0000000000000000e+00  2.0592715373878752e-16 -2.7906723795058491e-01 0.0000000000000000e+00  2.0755188803981845e-16 -2.7906723795058480e-01 0.0000000000000000e+00  2.5605129339172768e-16 -2.7906723795058430e-01 0.0000000000000000e+00  2.7392525223588544e-16 -2.7906723795058408e-01 0.0000000000000000e+00  2.5179178917538932e-16 -2.7906723795058402e-01 0.0000000000000000e+00  2.0499027171882186e-16 -2.7906723795058408e-01 0.0000000000000000e+00  1.0929623928932062e-16 -2.7906723795058402e-01 0.0000000000000000e+00  2.1240007425007929e-32 -2.7906723795058413e-01 0.0000000000000000e+00  1.8101644919253841e-32 -3.1130773532495187e-01 0.0000000000000000e+00  1.0339461165869050e-16 -3.1130773532495198e-01 0.0000000000000000e+00  1.5566391602986386e-16 -3.1130773532495171e-01 0.0000000000000000e+00  1.9347920633031172e-16 -3.1130773532495126e-01 0.0000000000000000e+00  1.9717429363782768e-16 -3.1130773532495121e-01 0.0000000000000000e+00  1.8237874176915434e-16 -3.1130773532495087e-01 0.0000000000000000e+00  2.3839125814153988e-16 -3.1130773532495043e-01 0.0000000000000000e+00  2.3986453941707936e-16 -3.1130773532495054e-01 0.0000000000000000e+00  1.6338406639238701e-16 -3.1130773532495043e-01 0.0000000000000000e+00  9.2052212382284532e-17 -3.1130773532495026e-01 0.0000000000000000e+00  3.3531815996027724e-33 -3.1130773532495032e-01 0.0000000000000000e+00  1.1736135598609727e-32 -3.4391889749917209e-01 0.0000000000000000e+00  1.1552728573958633e-16 -3.4391889749917171e-01 0.0000000000000000e+00  9.2294692051037279e-17 -3.4391889749917171e-01 0.0000000000000000e+00  2.1238913873547987e-16 -3.4391889749917137e-01 0.0000000000000000e+00  2.7673585071975802e-16 -3.4391889749917098e-01 0.0000000000000000e+00  2.5069323542713435e-16 -3.4391889749917093e-01 0.0000000000000000e+00  1.3749193207663168e-16 -3.4391889749917054e-01 0.0000000000000000e+00  2.1913938742539928e-16 -3.4391889749917059e-01 0.0000000000000000e+00  1.9371509550383041e-16 -3.4391889749917043e-01 0.0000000000000000e+00  5.6329063483902010e-17 -3.4391889749917059e-01 0.0000000000000000e+00  3.6111186457260693e-33 -3.4391889749917048e-01 0.0000000000000000e+00  8.9340279809630498e-33 -3.7692866391803015e-01 0.0000000000000000e+00  6.3138448183829114e-17 -3.7692866391802937e-01 0.0000000000000000e+00  1.9596830366337754e-16 -3.7692866391802926e-01 0.0000000000000000e+00  2.4925144054573525e-16 -3.7692866391802887e-01 0.0000000000000000e+00  4.2380920461526753e-16 -3.7692866391802854e-01 0.0000000000000000e+00  4.1402277666276300e-16 -3.7692866391802832e-01 0.0000000000000000e+00  3.4888900320997794e-16 -3.7692866391802793e-01 0.0000000000000000e+00  1.9687063739955438e-16 -3.7692866391802815e-01 0.0000000000000000e+00  1.2658503171595175e-16 -3.7692866391802782e-01 0.0000000000000000e+00  1.1087008586804525e-16 -3.7692866391802787e-01 0.0000000000000000e+00  -1.4313113089199876e-32 -3.7692866391802821e-01 0.0000000000000000e+00  3.6111186457260659e-33 -4.1036251650458977e-01 0.0000000000000000e+00  5.2930137644284494e-17 -4.1036251650458977e-01 0.0000000000000000e+00  2.3371207392817072e-16 -4.1036251650458949e-01 0.0000000000000000e+00  4.2766516363626947e-16 -4.1036251650458916e-01 0.0000000000000000e+00  4.6699174808959178e-16 -4.1036251650458899e-01 0.0000000000000000e+00  5.0153464784600764e-16 -4.1036251650458844e-01 0.0000000000000000e+00  4.1355997378741357e-16 -4.1036251650458822e-01 0.0000000000000000e+00  3.3013722191333631e-16 -4.1036251650458794e-01 0.0000000000000000e+00  2.0863301021592528e-16 -4.1036251650458849e-01 0.0000000000000000e+00  1.2150509216604081e-16 -4.1036251650458849e-01 0.0000000000000000e+00  2.3438769608220988e-32 -4.1036251650458838e-01 0.0000000000000000e+00  1.4539117434819749e-32 -4.4424332255321974e-01 0.0000000000000000e+00  1.7361519601529283e-16 -4.4424332255322008e-01 0.0000000000000000e+00  3.3900141713170321e-16 -4.4424332255322002e-01 0.0000000000000000e+00  4.5249671436486063e-16 -4.4424332255321919e-01 0.0000000000000000e+00  4.7120764581540011e-16 -4.4424332255321913e-01 0.0000000000000000e+00  4.3515152324251282e-16 -4.4424332255321852e-01 0.0000000000000000e+00  4.7736934249158229e-16 -4.4424332255321830e-01 0.0000000000000000e+00  4.7811921498540184e-16 -4.4424332255321858e-01 0.0000000000000000e+00  3.2538436344780615e-16 -4.4424332255321830e-01 0.0000000000000000e+00  1.4004950468359609e-16 -4.4424332255321841e-01 0.0000000000000000e+00  -1.8829404367000223e-32 -4.4424332255321836e-01 0.0000000000000000e+00  2.1666711874356387e-32 -4.7859119374246684e-01 0.0000000000000000e+00  2.6457867175075051e-16 -4.7859119374246706e-01 0.0000000000000000e+00  3.5677200007088947e-16 -4.7859119374246700e-01 0.0000000000000000e+00  4.2403682636317932e-16 -4.7859119374246661e-01 0.0000000000000000e+00  4.7736934249158199e-16 -4.7859119374246600e-01 0.0000000000000000e+00  4.8157047980595350e-16 -4.7859119374246550e-01 0.0000000000000000e+00  5.8155412762825212e-16 -4.7859119374246567e-01 0.0000000000000000e+00  5.1925853677771180e-16 -4.7859119374246534e-01 0.0000000000000000e+00  3.7359339847167306e-16 -4.7859119374246539e-01 0.0000000000000000e+00  1.9938794649242455e-16 -4.7859119374246539e-01 0.0000000000000000e+00  1.0833355937178189e-32 -4.7859119374246561e-01 0.0000000000000000e+00  1.8360713271601109e-32 -5.1342336213717510e-01 0.0000000000000000e+00  2.6567934827173930e-16 -5.1342336213717499e-01 0.0000000000000000e+00  3.5211448999268903e-16 -5.1342336213717477e-01 0.0000000000000000e+00  5.2391987988072104e-16 -5.1342336213717421e-01 0.0000000000000000e+00  5.6499939498969158e-16 -5.1342336213717421e-01 0.0000000000000000e+00  5.9514422896001072e-16 -5.1342336213717354e-01 0.0000000000000000e+00  5.0453229225586315e-16 -5.1342336213717343e-01 0.0000000000000000e+00  3.8247424204848595e-16 -5.1342336213717354e-01 0.0000000000000000e+00  3.1719225389626908e-16 -5.1342336213717332e-01 0.0000000000000000e+00  1.5349725962669281e-16 -5.1342336213717299e-01 0.0000000000000000e+00  1.8771160235187853e-32 -5.1342336213717299e-01 0.0000000000000000e+00  -2.5277830520082465e-32 -5.4875407394447717e-01 0.0000000000000000e+00  1.7493812482719021e-16 -5.4875407394447684e-01 0.0000000000000000e+00  4.8173286003377914e-16 -5.4875407394447706e-01 0.0000000000000000e+00  5.9586714732004503e-16 -5.4875407394447662e-01 0.0000000000000000e+00  6.2754615201293027e-16 -5.4875407394447606e-01 0.0000000000000000e+00  6.1539625904951775e-16 -5.4875407394447540e-01 0.0000000000000000e+00  4.3366781890586383e-16 -5.4875407394447517e-01 0.0000000000000000e+00  3.1545505405212126e-16 -5.4875407394447473e-01 0.0000000000000000e+00  1.8868169196901063e-16 -5.4875407394447484e-01 0.0000000000000000e+00  7.7621819810227181e-17 -5.4875407394447517e-01 0.0000000000000000e+00  -1.0017938091805113e-32 -5.4875407394447506e-01 0.0000000000000000e+00  2.1666711874356395e-32 -5.8459450167883498e-01 0.0000000000000000e+00  1.2747705634770559e-16 -5.8459450167883520e-01 0.0000000000000000e+00  2.7673585071975821e-16 -5.8459450167883509e-01 0.0000000000000000e+00  4.7078875854136200e-16 -5.8459450167883487e-01 0.0000000000000000e+00  5.8756519847807203e-16 -5.8459450167883431e-01 0.0000000000000000e+00  5.1747442085760984e-16 -5.8459450167883376e-01 0.0000000000000000e+00  3.1467217400568199e-16 -5.8459450167883298e-01 0.0000000000000000e+00  1.4793477019921449e-16 -5.8459450167883342e-01 0.0000000000000000e+00  1.3481413977690558e-16 -5.8459450167883298e-01 0.0000000000000000e+00  5.3353445368254633e-17 -5.8459450167883353e-01 0.0000000000000000e+00  3.9617518177999124e-33 -5.8459450167883342e-01 0.0000000000000000e+00  1.8055593228630350e-32 -6.2095267527779241e-01 0.0000000000000000e+00  1.1943124024736836e-16 -6.2095267527779363e-01 0.0000000000000000e+00  6.4230770074944369e-17 -6.2095267527779330e-01 0.0000000000000000e+00  1.0227175466253303e-16 -6.2095267527779352e-01 0.0000000000000000e+00  1.5968958921937001e-16 -6.2095267527779208e-01 0.0000000000000000e+00  1.3685684057904387e-16 -6.2095267527779141e-01 0.0000000000000000e+00  1.5047511882886829e-16 -6.2095267527779008e-01 0.0000000000000000e+00  7.0956295910209948e-17 -6.2095267527779097e-01 0.0000000000000000e+00  1.2453113282389105e-16 -6.2095267527779086e-01 0.0000000000000000e+00  1.1416463445060817e-16 -6.2095267527779074e-01 0.0000000000000000e+00  -4.9088644090338761e-33 -6.2095267527779152e-01 0.0000000000000000e+00  -1.8958372890061845e-32 -6.5783343259323968e-01 0.0000000000000000e+00  9.2414540976737168e-17 -6.5783343259323890e-01 0.0000000000000000e+00  -1.3002289433889109e-16 -6.5783343259324023e-01 0.0000000000000000e+00  -2.9906891938295827e-16 -6.5783343259323912e-01 0.0000000000000000e+00  -5.4376167160537866e-16 -6.5783343259323868e-01 0.0000000000000000e+00  -4.6219742086457200e-16 -6.5783343259323757e-01 0.0000000000000000e+00  -1.4200759576614374e-16 -6.5783343259323646e-01 0.0000000000000000e+00  6.7970208950672320e-17 -6.5783343259323690e-01 0.0000000000000000e+00  1.2234637611121022e-16 -6.5783343259323701e-01 0.0000000000000000e+00  1.4217621688728788e-16 -6.5783343259323723e-01 0.0000000000000000e+00  7.2222372914521290e-33 -6.5783343259323745e-01 0.0000000000000000e+00  1.4638697557522470e-17 -1.5233318148858451e-02 0.0000000000000000e+00  3.9337250838564409e-17 -1.5233318148858437e-02 0.0000000000000000e+00  5.6752469385097330e-17 -1.5233318148858433e-02 0.0000000000000000e+00  7.0266184099593795e-17 -1.5233318148858421e-02 0.0000000000000000e+00  7.1886461221123307e-17 -1.5233318148858397e-02 0.0000000000000000e+00  6.7632113449493906e-17 -1.5233318148858388e-02 0.0000000000000000e+00  3.9742640477139873e-17 -1.5233318148858399e-02 0.0000000000000000e+00  2.3457687345840248e-17 -1.5233318148858387e-02 0.0000000000000000e+00  1.0047147675417839e-17 -1.5233318148858387e-02 0.0000000000000000e+00  -7.7045776618539178e-19 -1.5233318148858394e-02 0.0000000000000000e+00  2.8803430554869815e-17 -4.5720534982934796e-02 0.0000000000000000e+00  8.1065556271901197e-17 -4.5720534982934755e-02 0.0000000000000000e+00  1.4528632163016069e-16 -4.5720534982934727e-02 0.0000000000000000e+00  1.5897271424749459e-16 -4.5720534982934644e-02 0.0000000000000000e+00  1.9160949664267569e-16 -4.5720534982934651e-02 0.0000000000000000e+00  1.6794469310978087e-16 -4.5720534982934588e-02 0.0000000000000000e+00  1.2161207217568813e-16 -4.5720534982934539e-02 0.0000000000000000e+00  6.8431963086669878e-17 -4.5720534982934560e-02 0.0000000000000000e+00  2.8665304927504330e-17 -4.5720534982934560e-02 0.0000000000000000e+00  1.0674835110521780e-17 -4.5720534982934609e-02 0.0000000000000000e+00  3.4031030291187833e-17 -7.6269366541589168e-02 0.0000000000000000e+00  1.0668243091088390e-16 -7.6269366541589223e-02 0.0000000000000000e+00  1.7476470572903359e-16 -7.6269366541589154e-02 0.0000000000000000e+00  2.2694789632962398e-16 -7.6269366541589140e-02 0.0000000000000000e+00  2.5056626484042165e-16 -7.6269366541588973e-02 0.0000000000000000e+00  2.3942242628639786e-16 -7.6269366541588890e-02 0.0000000000000000e+00  1.6003550117328217e-16 -7.6269366541588848e-02 0.0000000000000000e+00  1.2633593185231341e-16 -7.6269366541588890e-02 0.0000000000000000e+00  7.1204961590378477e-17 -7.6269366541588890e-02 0.0000000000000000e+00  3.1962459883161300e-17 -7.6269366541588890e-02 0.0000000000000000e+00  4.1884344973769687e-17 -1.0692046714174977e-01 0.0000000000000000e+00  1.2633593185231363e-16 -1.0692046714174967e-01 0.0000000000000000e+00  2.0845428755631738e-16 -1.0692046714174969e-01 0.0000000000000000e+00  2.4424946824780629e-16 -1.0692046714174962e-01 0.0000000000000000e+00  2.6319985802565341e-16 -1.0692046714174941e-01 0.0000000000000000e+00  2.5715110816233195e-16 -1.0692046714174924e-01 0.0000000000000000e+00  2.3467322341233961e-16 -1.0692046714174921e-01 0.0000000000000000e+00  1.8108150232164947e-16 -1.0692046714174926e-01 0.0000000000000000e+00  1.1516938582756387e-16 -1.0692046714174926e-01 0.0000000000000000e+00  3.4881782031411555e-17 -1.0692046714174926e-01 0.0000000000000000e+00  5.7590974338933254e-17 -1.3771386058407664e-01 0.0000000000000000e+00  1.6291453084527490e-16 -1.3771386058407653e-01 0.0000000000000000e+00  1.9371509550688067e-16 -1.3771386058407650e-01 0.0000000000000000e+00  2.6000130261550250e-16 -1.3771386058407634e-01 0.0000000000000000e+00  2.7793905007508971e-16 -1.3771386058407623e-01 0.0000000000000000e+00  3.1528688677591834e-16 -1.3771386058407603e-01 0.0000000000000000e+00  2.7578674498478399e-16 -1.3771386058407595e-01 0.0000000000000000e+00  2.2740467733416414e-16 -1.3771386058407592e-01 0.0000000000000000e+00  1.4210993115528736e-16 -1.3771386058407595e-