<?xml version="1.0"?>
<VTKFile type="UnstructuredGrid"  version="0.1"  >
<UnstructuredGrid>
<Piece  NumberOfPoints="431" NumberOfCells="800">
<Points>
<DataArray  type="Float64"  NumberOfComponents="3"  format="ascii">-0.75 -3 0  -0.6 -3 0  -0.45 -3 0  -0.3 -3 0  -0.15 -3 0  0 -3 0  0.15 -3 0  0.3 -3 0  0.45 -3 0  0.6000000000000001 -3 0  0.75 -3 0  -0.75 -2.85 0  -0.6 -2.85 0  -0.45 -2.85 0  -0.3 -2.85 0  -0.15 -2.85 0  0 -2.85 0  0.15 -2.85 0  0.3 -2.85 0  0.45 -2.85 0  0.6000000000000001 -2.85 0  0.75 -2.85 0  -0.75 -2.7 0  -0.6 -2.7 0  -0.45 -2.7 0  -0.3 -2.7 0  -0.15 -2.7 0  0 -2.7 0  0.15 -2.7 0  0.3 -2.7 0  0.45 -2.7 0  0.6000000000000001 -2.7 0  0.75 -2.7 0  -0.75 -2.55 0  -0.6 -2.55 0  -0.45 -2.55 0  -0.3 -2.55 0  -0.15 -2.55 0  0 -2.55 0  0.15 -2.55 0  0.3 -2.55 0  0.45 -2.55 0  0.6000000000000001 -2.55 0  0.75 -2.55 0  -0.75 -2.4 0  -0.6 -2.4 0  -0.45 -2.4 0  -0.3 -2.4 0  -0.15 -2.4 0  0 -2.4 0  0.15 -2.4 0  0.3 -2.4 0  0.45 -2.4 0  0.6000000000000001 -2.4 0  0.75 -2.4 0  -0.75 -2.25 0  -0.6 -2.25 0  -0.45 -2.25 0  -0.3 -2.25 0  -0.15 -2.25 0  0 -2.25 0  0.15 -2.25 0  0.3 -2.25 0  0.45 -2.25 0  0.6000000000000001 -2.25 0  0.75 -2.25 0  -0.75 -2.1 0  -0.6 -2.1 0  -0.45 -2.1 0  -0.3 -2.1 0  -0.15 -2.1 0  0 -2.1 0  0.15 -2.1 0  0.3 -2.1 0  0.45 -2.1 0  0.6000000000000001 -2.1 0  0.75 -2.1 0  -0.75 -1.95 0  -0.6 -1.95 0  -0.45 -1.95 0  -0.3 -1.95 0  -0.15 -1.95 0  0 -1.95 0  0.15 -1.95 0  0.3 -1.95 0  0.45 -1.95 0  0.6000000000000001 -1.95 0  0.75 -1.95 0  -0.75 -1.8 0  -0.6 -1.8 0  -0.45 -1.8 0  -0.3 -1.8 0  -0.15 -1.8 0  0 -1.8 0  0.15 -1.8 0  0.3 -1.8 0  0.45 -1.8 0  0.6000000000000001 -1.8 0  0.75 -1.8 0  -0.75 -1.65 0  -0.6 -1.65 0  -0.45 -1.65 0  -0.3 -1.65 0  -0.15 -1.65 0  0 -1.65 0  0.15 -1.65 0  0.3 -1.65 0  0.45 -1.65 0  0.6000000000000001 -1.65 0  0.75 -1.65 0  -0.75 -1.5 0  -0.6 -1.5 0  -0.45 -1.5 0  -0.3 -1.5 0  -0.15 -1.5 0  0 -1.5 0  0.15 -1.5 0  0.3 -1.5 0  0.45 -1.5 0  0.6000000000000001 -1.5 0  0.75 -1.5 0  -0.75 -1.35 0  -0.6 -1.35 0  -0.45 -1.35 0  -0.3 -1.35 0  -0.15 -1.35 0  0 -1.35 0  0.15 -1.35 0  0.3 -1.35 0  0.45 -1.35 0  0.6000000000000001 -1.35 0  0.75 -1.35 0  -0.75 -1.2 0  -0.6 -1.2 0  -0.45 -1.2 0  -0.3 -1.2 0  -0.15 -1.2 0  0 -1.2 0  0.15 -1.2 0  0.3 -1.2 0  0.45 -1.2 0  0.6000000000000001 -1.2 0  0.75 -1.2 0  -0.75 -1.05 0  -0.6 -1.05 0  -0.45 -1.05 0  -0.3 -1.05 0  -0.15 -1.05 0  0 -1.05 0  0.15 -1.05 0  0.3 -1.05 0  0.45 -1.05 0  0.6000000000000001 -1.05 0  0.75 -1.05 0  -0.75 -0.8999999999999999 0  -0.6 -0.8999999999999999 0  -0.45 -0.8999999999999999 0  -0.3 -0.8999999999999999 0  -0.15 -0.8999999999999999 0  0 -0.8999999999999999 0  0.15 -0.8999999999999999 0  0.3 -0.8999999999999999 0  0.45 -0.8999999999999999 0  0.6000000000000001 -0.8999999999999999 0  0.75 -0.8999999999999999 0  -0.75 -0.75 0  -0.6 -0.75 0  -0.45 -0.75 0  -0.3 -0.75 0  -0.15 -0.75 0  0 -0.75 0  0.15 -0.75 0  0.3 -0.75 0  0.45 -0.75 0  0.6000000000000001 -0.75 0  0.75 -0.75 0  -0.75 -0.6000000000000001 0  -0.6 -0.6000000000000001 0  -0.45 -0.6000000000000001 0  -0.3 -0.6000000000000001 0  -0.15 -0.6000000000000001 0  0 -0.6000000000000001 0  0.15 -0.6000000000000001 0  0.3 -0.6000000000000001 0  0.45 -0.6000000000000001 0  0.6000000000000001 -0.6000000000000001 0  0.75 -0.6000000000000001 0  -0.75 -0.4500000000000002 0  -0.6 -0.4500000000000002 0  -0.45 -0.4500000000000002 0  -0.3 -0.4500000000000002 0  -0.15 -0.4500000000000002 0  0 -0.4500000000000002 0  0.15 -0.4500000000000002 0  0.3 -0.4500000000000002 0  0.45 -0.4500000000000002 0  0.6000000000000001 -0.4500000000000002 0  0.75 -0.4500000000000002 0  -0.75 -0.2999999999999998 0  -0.6 -0.2999999999999998 0  -0.45 -0.2999999999999998 0  -0.3 -0.2999999999999998 0  -0.15 -0.2999999999999998 0  0 -0.2999999999999998 0  0.15 -0.2999999999999998 0  0.3 -0.2999999999999998 0  0.45 -0.2999999999999998 0  0.6000000000000001 -0.2999999999999998 0  0.75 -0.2999999999999998 0  -0.75 -0.1499999999999999 0  -0.6 -0.1499999999999999 0  -0.45 -0.1499999999999999 0  -0.3 -0.1499999999999999 0  -0.15 -0.1499999999999999 0  0 -0.1499999999999999 0  0.15 -0.1499999999999999 0  0.3 -0.1499999999999999 0  0.45 -0.1499999999999999 0  0.6000000000000001 -0.1499999999999999 0  0.75 -0.1499999999999999 0  -0.75 0 0  -0.6 0 0  -0.45 0 0  -0.3 0 0  -0.15 0 0  0 0 0  0.15 0 0  0.3 0 0  0.45 0 0  0.6000000000000001 0 0  0.75 0 0  -0.675 -2.925 0  -0.525 -2.925 0  -0.375 -2.925 0  -0.225 -2.925 0  -0.07499999999999996 -2.925 0  0.07499999999999996 -2.925 0  0.225 -2.925 0  0.375 -2.925 0  0.5249999999999999 -2.925 0  0.675 -2.925 0  -0.675 -2.775 0  -0.525 -2.775 0  -0.375 -2.775 0  -0.225 -2.775 0  -0.07499999999999996 -2.775 0  0.07499999999999996 -2.775 0  0.225 -2.775 0  0.375 -2.775 0  0.5249999999999999 -2.775 0  0.675 -2.775 0  -0.675 -2.625 0  -0.525 -2.625 0  -0.375 -2.625 0  -0.225 -2.625 0  -0.07499999999999996 -2.625 0  0.07499999999999996 -2.625 0  0.225 -2.625 0  0.375 -2.625 0  0.5249999999999999 -2.625 0  0.675 -2.625 0  -0.675 -2.475 0  -0.525 -2.475 0  -0.375 -2.475 0  -0.225 -2.475 0  -0.07499999999999996 -2.475 0  0.07499999999999996 -2.475 0  0.225 -2.475 0  0.375 -2.475 0  0.5249999999999999 -2.475 0  0.675 -2.475 0  -0.675 -2.325 0  -0.525 -2.325 0  -0.375 -2.325 0  -0.225 -2.325 0  -0.07499999999999996 -2.325 0  0.07499999999999996 -2.325 0  0.225 -2.325 0  0.375 -2.325 0  0.5249999999999999 -2.325 0  0.675 -2.325 0  -0.675 -2.175 0  -0.525 -2.175 0  -0.375 -2.175 0  -0.225 -2.175 0  -0.07499999999999996 -2.175 0  0.07499999999999996 -2.175 0  0.225 -2.175 0  0.375 -2.175 0  0.5249999999999999 -2.175 0  0.675 -2.175 0  -0.675 -2.025 0  -0.525 -2.025 0  -0.375 -2.025 0  -0.225 -2.025 0  -0.07499999999999996 -2.025 0  0.07499999999999996 -2.025 0  0.225 -2.025 0  0.375 -2.025 0  0.5249999999999999 -2.025 0  0.675 -2.025 0  -0.675 -1.875 0  -0.525 -1.875 0  -0.375 -1.875 0  -0.225 -1.875 0  -0.07499999999999996 -1.875 0  0.07499999999999996 -1.875 0  0.225 -1.875 0  0.375 -1.875 0  0.5249999999999999 -1.875 0  0.675 -1.875 0  -0.675 -1.725 0  -0.525 -1.725 0  -0.375 -1.725 0  -0.225 -1.725 0  -0.07499999999999996 -1.725 0  0.07499999999999996 -1.725 0  0.225 -1.725 0  0.375 -1.725 0  0.5249999999999999 -1.725 0  0.675 -1.725 0  -0.675 -1.575 0  -0.525 -1.575 0  -0.375 -1.575 0  -0.225 -1.575 0  -0.07499999999999996 -1.575 0  0.07499999999999996 -1.575 0  0.225 -1.575 0  0.375 -1.575 0  0.5249999999999999 -1.575 0  0.675 -1.575 0  -0.675 -1.425 0  -0.525 -1.425 0  -0.375 -1.425 0  -0.225 -1.425 0  -0.07499999999999996 -1.425 0  0.07499999999999996 -1.425 0  0.225 -1.425 0  0.375 -1.425 0  0.5249999999999999 -1.425 0  0.675 -1.425 0  -0.675 -1.275 0  -0.525 -1.275 0  -0.375 -1.275 0  -0.225 -1.275 0  -0.07499999999999996 -1.275 0  0.07499999999999996 -1.275 0  0.225 -1.275 0  0.375 -1.275 0  0.5249999999999999 -1.275 0  0.675 -1.275 0  -0.675 -1.125 0  -0.525 -1.125 0  -0.375 -1.125 0  -0.225 -1.125 0  -0.07499999999999996 -1.125 0  0.07499999999999996 -1.125 0  0.225 -1.125 0  0.375 -1.125 0  0.5249999999999999 -1.125 0  0.675 -1.125 0  -0.675 -0.9750000000000001 0  -0.525 -0.9750000000000001 0  -0.375 -0.9750000000000001 0  -0.225 -0.9750000000000001 0  -0.07499999999999996 -0.9750000000000001 0  0.07499999999999996 -0.9750000000000001 0  0.225 -0.9750000000000001 0  0.375 -0.9750000000000001 0  0.5249999999999999 -0.9750000000000001 0  0.675 -0.9750000000000001 0  -0.675 -0.8250000000000002 0  -0.525 -0.8250000000000002 0  -0.375 -0.8250000000000002 0  -0.225 -0.8250000000000002 0  -0.07499999999999996 -0.8250000000000002 0  0.07499999999999996 -0.8250000000000002 0  0.225 -0.8250000000000002 0  0.375 -0.8250000000000002 0  0.5249999999999999 -0.8250000000000002 0  0.675 -0.8250000000000002 0  -0.675 -0.6749999999999998 0  -0.525 -0.6749999999999998 0  -0.375 -0.6749999999999998 0  -0.225 -0.6749999999999998 0  -0.07499999999999996 -0.6749999999999998 0  0.07499999999999996 -0.6749999999999998 0  0.225 -0.6749999999999998 0  0.375 -0.6749999999999998 0  0.5249999999999999 -0.6749999999999998 0  0.675 -0.6749999999999998 0  -0.675 -0.5249999999999999 0  -0.525 -0.5249999999999999 0  -0.375 -0.5249999999999999 0  -0.225 -0.5249999999999999 0  -0.07499999999999996 -0.5249999999999999 0  0.07499999999999996 -0.5249999999999999 0  0.225 -0.5249999999999999 0  0.375 -0.5249999999999999 0  0.5249999999999999 -0.5249999999999999 0  0.675 -0.5249999999999999 0  -0.675 -0.375 0  -0.525 -0.375 0  -0.375 -0.375 0  -0.225 -0.375 0  -0.07499999999999996 -0.375 0  0.07499999999999996 -0.375 0  0.225 -0.375 0  0.375 -0.375 0  0.5249999999999999 -0.375 0  0.675 -0.375 0  -0.675 -0.2250000000000001 0  -0.525 -0.2250000000000001 0  -0.375 -0.2250000000000001 0  -0.225 -0.2250000000000001 0  -0.07499999999999996 -0.2250000000000001 0  0.07499999999999996 -0.2250000000000001 0  0.225 -0.2250000000000001 0  0.375 -0.2250000000000001 0  0.5249999999999999 -0.2250000000000001 0  0.675 -0.2250000000000001 0  -0.675 -0.07500000000000018 0  -0.525 -0.07500000000000018 0  -0.375 -0.07500000000000018 0  -0.225 -0.07500000000000018 0  -0.07499999999999996 -0.07500000000000018 0  0.07499999999999996 -0.07500000000000018 0  0.225 -0.07500000000000018 0  0.375 -0.07500000000000018 0  0.5249999999999999 -0.07500000000000018 0  0.675 -0.07500000000000018 0  </DataArray>
</Points>
<Cells>
[...]
<PointData  Vectors="displacement"> 
<DataArray  type="Float64"  Name="displacement"  NumberOfComponents="3" format="ascii">-2.6295363507366967e-29 0.0000000000000000e+00 0.0000000000000000e+00  7.2312249645259341e-29 -9.7144514654701103e-15 0.0000000000000000e+00  -1.6763294235946485e-28 -9.6132592627047955e-16 0.0000000000000000e+00  1.4462449929051868e-28 -1.6190752442450185e-14 0.0000000000000000e+00  2.4315692837383854e-30 -2.3279795307014327e-15 0.0000000000000000e+00  -2.6295363507367034e-29 -1.0177044392397258e-14 0.0000000000000000e+00  4.7172444104524637e-28 -2.9128898367443852e-15 0.0000000000000000e+00  0.0000000000000000e+00 -4.1633363423443331e-15 0.0000000000000000e+00  -2.1033387776776351e-28 5.7824115865893525e-17 0.0000000000000000e+00  0.0000000000000000e+00 -4.6259292692714782e-15 0.0000000000000000e+00  -4.2072581611787281e-28 1.8503717077085936e-15 0.0000000000000000e+00  2.6295363507367081e-28 -4.9619295558268718e+01 0.0000000000000000e+00  1.5844925076375336e-12 -4.9619295558266188e+01 0.0000000000000000e+00  -7.2416778953622854e-13 -4.9619295558266785e+01 0.0000000000000000e+00  2.5172492304937636e-12 -4.9619295558267972e+01 0.0000000000000000e+00  -1.1398888511887474e-12 -4.9619295558264255e+01 0.0000000000000000e+00  -3.9703699191569784e-12 -4.9619295558267901e+01 0.0000000000000000e+00  -1.4921816757045335e-12 -4.9619295558266494e+01 0.0000000000000000e+00  -1.2398228836002580e-14 -4.9619295558263964e+01 0.0000000000000000e+00  -2.7400944230030996e-12 -4.9619295558266941e+01 0.0000000000000000e+00  -1.1632388226183325e-12 -4.9619295558266167e+01 0.0000000000000000e+00  -4.8773481160621109e-30 -4.9619295558265300e+01 0.0000000000000000e+00  5.5348730952384862e-28 -9.9238591126273363e+01 0.0000000000000000e+00  2.2479375133520400e-12 -9.9238591126269256e+01 0.0000000000000000e+00  -1.2306269244444133e-13 -9.9238591126273235e+01 0.0000000000000000e+00  6.6030978740784723e-13 -9.9238591126270038e+01 0.0000000000000000e+00  -2.2593970881317780e-12 -9.9238591126272539e+01 0.0000000000000000e+00  -2.2786446861917419e-12 -9.9238591126272851e+01 0.0000000000000000e+00  -1.7316645182546724e-12 -9.9238591126274102e+01 0.0000000000000000e+00  -5.1404220112665174e-12 -9.9238591126272652e+01 0.0000000000000000e+00  -8.6139649711103722e-13 -9.9238591126267195e+01 0.0000000000000000e+00  -3.7193747992521500e-12 -9.9238591126273633e+01 0.0000000000000000e+00  -5.6347207515786673e-30 -9.9238591126270663e+01 0.0000000000000000e+00  2.8924899858103768e-28 -1.4885788672793635e+02 0.0000000000000000e+00  1.2544316434844010e-12 -1.4885788672794078e+02 0.0000000000000000e+00  -2.3371106953055403e-12 -1.4885788672793200e+02 0.0000000000000000e+00  1.5656458533626729e-12 -1.4885788672793677e+02 0.0000000000000000e+00  -2.2364970873983908e-12 -1.4885788672793856e+02 0.0000000000000000e+00  -8.8196273310283365e-13 -1.4885788672793743e+02 0.0000000000000000e+00  -4.4618204325116917e-12 -1.4885788672792987e+02 0.0000000000000000e+00  -8.5799726290125380e-13 -1.4885788672793547e+02 0.0000000000000000e+00  -4.4392996348511177e-12 -1.4885788672793748e+02 0.0000000000000000e+00  -3.6437324959697498e-13 -1.4885788672793149e+02 0.0000000000000000e+00  7.8886090522101225e-29 -1.4885788672793632e+02 0.0000000000000000e+00  2.4829991776855919e-28 -1.9847718243622376e+02 0.0000000000000000e+00  1.9197989837184406e-12 -1.9847718243622487e+02 0.0000000000000000e+00  1.3975695656335426e-11 -1.9847718243622055e+02 0.0000000000000000e+00  -8.5973145069217674e-13 -1.9847718243621870e+02 0.0000000000000000e+00  -2.4124278454000248e-12 -1.9847718243622992e+02 0.0000000000000000e+00  -5.6415161159663918e-12 -1.9847718243622353e+02 0.0000000000000000e+00  -3.7206609815024068e-12 -1.9847718243622472e+02 0.0000000000000000e+00  -8.0863176080034830e-12 -1.9847718243622151e+02 0.0000000000000000e+00  -3.0207297140682856e-12 -1.9847718243621594e+02 0.0000000000000000e+00  1.7281384984152917e-12 -1.9847718243621341e+02 0.0000000000000000e+00  1.8050072040003935e-27 -1.9847718243621583e+02 0.0000000000000000e+00  4.0757813436418913e-28 -2.4809647847943111e+02 0.0000000000000000e+00  5.6499543954379873e-12 -2.4809647847942637e+02 0.0000000000000000e+00  -3.0292724933229818e-12 -2.4809647847942153e+02 0.0000000000000000e+00  9.8213713515857365e-13 -2.4809647847943234e+02 0.0000000000000000e+00  -6.7742559362988073e-12 -2.4809647847941645e+02 0.0000000000000000e+00  -4.9416072956963025e-13 -2.4809647847941849e+02 0.0000000000000000e+00  -3.1159775643161676e-12 -2.4809647847942048e+02 0.0000000000000000e+00  -3.8765049013135457e-12 -2.4809647847942094e+02 0.0000000000000000e+00  -5.6881904691179236e-12 -2.4809647847942551e+02 0.0000000000000000e+00  -4.0752154872165573e-12 -2.4809647847942048e+02 0.0000000000000000e+00  1.9718957376268026e-27 -2.4809647847943017e+02 0.0000000000000000e+00  -1.4281664087251981e-28 -2.9771577557382972e+02 0.0000000000000000e+00  4.1765789865801538e-13 -2.9771577557384262e+02 0.0000000000000000e+00  3.5456743836797902e-12 -2.9771577557384336e+02 0.0000000000000000e+00  -1.3038079078211965e-12 -2.9771577557383665e+02 0.0000000000000000e+00  -3.1925482763620906e-12 -2.9771577557383756e+02 0.0000000000000000e+00  -8.3660536116563084e-12 -2.9771577557383989e+02 0.0000000000000000e+00  -5.2593928667794039e-12 -2.9771577557383426e+02 0.0000000000000000e+00  -4.6574485967186631e-12 -2.9771577557382636e+02 0.0000000000000000e+00  3.3966293943744863e-12 -2.9771577557382034e+02 0.0000000000000000e+00  -8.8519214062724764e-12 -2.9771577557382233e+02 0.0000000000000000e+00  -1.5025922004209779e-29 -2.9771577557381266e+02 0.0000000000000000e+00  -2.6295363507367068e-28 -3.4733507596721722e+02 0.0000000000000000e+00  1.7931981797611577e-12 -3.4733507596722120e+02 0.0000000000000000e+00  -3.1143024944645896e-13 -3.4733507596723211e+02 0.0000000000000000e+00  -7.8659627009533742e-12 -3.4733507596722495e+02 0.0000000000000000e+00  -4.0933801827848069e-12 -3.4733507596723632e+02 0.0000000000000000e+00  -4.3073340630485678e-13 -3.4733507596722927e+02 0.0000000000000000e+00  3.1042317311835024e-12 -3.4733507596722552e+02 0.0000000000000000e+00  -6.1155688828912345e-12 -3.4733507596722006e+02 0.0000000000000000e+00  4.1222068037903324e-12 -3.4733507596721012e+02 0.0000000000000000e+00  4.1990969590606477e-12 -3.4733507596721176e+02 0.0000000000000000e+00  2.1036290805893668e-28 -3.4733507596720949e+02 0.0000000000000000e+00  2.9013747933064277e-27 -3.9695438671380430e+02 0.0000000000000000e+00  -4.8977975791647783e-12 -3.9695438671380464e+02 0.0000000000000000e+00  4.0717602170306555e-13 -3.9695438671382226e+02 0.0000000000000000e+00  4.0177103026452897e-12 -3.9695438671382300e+02 0.0000000000000000e+00  -1.1139349542858253e-13 -3.9695438671382379e+02 0.0000000000000000e+00  -2.0809217038364646e-12 -3.9695438671381726e+02 0.0000000000000000e+00  -1.4366494802023346e-12 -3.9695438671381851e+02 0.0000000000000000e+00  1.5983553161075212e-11 -3.9695438671379895e+02 0.0000000000000000e+00  1.1688293985834690e-12 -3.9695438671380157e+02 0.0000000000000000e+00  3.9388045469863915e-12 -3.9695438671380424e+02 0.0000000000000000e+00  4.3318749996755616e-29 -3.9695438671379071e+02 0.0000000000000000e+00  3.0502621668545778e-27 -4.4657372995178775e+02 0.0000000000000000e+00  -2.1785422894044697e-12 -4.4657372995177030e+02 0.0000000000000000e+00  -1.9147857794944580e-11 -4.4657372995175973e+02 0.0000000000000000e+00  -1.5385313068482659e-12 -4.4657372995178082e+02 0.0000000000000000e+00  -1.3548511872597593e-12 -4.4657372995176866e+02 0.0000000000000000e+00  8.9650757947229819e-12 -4.4657372995177315e+02 0.0000000000000000e+00  2.0065467695624421e-11 -4.4657372995176053e+02 0.0000000000000000e+00  1.3656611701368317e-11 -4.4657372995176945e+02 0.0000000000000000e+00  4.0591805332459426e-12 -4.4657372995176627e+02 0.0000000000000000e+00  2.0779749559771666e-13 -4.4657372995175365e+02 0.0000000000000000e+00  8.6607785645797750e-28 -4.4657372995178525e+02 0.0000000000000000e+00  -1.4511462198810164e-27 -4.9619317515723736e+02 0.0000000000000000e+00  -1.0315613821459378e-11 -4.9619317515724947e+02 0.0000000000000000e+00  -7.4228549089231584e-13 -4.9619317515724691e+02 0.0000000000000000e+00  -5.6320376528140153e-12 -4.9619317515724396e+02 0.0000000000000000e+00  4.4969528768621833e-12 -4.9619317515723424e+02 0.0000000000000000e+00  1.6678775458146747e-12 -4.9619317515722776e+02 0.0000000000000000e+00  1.0335421277848123e-12 -4.9619317515723276e+02 0.0000000000000000e+00  1.0408541873714209e-11 -4.9619317515724174e+02 0.0000000000000000e+00  7.6995139823277358e-12 -4.9619317515722963e+02 0.0000000000000000e+00  5.3065188647306198e-12 -4.9619317515723952e+02 0.0000000000000000e+00  1.3974107463915085e-27 -4.9619317515721031e+02 0.0000000000000000e+00  5.8507183803891679e-28 -5.4581294036662428e+02 0.0000000000000000e+00  -1.7514327744019621e-12 -5.4581294036661598e+02 0.0000000000000000e+00  4.3562949963077116e-12 -5.4581294036659312e+02 0.0000000000000000e+00  3.7743208489875633e-12 -5.4581294036658380e+02 0.0000000000000000e+00  -9.6280914158459565e-12 -5.4581294036660267e+02 0.0000000000000000e+00  -1.3134043489285252e-12 -5.4581294036658915e+02 0.0000000000000000e+00  -7.9752342650113197e-12 -5.4581294036658915e+02 0.0000000000000000e+00  3.7075446801519059e-12 -5.4581294036660142e+02 0.0000000000000000e+00  1.4211524155724703e-11 -5.4581294036661041e+02 0.0000000000000000e+00  3.1213180135240738e-12 -5.4581294036659017e+02 0.0000000000000000e+00  1.0518145402946827e-27 -5.4581294036660586e+02 0.0000000000000000e+00  -9.5083803331045993e-28 -5.9543370984221986e+02 0.0000000000000000e+00  5.7217977446348276e-13 -5.9543370984223486e+02 0.0000000000000000e+00  5.2637860372045098e-12 -5.9543370984223770e+02 0.0000000000000000e+00  -1.6926631521682773e-11 -5.9543370984224441e+02 0.0000000000000000e+00  7.8176242631121718e-12 -5.9543370984224123e+02 0.0000000000000000e+00  -7.4228549089231281e-13 -5.9543370984224168e+02 0.0000000000000000e+00  1.6052977407219592e-11 -5.9543370984224168e+02 0.0000000000000000e+00  -1.8898870106915729e-11 -5.9543370984223623e+02 0.0000000000000000e+00  3.3776692331319605e-12 -5.9543370984221599e+02 0.0000000000000000e+00  1.5382189589411413e-11 -5.9543370984223918e+02 0.0000000000000000e+00  -8.6097505921484923e-28 -5.9543370984222270e+02 0.0000000000000000e+00  2.7347178047661752e-27 -6.4505763100018191e+02 0.0000000000000000e+00  8.1785825726757933e-12 -6.4505763100014531e+02 0.0000000000000000e+00  -1.5869280071519099e-11 -6.4505763100017805e+02 0.0000000000000000e+00  3.0582635013693365e-12 -6.4505763100018237e+02 0.0000000000000000e+00  -7.3147550801524250e-12 -6.4505763100016054e+02 0.0000000000000000e+00  5.3789792065032555e-13 -6.4505763100017168e+02 0.0000000000000000e+00  -1.3116478520476667e-11 -6.4505763100015940e+02 0.0000000000000000e+00  9.9639328109591680e-12 -6.4505763100015679e+02 0.0000000000000000e+00  1.0599962758934320e-11 -6.4505763100015974e+02 0.0000000000000000e+00  -5.4244222021543492e-12 -6.4505763100015474e+02 0.0000000000000000e+00  2.7332797770743678e-28 -6.4505763100014212e+02 0.0000000000000000e+00  -4.6647838837812500e-27 -6.9469144306246574e+02 0.0000000000000000e+00  -9.9470043812748956e-12 -6.9469144306247938e+02 0.0000000000000000e+00  -4.4681262558566545e-12 -6.9469144306245562e+02 0.0000000000000000e+00  -4.7516667595313613e-12 -6.9469144306244436e+02 0.0000000000000000e+00  -1.2124747044496494e-11 -6.9469144306247858e+02 0.0000000000000000e+00  -3.6465425490522507e-12 -6.9469144306247404e+02 0.0000000000000000e+00  4.7275658449063937e-12 -6.9469144306246994e+02 0.0000000000000000e+00  4.5223931335396699e-12 -6.9469144306245425e+02 0.0000000000000000e+00  -2.0719727011004864e-11 -6.9469144306244539e+02 0.0000000000000000e+00  1.9502115838326997e-11 -6.9469144306243913e+02 0.0000000000000000e+00  -3.5686564759998276e-28 -6.9469144306242379e+02 0.0000000000000000e+00  -2.2876966251409324e-27 -7.4435629568650370e+02 0.0000000000000000e+00  3.1475111980902258e-12 -7.4435629568646880e+02 0.0000000000000000e+00  -9.5907434882011688e-13 -7.4435629568647880e+02 0.0000000000000000e+00  -2.2992816614126681e-11 -7.4435629568648505e+02 0.0000000000000000e+00  -9.4839583108183347e-12 -7.4435629568645038e+02 0.0000000000000000e+00  9.5760735948469754e-13 -7.4435629568644481e+02 0.0000000000000000e+00  -3.8174232899070233e-12 -7.4435629568644401e+02 0.0000000000000000e+00  -7.0522005675732765e-12 -7.4435629568646357e+02 0.0000000000000000e+00  1.9285009452697444e-11 -7.4435629568646118e+02 0.0000000000000000e+00  1.1598883578578670e-13 -7.4435629568645334e+02 0.0000000000000000e+00  -6.7842037849007001e-27 -7.4435629568649244e+02 0.0000000000000000e+00  3.0634191828370749e-27 -7.9411856270626822e+02 0.0000000000000000e+00  1.1022814400623049e-12 -7.9411856270629403e+02 0.0000000000000000e+00  -3.7360910620242773e-11 -7.9411856270628164e+02 0.0000000000000000e+00  9.5650331823963602e-12 -7.9411856270627800e+02 0.0000000000000000e+00  -4.4742945443379230e-12 -7.9411856270627436e+02 0.0000000000000000e+00  -2.2307793141194442e-11 -7.9411856270626618e+02 0.0000000000000000e+00  -5.2520136406819752e-13 -7.9411856270627220e+02 0.0000000000000000e+00  6.1091638453150001e-12 -7.9411856270623286e+02 0.0000000000000000e+00  1.0602791538595419e-12 -7.9411856270626595e+02 0.0000000000000000e+00  -3.8663207032711908e-12 -7.9411856270621206e+02 0.0000000000000000e+00  -4.5600317091911406e-28 -7.9411856270626663e+02 0.0000000000000000e+00  -4.2072581611787290e-28 -8.4418654469926889e+02 0.0000000000000000e+00  7.3349573049206965e-12 -8.4418654469925843e+02 0.0000000000000000e+00  -1.1022384260368321e-11 -8.4418654469925184e+02 0.0000000000000000e+00  -8.5788474528400888e-12 -8.4418654469927094e+02 0.0000000000000000e+00  -1.7114168960426331e-11 -8.4418654469923626e+02 0.0000000000000000e+00  -2.1434790957408938e-12 -8.4418654469925445e+02 0.0000000000000000e+00  -6.6184820673200520e-12 -8.4418654469924513e+02 0.0000000000000000e+00  7.7115856104301653e-12 -8.4418654469924650e+02 0.0000000000000000e+00  1.4904376495752051e-11 -8.4418654469921739e+02 0.0000000000000000e+00  -1.2775184942766485e-13 -8.4418654469924786e+02 0.0000000000000000e+00  1.8164367244168055e-26 -8.4418654469922649e+02 0.0000000000000000e+00  -1.8275277637620109e-27 -8.9521395003137275e+02 0.0000000000000000e+00  -3.3672370672858673e-11 -8.9521395003139230e+02 0.0000000000000000e+00  -1.3433205388575475e-11 -8.9521395003139855e+02 0.0000000000000000e+00  -3.1614920963881681e-11 -8.9521395003135615e+02 0.0000000000000000e+00  -1.4099370583375064e-11 -8.9521395003139196e+02 0.0000000000000000e+00  -1.8144105843213040e-11 -8.9521395003137025e+02 0.0000000000000000e+00  5.6511437569662750e-12 -8.9521395003135740e+02 0.0000000000000000e+00  1.5653756037907460e-11 -8.9521395003135831e+02 0.0000000000000000e+00  -1.8032853102769824e-11 -8.9521395003136672e+02 0.0000000000000000e+00  -1.2780506779310137e-12 -8.9521395003140071e+02 0.0000000000000000e+00  2.2744609008755083e-27 -8.9521395003133716e+02 0.0000000000000000e+00  -4.2072581611787330e-27 -9.4925230747363196e+02 0.0000000000000000e+00  -3.0089265947911234e-11 -9.4925230747362536e+02 0.0000000000000000e+00  9.8065948540168764e-12 -9.4925230747362195e+02 0.0000000000000000e+00  -5.3445460494137267e-11 -9.4925230747360615e+02 0.0000000000000000e+00  -3.5671740081012467e-11 -9.4925230747358614e+02 0.0000000000000000e+00  -2.9320206916590304e-11 -9.4925230747356727e+02 0.0000000000000000e+00  1.5890674829296625e-12 -9.4925230747358262e+02 0.0000000000000000e+00  -1.4725709969614405e-11 -9.4925230747360138e+02 0.0000000000000000e+00  6.7454293152932672e-12 -9.4925230747361695e+02 0.0000000000000000e+00  3.9166096678960578e-12 -9.4925230747359603e+02 0.0000000000000000e+00  -3.4960507513154160e-27 -9.4925230747363639e+02 0.0000000000000000e+00  3.5761694370019164e-27 -1.0127399166065281e+03 0.0000000000000000e+00  2.6065621111698804e-12 -1.0127399166065646e+03 0.0000000000000000e+00  -6.0367549323841747e-11 -1.0127399166065476e+03 0.0000000000000000e+00  -3.9762545032368006e-11 -1.0127399166065112e+03 0.0000000000000000e+00  -4.8372098942510353e-11 -1.0127399166064829e+03 0.0000000000000000e+00  -3.4324932036488612e-11 -1.0127399166064790e+03 0.0000000000000000e+00  -2.3611804758073418e-11 -1.0127399166064552e+03 0.0000000000000000e+00  -5.7774638081218527e-12 -1.0127399166064896e+03 0.0000000000000000e+00  -2.9772347197490633e-11 -1.0127399166064831e+03 0.0000000000000000e+00  -3.0538244734274510e-11 -1.0127399166064970e+03 0.0000000000000000e+00  3.3658065289429832e-27 -1.0127399166064455e+03 0.0000000000000000e+00  1.4675365211907784e-13 -2.4809647770010262e+01 0.0000000000000000e+00  4.3604760838498981e-12 -2.4809647770011139e+01 0.0000000000000000e+00  2.0430864080511451e-12 -2.4809647770016429e+01 0.0000000000000000e+00  -4.4684632898309978e-12 -2.4809647770010155e+01 0.0000000000000000e+00  2.2598490477942269e-12 -2.4809647770009700e+01 0.0000000000000000e+00  -5.6500167333760102e-12 -2.4809647770019396e+01 0.0000000000000000e+00  -3.0346769564031283e-13 -2.4809647770013612e+01 0.0000000000000000e+00  -2.2464491755191948e-13 -2.4809647770005263e+01 0.0000000000000000e+00  9.0710846144827053e-13 -2.4809647770014880e+01 0.0000000000000000e+00  3.1148462662274270e-12 -2.4809647770010717e+01 0.0000000000000000e+00  1.5259963951836378e-12 -7.4428943301624301e+01 0.0000000000000000e+00  1.8489774351443179e-12 -7.4428943301624798e+01 0.0000000000000000e+00  -8.1811219846836412e-13 -7.4428943301626532e+01 0.0000000000000000e+00  4.9306064937181834e-12 -7.4428943301624500e+01 0.0000000000000000e+00  -8.8786010171580066e-12 -7.4428943301624983e+01 0.0000000000000000e+00  -5.7377520407325494e-12 -7.4428943301626333e+01 0.0000000000000000e+00  5.7136254075337489e-12 -7.4428943301620848e+01 0.0000000000000000e+00  -6.4308444126253144e-12 -7.4428943301624685e+01 0.0000000000000000e+00  7.4353896858116811e-13 -7.4428943301621558e+01 0.0000000000000000e+00  -2.6695788093473822e-12 -7.4428943301627854e+01 0.0000000000000000e+00  5.3609723587098545e-12 -1.2404823879571968e+02 0.0000000000000000e+00  -3.5729733644263221e-12 -1.2404823879571957e+02 0.0000000000000000e+00  4.2506741035702097e-12 -1.2404823879571705e+02 0.0000000000000000e+00  -3.9380078076569589e-13 -1.2404823879571815e+02 0.0000000000000000e+00  -2.6407696701230805e-12 -1.2404823879571839e+02 0.0000000000000000e+00  -5.6236988656109444e-12 -1.2404823879571337e+02 0.0000000000000000e+00  1.1098251271447500e-12 -1.2404823879572047e+02 0.0000000000000000e+00  -1.1010518059815509e-12 -1.2404823879571019e+02 0.0000000000000000e+00  -7.5801494850044582e-12 -1.2404823879571565e+02 0.0000000000000000e+00  2.9095409495134343e-12 -1.2404823879571489e+02 0.0000000000000000e+00  3.2722110022643921e-14 -1.7366753416853828e+02 0.0000000000000000e+00  1.4046087182282580e-11 -1.7366753416852356e+02 0.0000000000000000e+00  6.1413248142397291e-12 -1.7366753416851367e+02 0.0000000000000000e+00  2.1275303820759067e-12 -1.7366753416851478e+02 0.0000000000000000e+00  -7.3301098318532771e-12 -1.7366753416851714e+02 0.0000000000000000e+00  -7.7424559265236608e-12 -1.7366753416851904e+02 0.0000000000000000e+00  -1.8555574260167188e-12 -1.7366753416851299e+02 0.0000000000000000e+00  -4.3384073152022108e-12 -1.7366753416853103e+02 0.0000000000000000e+00  -3.0443424436302680e-12 -1.7366753416851913e+02 0.0000000000000000e+00  -3.7521352825965245e-12 -1.7366753416852524e+02 0.0000000000000000e+00  1.1856311198204719e-11 -2.2328682915956756e+02 0.0000000000000000e+00  1.7002696414280849e-11 -2.2328682915956676e+02 0.0000000000000000e+00  4.7156601252197923e-12 -2.2328682915957029e+02 0.0000000000000000e+00  -7.9179223497876533e-12 -2.2328682915958734e+02 0.0000000000000000e+00  -1.7897575172927206e-12 -2.2328682915958811e+02 0.0000000000000000e+00  -1.0484118790023538e-12 -2.2328682915956961e+02 0.0000000000000000e+00  -1.2015063333001868e-11 -2.2328682915957856e+02 0.0000000