<?xml version="1.0"?>
<VTKFile type="UnstructuredGrid"  version="0.1"  >
<UnstructuredGrid>
<Piece  NumberOfPoints="1411" NumberOfCells="2700">
<Points>
<DataArray  type="Float64"  NumberOfComponents="3"  format="ascii">-0.75 -4.5 0  -0.65 -4.5 0  -0.55 -4.5 0  -0.45 -4.5 0  -0.35 -4.5 0  -0.25 -4.5 0  -0.15 -4.5 0  -0.05000000000000004 -4.5 0  0.05000000000000004 -4.5 0  0.15 -4.5 0  0.25 -4.5 0  0.3500000000000001 -4.5 0  0.45 -4.5 0  0.55 -4.5 0  0.6499999999999999 -4.5 0  0.75 -4.5 0  -0.75 -4.4 0  -0.65 -4.4 0  -0.55 -4.4 0  -0.45 -4.4 0  -0.35 -4.4 0  -0.25 -4.4 0  -0.15 -4.4 0  -0.05000000000000004 -4.4 0  0.05000000000000004 -4.4 0  0.15 -4.4 0  0.25 -4.4 0  0.3500000000000001 -4.4 0  0.45 -4.4 0  0.55 -4.4 0  0.6499999999999999 -4.4 0  0.75 -4.4 0  -0.75 -4.3 0  -0.65 -4.3 0  -0.55 -4.3 0  -0.45 -4.3 0  -0.35 -4.3 0  -0.25 -4.3 0  -0.15 -4.3 0  -0.05000000000000004 -4.3 0  0.05000000000000004 -4.3 0  0.15 -4.3 0  0.25 -4.3 0  0.3500000000000001 -4.3 0  0.45 -4.3 0  0.55 -4.3 0  0.6499999999999999 -4.3 0  0.75 -4.3 0  -0.75 -4.2 0  -0.65 -4.2 0  -0.55 -4.2 0  -0.45 -4.2 0  -0.35 -4.2 0  -0.25 -4.2 0  -0.15 -4.2 0  -0.05000000000000004 -4.2 0  0.05000000000000004 -4.2 0  0.15 -4.2 0  0.25 -4.2 0  0.3500000000000001 -4.2 0  0.45 -4.2 0  0.55 -4.2 0  0.6499999999999999 -4.2 0  0.75 -4.2 0  -0.75 -4.1 0  -0.65 -4.1 0  -0.55 -4.1 0  -0.45 -4.1 0  -0.35 -4.1 0  -0.25 -4.1 0  -0.15 -4.1 0  -0.05000000000000004 -4.1 0  0.05000000000000004 -4.1 0  0.15 -4.1 0  0.25 -4.1 0  0.3500000000000001 -4.1 0  0.45 -4.1 0  0.55 -4.1 0  0.6499999999999999 -4.1 0  0.75 -4.1 0  -0.75 -4 0  -0.65 -4 0  -0.55 -4 0  -0.45 -4 0  -0.35 -4 0  -0.25 -4 0  -0.15 -4 0  -0.05000000000000004 -4 0  0.05000000000000004 -4 0  0.15 -4 0  0.25 -4 0  0.3500000000000001 -4 0  0.45 -4 0  0.55 -4 0  0.6499999999999999 -4 0  0.75 -4 0  -0.75 -3.9 0  -0.65 -3.9 0  -0.55 -3.9 0  -0.45 -3.9 0  -0.35 -3.9 0  -0.25 -3.9 0  -0.15 -3.9 0  -0.05000000000000004 -3.9 0  0.05000000000000004 -3.9 0  0.15 -3.9 0  0.25 -3.9 0  0.3500000000000001 -3.9 0  0.45 -3.9 0  0.55 -3.9 0  0.6499999999999999 -3.9 0  0.75 -3.9 0  -0.75 -3.8 0  -0.65 -3.8 0  -0.55 -3.8 0  -0.45 -3.8 0  -0.35 -3.8 0  -0.25 -3.8 0  -0.15 -3.8 0  -0.05000000000000004 -3.8 0  0.05000000000000004 -3.8 0  0.15 -3.8 0  0.25 -3.8 0  0.3500000000000001 -3.8 0  0.45 -3.8 0  0.55 -3.8 0  0.6499999999999999 -3.8 0  0.75 -3.8 0  -0.75 -3.7 0  -0.65 -3.7 0  -0.55 -3.7 0  -0.45 -3.7 0  -0.35 -3.7 0  -0.25 -3.7 0  -0.15 -3.7 0  -0.05000000000000004 -3.7 0  0.05000000000000004 -3.7 0  0.15 -3.7 0  0.25 -3.7 0  0.3500000000000001 -3.7 0  0.45 -3.7 0  0.55 -3.7 0  0.6499999999999999 -3.7 0  0.75 -3.7 0  -0.75 -3.6 0  -0.65 -3.6 0  -0.55 -3.6 0  -0.45 -3.6 0  -0.35 -3.6 0  -0.25 -3.6 0  -0.15 -3.6 0  -0.05000000000000004 -3.6 0  0.05000000000000004 -3.6 0  0.15 -3.6 0  0.25 -3.6 0  0.3500000000000001 -3.6 0  0.45 -3.6 0  0.55 -3.6 0  0.6499999999999999 -3.6 0  0.75 -3.6 0  -0.75 -3.5 0  -0.65 -3.5 0  -0.55 -3.5 0  -0.45 -3.5 0  -0.35 -3.5 0  -0.25 -3.5 0  -0.15 -3.5 0  -0.05000000000000004 -3.5 0  0.05000000000000004 -3.5 0  0.15 -3.5 0  0.25 -3.5 0  0.3500000000000001 -3.5 0  0.45 -3.5 0  0.55 -3.5 0  0.6499999999999999 -3.5 0  0.75 -3.5 0  -0.75 -3.4 0  -0.65 -3.4 0  -0.55 -3.4 0  -0.45 -3.4 0  -0.35 -3.4 0  -0.25 -3.4 0  -0.15 -3.4 0  -0.05000000000000004 -3.4 0  0.05000000000000004 -3.4 0  0.15 -3.4 0  0.25 -3.4 0  0.3500000000000001 -3.4 0  0.45 -3.4 0  0.55 -3.4 0  0.6499999999999999 -3.4 0  0.75 -3.4 0  -0.75 -3.3 0  -0.65 -3.3 0  -0.55 -3.3 0  -0.45 -3.3 0  -0.35 -3.3 0  -0.25 -3.3 0  -0.15 -3.3 0  -0.05000000000000004 -3.3 0  0.05000000000000004 -3.3 0  0.15 -3.3 0  0.25 -3.3 0  0.3500000000000001 -3.3 0  0.45 -3.3 0  0.55 -3.3 0  0.6499999999999999 -3.3 0  0.75 -3.3 0  -0.75 -3.2 0  -0.65 -3.2 0  -0.55 -3.2 0  -0.45 -3.2 0  -0.35 -3.2 0  -0.25 -3.2 0  -0.15 -3.2 0  -0.05000000000000004 -3.2 0  0.05000000000000004 -3.2 0  0.15 -3.2 0  0.25 -3.2 0  0.3500000000000001 -3.2 0  0.45 -3.2 0  0.55 -3.2 0  0.6499999999999999 -3.2 0  0.75 -3.2 0  -0.75 -3.1 0  -0.65 -3.1 0  -0.55 -3.1 0  -0.45 -3.1 0  -0.35 -3.1 0  -0.25 -3.1 0  -0.15 -3.1 0  -0.05000000000000004 -3.1 0  0.05000000000000004 -3.1 0  0.15 -3.1 0  0.25 -3.1 0  0.3500000000000001 -3.1 0  0.45 -3.1 0  0.55 -3.1 0  0.6499999999999999 -3.1 0  0.75 -3.1 0  -0.75 -3 0  -0.65 -3 0  -0.55 -3 0  -0.45 -3 0  -0.35 -3 0  -0.25 -3 0  -0.15 -3 0  -0.05000000000000004 -3 0  0.05000000000000004 -3 0  0.15 -3 0  0.25 -3 0  0.3500000000000001 -3 0  0.45 -3 0  0.55 -3 0  0.6499999999999999 -3 0  0.75 -3 0  -0.75 -2.9 0  -0.65 -2.9 0  -0.55 -2.9 0  -0.45 -2.9 0  -0.35 -2.9 0  -0.25 -2.9 0  -0.15 -2.9 0  -0.05000000000000004 -2.9 0  0.05000000000000004 -2.9 0  0.15 -2.9 0  0.25 -2.9 0  0.3500000000000001 -2.9 0  0.45 -2.9 0  0.55 -2.9 0  0.6499999999999999 -2.9 0  0.75 -2.9 0  -0.75 -2.8 0  -0.65 -2.8 0  -0.55 -2.8 0  -0.45 -2.8 0  -0.35 -2.8 0  -0.25 -2.8 0  -0.15 -2.8 0  -0.05000000000000004 -2.8 0  0.05000000000000004 -2.8 0  0.15 -2.8 0  0.25 -2.8 0  0.3500000000000001 -2.8 0  0.45 -2.8 0  0.55 -2.8 0  0.6499999999999999 -2.8 0  0.75 -2.8 0  -0.75 -2.7 0  -0.65 -2.7 0  -0.55 -2.7 0  -0.45 -2.7 0  -0.35 -2.7 0  -0.25 -2.7 0  -0.15 -2.7 0  -0.05000000000000004 -2.7 0  0.05000000000000004 -2.7 0  0.15 -2.7 0  0.25 -2.7 0  0.3500000000000001 -2.7 0  0.45 -2.7 0  0.55 -2.7 0  0.6499999999999999 -2.7 0  0.75 -2.7 0  -0.75 -2.6 0  -0.65 -2.6 0  -0.55 -2.6 0  -0.45 -2.6 0  -0.35 -2.6 0  -0.25 -2.6 0  -0.15 -2.6 0  -0.05000000000000004 -2.6 0  0.05000000000000004 -2.6 0  0.15 -2.6 0  0.25 -2.6 0  0.3500000000000001 -2.6 0  0.45 -2.6 0  0.55 -2.6 0  0.6499999999999999 -2.6 0  0.75 -2.6 0  -0.75 -2.5 0  -0.65 -2.5 0  -0.55 -2.5 0  -0.45 -2.5 0  -0.35 -2.5 0  -0.25 -2.5 0  -0.15 -2.5 0  -0.05000000000000004 -2.5 0  0.05000000000000004 -2.5 0  0.15 -2.5 0  0.25 -2.5 0  0.3500000000000001 -2.5 0  0.45 -2.5 0  0.55 -2.5 0  0.6499999999999999 -2.5 0  0.75 -2.5 0  -0.75 -2.4 0  -0.65 -2.4 0  -0.55 -2.4 0  -0.45 -2.4 0  -0.35 -2.4 0  -0.25 -2.4 0  -0.15 -2.4 0  -0.05000000000000004 -2.4 0  0.05000000000000004 -2.4 0  0.15 -2.4 0  0.25 -2.4 0  0.3500000000000001 -2.4 0  0.45 -2.4 0  0.55 -2.4 0  0.6499999999999999 -2.4 0  0.75 -2.4 0  -0.75 -2.3 0  -0.65 -2.3 0  -0.55 -2.3 0  -0.45 -2.3 0  -0.35 -2.3 0  -0.25 -2.3 0  -0.15 -2.3 0  -0.05000000000000004 -2.3 0  0.05000000000000004 -2.3 0  0.15 -2.3 0  0.25 -2.3 0  0.3500000000000001 -2.3 0  0.45 -2.3 0  0.55 -2.3 0  0.6499999999999999 -2.3 0  0.75 -2.3 0  -0.75 -2.2 0  -0.65 -2.2 0  -0.55 -2.2 0  -0.45 -2.2 0  -0.35 -2.2 0  -0.25 -2.2 0  -0.15 -2.2 0  -0.05000000000000004 -2.2 0  0.05000000000000004 -2.2 0  0.15 -2.2 0  0.25 -2.2 0  0.3500000000000001 -2.2 0  0.45 -2.2 0  0.55 -2.2 0  0.6499999999999999 -2.2 0  0.75 -2.2 0  -0.75 -2.1 0  -0.65 -2.1 0  -0.55 -2.1 0  -0.45 -2.1 0  -0.35 -2.1 0  -0.25 -2.1 0  -0.15 -2.1 0  -0.05000000000000004 -2.1 0  0.05000000000000004 -2.1 0  0.15 -2.1 0  0.25 -2.1 0  0.3500000000000001 -2.1 0  0.45 -2.1 0  0.55 -2.1 0  0.6499999999999999 -2.1 0  0.75 -2.1 0  -0.75 -2 0  -0.65 -2 0  -0.55 -2 0  -0.45 -2 0  -0.35 -2 0  -0.25 -2 0  -0.15 -2 0  -0.05000000000000004 -2 0  0.05000000000000004 -2 0  0.15 -2 0  0.25 -2 0  0.3500000000000001 -2 0  0.45 -2 0  0.55 -2 0  0.6499999999999999 -2 0  0.75 -2 0  -0.75 -1.9 0  -0.65 -1.9 0  -0.55 -1.9 0  -0.45 -1.9 0  -0.35 -1.9 0  -0.25 -1.9 0  -0.15 -1.9 0  -0.05000000000000004 -1.9 0  0.05000000000000004 -1.9 0  0.15 -1.9 0  0.25 -1.9 0  0.3500000000000001 -1.9 0  0.45 -1.9 0  0.55 -1.9 0  0.6499999999999999 -1.9 0  0.75 -1.9 0  -0.75 -1.8 0  -0.65 -1.8 0  -0.55 -1.8 0  -0.45 -1.8 0  -0.35 -1.8 0  -0.25 -1.8 0  -0.15 -1.8 0  -0.05000000000000004 -1.8 0  0.05000000000000004 -1.8 0  0.15 -1.8 0  0.25 -1.8 0  0.3500000000000001 -1.8 0  0.45 -1.8 0  0.55 -1.8 0  0.6499999999999999 -1.8 0  0.75 -1.8 0  -0.75 -1.7 0  -0.65 -1.7 0  -0.55 -1.7 0  -0.45 -1.7 0  -0.35 -1.7 0  -0.25 -1.7 0  -0.15 -1.7 0  -0.05000000000000004 -1.7 0  0.05000000000000004 -1.7 0  0.15 -1.7 0  0.25 -1.7 0  0.3500000000000001 -1.7 0  0.45 -1.7 0  0.55 -1.7 0  0.6499999999999999 -1.7 0  0.75 -1.7 0  -0.75 -1.6 0  -0.65 -1.6 0  -0.55 -1.6 0  -0.45 -1.6 0  -0.35 -1.6 0  -0.25 -1.6 0  -0.15 -1.6 0  -0.05000000000000004 -1.6 0  0.05000000000000004 -1.6 0  0.15 -1.6 0  0.25 -1.6 0  0.3500000000000001 -1.6 0  0.45 -1.6 0  0.55 -1.6 0  0.6499999999999999 -1.6 0  0.75 -1.6 0  -0.75 -1.5 0  -0.65 -1.5 0  -0.55 -1.5 0  -0.45 -1.5 0  -0.35 -1.5 0  -0.25 -1.5 0  -0.15 -1.5 0  -0.05000000000000004 -1.5 0  0.05000000000000004 -1.5 0  0.15 -1.5 0  0.25 -1.5 0  0.3500000000000001 -1.5 0  0.45 -1.5 0  0.55 -1.5 0  0.6499999999999999 -1.5 0  0.75 -1.5 0  -0.75 -1.4 0  -0.65 -1.4 0  -0.55 -1.4 0  -0.45 -1.4 0  -0.35 -1.4 0  -0.25 -1.4 0  -0.15 -1.4 0  -0.05000000000000004 -1.4 0  0.05000000000000004 -1.4 0  0.15 -1.4 0  0.25 -1.4 0  0.3500000000000001 -1.4 0  0.45 -1.4 0  0.55 -1.4 0  0.6499999999999999 -1.4 0  0.75 -1.4 0  -0.75 -1.3 0  -0.65 -1.3 0  -0.55 -1.3 0  -0.45 -1.3 0  -0.35 -1.3 0  -0.25 -1.3 0  -0.15 -1.3 0  -0.05000000000000004 -1.3 0  0.05000000000000004 -1.3 0  0.15 -1.3 0  0.25 -1.3 0  0.3500000000000001 -1.3 0  0.45 -1.3 0  0.55 -1.3 0  0.6499999999999999 -1.3 0  0.75 -1.3 0  -0.75 -1.2 0  -0.65 -1.2 0  -0.55 -1.2 0  -0.45 -1.2 0  -0.35 -1.2 0  -0.25 -1.2 0  -0.15 -1.2 0  -0.05000000000000004 -1.2 0  0.05000000000000004 -1.2 0  0.15 -1.2 0  0.25 -1.2 0  0.3500000000000001 -1.2 0  0.45 -1.2 0  0.55 -1.2 0  0.6499999999999999 -1.2 0  0.75 -1.2 0  -0.75 -1.1 0  -0.65 -1.1 0  -0.55 -1.1 0  -0.45 -1.1 0  -0.35 -1.1 0  -0.25 -1.1 0  -0.15 -1.1 0  -0.05000000000000004 -1.1 0  0.05000000000000004 -1.1 0  0.15 -1.1 0  0.25 -1.1 0  0.3500000000000001 -1.1 0  0.45 -1.1 0  0.55 -1.1 0  0.6499999999999999 -1.1 0  0.75 -1.1 0  -0.75 -1 0  -0.65 -1 0  -0.55 -1 0  -0.45 -1 0  -0.35 -1 0  -0.25 -1 0  -0.15 -1 0  -0.05000000000000004 -1 0  0.05000000000000004 -1 0  0.15 -1 0  0.25 -1 0  0.3500000000000001 -1 0  0.45 -1 0  0.55 -1 0  0.6499999999999999 -1 0  0.75 -1 0  -0.75 -0.8999999999999999 0  -0.65 -0.899999
[...]
<PointData  Vectors="displacement"> 
<DataArray  type="Float64"  Name="displacement"  NumberOfComponents="3" format="ascii">-2.6448622893501369e-36 -5.9557004103818158e-21 0.0000000000000000e+00  -1.7439405218297234e-35 -4.9725206118071277e-21 0.0000000000000000e+00  -2.8211864419734996e-35 -4.9630836753181830e-22 0.0000000000000000e+00  3.6994925176507660e-35 -1.8088113551061970e-21 0.0000000000000000e+00  -3.5264830524668737e-35 -5.9557004103818188e-21 0.0000000000000000e+00  6.7473122471772216e-36 2.9037397256963875e-21 0.0000000000000000e+00  -2.1158898314801250e-35 5.9557004103818203e-21 0.0000000000000000e+00  -5.9296848404766585e-35 -1.4377433021937360e-20 0.0000000000000000e+00  -7.7582627154271221e-35 6.9483171454454550e-21 0.0000000000000000e+00  3.5211468894233652e-35 -1.9390156028332836e-21 0.0000000000000000e+00  -6.3476694944403696e-35 -9.9261673506363592e-21 0.0000000000000000e+00  -1.0352156304409602e-35 8.9662662550340623e-21 0.0000000000000000e+00  -2.1158898314801245e-35 -7.4446255129772731e-21 0.0000000000000000e+00  -1.3444716637529951e-35 1.9852334701272721e-21 0.0000000000000000e+00  7.0529661049337544e-36 1.9852334701272747e-21 0.0000000000000000e+00  0.0000000000000000e+00 5.9557004103818143e-21 0.0000000000000000e+00  1.0579449157400550e-35 -5.5124534074774730e-05 0.0000000000000000e+00  -1.2776840148034065e-19 -5.5124534074774791e-05 0.0000000000000000e+00  -2.2183288197824804e-19 -5.5124534074774819e-05 0.0000000000000000e+00  -2.9448078441884631e-19 -5.5124534074774798e-05 0.0000000000000000e+00  -3.8368934648196883e-19 -5.5124534074774764e-05 0.0000000000000000e+00  -4.7609492196946538e-19 -5.5124534074774846e-05 0.0000000000000000e+00  -5.3070039044115605e-19 -5.5124534074774893e-05 0.0000000000000000e+00  -5.5436449933815370e-19 -5.5124534074774846e-05 0.0000000000000000e+00  -5.4722770533822163e-19 -5.5124534074774900e-05 0.0000000000000000e+00  -5.1854008350920359e-19 -5.5124534074774941e-05 0.0000000000000000e+00  -4.8525138835481566e-19 -5.5124534074774974e-05 0.0000000000000000e+00  -4.6040641691195739e-19 -5.5124534074775144e-05 0.0000000000000000e+00  -3.9592105525332874e-19 -5.5124534074775252e-05 0.0000000000000000e+00  -3.0155274321914883e-19 -5.5124534074775401e-05 0.0000000000000000e+00  -1.6042773204698684e-19 -5.5124534074775510e-05 0.0000000000000000e+00  2.4830213167725666e-35 -5.5124534074775489e-05 0.0000000000000000e+00  -2.4685381367268059e-35 -1.1029662695818257e-04 0.0000000000000000e+00  -2.2276670220952801e-19 -1.1029662695818264e-04 0.0000000000000000e+00  -4.2078746823239372e-19 -1.1029662695818273e-04 0.0000000000000000e+00  -5.9066654655012845e-19 -1.1029662695818288e-04 0.0000000000000000e+00  -7.5704823406344917e-19 -1.1029662695818268e-04 0.0000000000000000e+00  -8.7848024026200978e-19 -1.1029662695818283e-04 0.0000000000000000e+00  -9.7718779662773818e-19 -1.1029662695818288e-04 0.0000000000000000e+00  -9.9496284196947053e-19 -1.1029662695818298e-04 0.0000000000000000e+00  -1.0299053035813426e-18 -1.1029662695818284e-04 0.0000000000000000e+00  -1.0187152705576005e-18 -1.1029662695818303e-04 0.0000000000000000e+00  -9.0440692065362535e-19 -1.1029662695818315e-04 0.0000000000000000e+00  -7.5692831022498200e-19 -1.1029662695818346e-04 0.0000000000000000e+00  -6.7515091887882003e-19 -1.1029662695818378e-04 0.0000000000000000e+00  -4.9320598383887209e-19 -1.1029662695818399e-04 0.0000000000000000e+00  -2.6166247561119120e-19 -1.1029662695818428e-04 0.0000000000000000e+00  -5.0527889986126797e-35 -1.1029662695818426e-04 0.0000000000000000e+00  2.2371126864086675e-35 -1.6556371943812220e-04 0.0000000000000000e+00  -3.0649758941154716e-19 -1.6556371943812238e-04 0.0000000000000000e+00  -5.7525992845058698e-19 -1.6556371943812249e-04 0.0000000000000000e+00  -8.2745543724850929e-19 -1.6556371943812236e-04 0.0000000000000000e+00  -1.0418969810699346e-18 -1.6556371943812263e-04 0.0000000000000000e+00  -1.2253765379912765e-18 -1.6556371943812244e-04 0.0000000000000000e+00  -1.2960635780167734e-18 -1.6556371943812266e-04 0.0000000000000000e+00  -1.3666439294652226e-18 -1.6556371943812276e-04 0.0000000000000000e+00  -1.4280163733694622e-18 -1.6556371943812274e-04 0.0000000000000000e+00  -1.3655741600468257e-18 -1.6556371943812293e-04 0.0000000000000000e+00  -1.2622464912187428e-18 -1.6556371943812323e-04 0.0000000000000000e+00  -1.1281226861884273e-18 -1.6556371943812352e-04 0.0000000000000000e+00  -8.9372471300939499e-19 -1.6556371943812426e-04 0.0000000000000000e+00  -6.2991440615722387e-19 -1.6556371943812463e-04 0.0000000000000000e+00  -3.3100167493047244e-19 -1.6556371943812485e-04 0.0000000000000000e+00  7.8338302094085340e-35 -1.6556371943812499e-04 0.0000000000000000e+00  -5.6423728839469597e-35 -2.2097301655341919e-04 0.0000000000000000e+00  -3.1075325429981205e-19 -2.2097301655341940e-04 0.0000000000000000e+00  -7.0317463498388545e-19 -2.2097301655341954e-04 0.0000000000000000e+00  -1.0269760411371807e-18 -2.2097301655341954e-04 0.0000000000000000e+00  -1.3109205184969238e-18 -2.2097301655341954e-04 0.0000000000000000e+00  -1.4611469164948705e-18 -2.2097301655341997e-04 0.0000000000000000e+00  -1.5958853740178450e-18 -2.2097301655341984e-04 0.0000000000000000e+00  -1.6802094487723784e-18 -2.2097301655341989e-04 0.0000000000000000e+00  -1.6415673542607583e-18 -2.2097301655342011e-04 0.0000000000000000e+00  -1.6907506500777804e-18 -2.2097301655341994e-04 0.0000000000000000e+00  -1.5952136637829038e-18 -2.2097301655342054e-04 0.0000000000000000e+00  -1.3465189569338099e-18 -2.2097301655342146e-04 0.0000000000000000e+00  -1.0544143819629205e-18 -2.2097301655342206e-04 0.0000000000000000e+00  -7.0602774398852444e-19 -2.2097301655342238e-04 0.0000000000000000e+00  -3.5342193955448111e-19 -2.2097301655342303e-04 0.0000000000000000e+00  -1.0579449157400545e-35 -2.2097301655342312e-04 0.0000000000000000e+00  6.8658986978415979e-37 -2.7657137044955062e-04 0.0000000000000000e+00  -4.1902444380923225e-19 -2.7657137044955052e-04 0.0000000000000000e+00  -8.1708354343169474e-19 -2.7657137044955052e-04 0.0000000000000000e+00  -1.2388563162096393e-18 -2.7657137044955084e-04 0.0000000000000000e+00  -1.5410975718995619e-18 -2.7657137044955106e-04 0.0000000000000000e+00  -1.7228428202590760e-18 -2.7657137044955106e-04 0.0000000000000000e+00  -1.8288314349367789e-18 -2.7657137044955117e-04 0.0000000000000000e+00  -1.8977015538025019e-18 -2.7657137044955117e-04 0.0000000000000000e+00  -1.9610005042360659e-18 -2.7657137044955155e-04 0.0000000000000000e+00  -1.8761251594144798e-18 -2.7657137044955149e-04 0.0000000000000000e+00  -1.7588960166018462e-18 -2.7657137044955236e-04 0.0000000000000000e+00  -1.5720268009137691e-18 -2.7657137044955339e-04 0.0000000000000000e+00  -1.2326548430224709e-18 -2.7657137044955420e-04 0.0000000000000000e+00  -8.5128704059860269e-19 -2.7657137044955496e-04 0.0000000000000000e+00  -3.7633324661383394e-19 -2.7657137044955534e-04 0.0000000000000000e+00  -6.3071300932209520e-36 -2.7657137044955534e-04 0.0000000000000000e+00  7.0529661049337157e-36 -3.3240516410869611e-04 0.0000000000000000e+00  -5.1906907870965166e-19 -3.3240516410869611e-04 0.0000000000000000e+00  -1.0226212254809842e-18 -3.3240516410869628e-04 0.0000000000000000e+00  -1.3709884386273893e-18 -3.3240516410869655e-04 0.0000000000000000e+00  -1.6828792625536488e-18 -3.3240516410869709e-04 0.0000000000000000e+00  -1.7836490374446902e-18 -3.3240516410869742e-04 0.0000000000000000e+00  -1.9680344714732200e-18 -3.3240516410869731e-04 0.0000000000000000e+00  -2.1180832319655685e-18 -3.3240516410869720e-04 0.0000000000000000e+00  -2.2243953440248304e-18 -3.3240516410869758e-04 0.0000000000000000e+00  -2.1329463670187644e-18 -3.3240516410869801e-04 0.0000000000000000e+00  -1.9453766845425398e-18 -3.3240516410869834e-04 0.0000000000000000e+00  -1.7129195834266996e-18 -3.3240516410869986e-04 0.0000000000000000e+00  -1.3951693911315047e-18 -3.3240516410870072e-04 0.0000000000000000e+00  -9.2673248132628800e-19 -3.3240516410870213e-04 0.0000000000000000e+00  -4.2766013354485467e-19 -3.3240516410870202e-04 0.0000000000000000e+00  -1.0441704163978957e-35 -3.3240516410870235e-04 0.0000000000000000e+00  1.3319843473812679e-34 -3.8852019624222592e-04 0.0000000000000000e+00  -5.7971415396112582e-19 -3.8852019624222478e-04 0.0000000000000000e+00  -1.1055963760155234e-18 -3.8852019624222576e-04 0.0000000000000000e+00  -1.5117101216979173e-18 -3.8852019624222581e-04 0.0000000000000000e+00  -1.7768927910907363e-18 -3.8852019624222641e-04 0.0000000000000000e+00  -2.0125168826849931e-18 -3.8852019624222695e-04 0.0000000000000000e+00  -2.1935210043858587e-18 -3.8852019624222657e-04 0.0000000000000000e+00  -2.3038800066993953e-18 -3.8852019624222662e-04 0.0000000000000000e+00  -2.3300677468777713e-18 -3.8852019624222668e-04 0.0000000000000000e+00  -2.3534961908612667e-18 -3.8852019624222771e-04 0.0000000000000000e+00  -2.1385291441327728e-18 -3.8852019624222803e-04 0.0000000000000000e+00  -1.8414993968504497e-18 -3.8852019624222950e-04 0.0000000000000000e+00  -1.4682280710352174e-18 -3.8852019624223096e-04 0.0000000000000000e+00  -9.4497610789201330e-19 -3.8852019624223161e-04 0.0000000000000000e+00  -4.5404265945671590e-19 -3.8852019624223264e-04 0.0000000000000000e+00  -4.4332929802440532e-35 -3.8852019624223215e-04 0.0000000000000000e+00  -3.5264830524668620e-35 -4.4496156763089775e-04 0.0000000000000000e+00  -5.4529649875450137e-19 -4.4496156763089770e-04 0.0000000000000000e+00  -1.0860709414754634e-18 -4.4496156763089803e-04 0.0000000000000000e+00  -1.6428682763330256e-18 -4.4496156763089878e-04 0.0000000000000000e+00  -1.9608609590683768e-18 -4.4496156763089938e-04 0.0000000000000000e+00  -2.1453239639109015e-18 -4.4496156763089911e-04 0.0000000000000000e+00  -2.3218179547990304e-18 -4.4496156763089916e-04 0.0000000000000000e+00  -2.3713059595762188e-18 -4.4496156763089922e-04 0.0000000000000000e+00  -2.3478708189999436e-18 -4.4496156763089965e-04 0.0000000000000000e+00  -2.3751109008764670e-18 -4.4496156763090009e-04 0.0000000000000000e+00  -2.3611821527253480e-18 -4.4496156763090122e-04 0.0000000000000000e+00  -2.0321456257543486e-18 -4.4496156763090247e-04 0.0000000000000000e+00  -1.5902427281633438e-18 -4.4496156763090453e-04 0.0000000000000000e+00  -1.0472181848633630e-18 -4.4496156763090589e-04 0.0000000000000000e+00  -5.4782568224103332e-19 -4.4496156763090599e-04 0.0000000000000000e+00  2.8211864419734890e-35 -4.4496156763090583e-04 0.0000000000000000e+00  7.7364503506894497e-35 -5.0177356919452198e-04 0.0000000000000000e+00  -6.2885845534214102e-19 -5.0177356919452209e-04 0.0000000000000000e+00  -1.2036843957631286e-18 -5.0177356919452231e-04 0.0000000000000000e+00  -1.6979921129298262e-18 -5.0177356919452307e-04 0.0000000000000000e+00  -2.0886635274735347e-18 -5.0177356919452383e-04 0.0000000000000000e+00  -2.4267112786317168e-18 -5.0177356919452404e-04 0.0000000000000000e+00  -2.5030354721739882e-18 -5.0177356919452437e-04 0.0000000000000000e+00  -2.5207502514325268e-18 -5.0177356919452393e-04 0.0000000000000000e+00  -2.4572679122040736e-18 -5.0177356919452448e-04 0.0000000000000000e+00  -2.6585829402821449e-18 -5.0177356919452404e-04 0.0000000000000000e+00  -2.5160616846255740e-18 -5.0177356919452599e-04 0.0000000000000000e+00  -2.0610774033540532e-18 -5.0177356919452751e-04 0.0000000000000000e+00  -1.6196911131265300e-18 -5.0177356919452968e-04 0.0000000000000000e+00  -1.1813930147989779e-18 -5.0177356919453109e-04 0.0000000000000000e+00  -6.9574666902513887e-19 -5.0177356919453076e-04 0.0000000000000000e+00  -4.2069566983195807e-35 -5.0177356919453131e-04 0.0000000000000000e+00  7.7582627154271040e-35 -5.5899957206857135e-04 0.0000000000000000e+00  -7.0277590578005903e-19 -5.5899957206857179e-04 0.0000000000000000e+00  -1.3334647030216671e-18 -5.5899957206857135e-04 0.0000000000000000e+00  -1.8521701809502499e-18 -5.5899957206857298e-04 0.0000000000000000e+00  -2.2605415065626203e-18 -5.5899957206857406e-04 0.0000000000000000e+00  -2.4261786223409422e-18 -5.5899957206857406e-04 0.0000000000000000e+00  -2.6046275235758324e-18 -5.5899957206857385e-04 0.0000000000000000e+00  -2.7160110342907748e-18 -5.5899957206857450e-04 0.0000000000000000e+00  -2.8311012468211406e-18 -5.5899957206857428e-04 0.0000000000000000e+00  -2.6771626177555204e-18 -5.5899957206857395e-04 0.0000000000000000e+00  -2.4986702945139891e-18 -5.5899957206857623e-04 0.0000000000000000e+00  -2.1519931227235364e-18 -5.5899957206857873e-04 0.0000000000000000e+00  -1.6565295967913513e-18 -5.5899957206858024e-04 0.0000000000000000e+00  -1.2114753416844921e-18 -5.5899957206858100e-04 0.0000000000000000e+00  -6.7834173562823131e-19 -5.5899957206858176e-04 0.0000000000000000e+00  -3.4752150496907340e-36 -5.5899957206858274e-04 0.0000000000000000e+00  -4.2315987591017433e-35 -6.1668191996036635e-04 0.0000000000000000e+00  -7.5669959163236592e-19 -6.1668191996036624e-04 0.0000000000000000e+00  -1.4512206035601417e-18 -6.1668191996036743e-04 0.0000000000000000e+00  -1.9034631191957864e-18 -6.1668191996036798e-04 0.0000000000000000e+00  -2.1687248832001454e-18 -6.1668191996036863e-04 0.0000000000000000e+00  -2.4519895947400429e-18 -6.1668191996037047e-04 0.0000000000000000e+00  -2.7296509505346035e-18 -6.1668191996036960e-04 0.0000000000000000e+00  -2.9220765480864670e-18 -6.1668191996036938e-04 0.0000000000000000e+00  -3.1154750492071430e-18 -6.1668191996036917e-04 0.0000000000000000e+00  -2.7768172514763919e-18 -6.1668191996037047e-04 0.0000000000000000e+00  -2.3429339370286063e-18 -6.1668191996037134e-04 0.0000000000000000e+00  -2.1037839134184262e-18 -6.1668191996037350e-04 0.0000000000000000e+00  -1.6064564848655068e-18 -6.1668191996037578e-04 0.0000000000000000e+00  -1.1678696722135636e-18 -6.1668191996037730e-04 0.0000000000000000e+00  -5.4961777920407189e-19 -6.1668191996037784e-04 0.0000000000000000e+00  -1.5617282089496083e-35 -6.1668191996037849e-04 0.0000000000000000e+00  -7.0529661049337240e-35 -6.7486182405182679e-04 0.0000000000000000e+00  -8.4212823932316777e-19 -6.7486182405182722e-04 0.0000000000000000e+00  -1.4678538982739764e-18 -6.7486182405182755e-04 0.0000000000000000e+00  -1.8838061644643135e-18 -6.7486182405182831e-04 0.0000000000000000e+00  -2.1610930297253632e-18 -6.7486182405182983e-04 0.0000000000000000e+00  -2.4761642887253056e-18 -6.7486182405182983e-04 0.0000000000000000e+00  -2.7648287737703034e-18 -6.7486182405183015e-04 0.0000000000000000e+00  -2.9632617995721869e-18 -6.7486182405182972e-04 0.0000000000000000e+00  -2.8990963834553766e-18 -6.7486182405183059e-04 0.0000000000000000e+00  -2.7831342433994880e-18 -6.7486182405183178e-04 0.0000000000000000e+00  -2.4801749744569231e-18 -6.7486182405183221e-04 0.0000000000000000e+00  -2.1856456955051433e-18 -6.7486182405183525e-04 0.0000000000000000e+00  -1.6311467962996716e-18 -6.7486182405183568e-04 0.0000000000000000e+00  -8.6479953330651878e-19 -6.7486182405183785e-04 0.0000000000000000e+00  -3.4191509980779013e-19 -6.7486182405183904e-04 0.0000000000000000e+00  2.1158898314801167e-35 -6.7486182405183980e-04 0.0000000000000000e+00  1.4816335279092928e-34 -7.3357926070957832e-04 0.0000000000000000e+00  -6.9004414955016336e-19 -7.3357926070957886e-04 0.0000000000000000e+00  -1.2797176121974137e-18 -7.3357926070957919e-04 0.0000000000000000e+00  -1.8585954504504850e-18 -7.3357926070958027e-04 0.0000000000000000e+00  -2.3787421408387542e-18 -7.3357926070958136e-04 0.0000000000000000e+00  -2.5910204767425766e-18 -7.3357926070958244e-04 0.0000000000000000e+00  -2.7804065073519392e-18 -7.3357926070958168e-04 0.0000000000000000e+00  -2.9970946350439890e-18 -7.3357926070958136e-04 0.0000000000000000e+00  -2.9825991586324808e-18 -7.3357926070958190e-04 0.0000000000000000e+00  -2.9543784712240062e-18 -7.3357926070958342e-04 0.0000000000000000e+00  -2.6898118406936047e-18 -7.3357926070958515e-04 0.0000000000000000e+00  -2.0908998970258239e-18 -7.3357926070958645e-04 0.0000000000000000e+00  -1.5713256675655486e-18 -7.3357926070958916e-04 0.0000000000000000e+00  -8.2647894851766789e-19 -7.3357926070959090e-04 0.0000000000000000e+00  -3.3505333654934387e-19 -7.3357926070959263e-04 0.0000000000000000e+00  -1.7827179343507968e-35 -7.3357926070959166e-04 0.0000000000000000e+00  5.6423728839469726e-35 -7.9287287225629131e-04 0.0000000000000000e+00  -6.3497974603282232e-19 -7.9287287225629196e-04 0.0000000000000000e+00  -1.2001167550655984e-18 -7.9287287225629185e-04 0.0000000000000000e+00  -1.7957036559337259e-18 -7.9287287225629271e-04 0.0000000000000000e+00  -2.2037144857909241e-18 -7.9287287225629477e-04 0.0000000000000000e+00  -2.8188600021471168e-18 -7.9287287225629608e-04 0.0000000000000000e+00  -3.2059790067422612e-18 -7.9287287225629467e-04 0.0000000000000000e+00  -3.3308294525008790e-18 -7.9287287225629477e-04 0.0000000000000000e+00  -3.2318833655173118e-18 -7.9287287225629553e-04 0.0000000000000000e+00  -3.2207718350404198e-18 -7.9287287225629597e-04 0.0000000000000000e+00  -2.9833822939063186e-18 -7.9287287225629900e-04 0.0000000000000000e+00  -2.2876439484133907e-18 -7.9287287225630095e-04 0.0000000000000000e+00  -1.5133991832864053e-18 -7.9287287225630377e-04 0.0000000000000000e+00  -9.2988118763799365e-19 -7.9287287225630518e-04 0.0000000000000000e+00  -4.5105837223179296e-19 -7.9287287225630507e-04 0.0000000000000000e+00  5.2097459870967268e-35 -7.9287287225630475e-04 0.0000000000000000e+00  9.9065299402890180e-36 -8.5277987104962481e-04 0.0000000000000000e+00  -7.3221707801217691e-19 -8.5277987104962513e-04 0.0000000000000000e+00  -1.2944413790848179e-18 -8.5277987104962567e-04 0.0000000000000000e+00  -1.8664130552806641e-18 -8.5277987104962665e-04 0.0000000000000000e+00  -2.3781987165929170e-18 -8.5277987104962838e-04 0.0000000000000000e+00  -2.8491496087003337e-18 -8.5277987104962882e-04 0.0000000000000000e+00  -3.2221244586794692e-18 -8.5277987104962849e-04 0.0000000000000000e+00  -3.4186606551023173e-18 -8.5277987104962838e-04 0.0000000000000000e+00  -3.5983361636421741e-18 -8.5277987104962925e-04 0.0000000000000000e+00  -3.3964291760677636e-18 -8.5277987104963066e-04 0.0000000000000000e+00  -3.0954885528311550e-18 -8.5277987104963250e-04 0.0000000000000000e+00  -2.5578726430684621e-18 -8.5277987104963565e-04 0.0000000000000000e+00  -1.8599563932754170e-18 -8.5277987104963814e-04 0.0000000000000000e+00  -1.2841030231562340e-18 -8.5277987104963825e-04 0.0000000000000000e+00  -6.7343720960818188e-19 -8.5277987104964009e-04 0.0000000000000000e+00  -4.1814013336392822e-35 -8.5277987104964020e-04 0.0000000000000000e+00  2.8211864419734863e-35 -9.1333594710701525e-04 0.0000000000000000e+00  -6.8152794620249591e-19 -9.1333594710701633e-04 0.0000000000000000e+00  -1.4462344078167356e-18 -9.1333594710701644e-04 0.0000000000000000e+00  -1.9934676875165438e-18 -9.1333594710701807e-04 0.0000000000000000e+00  -2.4520976663468128e-18 -9.1333594710701948e-04 0.0000000000000000e+00  -2.8773682530166683e-18 -9.1333594710701948e-04 0.0000000000000000e+00  -3.1790092743276536e-18 -9.1333594710701937e-04 0.0000000000000000e+00  -3.5206123129387744e-18 -9.1333594710701904e-04 0.0000000000000000e+00  -3.7947416229343202e-18 -9.1333594710702056e-04 0.0000000000000000e+00  -3.5367893999472916e-18 -9.1333594710702175e-04 0.0000000000000000e+00  -3.0709980967642184e-18 -9.1333594710702392e-04 0.0000000000000000e+00  -2.7430360197066026e-18 -9.1333594710702728e-04 0.0000000000000000e+00  -2.1611354878564185e-18 -9.1333594710702858e-04 0.0000000000000000e+00  -1.4998866905784897e-18 -9.1333594710703086e-04 0.0000000000000000e+00  -6.9569093316753159e-19 -9.1333594710703162e-04 0.0000000000000000e+00  -7.0529661049337144e-36 -9.1333594710703205e-04 0.0000000000000000e+00  1.3783562907190966e-35 -9.7457517950582436e-04 0.0000000000000000e+00  -7.2981203477395973e-19 -9.7457517950582306e-04 0.0000000000000000e+00  -1.3545810604777666e-18 -9.7457517950582534e-04 0.0000000000000000e+00  -1.8517405087605663e-18 -9.7457517950582555e-04 0.0000000000000000e+00  -2.4609649281133363e-18 -9.745751