<?xml version="1.0"?>
<VTKFile type="UnstructuredGrid"  version="0.1"  >
<UnstructuredGrid>
<Piece  NumberOfPoints="1876" NumberOfCells="3600">
<Points>
<DataArray  type="Float64"  NumberOfComponents="3"  format="ascii">-0.75 -3 0  -0.65 -3 0  -0.55 -3 0  -0.45 -3 0  -0.35 -3 0  -0.25 -3 0  -0.15 -3 0  -0.05000000000000004 -3 0  0.05000000000000004 -3 0  0.15 -3 0  0.25 -3 0  0.3500000000000001 -3 0  0.45 -3 0  0.55 -3 0  0.6499999999999999 -3 0  0.75 -3 0  -0.75 -2.95 0  -0.65 -2.95 0  -0.55 -2.95 0  -0.45 -2.95 0  -0.35 -2.95 0  -0.25 -2.95 0  -0.15 -2.95 0  -0.05000000000000004 -2.95 0  0.05000000000000004 -2.95 0  0.15 -2.95 0  0.25 -2.95 0  0.3500000000000001 -2.95 0  0.45 -2.95 0  0.55 -2.95 0  0.6499999999999999 -2.95 0  0.75 -2.95 0  -0.75 -2.9 0  -0.65 -2.9 0  -0.55 -2.9 0  -0.45 -2.9 0  -0.35 -2.9 0  -0.25 -2.9 0  -0.15 -2.9 0  -0.05000000000000004 -2.9 0  0.05000000000000004 -2.9 0  0.15 -2.9 0  0.25 -2.9 0  0.3500000000000001 -2.9 0  0.45 -2.9 0  0.55 -2.9 0  0.6499999999999999 -2.9 0  0.75 -2.9 0  -0.75 -2.85 0  -0.65 -2.85 0  -0.55 -2.85 0  -0.45 -2.85 0  -0.35 -2.85 0  -0.25 -2.85 0  -0.15 -2.85 0  -0.05000000000000004 -2.85 0  0.05000000000000004 -2.85 0  0.15 -2.85 0  0.25 -2.85 0  0.3500000000000001 -2.85 0  0.45 -2.85 0  0.55 -2.85 0  0.6499999999999999 -2.85 0  0.75 -2.85 0  -0.75 -2.8 0  -0.65 -2.8 0  -0.55 -2.8 0  -0.45 -2.8 0  -0.35 -2.8 0  -0.25 -2.8 0  -0.15 -2.8 0  -0.05000000000000004 -2.8 0  0.05000000000000004 -2.8 0  0.15 -2.8 0  0.25 -2.8 0  0.3500000000000001 -2.8 0  0.45 -2.8 0  0.55 -2.8 0  0.6499999999999999 -2.8 0  0.75 -2.8 0  -0.75 -2.75 0  -0.65 -2.75 0  -0.55 -2.75 0  -0.45 -2.75 0  -0.35 -2.75 0  -0.25 -2.75 0  -0.15 -2.75 0  -0.05000000000000004 -2.75 0  0.05000000000000004 -2.75 0  0.15 -2.75 0  0.25 -2.75 0  0.3500000000000001 -2.75 0  0.45 -2.75 0  0.55 -2.75 0  0.6499999999999999 -2.75 0  0.75 -2.75 0  -0.75 -2.7 0  -0.65 -2.7 0  -0.55 -2.7 0  -0.45 -2.7 0  -0.35 -2.7 0  -0.25 -2.7 0  -0.15 -2.7 0  -0.05000000000000004 -2.7 0  0.05000000000000004 -2.7 0  0.15 -2.7 0  0.25 -2.7 0  0.3500000000000001 -2.7 0  0.45 -2.7 0  0.55 -2.7 0  0.6499999999999999 -2.7 0  0.75 -2.7 0  -0.75 -2.65 0  -0.65 -2.65 0  -0.55 -2.65 0  -0.45 -2.65 0  -0.35 -2.65 0  -0.25 -2.65 0  -0.15 -2.65 0  -0.05000000000000004 -2.65 0  0.05000000000000004 -2.65 0  0.15 -2.65 0  0.25 -2.65 0  0.3500000000000001 -2.65 0  0.45 -2.65 0  0.55 -2.65 0  0.6499999999999999 -2.65 0  0.75 -2.65 0  -0.75 -2.6 0  -0.65 -2.6 0  -0.55 -2.6 0  -0.45 -2.6 0  -0.35 -2.6 0  -0.25 -2.6 0  -0.15 -2.6 0  -0.05000000000000004 -2.6 0  0.05000000000000004 -2.6 0  0.15 -2.6 0  0.25 -2.6 0  0.3500000000000001 -2.6 0  0.45 -2.6 0  0.55 -2.6 0  0.6499999999999999 -2.6 0  0.75 -2.6 0  -0.75 -2.55 0  -0.65 -2.55 0  -0.55 -2.55 0  -0.45 -2.55 0  -0.35 -2.55 0  -0.25 -2.55 0  -0.15 -2.55 0  -0.05000000000000004 -2.55 0  0.05000000000000004 -2.55 0  0.15 -2.55 0  0.25 -2.55 0  0.3500000000000001 -2.55 0  0.45 -2.55 0  0.55 -2.55 0  0.6499999999999999 -2.55 0  0.75 -2.55 0  -0.75 -2.5 0  -0.65 -2.5 0  -0.55 -2.5 0  -0.45 -2.5 0  -0.35 -2.5 0  -0.25 -2.5 0  -0.15 -2.5 0  -0.05000000000000004 -2.5 0  0.05000000000000004 -2.5 0  0.15 -2.5 0  0.25 -2.5 0  0.3500000000000001 -2.5 0  0.45 -2.5 0  0.55 -2.5 0  0.6499999999999999 -2.5 0  0.75 -2.5 0  -0.75 -2.45 0  -0.65 -2.45 0  -0.55 -2.45 0  -0.45 -2.45 0  -0.35 -2.45 0  -0.25 -2.45 0  -0.15 -2.45 0  -0.05000000000000004 -2.45 0  0.05000000000000004 -2.45 0  0.15 -2.45 0  0.25 -2.45 0  0.3500000000000001 -2.45 0  0.45 -2.45 0  0.55 -2.45 0  0.6499999999999999 -2.45 0  0.75 -2.45 0  -0.75 -2.4 0  -0.65 -2.4 0  -0.55 -2.4 0  -0.45 -2.4 0  -0.35 -2.4 0  -0.25 -2.4 0  -0.15 -2.4 0  -0.05000000000000004 -2.4 0  0.05000000000000004 -2.4 0  0.15 -2.4 0  0.25 -2.4 0  0.3500000000000001 -2.4 0  0.45 -2.4 0  0.55 -2.4 0  0.6499999999999999 -2.4 0  0.75 -2.4 0  -0.75 -2.35 0  -0.65 -2.35 0  -0.55 -2.35 0  -0.45 -2.35 0  -0.35 -2.35 0  -0.25 -2.35 0  -0.15 -2.35 0  -0.05000000000000004 -2.35 0  0.05000000000000004 -2.35 0  0.15 -2.35 0  0.25 -2.35 0  0.3500000000000001 -2.35 0  0.45 -2.35 0  0.55 -2.35 0  0.6499999999999999 -2.35 0  0.75 -2.35 0  -0.75 -2.3 0  -0.65 -2.3 0  -0.55 -2.3 0  -0.45 -2.3 0  -0.35 -2.3 0  -0.25 -2.3 0  -0.15 -2.3 0  -0.05000000000000004 -2.3 0  0.05000000000000004 -2.3 0  0.15 -2.3 0  0.25 -2.3 0  0.3500000000000001 -2.3 0  0.45 -2.3 0  0.55 -2.3 0  0.6499999999999999 -2.3 0  0.75 -2.3 0  -0.75 -2.25 0  -0.65 -2.25 0  -0.55 -2.25 0  -0.45 -2.25 0  -0.35 -2.25 0  -0.25 -2.25 0  -0.15 -2.25 0  -0.05000000000000004 -2.25 0  0.05000000000000004 -2.25 0  0.15 -2.25 0  0.25 -2.25 0  0.3500000000000001 -2.25 0  0.45 -2.25 0  0.55 -2.25 0  0.6499999999999999 -2.25 0  0.75 -2.25 0  -0.75 -2.2 0  -0.65 -2.2 0  -0.55 -2.2 0  -0.45 -2.2 0  -0.35 -2.2 0  -0.25 -2.2 0  -0.15 -2.2 0  -0.05000000000000004 -2.2 0  0.05000000000000004 -2.2 0  0.15 -2.2 0  0.25 -2.2 0  0.3500000000000001 -2.2 0  0.45 -2.2 0  0.55 -2.2 0  0.6499999999999999 -2.2 0  0.75 -2.2 0  -0.75 -2.15 0  -0.65 -2.15 0  -0.55 -2.15 0  -0.45 -2.15 0  -0.35 -2.15 0  -0.25 -2.15 0  -0.15 -2.15 0  -0.05000000000000004 -2.15 0  0.05000000000000004 -2.15 0  0.15 -2.15 0  0.25 -2.15 0  0.3500000000000001 -2.15 0  0.45 -2.15 0  0.55 -2.15 0  0.6499999999999999 -2.15 0  0.75 -2.15 0  -0.75 -2.1 0  -0.65 -2.1 0  -0.55 -2.1 0  -0.45 -2.1 0  -0.35 -2.1 0  -0.25 -2.1 0  -0.15 -2.1 0  -0.05000000000000004 -2.1 0  0.05000000000000004 -2.1 0  0.15 -2.1 0  0.25 -2.1 0  0.3500000000000001 -2.1 0  0.45 -2.1 0  0.55 -2.1 0  0.6499999999999999 -2.1 0  0.75 -2.1 0  -0.75 -2.05 0  -0.65 -2.05 0  -0.55 -2.05 0  -0.45 -2.05 0  -0.35 -2.05 0  -0.25 -2.05 0  -0.15 -2.05 0  -0.05000000000000004 -2.05 0  0.05000000000000004 -2.05 0  0.15 -2.05 0  0.25 -2.05 0  0.3500000000000001 -2.05 0  0.45 -2.05 0  0.55 -2.05 0  0.6499999999999999 -2.05 0  0.75 -2.05 0  -0.75 -2 0  -0.65 -2 0  -0.55 -2 0  -0.45 -2 0  -0.35 -2 0  -0.25 -2 0  -0.15 -2 0  -0.05000000000000004 -2 0  0.05000000000000004 -2 0  0.15 -2 0  0.25 -2 0  0.3500000000000001 -2 0  0.45 -2 0  0.55 -2 0  0.6499999999999999 -2 0  0.75 -2 0  -0.75 -1.95 0  -0.65 -1.95 0  -0.55 -1.95 0  -0.45 -1.95 0  -0.35 -1.95 0  -0.25 -1.95 0  -0.15 -1.95 0  -0.05000000000000004 -1.95 0  0.05000000000000004 -1.95 0  0.15 -1.95 0  0.25 -1.95 0  0.3500000000000001 -1.95 0  0.45 -1.95 0  0.55 -1.95 0  0.6499999999999999 -1.95 0  0.75 -1.95 0  -0.75 -1.9 0  -0.65 -1.9 0  -0.55 -1.9 0  -0.45 -1.9 0  -0.35 -1.9 0  -0.25 -1.9 0  -0.15 -1.9 0  -0.05000000000000004 -1.9 0  0.05000000000000004 -1.9 0  0.15 -1.9 0  0.25 -1.9 0  0.3500000000000001 -1.9 0  0.45 -1.9 0  0.55 -1.9 0  0.6499999999999999 -1.9 0  0.75 -1.9 0  -0.75 -1.85 0  -0.65 -1.85 0  -0.55 -1.85 0  -0.45 -1.85 0  -0.35 -1.85 0  -0.25 -1.85 0  -0.15 -1.85 0  -0.05000000000000004 -1.85 0  0.05000000000000004 -1.85 0  0.15 -1.85 0  0.25 -1.85 0  0.3500000000000001 -1.85 0  0.45 -1.85 0  0.55 -1.85 0  0.6499999999999999 -1.85 0  0.75 -1.85 0  -0.75 -1.8 0  -0.65 -1.8 0  -0.55 -1.8 0  -0.45 -1.8 0  -0.35 -1.8 0  -0.25 -1.8 0  -0.15 -1.8 0  -0.05000000000000004 -1.8 0  0.05000000000000004 -1.8 0  0.15 -1.8 0  0.25 -1.8 0  0.3500000000000001 -1.8 0  0.45 -1.8 0  0.55 -1.8 0  0.6499999999999999 -1.8 0  0.75 -1.8 0  -0.75 -1.75 0  -0.65 -1.75 0  -0.55 -1.75 0  -0.45 -1.75 0  -0.35 -1.75 0  -0.25 -1.75 0  -0.15 -1.75 0  -0.05000000000000004 -1.75 0  0.05000000000000004 -1.75 0  0.15 -1.75 0  0.25 -1.75 0  0.3500000000000001 -1.75 0  0.45 -1.75 0  0.55 -1.75 0  0.6499999999999999 -1.75 0  0.75 -1.75 0  -0.75 -1.7 0  -0.65 -1.7 0  -0.55 -1.7 0  -0.45 -1.7 0  -0.35 -1.7 0  -0.25 -1.7 0  -0.15 -1.7 0  -0.05000000000000004 -1.7 0  0.05000000000000004 -1.7 0  0.15 -1.7 0  0.25 -1.7 0  0.3500000000000001 -1.7 0  0.45 -1.7 0  0.55 -1.7 0  0.6499999999999999 -1.7 0  0.75 -1.7 0  -0.75 -1.65 0  -0.65 -1.65 0  -0.55 -1.65 0  -0.45 -1.65 0  -0.35 -1.65 0  -0.25 -1.65 0  -0.15 -1.65 0  -0.05000000000000004 -1.65 0  0.05000000000000004 -1.65 0  0.15 -1.65 0  0.25 -1.65 0  0.3500000000000001 -1.65 0  0.45 -1.65 0  0.55 -1.65 0  0.6499999999999999 -1.65 0  0.75 -1.65 0  -0.75 -1.6 0  -0.65 -1.6 0  -0.55 -1.6 0  -0.45 -1.6 0  -0.35 -1.6 0  -0.25 -1.6 0  -0.15 -1.6 0  -0.05000000000000004 -1.6 0  0.05000000000000004 -1.6 0  0.15 -1.6 0  0.25 -1.6 0  0.3500000000000001 -1.6 0  0.45 -1.6 0  0.55 -1.6 0  0.6499999999999999 -1.6 0  0.75 -1.6 0  -0.75 -1.55 0  -0.65 -1.55 0  -0.55 -1.55 0  -0.45 -1.55 0  -0.35 -1.55 0  -0.25 -1.55 0  -0.15 -1.55 0  -0.05000000000000004 -1.55 0  0.05000000000000004 -1.55 0  0.15 -1.55 0  0.25 -1.55 0  0.3500000000000001 -1.55 0  0.45 -1.55 0  0.55 -1.55 0  0.6499999999999999 -1.55 0  0.75 -1.55 0  -0.75 -1.5 0  -0.65 -1.5 0  -0.55 -1.5 0  -0.45 -1.5 0  -0.35 -1.5 0  -0.25 -1.5 0  -0.15 -1.5 0  -0.05000000000000004 -1.5 0  0.05000000000000004 -1.5 0  0.15 -1.5 0  0.25 -1.5 0  0.3500000000000001 -1.5 0  0.45 -1.5 0  0.55 -1.5 0  0.6499999999999999 -1.5 0  0.75 -1.5 0  -0.75 -1.45 0  -0.65 -1.45 0  -0.55 -1.45 0  -0.45 -1.45 0  -0.35 -1.45 0  -0.25 -1.45 0  -0.15 -1.45 0  -0.05000000000000004 -1.45 0  0.05000000000000004 -1.45 0  0.15 -1.45 0  0.25 -1.45 0  0.3500000000000001 -1.45 0  0.45 -1.45 0  0.55 -1.45 0  0.6499999999999999 -1.45 0  0.75 -1.45 0  -0.75 -1.4 0  -0.65 -1.4 0  -0.55 -1.4 0  -0.45 -1.4 0  -0.35 -1.4 0  -0.25 -1.4 0  -0.15 -1.4 0  -0.05000000000000004 -1.4 0  0.05000000000000004 -1.4 0  0.15 -1.4 0  0.25 -1.4 0  0.3500000000000001 -1.4 0  0.45 -1.4 0  0.55 -1.4 0  0.6499999999999999 -1.4 0  0.75 -1.4 0  -0.75 -1.35 0  -0.65 -1.35 0  -0.55 -1.35 0  -0.45 -1.35 0  -0.35 -1.35 0  -0.25 -1.35 0  -0.15 -1.35 0  -0.05000000000000004 -1.35 0  0.05000000000000004 -1.35 0  0.15 -1.35 0  0.25 -1.35 0  0.3500000000000001 -1.35 0  0.45 -1.35 0  0.55 -1.35 0  0.6499999999999999 -1.35 0  0.75 -1.35 0  -0.75 -1.3 0  -0.65 -1.3 0  -0.55 -1.3 0  -0.45 -1.3 0  -0.35 -1.3 0  -0.25 -1.3 0  -0.15 -1.3 0  -0.05000000000000004 -1.3 0  0.05000000000000004 -1.3 0  0.15 -1.3 0  0.25 -1.3 0  0.3500000000000001 -1.3 0  0.45 -1.3 0  0.55 -1.3 0  0.6499999999999999 -1.
[...]
<PointData  Vectors="displacement"> 
<DataArray  type="Float64"  Name="displacement"  NumberOfComponents="3" format="ascii">-3.8791313577135477e-35 -5.9557004103818158e-21 0.0000000000000000e+00  1.0138615067436869e-35 -2.3574647457761375e-21 0.0000000000000000e+00  -5.6423728839469993e-35 -9.9261673506363660e-22 0.0000000000000000e+00  -1.2122285492854882e-36 5.5989787712183249e-21 0.0000000000000000e+00  -9.8741525469072471e-35 9.9261673506363641e-22 0.0000000000000000e+00  -9.8968721366141693e-35 -7.0186637654932444e-21 0.0000000000000000e+00  1.4105932209867501e-35 8.4372422480409124e-21 0.0000000000000000e+00  -4.4076004031426739e-35 -1.3647244289270917e-20 0.0000000000000000e+00  -4.9370762734536236e-35 -2.9778502051909094e-21 0.0000000000000000e+00  8.8304176921150384e-35 5.9905844251569327e-21 0.0000000000000000e+00  -8.6398834785438356e-35 -3.4741585727227253e-21 0.0000000000000000e+00  2.7567518238830404e-35 6.7674988663717692e-21 0.0000000000000000e+00  -7.8657102459319727e-36 -1.1415092453231818e-20 0.0000000000000000e+00  3.7875647781137773e-36 -9.9261673506363603e-22 0.0000000000000000e+00  -2.6448622893501579e-36 9.9261673506363742e-21 0.0000000000000000e+00  6.6121557233753839e-37 -5.9557004103818143e-21 0.0000000000000000e+00  7.0529661049336994e-35 -6.1810858582569427e-05 0.0000000000000000e+00  -3.5410708646361683e-19 -6.1810858582569467e-05 0.0000000000000000e+00  -6.3710877973480722e-19 -6.1810858582569589e-05 0.0000000000000000e+00  -7.3180307983983251e-19 -6.1810858582569820e-05 0.0000000000000000e+00  -7.0290246453976339e-19 -6.1810858582569942e-05 0.0000000000000000e+00  -6.3344125360081042e-19 -6.1810858582570064e-05 0.0000000000000000e+00  -6.0895801599465038e-19 -6.1810858582570050e-05 0.0000000000000000e+00  -6.5682454226404241e-19 -6.1810858582570010e-05 0.0000000000000000e+00  -6.3850056706136172e-19 -6.1810858582570050e-05 0.0000000000000000e+00  -5.2690749046803312e-19 -6.1810858582570254e-05 0.0000000000000000e+00  -3.0687503642888835e-19 -6.1810858582570199e-05 0.0000000000000000e+00  -1.6294560332889887e-19 -6.1810858582570104e-05 0.0000000000000000e+00  -8.4922148430257346e-20 -6.1810858582570050e-05 0.0000000000000000e+00  7.1216950964926118e-22 -6.1810858582569955e-05 0.0000000000000000e+00  7.7849752223034840e-21 -6.1810858582569901e-05 0.0000000000000000e+00  1.0911145032351595e-37 -6.1810858582569888e-05 0.0000000000000000e+00  -7.3174523338687451e-35 -1.2362171716513931e-04 0.0000000000000000e+00  -6.2091147471027616e-19 -1.2362171716513929e-04 0.0000000000000000e+00  -1.1036857238697390e-18 -1.2362171716513967e-04 0.0000000000000000e+00  -1.3074524178797010e-18 -1.2362171716514026e-04 0.0000000000000000e+00  -1.3092686661379766e-18 -1.2362171716514045e-04 0.0000000000000000e+00  -1.2313729616128903e-18 -1.2362171716514072e-04 0.0000000000000000e+00  -1.2002239487154436e-18 -1.2362171716514053e-04 0.0000000000000000e+00  -1.2676568694484758e-18 -1.2362171716514051e-04 0.0000000000000000e+00  -1.2559105332175754e-18 -1.2362171716514081e-04 0.0000000000000000e+00  -1.0449860304951980e-18 -1.2362171716514091e-04 0.0000000000000000e+00  -6.5547608539044240e-19 -1.2362171716514105e-04 0.0000000000000000e+00  -3.7681178850555310e-19 -1.2362171716514053e-04 0.0000000000000000e+00  -2.1167771396097301e-19 -1.2362171716514067e-04 0.0000000000000000e+00  -6.1204624182179154e-20 -1.2362171716514045e-04 0.0000000000000000e+00  -2.8307136220644868e-20 -1.2362171716514029e-04 0.0000000000000000e+00  1.3979986386565075e-35 -1.2362171716514029e-04 0.0000000000000000e+00  -5.6423728839469843e-35 -1.8543257574770832e-04 0.0000000000000000e+00  -8.5496221751383847e-19 -1.8543257574770878e-04 0.0000000000000000e+00  -1.4636709199570454e-18 -1.8543257574770922e-04 0.0000000000000000e+00  -1.7737242382303183e-18 -1.8543257574770997e-04 0.0000000000000000e+00  -1.8531126993546189e-18 -1.8543257574771052e-04 0.0000000000000000e+00  -1.7889230589903453e-18 -1.8543257574771081e-04 0.0000000000000000e+00  -1.7603706279376908e-18 -1.8543257574771049e-04 0.0000000000000000e+00  -1.8439265645428009e-18 -1.8543257574771049e-04 0.0000000000000000e+00  -1.8790174642232433e-18 -1.8543257574771073e-04 0.0000000000000000e+00  -1.5280266917891756e-18 -1.8543257574771136e-04 0.0000000000000000e+00  -1.0187552977709289e-18 -1.8543257574771144e-04 0.0000000000000000e+00  -6.4913842119948582e-19 -1.8543257574771081e-04 0.0000000000000000e+00  -3.6072198622916340e-19 -1.8543257574771095e-04 0.0000000000000000e+00  -1.8456087600272009e-19 -1.8543257574771044e-04 0.0000000000000000e+00  -1.2735003555641503e-19 -1.8543257574771016e-04 0.0000000000000000e+00  1.4105932209867455e-35 -1.8543257574771035e-04 0.0000000000000000e+00  9.8023097810160926e-35 -2.4724343433027825e-04 0.0000000000000000e+00  -9.8212715062687336e-19 -2.4724343433027825e-04 0.0000000000000000e+00  -1.7980529434872030e-18 -2.4724343433027933e-04 0.0000000000000000e+00  -2.2070404755325393e-18 -2.4724343433028020e-04 0.0000000000000000e+00  -2.2793383247072440e-18 -2.4724343433028107e-04 0.0000000000000000e+00  -2.3066168979670487e-18 -2.4724343433028123e-04 0.0000000000000000e+00  -2.2568397784324888e-18 -2.4724343433028096e-04 0.0000000000000000e+00  -2.3791050422225780e-18 -2.4724343433028085e-04 0.0000000000000000e+00  -2.4448487563475727e-18 -2.4724343433028145e-04 0.0000000000000000e+00  -1.9940837190418678e-18 -2.4724343433028253e-04 0.0000000000000000e+00  -1.4053642368759447e-18 -2.4724343433028221e-04 0.0000000000000000e+00  -9.8144090832697056e-19 -2.4724343433028172e-04 0.0000000000000000e+00  -5.6404239885963538e-19 -2.4724343433028166e-04 0.0000000000000000e+00  -3.3939143967982398e-19 -2.4724343433028118e-04 0.0000000000000000e+00  -1.6868669791886443e-19 -2.4724343433028063e-04 0.0000000000000000e+00  9.9509499805692951e-36 -2.4724343433028118e-04 0.0000000000000000e+00  9.8741525469072429e-35 -3.0905429291284764e-04 0.0000000000000000e+00  -1.1655670065986298e-18 -3.0905429291284780e-04 0.0000000000000000e+00  -2.0950659511406497e-18 -3.0905429291284883e-04 0.0000000000000000e+00  -2.5709516575336090e-18 -3.0905429291285045e-04 0.0000000000000000e+00  -2.7068113884409674e-18 -3.0905429291285062e-04 0.0000000000000000e+00  -2.7941699792583440e-18 -3.0905429291285127e-04 0.0000000000000000e+00  -2.8379589253234633e-18 -3.0905429291285105e-04 0.0000000000000000e+00  -2.8688938699065215e-18 -3.0905429291285067e-04 0.0000000000000000e+00  -2.8330973156126651e-18 -3.0905429291285170e-04 0.0000000000000000e+00  -2.4850417270688195e-18 -3.0905429291285333e-04 0.0000000000000000e+00  -1.8917489790278825e-18 -3.0905429291285273e-04 0.0000000000000000e+00  -1.3285285513853409e-18 -3.0905429291285246e-04 0.0000000000000000e+00  -8.3273179967469043e-19 -3.0905429291285181e-04 0.0000000000000000e+00  -4.8646739595592857e-19 -3.0905429291285148e-04 0.0000000000000000e+00  -2.5575121198395456e-19 -3.0905429291285121e-04 0.0000000000000000e+00  -4.0571774258898649e-35 -3.0905429291285138e-04 0.0000000000000000e+00  -1.3937496582871066e-34 -3.7086515149541680e-04 0.0000000000000000e+00  -1.3144615180384039e-18 -3.7086515149541697e-04 0.0000000000000000e+00  -2.3609014809501958e-18 -3.7086515149541843e-04 0.0000000000000000e+00  -2.9595632432854724e-18 -3.7086515149542044e-04 0.0000000000000000e+00  -3.1185505837991867e-18 -3.7086515149542082e-04 0.0000000000000000e+00  -3.1979628567771622e-18 -3.7086515149542168e-04 0.0000000000000000e+00  -3.4259112608005126e-18 -3.7086515149542087e-04 0.0000000000000000e+00  -3.3892688282743219e-18 -3.7086515149542120e-04 0.0000000000000000e+00  -3.2330004370168251e-18 -3.7086515149542185e-04 0.0000000000000000e+00  -2.9333424567995356e-18 -3.7086515149542407e-04 0.0000000000000000e+00  -2.3992066653288258e-18 -3.7086515149542309e-04 0.0000000000000000e+00  -1.6994980665250572e-18 -3.7086515149542282e-04 0.0000000000000000e+00  -1.0965781369344029e-18 -3.7086515149542261e-04 0.0000000000000000e+00  -5.8883928931408798e-19 -3.7086515149542168e-04 0.0000000000000000e+00  -3.5261007614323337e-19 -3.7086515149542168e-04 0.0000000000000000e+00  5.4408595666631367e-35 -3.7086515149542174e-04 0.0000000000000000e+00  0.0000000000000000e+00 -4.3267601007798587e-04 0.0000000000000000e+00  -1.3495895099353665e-18 -4.3267601007798662e-04 0.0000000000000000e+00  -2.5976164215435320e-18 -4.3267601007798765e-04 0.0000000000000000e+00  -3.3834172486565211e-18 -4.3267601007799058e-04 0.0000000000000000e+00  -3.5381913002061843e-18 -4.3267601007799183e-04 0.0000000000000000e+00  -3.6452754307325280e-18 -4.3267601007799150e-04 0.0000000000000000e+00  -3.8484585451520388e-18 -4.3267601007799177e-04 0.0000000000000000e+00  -3.8361266453534112e-18 -4.3267601007799215e-04 0.0000000000000000e+00  -3.6809922757515671e-18 -4.3267601007799248e-04 0.0000000000000000e+00  -3.4350370317311147e-18 -4.3267601007799432e-04 0.0000000000000000e+00  -2.8782857652977628e-18 -4.3267601007799470e-04 0.0000000000000000e+00  -2.1734859794158953e-18 -4.3267601007799378e-04 0.0000000000000000e+00  -1.3684857484726947e-18 -4.3267601007799378e-04 0.0000000000000000e+00  -8.2283390551212706e-19 -4.3267601007799264e-04 0.0000000000000000e+00  -4.4784194383016645e-19 -4.3267601007799226e-04 0.0000000000000000e+00  2.8211864419734916e-35 -4.3267601007799253e-04 0.0000000000000000e+00  1.9817369325339802e-34 -4.9448686866055509e-04 0.0000000000000000e+00  -1.5333628525166885e-18 -4.9448686866055585e-04 0.0000000000000000e+00  -2.7865918428402769e-18 -4.9448686866055704e-04 0.0000000000000000e+00  -3.5657099119142043e-18 -4.9448686866056051e-04 0.0000000000000000e+00  -4.0430037960934833e-18 -4.9448686866056181e-04 0.0000000000000000e+00  -4.1107875680900734e-18 -4.9448686866056170e-04 0.0000000000000000e+00  -4.1753786204274848e-18 -4.9448686866056203e-04 0.0000000000000000e+00  -4.2463420299063269e-18 -4.9448686866056203e-04 0.0000000000000000e+00  -4.1237244976089482e-18 -4.9448686866056300e-04 0.0000000000000000e+00  -3.8658744743514585e-18 -4.9448686866056550e-04 0.0000000000000000e+00  -3.4444709472996484e-18 -4.9448686866056506e-04 0.0000000000000000e+00  -2.5758087836988569e-18 -4.9448686866056485e-04 0.0000000000000000e+00  -1.7566914775380011e-18 -4.9448686866056452e-04 0.0000000000000000e+00  -1.0771038077564301e-18 -4.9448686866056344e-04 0.0000000000000000e+00  -5.7825617431853154e-19 -4.9448686866056235e-04 0.0000000000000000e+00  5.7739030611906196e-35 -4.9448686866056344e-04 0.0000000000000000e+00  -1.8337711872827619e-34 -5.5629772724312529e-04 0.0000000000000000e+00  -1.5796559968440232e-18 -5.5629772724312518e-04 0.0000000000000000e+00  -2.9632918625408720e-18 -5.5629772724312724e-04 0.0000000000000000e+00  -3.8906116880661705e-18 -5.5629772724313071e-04 0.0000000000000000e+00  -4.3664078654553454e-18 -5.5629772724313255e-04 0.0000000000000000e+00  -4.5461089581903985e-18 -5.5629772724313288e-04 0.0000000000000000e+00  -4.4829854066391740e-18 -5.5629772724313255e-04 0.0000000000000000e+00  -4.6999610008690614e-18 -5.5629772724313277e-04 0.0000000000000000e+00  -4.7114023227572401e-18 -5.5629772724313396e-04 0.0000000000000000e+00  -4.3774375798137283e-18 -5.5629772724313591e-04 0.0000000000000000e+00  -3.7890251717902437e-18 -5.5629772724313635e-04 0.0000000000000000e+00  -3.0490994722949566e-18 -5.5629772724313689e-04 0.0000000000000000e+00  -2.1498353857455587e-18 -5.5629772724313624e-04 0.0000000000000000e+00  -1.3785623211871223e-18 -5.5629772724313472e-04 0.0000000000000000e+00  -6.5651475144356967e-19 -5.5629772724313472e-04 0.0000000000000000e+00  -1.8414224814109171e-35 -5.5629772724313505e-04 0.0000000000000000e+00  1.3398460915918703e-34 -6.1810858582569408e-04 0.0000000000000000e+00  -1.6789755764751437e-18 -6.1810858582569440e-04 0.0000000000000000e+00  -3.1653159937555445e-18 -6.1810858582569668e-04 0.0000000000000000e+00  -4.0643503873554583e-18 -6.1810858582570080e-04 0.0000000000000000e+00  -4.6841114308779245e-18 -6.1810858582570275e-04 0.0000000000000000e+00  -4.9331584148227109e-18 -6.1810858582570384e-04 0.0000000000000000e+00  -5.0577432017105997e-18 -6.1810858582570308e-04 0.0000000000000000e+00  -5.2063077227776060e-18 -6.1810858582570329e-04 0.0000000000000000e+00  -5.1976422473814438e-18 -6.1810858582570525e-04 0.0000000000000000e+00  -4.9312359056976874e-18 -6.1810858582570676e-04 0.0000000000000000e+00  -4.3874918080501522e-18 -6.1810858582570774e-04 0.0000000000000000e+00  -3.4873167453683147e-18 -6.1810858582570741e-04 0.0000000000000000e+00  -2.4961465843432155e-18 -6.1810858582570720e-04 0.0000000000000000e+00  -1.6235295104914940e-18 -6.1810858582570557e-04 0.0000000000000000e+00  -7.2668390274542145e-19 -6.1810858582570525e-04 0.0000000000000000e+00  1.1385502426535901e-34 -6.1810858582570546e-04 0.0000000000000000e+00  1.9748305093814357e-34 -6.7991944440826363e-04 0.0000000000000000e+00  -1.6983155740361993e-18 -6.7991944440826449e-04 0.0000000000000000e+00  -3.3513874206026364e-18 -6.7991944440826721e-04 0.0000000000000000e+00  -4.3281367854450230e-18 -6.7991944440827154e-04 0.0000000000000000e+00  -4.8269646550520617e-18 -6.7991944440827208e-04 0.0000000000000000e+00  -5.2522949295774443e-18 -6.7991944440827404e-04 0.0000000000000000e+00  -5.5645522621809525e-18 -6.7991944440827360e-04 0.0000000000000000e+00  -5.6846191690681898e-18 -6.7991944440827393e-04 0.0000000000000000e+00  -5.7273529303741549e-18 -6.7991944440827577e-04 0.0000000000000000e+00  -5.4990839967715293e-18 -6.7991944440827772e-04 0.0000000000000000e+00  -4.9825988807844677e-18 -6.7991944440827826e-04 0.0000000000000000e+00  -3.8623208321819461e-18 -6.7991944440827946e-04 0.0000000000000000e+00  -2.8353481654397664e-18 -6.7991944440827837e-04 0.0000000000000000e+00  -1.8379187235271001e-18 -6.7991944440827751e-04 0.0000000000000000e+00  -8.3939435391845708e-19 -6.7991944440827696e-04 0.0000000000000000e+00  -1.4105932209867394e-35 -6.7991944440827685e-04 0.0000000000000000e+00  -5.7037587018803812e-35 -7.4173030299083339e-04 0.0000000000000000e+00  -1.7219128468057740e-18 -7.4173030299083383e-04 0.0000000000000000e+00  -3.3284193757439089e-18 -7.4173030299083675e-04 0.0000000000000000e+00  -4.4248324774555102e-18 -7.4173030299084131e-04 0.0000000000000000e+00  -4.9619708083923681e-18 -7.4173030299084413e-04 0.0000000000000000e+00  -5.5581761757286162e-18 -7.4173030299084434e-04 0.0000000000000000e+00  -6.0106839485638508e-18 -7.4173030299084489e-04 0.0000000000000000e+00  -6.2519996745921359e-18 -7.4173030299084445e-04 0.0000000000000000e+00  -6.3775598474809594e-18 -7.4173030299084673e-04 0.0000000000000000e+00  -6.1915038397585781e-18 -7.4173030299084901e-04 0.0000000000000000e+00  -5.4099532759471249e-18 -7.4173030299085085e-04 0.0000000000000000e+00  -4.3458060621846831e-18 -7.4173030299085139e-04 0.0000000000000000e+00  -3.1545717224124395e-18 -7.4173030299085041e-04 0.0000000000000000e+00  -2.0210602470898456e-18 -7.4173030299084911e-04 0.0000000000000000e+00  -1.1028471213231863e-18 -7.4173030299084879e-04 0.0000000000000000e+00  7.7542702559220743e-35 -7.4173030299084890e-04 0.0000000000000000e+00  4.2317796629602382e-35 -8.0354116157340262e-04 0.0000000000000000e+00  -1.8557933917821434e-18 -8.0354116157340327e-04 0.0000000000000000e+00  -3.3322254691895942e-18 -8.0354116157340598e-04 0.0000000000000000e+00  -4.3106920439530106e-18 -8.0354116157341162e-04 0.0000000000000000e+00  -5.2624758119499612e-18 -8.0354116157341324e-04 0.0000000000000000e+00  -5.9784771891314257e-18 -8.0354116157341584e-04 0.0000000000000000e+00  -6.3871995217993919e-18 -8.0354116157341498e-04 0.0000000000000000e+00  -6.6256643063192023e-18 -8.0354116157341552e-04 0.0000000000000000e+00  -6.9664279486889696e-18 -8.0354116157341693e-04 0.0000000000000000e+00  -6.6932611412780974e-18 -8.0354116157342051e-04 0.0000000000000000e+00  -5.8972889181863359e-18 -8.0354116157342257e-04 0.0000000000000000e+00  -4.7897173667131046e-18 -8.0354116157342408e-04 0.0000000000000000e+00  -3.5142500676069007e-18 -8.0354116157342202e-04 0.0000000000000000e+00  -2.4078938653897357e-18 -8.0354116157342116e-04 0.0000000000000000e+00  -1.4623335666073799e-18 -8.0354116157342029e-04 0.0000000000000000e+00  9.9300469799776427e-35 -8.0354116157342105e-04 0.0000000000000000e+00  -1.1908848679079013e-34 -8.6535202015597325e-04 0.0000000000000000e+00  -1.7591948705037904e-18 -8.6535202015597282e-04 0.0000000000000000e+00  -3.2420713257196745e-18 -8.6535202015597639e-04 0.0000000000000000e+00  -4.3689019866269223e-18 -8.6535202015598268e-04 0.0000000000000000e+00  -5.3493654255484311e-18 -8.6535202015598453e-04 0.0000000000000000e+00  -6.2363792879513269e-18 -8.6535202015598518e-04 0.0000000000000000e+00  -6.6190753577735804e-18 -8.6535202015598713e-04 0.0000000000000000e+00  -7.0017097007321849e-18 -8.6535202015598637e-04 0.0000000000000000e+00  -7.2843870747324048e-18 -8.6535202015598865e-04 0.0000000000000000e+00  -7.0145260036678091e-18 -8.6535202015599244e-04 0.0000000000000000e+00  -6.2716736190894892e-18 -8.6535202015599374e-04 0.0000000000000000e+00  -5.2747759890406983e-18 -8.6535202015599634e-04 0.0000000000000000e+00  -3.9910737586896168e-18 -8.6535202015599450e-04 0.0000000000000000e+00  -2.8553355206624713e-18 -8.6535202015599309e-04 0.0000000000000000e+00  -1.6135103596199599e-18 -8.6535202015599266e-04 0.0000000000000000e+00  -2.4383111391342206e-34 -8.6535202015599352e-04 0.0000000000000000e+00  -2.8211864419734981e-34 -9.2716287873854302e-04 0.0000000000000000e+00  -1.8464972521723576e-18 -9.2716287873854334e-04 0.0000000000000000e+00  -3.3311420357491042e-18 -9.2716287873854724e-04 0.0000000000000000e+00  -4.4284425118189347e-18 -9.2716287873855234e-04 0.0000000000000000e+00  -5.5841045601915680e-18 -9.2716287873855418e-04 0.0000000000000000e+00  -6.4954416831523654e-18 -9.2716287873855624e-04 0.0000000000000000e+00  -7.1572667939332385e-18 -9.2716287873855733e-04 0.0000000000000000e+00  -7.3234380413345047e-18 -9.2716287873855787e-04 0.0000000000000000e+00  -7.1509444666769238e-18 -9.2716287873855939e-04 0.0000000000000000e+00  -7.1857994010599823e-18 -9.2716287873856361e-04 0.0000000000000000e+00  -6.7748881800060359e-18 -9.2716287873856578e-04 0.0000000000000000e+00  -5.7675273750850050e-18 -9.2716287873856806e-04 0.0000000000000000e+00  -4.6246540030555994e-18 -9.2716287873856741e-04 0.0000000000000000e+00  -3.2759555490482883e-18 -9.2716287873856502e-04 0.0000000000000000e+00  -1.7413949938691706e-18 -9.2716287873856524e-04 0.0000000000000000e+00  2.5390677977761479e-34 -9.2716287873856578e-04 0.0000000000000000e+00  3.9651146062642407e-34 -9.8897373732111300e-04 0.0000000000000000e+00  -1.9361921899535820e-18 -9.8897373732111321e-04 0.0000000000000000e+00  -3.3929704342243665e-18 -9.8897373732111820e-04 0.0000000000000000e+00  -4.5581982402336592e-18 -9.8897373732112362e-04 0.0000000000000000e+00  -5.7575540149789396e-18 -9.8897373732112492e-04 0.0000000000000000e+00  -6.6714619387184703e-18 -9.8897373732112666e-04 0.0000000000000000e+00  -7.6444694642528743e-18 -9.8897373732112904e-04 0.0000000000000000e+00  -7.7063778276761217e-18 -9.8897373732112861e-04 0.0000000000000000e+00  -7.2221710328876284e-18 -9.8897373732113121e-04 0.0000000000000000e+00  -7.3219893211368921e-18 -9.8897373732113533e-04 0.0000000000000000e+00  -7.1172179678569471e-18 -9.8897373732113815e-04 0.0000000000000000e+00  -6.1957734871441276e-18 -9.8897373732113945e-04 0.0000000000000000e+00  -5.1673537198272642e-18 -9.8897373732113924e-04 0.0000000000000000e+00  -3.6513608925848283e-18 -9.8897373732113750e-04 0.0000000000000000e+00  -1.9077655600834998e-18 -9.8897373732113815e-04 0.0000000000000000e+00  -2.1717282384497596e-34 -9.8897373732113924e-04 0.0000000000000000e+00  -2.2569491535787937e-34 -1.0507845959036827e-03 0.0000000000000000e+00  -1.7412780479459883e-18 -1.0507845959036837e-03 0.0000000000000000e+00  -3.2795880680488110e-18 -1.0507845959036885e-03 0.0000000000000000e+00  -4.7417013432355780e-18 -1.0507845959036944e-03 0.0000000000000000e+00  -5.7855519800350812e-18 -1.05078459590