<?xml version="1.0"?>
<VTKFile type="UnstructuredGrid"  version="0.1"  >
<UnstructuredGrid>
<Piece  NumberOfPoints="431" NumberOfCells="800">
<Points>
<DataArray  type="Float64"  NumberOfComponents="3"  format="ascii">-0.75 -3 0  -0.6 -3 0  -0.45 -3 0  -0.3 -3 0  -0.15 -3 0  0 -3 0  0.15 -3 0  0.3 -3 0  0.45 -3 0  0.6000000000000001 -3 0  0.75 -3 0  -0.75 -2.85 0  -0.6 -2.85 0  -0.45 -2.85 0  -0.3 -2.85 0  -0.15 -2.85 0  0 -2.85 0  0.15 -2.85 0  0.3 -2.85 0  0.45 -2.85 0  0.6000000000000001 -2.85 0  0.75 -2.85 0  -0.75 -2.7 0  -0.6 -2.7 0  -0.45 -2.7 0  -0.3 -2.7 0  -0.15 -2.7 0  0 -2.7 0  0.15 -2.7 0  0.3 -2.7 0  0.45 -2.7 0  0.6000000000000001 -2.7 0  0.75 -2.7 0  -0.75 -2.55 0  -0.6 -2.55 0  -0.45 -2.55 0  -0.3 -2.55 0  -0.15 -2.55 0  0 -2.55 0  0.15 -2.55 0  0.3 -2.55 0  0.45 -2.55 0  0.6000000000000001 -2.55 0  0.75 -2.55 0  -0.75 -2.4 0  -0.6 -2.4 0  -0.45 -2.4 0  -0.3 -2.4 0  -0.15 -2.4 0  0 -2.4 0  0.15 -2.4 0  0.3 -2.4 0  0.45 -2.4 0  0.6000000000000001 -2.4 0  0.75 -2.4 0  -0.75 -2.25 0  -0.6 -2.25 0  -0.45 -2.25 0  -0.3 -2.25 0  -0.15 -2.25 0  0 -2.25 0  0.15 -2.25 0  0.3 -2.25 0  0.45 -2.25 0  0.6000000000000001 -2.25 0  0.75 -2.25 0  -0.75 -2.1 0  -0.6 -2.1 0  -0.45 -2.1 0  -0.3 -2.1 0  -0.15 -2.1 0  0 -2.1 0  0.15 -2.1 0  0.3 -2.1 0  0.45 -2.1 0  0.6000000000000001 -2.1 0  0.75 -2.1 0  -0.75 -1.95 0  -0.6 -1.95 0  -0.45 -1.95 0  -0.3 -1.95 0  -0.15 -1.95 0  0 -1.95 0  0.15 -1.95 0  0.3 -1.95 0  0.45 -1.95 0  0.6000000000000001 -1.95 0  0.75 -1.95 0  -0.75 -1.8 0  -0.6 -1.8 0  -0.45 -1.8 0  -0.3 -1.8 0  -0.15 -1.8 0  0 -1.8 0  0.15 -1.8 0  0.3 -1.8 0  0.45 -1.8 0  0.6000000000000001 -1.8 0  0.75 -1.8 0  -0.75 -1.65 0  -0.6 -1.65 0  -0.45 -1.65 0  -0.3 -1.65 0  -0.15 -1.65 0  0 -1.65 0  0.15 -1.65 0  0.3 -1.65 0  0.45 -1.65 0  0.6000000000000001 -1.65 0  0.75 -1.65 0  -0.75 -1.5 0  -0.6 -1.5 0  -0.45 -1.5 0  -0.3 -1.5 0  -0.15 -1.5 0  0 -1.5 0  0.15 -1.5 0  0.3 -1.5 0  0.45 -1.5 0  0.6000000000000001 -1.5 0  0.75 -1.5 0  -0.75 -1.35 0  -0.6 -1.35 0  -0.45 -1.35 0  -0.3 -1.35 0  -0.15 -1.35 0  0 -1.35 0  0.15 -1.35 0  0.3 -1.35 0  0.45 -1.35 0  0.6000000000000001 -1.35 0  0.75 -1.35 0  -0.75 -1.2 0  -0.6 -1.2 0  -0.45 -1.2 0  -0.3 -1.2 0  -0.15 -1.2 0  0 -1.2 0  0.15 -1.2 0  0.3 -1.2 0  0.45 -1.2 0  0.6000000000000001 -1.2 0  0.75 -1.2 0  -0.75 -1.05 0  -0.6 -1.05 0  -0.45 -1.05 0  -0.3 -1.05 0  -0.15 -1.05 0  0 -1.05 0  0.15 -1.05 0  0.3 -1.05 0  0.45 -1.05 0  0.6000000000000001 -1.05 0  0.75 -1.05 0  -0.75 -0.8999999999999999 0  -0.6 -0.8999999999999999 0  -0.45 -0.8999999999999999 0  -0.3 -0.8999999999999999 0  -0.15 -0.8999999999999999 0  0 -0.8999999999999999 0  0.15 -0.8999999999999999 0  0.3 -0.8999999999999999 0  0.45 -0.8999999999999999 0  0.6000000000000001 -0.8999999999999999 0  0.75 -0.8999999999999999 0  -0.75 -0.75 0  -0.6 -0.75 0  -0.45 -0.75 0  -0.3 -0.75 0  -0.15 -0.75 0  0 -0.75 0  0.15 -0.75 0  0.3 -0.75 0  0.45 -0.75 0  0.6000000000000001 -0.75 0  0.75 -0.75 0  -0.75 -0.6000000000000001 0  -0.6 -0.6000000000000001 0  -0.45 -0.6000000000000001 0  -0.3 -0.6000000000000001 0  -0.15 -0.6000000000000001 0  0 -0.6000000000000001 0  0.15 -0.6000000000000001 0  0.3 -0.6000000000000001 0  0.45 -0.6000000000000001 0  0.6000000000000001 -0.6000000000000001 0  0.75 -0.6000000000000001 0  -0.75 -0.4500000000000002 0  -0.6 -0.4500000000000002 0  -0.45 -0.4500000000000002 0  -0.3 -0.4500000000000002 0  -0.15 -0.4500000000000002 0  0 -0.4500000000000002 0  0.15 -0.4500000000000002 0  0.3 -0.4500000000000002 0  0.45 -0.4500000000000002 0  0.6000000000000001 -0.4500000000000002 0  0.75 -0.4500000000000002 0  -0.75 -0.2999999999999998 0  -0.6 -0.2999999999999998 0  -0.45 -0.2999999999999998 0  -0.3 -0.2999999999999998 0  -0.15 -0.2999999999999998 0  0 -0.2999999999999998 0  0.15 -0.2999999999999998 0  0.3 -0.2999999999999998 0  0.45 -0.2999999999999998 0  0.6000000000000001 -0.2999999999999998 0  0.75 -0.2999999999999998 0  -0.75 -0.1499999999999999 0  -0.6 -0.1499999999999999 0  -0.45 -0.1499999999999999 0  -0.3 -0.1499999999999999 0  -0.15 -0.1499999999999999 0  0 -0.1499999999999999 0  0.15 -0.1499999999999999 0  0.3 -0.1499999999999999 0  0.45 -0.1499999999999999 0  0.6000000000000001 -0.1499999999999999 0  0.75 -0.1499999999999999 0  -0.75 0 0  -0.6 0 0  -0.45 0 0  -0.3 0 0  -0.15 0 0  0 0 0  0.15 0 0  0.3 0 0  0.45 0 0  0.6000000000000001 0 0  0.75 0 0  -0.675 -2.925 0  -0.525 -2.925 0  -0.375 -2.925 0  -0.225 -2.925 0  -0.07499999999999996 -2.925 0  0.07499999999999996 -2.925 0  0.225 -2.925 0  0.375 -2.925 0  0.5249999999999999 -2.925 0  0.675 -2.925 0  -0.675 -2.775 0  -0.525 -2.775 0  -0.375 -2.775 0  -0.225 -2.775 0  -0.07499999999999996 -2.775 0  0.07499999999999996 -2.775 0  0.225 -2.775 0  0.375 -2.775 0  0.5249999999999999 -2.775 0  0.675 -2.775 0  -0.675 -2.625 0  -0.525 -2.625 0  -0.375 -2.625 0  -0.225 -2.625 0  -0.07499999999999996 -2.625 0  0.07499999999999996 -2.625 0  0.225 -2.625 0  0.375 -2.625 0  0.5249999999999999 -2.625 0  0.675 -2.625 0  -0.675 -2.475 0  -0.525 -2.475 0  -0.375 -2.475 0  -0.225 -2.475 0  -0.07499999999999996 -2.475 0  0.07499999999999996 -2.475 0  0.225 -2.475 0  0.375 -2.475 0  0.5249999999999999 -2.475 0  0.675 -2.475 0  -0.675 -2.325 0  -0.525 -2.325 0  -0.375 -2.325 0  -0.225 -2.325 0  -0.07499999999999996 -2.325 0  0.07499999999999996 -2.325 0  0.225 -2.325 0  0.375 -2.325 0  0.5249999999999999 -2.325 0  0.675 -2.325 0  -0.675 -2.175 0  -0.525 -2.175 0  -0.375 -2.175 0  -0.225 -2.175 0  -0.07499999999999996 -2.175 0  0.07499999999999996 -2.175 0  0.225 -2.175 0  0.375 -2.175 0  0.5249999999999999 -2.175 0  0.675 -2.175 0  -0.675 -2.025 0  -0.525 -2.025 0  -0.375 -2.025 0  -0.225 -2.025 0  -0.07499999999999996 -2.025 0  0.07499999999999996 -2.025 0  0.225 -2.025 0  0.375 -2.025 0  0.5249999999999999 -2.025 0  0.675 -2.025 0  -0.675 -1.875 0  -0.525 -1.875 0  -0.375 -1.875 0  -0.225 -1.875 0  -0.07499999999999996 -1.875 0  0.07499999999999996 -1.875 0  0.225 -1.875 0  0.375 -1.875 0  0.5249999999999999 -1.875 0  0.675 -1.875 0  -0.675 -1.725 0  -0.525 -1.725 0  -0.375 -1.725 0  -0.225 -1.725 0  -0.07499999999999996 -1.725 0  0.07499999999999996 -1.725 0  0.225 -1.725 0  0.375 -1.725 0  0.5249999999999999 -1.725 0  0.675 -1.725 0  -0.675 -1.575 0  -0.525 -1.575 0  -0.375 -1.575 0  -0.225 -1.575 0  -0.07499999999999996 -1.575 0  0.07499999999999996 -1.575 0  0.225 -1.575 0  0.375 -1.575 0  0.5249999999999999 -1.575 0  0.675 -1.575 0  -0.675 -1.425 0  -0.525 -1.425 0  -0.375 -1.425 0  -0.225 -1.425 0  -0.07499999999999996 -1.425 0  0.07499999999999996 -1.425 0  0.225 -1.425 0  0.375 -1.425 0  0.5249999999999999 -1.425 0  0.675 -1.425 0  -0.675 -1.275 0  -0.525 -1.275 0  -0.375 -1.275 0  -0.225 -1.275 0  -0.07499999999999996 -1.275 0  0.07499999999999996 -1.275 0  0.225 -1.275 0  0.375 -1.275 0  0.5249999999999999 -1.275 0  0.675 -1.275 0  -0.675 -1.125 0  -0.525 -1.125 0  -0.375 -1.125 0  -0.225 -1.125 0  -0.07499999999999996 -1.125 0  0.07499999999999996 -1.125 0  0.225 -1.125 0  0.375 -1.125 0  0.5249999999999999 -1.125 0  0.675 -1.125 0  -0.675 -0.9750000000000001 0  -0.525 -0.9750000000000001 0  -0.375 -0.9750000000000001 0  -0.225 -0.9750000000000001 0  -0.07499999999999996 -0.9750000000000001 0  0.07499999999999996 -0.9750000000000001 0  0.225 -0.9750000000000001 0  0.375 -0.9750000000000001 0  0.5249999999999999 -0.9750000000000001 0  0.675 -0.9750000000000001 0  -0.675 -0.8250000000000002 0  -0.525 -0.8250000000000002 0  -0.375 -0.8250000000000002 0  -0.225 -0.8250000000000002 0  -0.07499999999999996 -0.8250000000000002 0  0.07499999999999996 -0.8250000000000002 0  0.225 -0.8250000000000002 0  0.375 -0.8250000000000002 0  0.5249999999999999 -0.8250000000000002 0  0.675 -0.8250000000000002 0  -0.675 -0.6749999999999998 0  -0.525 -0.6749999999999998 0  -0.375 -0.6749999999999998 0  -0.225 -0.6749999999999998 0  -0.07499999999999996 -0.6749999999999998 0  0.07499999999999996 -0.6749999999999998 0  0.225 -0.6749999999999998 0  0.375 -0.6749999999999998 0  0.5249999999999999 -0.6749999999999998 0  0.675 -0.6749999999999998 0  -0.675 -0.5249999999999999 0  -0.525 -0.5249999999999999 0  -0.375 -0.5249999999999999 0  -0.225 -0.5249999999999999 0  -0.07499999999999996 -0.5249999999999999 0  0.07499999999999996 -0.5249999999999999 0  0.225 -0.5249999999999999 0  0.375 -0.5249999999999999 0  0.5249999999999999 -0.5249999999999999 0  0.675 -0.5249999999999999 0  -0.675 -0.375 0  -0.525 -0.375 0  -0.375 -0.375 0  -0.225 -0.375 0  -0.07499999999999996 -0.375 0  0.07499999999999996 -0.375 0  0.225 -0.375 0  0.375 -0.375 0  0.5249999999999999 -0.375 0  0.675 -0.375 0  -0.675 -0.2250000000000001 0  -0.525 -0.2250000000000001 0  -0.375 -0.2250000000000001 0  -0.225 -0.2250000000000001 0  -0.07499999999999996 -0.2250000000000001 0  0.07499999999999996 -0.2250000000000001 0  0.225 -0.2250000000000001 0  0.375 -0.2250000000000001 0  0.5249999999999999 -0.2250000000000001 0  0.675 -0.2250000000000001 0  -0.675 -0.07500000000000018 0  -0.525 -0.07500000000000018 0  -0.375 -0.07500000000000018 0  -0.225 -0.07500000000000018 0  -0.07499999999999996 -0.07500000000000018 0  0.07499999999999996 -0.07500000000000018 0  0.225 -0.07500000000000018 0  0.375 -0.07500000000000018 0  0.5249999999999999 -0.07500000000000018 0  0.675 -0.07500000000000018 0  </DataArray>
</Points>
<Cells>
[...]
<PointData  Vectors="displacement"> 
<DataArray  type="Float64"  Name="displacement"  NumberOfComponents="3" format="ascii">-1.7091986279788566e-28 3.7007434154171848e-15 0.0000000000000000e+00  1.9721522630525275e-28 -5.0885221961986289e-15 0.0000000000000000e+00  -3.0239668033472091e-28 -6.1329702890263310e-15 0.0000000000000000e+00  7.8886090522101102e-29 3.7007434154171848e-15 0.0000000000000000e+00  -5.3458388237102331e-29 -1.3944442023847999e-14 0.0000000000000000e+00  -2.6295363507367034e-29 7.8640797577615171e-15 0.0000000000000000e+00  -1.6832627713944421e-28 -1.2930917910510434e-14 0.0000000000000000e+00  2.1036290805893627e-28 -3.2381504884900365e-15 0.0000000000000000e+00  -1.0481596426434443e-28 -5.6089392389916718e-15 0.0000000000000000e+00  2.6295363507367017e-29 1.8503717077085912e-15 0.0000000000000000e+00  0.0000000000000000e+00 -9.2518585385429675e-15 0.0000000000000000e+00  2.6295363507367081e-28 -4.9619295558267780e+01 0.0000000000000000e+00  1.3092464379095112e-12 -4.9619295558265726e+01 0.0000000000000000e+00  -6.1855998689552861e-13 -4.9619295558266238e+01 0.0000000000000000e+00  1.9956005441970376e-12 -4.9619295558267176e+01 0.0000000000000000e+00  -1.0373063278335234e-12 -4.9619295558264014e+01 0.0000000000000000e+00  -3.3284402768698148e-12 -4.9619295558267218e+01 0.0000000000000000e+00  -1.2715368023302132e-12 -4.9619295558265961e+01 0.0000000000000000e+00  1.1436092180722320e-15 -4.9619295558263808e+01 0.0000000000000000e+00  -2.2715056845101256e-12 -4.9619295558266302e+01 0.0000000000000000e+00  -9.2584314453295817e-13 -4.9619295558265563e+01 0.0000000000000000e+00  -6.1405543842261430e-29 -4.9619295558264810e+01 0.0000000000000000e+00  6.0655978998951035e-28 -9.9238591126271615e+01 0.0000000000000000e+00  1.9160272764812695e-12 -9.9238591126268275e+01 0.0000000000000000e+00  -2.6803839374921227e-13 -9.9238591126271629e+01 0.0000000000000000e+00  3.1754324701400606e-13 -9.9238591126268673e+01 0.0000000000000000e+00  -2.0065669272597183e-12 -9.9238591126271089e+01 0.0000000000000000e+00  -1.9203731726983409e-12 -9.9238591126271189e+01 0.0000000000000000e+00  -1.3351351511379272e-12 -9.9238591126272411e+01 0.0000000000000000e+00  -4.1551856208062021e-12 -9.9238591126270748e+01 0.0000000000000000e+00  -5.9336696942159492e-13 -9.9238591126266300e+01 0.0000000000000000e+00  -3.0649835936035284e-12 -9.9238591126271771e+01 0.0000000000000000e+00  -1.9721522630525302e-28 -9.9238591126269185e+01 0.0000000000000000e+00  -8.4145163223574599e-28 -1.4885788672793393e+02 0.0000000000000000e+00  9.8278618800419376e-13 -1.4885788672793771e+02 0.0000000000000000e+00  -2.0450442717142035e-12 -1.4885788672793026e+02 0.0000000000000000e+00  1.1875216606417389e-12 -1.4885788672793458e+02 0.0000000000000000e+00  -2.0236070703258302e-12 -1.4885788672793572e+02 0.0000000000000000e+00  -9.1173495901238281e-13 -1.4885788672793504e+02 0.0000000000000000e+00  -3.7096257906487262e-12 -1.4885788672792859e+02 0.0000000000000000e+00  -4.3022147094909626e-13 -1.4885788672793313e+02 0.0000000000000000e+00  -3.6465675571991347e-12 -1.4885788672793515e+02 0.0000000000000000e+00  -2.7621798066052956e-13 -1.4885788672792984e+02 0.0000000000000000e+00  -1.8406754455156952e-28 -1.4885788672793390e+02 0.0000000000000000e+00  3.4141238693176883e-28 -1.9847718243622057e+02 0.0000000000000000e+00  1.5482858208574016e-12 -1.9847718243622109e+02 0.0000000000000000e+00  1.1718209631293782e-11 -1.9847718243621745e+02 0.0000000000000000e+00  -9.1625865282020182e-13 -1.9847718243621617e+02 0.0000000000000000e+00  -2.2809063870623093e-12 -1.9847718243622558e+02 0.0000000000000000e+00  -4.5583783524813812e-12 -1.9847718243622020e+02 0.0000000000000000e+00  -3.2054977350169213e-12 -1.9847718243622160e+02 0.0000000000000000e+00  -6.8467729047658285e-12 -1.9847718243621836e+02 0.0000000000000000e+00  -2.3191778658601646e-12 -1.9847718243621347e+02 0.0000000000000000e+00  1.6623310413794210e-12 -1.9847718243621159e+02 0.0000000000000000e+00  1.6330203458208786e-27 -1.9847718243621341e+02 0.0000000000000000e+00  9.3677232494995080e-28 -2.4809647847942742e+02 0.0000000000000000e+00  4.5452474586623844e-12 -2.4809647847942350e+02 0.0000000000000000e+00  -2.8630690065879904e-12 -2.4809647847941980e+02 0.0000000000000000e+00  9.0223915285463868e-13 -2.4809647847942904e+02 0.0000000000000000e+00  -5.7148776143456983e-12 -2.4809647847941562e+02 0.0000000000000000e+00  -4.3803921837839560e-13 -2.4809647847941650e+02 0.0000000000000000e+00  -2.4538661130954720e-12 -2.4809647847941866e+02 0.0000000000000000e+00  -3.2624753530981616e-12 -2.4809647847941855e+02 0.0000000000000000e+00  -4.6773444661233315e-12 -2.4809647847942253e+02 0.0000000000000000e+00  -3.4514031033286509e-12 -2.4809647847941812e+02 0.0000000000000000e+00  6.9836086110861494e-28 -2.4809647847942654e+02 0.0000000000000000e+00  -2.8971403561025634e-28 -2.9771577557382631e+02 0.0000000000000000e+00  4.0373922538373826e-13 -2.9771577557383694e+02 0.0000000000000000e+00  2.9763486188206385e-12 -2.9771577557383767e+02 0.0000000000000000e+00  -1.6525537348198223e-12 -2.9771577557383245e+02 0.0000000000000000e+00  -3.0340018608316955e-12 -2.9771577557383296e+02 0.0000000000000000e+00  -6.8458620454168160e-12 -2.9771577557383455e+02 0.0000000000000000e+00  -4.2380916841258135e-12 -2.9771577557382983e+02 0.0000000000000000e+00  -3.6317352222623421e-12 -2.9771577557382369e+02 0.0000000000000000e+00  3.2145968101010226e-12 -2.9771577557381812e+02 0.0000000000000000e+00  -7.5650027668950947e-12 -2.9771577557381977e+02 0.0000000000000000e+00  1.8857532115283252e-27 -2.9771577557381249e+02 0.0000000000000000e+00  -3.1554436208840481e-28 -3.4733507596721284e+02 0.0000000000000000e+00  1.3890617824268566e-12 -3.4733507596721660e+02 0.0000000000000000e+00  -2.1464155241028015e-13 -3.4733507596722620e+02 0.0000000000000000e+00  -6.6605204413666289e-12 -3.4733507596721967e+02 0.0000000000000000e+00  -3.1565150001051835e-12 -3.4733507596722984e+02 0.0000000000000000e+00  -4.7786732371095234e-13 -3.4733507596722359e+02 0.0000000000000000e+00  2.9310236260965986e-12 -3.4733507596721955e+02 0.0000000000000000e+00  -5.3556395451706770e-12 -3.4733507596721603e+02 0.0000000000000000e+00  3.4591945206632154e-12 -3.4733507596720790e+02 0.0000000000000000e+00  3.4679023257013118e-12 -3.4733507596720909e+02 0.0000000000000000e+00  1.0518145402946834e-28 -3.4733507596720716e+02 0.0000000000000000e+00  -9.0217183668406764e-29 -3.9695438671379986e+02 0.0000000000000000e+00  -3.9987168665048938e-12 -3.9695438671379964e+02 0.0000000000000000e+00  -9.7289845893653974e-14 -3.9695438671381487e+02 0.0000000000000000e+00  3.2015565954263160e-12 -3.9695438671381606e+02 0.0000000000000000e+00  2.4314016174290568e-13 -3.9695438671381584e+02 0.0000000000000000e+00  -1.5025876199130834e-12 -3.9695438671381066e+02 0.0000000000000000e+00  -1.3518607773283895e-12 -3.9695438671381152e+02 0.0000000000000000e+00  1.3485272741389452e-11 -3.9695438671379549e+02 0.0000000000000000e+00  9.3551393481998608e-13 -3.9695438671379725e+02 0.0000000000000000e+00  3.0097412227319572e-12 -3.9695438671379981e+02 0.0000000000000000e+00  1.1630599223204796e-28 -3.9695438671378827e+02 0.0000000000000000e+00  1.2621774483536185e-27 -4.4657372995178025e+02 0.0000000000000000e+00  -1.8751983791242428e-12 -4.4657372995176559e+02 0.0000000000000000e+00  -1.6414058166928251e-11 -4.4657372995175649e+02 0.0000000000000000e+00  -1.3374994652684851e-12 -4.4657372995177457e+02 0.0000000000000000e+00  -1.3476445320083769e-12 -4.4657372995176331e+02 0.0000000000000000e+00  7.3811083941027157e-12 -4.4657372995176780e+02 0.0000000000000000e+00  1.7298140230090905e-11 -4.4657372995175695e+02 0.0000000000000000e+00  1.1492813462140980e-11 -4.4657372995176451e+02 0.0000000000000000e+00  3.1353886373322294e-12 -4.4657372995176200e+02 0.0000000000000000e+00  1.7479505727249782e-13 -4.4657372995175183e+02 0.0000000000000000e+00  -8.9201371304239216e-28 -4.4657372995177906e+02 0.0000000000000000e+00  -1.8614394687304650e-27 -4.9619317515723054e+02 0.0000000000000000e+00  -8.9416921107520503e-12 -4.9619317515724060e+02 0.0000000000000000e+00  -4.9005255709395574e-13 -4.9619317515723850e+02 0.0000000000000000e+00  -5.0030948561092485e-12 -4.9619317515723611e+02 0.0000000000000000e+00  3.2285815526190009e-12 -4.9619317515722804e+02 0.0000000000000000e+00  1.2850324932779764e-12 -4.9619317515722281e+02 0.0000000000000000e+00  1.2503724363177756e-13 -4.9619317515722753e+02 0.0000000000000000e+00  8.8510837979500631e-12 -4.9619317515723412e+02 0.0000000000000000e+00  6.7310927419526576e-12 -4.9619317515722435e+02 0.0000000000000000e+00  4.8855263890623851e-12 -4.9619317515723276e+02 0.0000000000000000e+00  1.9533698605472716e-28 -4.9619317515720792e+02 0.0000000000000000e+00  1.0123714950336312e-27 -5.4581294036661575e+02 0.0000000000000000e+00  -1.9509432706573430e-12 -5.4581294036660779e+02 0.0000000000000000e+00  2.9943416389969833e-12 -5.4581294036658994e+02 0.0000000000000000e+00  2.7449878774607613e-12 -5.4581294036658176e+02 0.0000000000000000e+00  -8.1291071235585581e-12 -5.4581294036659722e+02 0.0000000000000000e+00  -9.5098672090253408e-13 -5.4581294036658471e+02 0.0000000000000000e+00  -6.7923018000940117e-12 -5.4581294036658630e+02 0.0000000000000000e+00  1.9529238875235544e-12 -5.4581294036659642e+02 0.0000000000000000e+00  1.1314448744669282e-11 -5.4581294036660472e+02 0.0000000000000000e+00  3.0042738265229731e-12 -5.4581294036658778e+02 0.0000000000000000e+00  1.6829032644714923e-27 -5.4581294036660222e+02 0.0000000000000000e+00  1.0730800167639585e-27 -5.9543370984221326e+02 0.0000000000000000e+00  -5.1041806845485450e-13 -5.9543370984222679e+02 0.0000000000000000e+00  3.6498330728599179e-12 -5.9543370984222861e+02 0.0000000000000000e+00  -1.4313993785080279e-11 -5.9543370984223407e+02 0.0000000000000000e+00  6.2523143785676608e-12 -5.9543370984223134e+02 0.0000000000000000e+00  -1.1386515297183061e-12 -5.9543370984223338e+02 0.0000000000000000e+00  1.2768756840967955e-11 -5.9543370984223270e+02 0.0000000000000000e+00  -1.6479978355111452e-11 -5.9543370984222804e+02 0.0000000000000000e+00  2.1813644614025955e-12 -5.9543370984220985e+02 0.0000000000000000e+00  1.2827972014221702e-11 -5.9543370984223088e+02 0.0000000000000000e+00  -1.8816152134763849e-28 -5.9543370984221804e+02 0.0000000000000000e+00  9.4663308626521453e-28 -6.4505763100016941e+02 0.0000000000000000e+00  5.6432241950102642e-12 -6.4505763100013917e+02 0.0000000000000000e+00  -1.4030907358486948e-11 -6.4505763100016623e+02 0.0000000000000000e+00  1.4331433091224438e-12 -6.4505763100017020e+02 0.0000000000000000e+00  -6.7021893837849762e-12 -6.4505763100015179e+02 0.0000000000000000e+00  2.9698639841598444e-13 -6.4505763100016122e+02 0.0000000000000000e+00  -1.2143805269516746e-11 -6.4505763100015031e+02 0.0000000000000000e+00  7.5929432332545856e-12 -6.4505763100014940e+02 0.0000000000000000e+00  7.9924439467155324e-12 -6.4505763100015190e+02 0.0000000000000000e+00  -5.9689624345204605e-12 -6.4505763100014610e+02 0.0000000000000000e+00  -3.1081941395817499e-28 -6.4505763100013655e+02 0.0000000000000000e+00  -2.0588118809303974e-27 -6.9469144306245562e+02 0.0000000000000000e+00  -8.8743256990673152e-12 -6.9469144306246642e+02 0.0000000000000000e+00  -4.3095798403262591e-12 -6.9469144306244721e+02 0.0000000000000000e+00  -4.2902585846053250e-12 -6.9469144306243675e+02 0.0000000000000000e+00  -1.0642428142477931e-11 -6.9469144306246631e+02 0.0000000000000000e+00  -3.7868450940709828e-12 -6.9469144306246176e+02 0.0000000000000000e+00  3.3150614156355798e-12 -6.9469144306245846e+02 0.0000000000000000e+00  2.4356578180786419e-12 -6.9469144306244516e+02 0.0000000000000000e+00  -1.7663986690493340e-11 -6.9469144306243834e+02 0.0000000000000000e+00  1.6251269861277790e-11 -6.9469144306243436e+02 0.0000000000000000e+00  -4.0194341361261198e-28 -6.9469144306241901e+02 0.0000000000000000e+00  -1.2999770333954580e-27 -7.4435629568649142e+02 0.0000000000000000e+00  2.9547097091127821e-12 -7.4435629568646118e+02 0.0000000000000000e+00  -1.6866582399445760e-12 -7.4435629568647039e+02 0.0000000000000000e+00  -1.9438544938889864e-11 -7.4435629568647539e+02 0.0000000000000000e+00  -9.0803856167409535e-12 -7.4435629568644583e+02 0.0000000000000000e+00  3.7992416285328719e-13 -7.4435629568644094e+02 0.0000000000000000e+00  -3.2738326417189704e-12 -7.4435629568644310e+02 0.0000000000000000e+00  -6.2005533766864539e-12 -7.4435629568645857e+02 0.0000000000000000e+00  1.5364588995945789e-11 -7.4435629568645390e+02 0.0000000000000000e+00  6.1333698398264655e-13 -7.4435629568644936e+02 0.0000000000000000e+00  -6.1531150607238914e-27 -7.4435629568648164e+02 0.0000000000000000e+00  -1.5080643070186601e-27 -7.9411856270625458e+02 0.0000000000000000e+00  1.7962755717011905e-13 -7.9411856270627800e+02 0.0000000000000000e+00  -3.1476439887567140e-11 -7.9411856270626720e+02 0.0000000000000000e+00  7.5703661335998721e-12 -7.9411856270626515e+02 0.0000000000000000e+00  -3.9239660827779361e-12 -7.9411856270626072e+02 0.0000000000000000e+00  -1.9688258410308433e-11 -7.9411856270625572e+02 0.0000000000000000e+00  -8.9619979287303440e-13 -7.9411856270625833e+02 0.0000000000000000e+00  5.3492710519436302e-12 -7.9411856270622582e+02 0.0000000000000000e+00  8.8461693210710499e-13 -7.9411856270625447e+02 0.0000000000000000e+00  -3.7624045127020405e-12 -7.9411856270620910e+02 0.0000000000000000e+00  4.4895256601289111e-27 -7.9411856270625628e+02 0.0000000000000000e+00  -2.5243548967072374e-27 -8.4418654469925355e+02 0.0000000000000000e+00  4.9898505146928793e-12 -8.4418654469924377e+02 0.0000000000000000e+00  -8.7827661306597837e-12 -8.4418654469923854e+02 0.0000000000000000e+00  -7.0526129953834116e-12 -8.4418654469925571e+02 0.0000000000000000e+00  -1.4192928970985159e-11 -8.4418654469922728e+02 0.0000000000000000e+00  -2.3696050443059666e-12 -8.4418654469924184e+02 0.0000000000000000e+00  -5.6977456775308523e-12 -8.4418654469923445e+02 0.0000000000000000e+00  5.6465129179473212e-12 -8.4418654469923615e+02 0.0000000000000000e+00  1.3136015312447197e-11 -8.4418654469921216e+02 0.0000000000000000e+00  2.4807815023215612e-13 -8.4418654469923786e+02 0.0000000000000000e+00  -2.4792046288898951e-27 -8.4418654469921967e+02 0.0000000000000000e+00  1.5645741286883402e-27 -8.9521395003136001e+02 0.0000000000000000e+00  -2.8107240650331353e-11 -8.9521395003137559e+02 0.0000000000000000e+00  -1.1242382192155418e-11 -8.9521395003138207e+02 0.0000000000000000e+00  -2.6424890539015537e-11 -8.9521395003134683e+02 0.0000000000000000e+00  -1.1281568380084826e-11 -8.9521395003137798e+02 0.0000000000000000e+00  -1.4679055915158090e-11 -8.9521395003135888e+02 0.0000000000000000e+00  5.0963439065981870e-12 -8.9521395003134785e+02 0.0000000000000000e+00  1.3416990414259865e-11 -8.9521395003134990e+02 0.0000000000000000e+00  -1.5347022773770517e-11 -8.9521395003135694e+02 0.0000000000000000e+00  -5.6182937062216002e-13 -8.9521395003138718e+02 0.0000000000000000e+00  1.0114323749083690e-27 -8.9521395003133455e+02 0.0000000000000000e+00  -5.0487097934144791e-27 -9.4925230747361513e+02 0.0000000000000000e+00  -2.5120041662942571e-11 -9.4925230747360956e+02 0.0000000000000000e+00  7.6848715235774253e-12 -9.4925230747360683e+02 0.0000000000000000e+00  -4.3866906396461254e-11 -9.4925230747359421e+02 0.0000000000000000e+00  -2.8460149516707491e-11 -9.4925230747357739e+02 0.0000000000000000e+00  -2.4092479477172837e-11 -9.4925230747356341e+02 0.0000000000000000e+00  1.9782268665042763e-12 -9.4925230747357682e+02 0.0000000000000000e+00  -1.1269443822786545e-11 -9.4925230747359296e+02 0.0000000000000000e+00  6.1688968951827299e-12 -9.4925230747360649e+02 0.0000000000000000e+00  3.2622359178710014e-12 -9.4925230747359001e+02 0.0000000000000000e+00  -2.7478654865198615e-27 -9.4925230747362275e+02 0.0000000000000000e+00  3.3658065289429804e-27 -1.0127399166065110e+03 0.0000000000000000e+00  2.8435223030944198e-12 -1.0127399166065411e+03 0.0000000000000000e+00  -5.0385316742376341e-11 -1.0127399166065270e+03 0.0000000000000000e+00  -3.2455752569155076e-11 -1.0127399166064961e+03 0.0000000000000000e+00  -3.9564298725226573e-11 -1.0127399166064736e+03 0.0000000000000000e+00  -2.6621646958992814e-11 -1.0127399166064714e+03 0.0000000000000000e+00  -1.7819916720322942e-11 -1.0127399166064525e+03 0.0000000000000000e+00  -2.4355974877376436e-12 -1.0127399166064829e+03 0.0000000000000000e+00  -2.5871143081957386e-11 -1.0127399166064781e+03 0.0000000000000000e+00  -2.5650940775830969e-11 -1.0127399166064885e+03 0.0000000000000000e+00  2.5243548967072374e-27 -1.0127399166064461e+03 0.0000000000000000e+00  1.5959459667949735e-13 -2.4809647770010553e+01 0.0000000000000000e+00  3.7740346148722547e-12 -2.4809647770011289e+01 0.0000000000000000e+00  1.3399872275026808e-12 -2.4809647770015900e+01 0.0000000000000000e+00  -3.7188586702103809e-12 -2.4809647770010525e+01 0.0000000000000000e+00  1.7971593404153605e-12 -2.4809647770010191e+01 0.0000000000000000e+00  -4.6797083351078917e-12 -2.4809647770018131e+01 0.0000000000000000e+00  -3.9726680156550091e-13 -2.4809647770013338e+01 0.0000000000000000e+00  9.0646194801651901e-14 -2.4809647770006681e+01 0.0000000000000000e+00  6.4791858941726504e-13 -2.4809647770014571e+01 0.0000000000000000e+00  2.6067117457651197e-12 -2.4809647770010947e+01 0.0000000000000000e+00  1.4202416392828852e-12 -7.4428943301623335e+01 0.0000000000000000e+00  1.4563713130911354e-12 -7.4428943301623931e+01 0.0000000000000000e+00  -1.1756250358687484e-12 -7.4428943301625353e+01 0.0000000000000000e+00  4.1103009649590203e-12 -7.4428943301623661e+01 0.0000000000000000e+00  -7.5691828335504677e-12 -7.4428943301624059e+01 0.0000000000000000e+00  -4.6323135741693949e-12 -7.4428943301625338e+01 0.0000000000000000e+00  4.6805668405669950e-12 -7.4428943301620606e+01 0.0000000000000000e+00  -5.1411662016349724e-12 -7.4428943301623420e+01 0.0000000000000000e+00  6.9309237189277003e-13 -7.4428943301620905e+01 0.0000000000000000e+00  -2.2878208590832004e-12 -7.4428943301626106e+01 0.0000000000000000e+00  4.3274990504946784e-12 -1.2404823879571710e+02 0.0000000000000000e+00  -3.1276454402491991e-12 -1.2404823879571730e+02 0.0000000000000000e+00  3.4698485200454440e-12 -1.2404823879571464e+02 0.0000000000000000e+00  -6.3747828872032258e-13 -1.2404823879571542e+02 0.0000000000000000e+00  -2.2415835571974979e-12 -1.2404823879571593e+02 0.0000000000000000e+00  -5.0578196505845725e-12 -1.2404823879571187e+02 0.0000000000000000e+00  1.3335448168063396e-12 -1.2404823879571777e+02 0.0000000000000000e+00  -6.4045244491357055e-13 -1.2404823879570881e+02 0.0000000000000000e+00  -6.4615510366965090e-12 -1.2404823879571346e+02 0.0000000000000000e+00  2.5223293142454802e-12 -1.2404823879571296e+02 0.0000000000000000e+00  9.8166330067933398e-14 -1.7366753416853308e+02 0.0000000000000000e+00  1.1751863698105882e-11 -1.7366753416852046e+02 0.0000000000000000e+00  5.3254059460621632e-12 -1.7366753416851247e+02 0.0000000000000000e+00  1.3554781197143409e-12 -1.7366753416851304e+02 0.0000000000000000e+00  -6.4747110184413118e-12 -1.7366753416851549e+02 0.0000000000000000e+00  -6.1500981354029275e-12 -1.7366753416851685e+02 0.0000000000000000e+00  -1.6888643239159257e-12 -1.7366753416851108e+02 0.0000000000000000e+00  -3.3952752901582505e-12 -1.7366753416852680e+02 0.0000000000000000e+00  -2.4389832833694943e-12 -1.7366753416851657e+02 0.0000000000000000e+00  -3.1958594122115746e-12 -1.7366753416852166e+02 0.0000000000000000e+00  1.0018419351932874e-11 -2.2328682915956546e+02 0.0000000000000000e+00  1.4076793806353788e-11 -2.2328682915956526e+02 0.0000000000000000e+00  3.8953545964606309e-12 -2.2328682915956807e+02 0.0000000000000000e+00  -6.8738971313668976e-12 -2.2328682915958291e+02 0.0000000000000000e+00  -1.6406110575183262e-12 -2.2328682915958274e+02 0.0000000000000000e+00  -6.0974582084237296e-13 -2.2328682915956765e+02 0.0000000000000000e+00  -9.7427731517331711e-12 -2.2328682915957509e+02 0.000000