<?xml version="1.0"?>
<VTKFile type="UnstructuredGrid"  version="0.1"  >
<UnstructuredGrid>
<Piece  NumberOfPoints="431" NumberOfCells="800">
<Points>
<DataArray  type="Float64"  NumberOfComponents="3"  format="ascii">-0.25 -1 0  -0.2 -1 0  -0.15 -1 0  -0.1 -1 0  -0.04999999999999999 -1 0  0 -1 0  0.04999999999999999 -1 0  0.09999999999999998 -1 0  0.15 -1 0  0.2 -1 0  0.25 -1 0  -0.25 -0.95 0  -0.2 -0.95 0  -0.15 -0.95 0  -0.1 -0.95 0  -0.04999999999999999 -0.95 0  0 -0.95 0  0.04999999999999999 -0.95 0  0.09999999999999998 -0.95 0  0.15 -0.95 0  0.2 -0.95 0  0.25 -0.95 0  -0.25 -0.9 0  -0.2 -0.9 0  -0.15 -0.9 0  -0.1 -0.9 0  -0.04999999999999999 -0.9 0  0 -0.9 0  0.04999999999999999 -0.9 0  0.09999999999999998 -0.9 0  0.15 -0.9 0  0.2 -0.9 0  0.25 -0.9 0  -0.25 -0.85 0  -0.2 -0.85 0  -0.15 -0.85 0  -0.1 -0.85 0  -0.04999999999999999 -0.85 0  0 -0.85 0  0.04999999999999999 -0.85 0  0.09999999999999998 -0.85 0  0.15 -0.85 0  0.2 -0.85 0  0.25 -0.85 0  -0.25 -0.8 0  -0.2 -0.8 0  -0.15 -0.8 0  -0.1 -0.8 0  -0.04999999999999999 -0.8 0  0 -0.8 0  0.04999999999999999 -0.8 0  0.09999999999999998 -0.8 0  0.15 -0.8 0  0.2 -0.8 0  0.25 -0.8 0  -0.25 -0.75 0  -0.2 -0.75 0  -0.15 -0.75 0  -0.1 -0.75 0  -0.04999999999999999 -0.75 0  0 -0.75 0  0.04999999999999999 -0.75 0  0.09999999999999998 -0.75 0  0.15 -0.75 0  0.2 -0.75 0  0.25 -0.75 0  -0.25 -0.7 0  -0.2 -0.7 0  -0.15 -0.7 0  -0.1 -0.7 0  -0.04999999999999999 -0.7 0  0 -0.7 0  0.04999999999999999 -0.7 0  0.09999999999999998 -0.7 0  0.15 -0.7 0  0.2 -0.7 0  0.25 -0.7 0  -0.25 -0.65 0  -0.2 -0.65 0  -0.15 -0.65 0  -0.1 -0.65 0  -0.04999999999999999 -0.65 0  0 -0.65 0  0.04999999999999999 -0.65 0  0.09999999999999998 -0.65 0  0.15 -0.65 0  0.2 -0.65 0  0.25 -0.65 0  -0.25 -0.6 0  -0.2 -0.6 0  -0.15 -0.6 0  -0.1 -0.6 0  -0.04999999999999999 -0.6 0  0 -0.6 0  0.04999999999999999 -0.6 0  0.09999999999999998 -0.6 0  0.15 -0.6 0  0.2 -0.6 0  0.25 -0.6 0  -0.25 -0.55 0  -0.2 -0.55 0  -0.15 -0.55 0  -0.1 -0.55 0  -0.04999999999999999 -0.55 0  0 -0.55 0  0.04999999999999999 -0.55 0  0.09999999999999998 -0.55 0  0.15 -0.55 0  0.2 -0.55 0  0.25 -0.55 0  -0.25 -0.5 0  -0.2 -0.5 0  -0.15 -0.5 0  -0.1 -0.5 0  -0.04999999999999999 -0.5 0  0 -0.5 0  0.04999999999999999 -0.5 0  0.09999999999999998 -0.5 0  0.15 -0.5 0  0.2 -0.5 0  0.25 -0.5 0  -0.25 -0.45 0  -0.2 -0.45 0  -0.15 -0.45 0  -0.1 -0.45 0  -0.04999999999999999 -0.45 0  0 -0.45 0  0.04999999999999999 -0.45 0  0.09999999999999998 -0.45 0  0.15 -0.45 0  0.2 -0.45 0  0.25 -0.45 0  -0.25 -0.4 0  -0.2 -0.4 0  -0.15 -0.4 0  -0.1 -0.4 0  -0.04999999999999999 -0.4 0  0 -0.4 0  0.04999999999999999 -0.4 0  0.09999999999999998 -0.4 0  0.15 -0.4 0  0.2 -0.4 0  0.25 -0.4 0  -0.25 -0.35 0  -0.2 -0.35 0  -0.15 -0.35 0  -0.1 -0.35 0  -0.04999999999999999 -0.35 0  0 -0.35 0  0.04999999999999999 -0.35 0  0.09999999999999998 -0.35 0  0.15 -0.35 0  0.2 -0.35 0  0.25 -0.35 0  -0.25 -0.3 0  -0.2 -0.3 0  -0.15 -0.3 0  -0.1 -0.3 0  -0.04999999999999999 -0.3 0  0 -0.3 0  0.04999999999999999 -0.3 0  0.09999999999999998 -0.3 0  0.15 -0.3 0  0.2 -0.3 0  0.25 -0.3 0  -0.25 -0.25 0  -0.2 -0.25 0  -0.15 -0.25 0  -0.1 -0.25 0  -0.04999999999999999 -0.25 0  0 -0.25 0  0.04999999999999999 -0.25 0  0.09999999999999998 -0.25 0  0.15 -0.25 0  0.2 -0.25 0  0.25 -0.25 0  -0.25 -0.2 0  -0.2 -0.2 0  -0.15 -0.2 0  -0.1 -0.2 0  -0.04999999999999999 -0.2 0  0 -0.2 0  0.04999999999999999 -0.2 0  0.09999999999999998 -0.2 0  0.15 -0.2 0  0.2 -0.2 0  0.25 -0.2 0  -0.25 -0.15 0  -0.2 -0.15 0  -0.15 -0.15 0  -0.1 -0.15 0  -0.04999999999999999 -0.15 0  0 -0.15 0  0.04999999999999999 -0.15 0  0.09999999999999998 -0.15 0  0.15 -0.15 0  0.2 -0.15 0  0.25 -0.15 0  -0.25 -0.09999999999999998 0  -0.2 -0.09999999999999998 0  -0.15 -0.09999999999999998 0  -0.1 -0.09999999999999998 0  -0.04999999999999999 -0.09999999999999998 0  0 -0.09999999999999998 0  0.04999999999999999 -0.09999999999999998 0  0.09999999999999998 -0.09999999999999998 0  0.15 -0.09999999999999998 0  0.2 -0.09999999999999998 0  0.25 -0.09999999999999998 0  -0.25 -0.05000000000000004 0  -0.2 -0.05000000000000004 0  -0.15 -0.05000000000000004 0  -0.1 -0.05000000000000004 0  -0.04999999999999999 -0.05000000000000004 0  0 -0.05000000000000004 0  0.04999999999999999 -0.05000000000000004 0  0.09999999999999998 -0.05000000000000004 0  0.15 -0.05000000000000004 0  0.2 -0.05000000000000004 0  0.25 -0.05000000000000004 0  -0.25 0 0  -0.2 0 0  -0.15 0 0  -0.1 0 0  -0.04999999999999999 0 0  0 0 0  0.04999999999999999 0 0  0.09999999999999998 0 0  0.15 0 0  0.2 0 0  0.25 0 0  -0.225 -0.975 0  -0.175 -0.975 0  -0.125 -0.975 0  -0.07500000000000001 -0.975 0  -0.02499999999999999 -0.975 0  0.02500000000000002 -0.975 0  0.07500000000000001 -0.975 0  0.125 -0.975 0  0.175 -0.975 0  0.225 -0.975 0  -0.225 -0.925 0  -0.175 -0.925 0  -0.125 -0.925 0  -0.07500000000000001 -0.925 0  -0.02499999999999999 -0.925 0  0.02500000000000002 -0.925 0  0.07500000000000001 -0.925 0  0.125 -0.925 0  0.175 -0.925 0  0.225 -0.925 0  -0.225 -0.875 0  -0.175 -0.875 0  -0.125 -0.875 0  -0.07500000000000001 -0.875 0  -0.02499999999999999 -0.875 0  0.02500000000000002 -0.875 0  0.07500000000000001 -0.875 0  0.125 -0.875 0  0.175 -0.875 0  0.225 -0.875 0  -0.225 -0.825 0  -0.175 -0.825 0  -0.125 -0.825 0  -0.07500000000000001 -0.825 0  -0.02499999999999999 -0.825 0  0.02500000000000002 -0.825 0  0.07500000000000001 -0.825 0  0.125 -0.825 0  0.175 -0.825 0  0.225 -0.825 0  -0.225 -0.775 0  -0.175 -0.775 0  -0.125 -0.775 0  -0.07500000000000001 -0.775 0  -0.02499999999999999 -0.775 0  0.02500000000000002 -0.775 0  0.07500000000000001 -0.775 0  0.125 -0.775 0  0.175 -0.775 0  0.225 -0.775 0  -0.225 -0.725 0  -0.175 -0.725 0  -0.125 -0.725 0  -0.07500000000000001 -0.725 0  -0.02499999999999999 -0.725 0  0.02500000000000002 -0.725 0  0.07500000000000001 -0.725 0  0.125 -0.725 0  0.175 -0.725 0  0.225 -0.725 0  -0.225 -0.675 0  -0.175 -0.675 0  -0.125 -0.675 0  -0.07500000000000001 -0.675 0  -0.02499999999999999 -0.675 0  0.02500000000000002 -0.675 0  0.07500000000000001 -0.675 0  0.125 -0.675 0  0.175 -0.675 0  0.225 -0.675 0  -0.225 -0.625 0  -0.175 -0.625 0  -0.125 -0.625 0  -0.07500000000000001 -0.625 0  -0.02499999999999999 -0.625 0  0.02500000000000002 -0.625 0  0.07500000000000001 -0.625 0  0.125 -0.625 0  0.175 -0.625 0  0.225 -0.625 0  -0.225 -0.575 0  -0.175 -0.575 0  -0.125 -0.575 0  -0.07500000000000001 -0.575 0  -0.02499999999999999 -0.575 0  0.02500000000000002 -0.575 0  0.07500000000000001 -0.575 0  0.125 -0.575 0  0.175 -0.575 0  0.225 -0.575 0  -0.225 -0.525 0  -0.175 -0.525 0  -0.125 -0.525 0  -0.07500000000000001 -0.525 0  -0.02499999999999999 -0.525 0  0.02500000000000002 -0.525 0  0.07500000000000001 -0.525 0  0.125 -0.525 0  0.175 -0.525 0  0.225 -0.525 0  -0.225 -0.475 0  -0.175 -0.475 0  -0.125 -0.475 0  -0.07500000000000001 -0.475 0  -0.02499999999999999 -0.475 0  0.02500000000000002 -0.475 0  0.07500000000000001 -0.475 0  0.125 -0.475 0  0.175 -0.475 0  0.225 -0.475 0  -0.225 -0.425 0  -0.175 -0.425 0  -0.125 -0.425 0  -0.07500000000000001 -0.425 0  -0.02499999999999999 -0.425 0  0.02500000000000002 -0.425 0  0.07500000000000001 -0.425 0  0.125 -0.425 0  0.175 -0.425 0  0.225 -0.425 0  -0.225 -0.375 0  -0.175 -0.375 0  -0.125 -0.375 0  -0.07500000000000001 -0.375 0  -0.02499999999999999 -0.375 0  0.02500000000000002 -0.375 0  0.07500000000000001 -0.375 0  0.125 -0.375 0  0.175 -0.375 0  0.225 -0.375 0  -0.225 -0.325 0  -0.175 -0.325 0  -0.125 -0.325 0  -0.07500000000000001 -0.325 0  -0.02499999999999999 -0.325 0  0.02500000000000002 -0.325 0  0.07500000000000001 -0.325 0  0.125 -0.325 0  0.175 -0.325 0  0.225 -0.325 0  -0.225 -0.275 0  -0.175 -0.275 0  -0.125 -0.275 0  -0.07500000000000001 -0.275 0  -0.02499999999999999 -0.275 0  0.02500000000000002 -0.275 0  0.07500000000000001 -0.275 0  0.125 -0.275 0  0.175 -0.275 0  0.225 -0.275 0  -0.225 -0.225 0  -0.175 -0.225 0  -0.125 -0.225 0  -0.07500000000000001 -0.225 0  -0.02499999999999999 -0.225 0  0.02500000000000002 -0.225 0  0.07500000000000001 -0.225 0  0.125 -0.225 0  0.175 -0.225 0  0.225 -0.225 0  -0.225 -0.175 0  -0.175 -0.175 0  -0.125 -0.175 0  -0.07500000000000001 -0.175 0  -0.02499999999999999 -0.175 0  0.02500000000000002 -0.175 0  0.07500000000000001 -0.175 0  0.125 -0.175 0  0.175 -0.175 0  0.225 -0.175 0  -0.225 -0.125 0  -0.175 -0.125 0  -0.125 -0.125 0  -0.07500000000000001 -0.125 0  -0.02499999999999999 -0.125 0  0.02500000000000002 -0.125 0  0.07500000000000001 -0.125 0  0.125 -0.125 0  0.175 -0.125 0  0.225 -0.125 0  -0.225 -0.07499999999999996 0  -0.175 -0.07499999999999996 0  -0.125 -0.07499999999999996 0  -0.07500000000000001 -0.07499999999999996 0  -0.02499999999999999 -0.07499999999999996 0  0.02500000000000002 -0.07499999999999996 0  0.07500000000000001 -0.07499999999999996 0  0.125 -0.07499999999999996 0  0.175 -0.07499999999999996 0  0.225 -0.07499999999999996 0  -0.225 -0.02500000000000002 0  -0.175 -0.02500000000000002 0  -0.125 -0.02500000000000002 0  -0.07500000000000001 -0.02500000000000002 0  -0.02499999999999999 -0.02500000000000002 0  0.02500000000000002 -0.02500000000000002 0  0.07500000000000001 -0.02500000000000002 0  0.125 -0.02500000000000002 0  0.175 -0.02500000000000002 0  0.225 -0.02500000000000002 0  </DataArray>
</Points>
<Cells>
[...]
<PointData  Vectors="displacement"> 
<DataArray  type="Float64"  Name="displacement"  NumberOfComponents="3" format="ascii">-1.1284745767893969e-33 -9.1479558303464344e-18 0.0000000000000000e+00  7.2222372914521262e-33 -5.0821976835257963e-19 0.0000000000000000e+00  3.7980222475068071e-32 -6.7894984678352450e-18 0.0000000000000000e+00  -5.4166779685890967e-33 -2.5410988417628991e-18 0.0000000000000000e+00  -7.2728600465590251e-33 3.0790024554168776e-18 0.0000000000000000e+00  9.9305762757466739e-33 -3.0493186101154778e-18 0.0000000000000000e+00  -9.8208144907386469e-33 5.7586659884716634e-18 0.0000000000000000e+00  1.0381966106462431e-32 -5.5904174518783761e-18 0.0000000000000000e+00  -1.7867542637018297e-33 -1.2705494208814490e-18 0.0000000000000000e+00  4.5138983071575806e-34 -3.0493186101154789e-18 0.0000000000000000e+00  6.7708474607363675e-34 1.0164395367051591e-18 0.0000000000000000e+00  1.1736135598609727e-32 -3.3521808084864962e-02 0.0000000000000000e+00  5.5610001374265332e-17 -3.3521808084864935e-02 0.0000000000000000e+00  9.5952337024887082e-17 -3.3521808084864872e-02 0.0000000000000000e+00  1.0752106378322333e-16 -3.3521808084864893e-02 0.0000000000000000e+00  1.1647239205166652e-16 -3.3521808084864872e-02 0.0000000000000000e+00  1.1697085419120675e-16 -3.3521808084864831e-02 0.0000000000000000e+00  9.9007423227330520e-17 -3.3521808084864844e-02 0.0000000000000000e+00  5.4163039555208399e-17 -3.3521808084864810e-02 0.0000000000000000e+00  3.6278216972810563e-17 -3.3521808084864824e-02 0.0000000000000000e+00  8.0714623125934744e-18 -3.3521808084864824e-02 0.0000000000000000e+00  -3.1594178413958810e-33 -3.3521808084864858e-02 0.0000000000000000e+00  3.6552244914530866e-33 -6.7065941141090948e-02 0.0000000000000000e+00  5.9743907958892071e-17 -6.7065941141090935e-02 0.0000000000000000e+00  1.3588728417930384e-16 -6.7065941141090879e-02 0.0000000000000000e+00  1.7695960454228273e-16 -6.7065941141090810e-02 0.0000000000000000e+00  1.8866570850317987e-16 -6.7065941141090768e-02 0.0000000000000000e+00  1.7799717678853480e-16 -6.7065941141090712e-02 0.0000000000000000e+00  1.5353725328932271e-16 -6.7065941141090615e-02 0.0000000000000000e+00  9.9036055420583347e-17 -6.7065941141090671e-02 0.0000000000000000e+00  6.1526513625799123e-17 -6.7065941141090643e-02 0.0000000000000000e+00  3.4313144107071970e-17 -6.7065941141090671e-02 0.0000000000000000e+00  4.5138983071575827e-33 -6.7065941141090699e-02 0.0000000000000000e+00  9.9305762757466808e-33 -1.0065458649917816e-01 0.0000000000000000e+00  6.3567325510741057e-17 -1.0065458649917802e-01 0.0000000000000000e+00  1.5518407580680002e-16 -1.0065458649917799e-01 0.0000000000000000e+00  2.1506483398709319e-16 -1.0065458649917786e-01 0.0000000000000000e+00  2.1340619595337032e-16 -1.0065458649917780e-01 0.0000000000000000e+00  1.9991190587079040e-16 -1.0065458649917770e-01 0.0000000000000000e+00  1.6725763477583818e-16 -1.0065458649917758e-01 0.0000000000000000e+00  1.4046445157329697e-16 -1.0065458649917759e-01 0.0000000000000000e+00  8.3020755215927429e-17 -1.0065458649917759e-01 0.0000000000000000e+00  4.5407443833346167e-17 -1.0065458649917765e-01 0.0000000000000000e+00  0.0000000000000000e+00 -1.0065458649917768e-01 0.0000000000000000e+00  8.5247011562997144e-33 -1.3430965705650524e-01 0.0000000000000000e+00  9.5952337024887131e-17 -1.3430965705650524e-01 0.0000000000000000e+00  1.6654667949580088e-16 -1.3430965705650519e-01 0.0000000000000000e+00  2.0016055452694199e-16 -1.3430965705650488e-01 0.0000000000000000e+00  2.1990230637760455e-16 -1.3430965705650486e-01 0.0000000000000000e+00  2.0722758821475621e-16 -1.3430965705650466e-01 0.0000000000000000e+00  1.8679669923583648e-16 -1.3430965705650466e-01 0.0000000000000000e+00  1.3423310259033569e-16 -1.3430965705650452e-01 0.0000000000000000e+00  1.0468281813755119e-16 -1.3430965705650455e-01 0.0000000000000000e+00  6.8041060387721140e-17 -1.3430965705650466e-01 0.0000000000000000e+00  9.7964116735306136e-34 -1.3430965705650447e-01 0.0000000000000000e+00  -1.2638915260041224e-32 -1.6805265617704052e-01 0.0000000000000000e+00  1.0183462500131050e-16 -1.6805265617704057e-01 0.0000000000000000e+00  1.3312507818803968e-16 -1.6805265617704054e-01 0.0000000000000000e+00  1.9221829894187489e-16 -1.6805265617704018e-01 0.0000000000000000e+00  2.3003667591079868e-16 -1.6805265617704035e-01 0.0000000000000000e+00  2.3188269909870737e-16 -1.6805265617703988e-01 0.0000000000000000e+00  2.5830481066205506e-16 -1.6805265617703993e-01 0.0000000000000000e+00  2.0052539183013693e-16 -1.6805265617703977e-01 0.0000000000000000e+00  1.2375416449301286e-16 -1.6805265617703979e-01 0.0000000000000000e+00  5.5712891441779217e-17 -1.6805265617703952e-01 0.0000000000000000e+00  1.1562854177139607e-32 -1.6805265617703968e-01 0.0000000000000000e+00  1.1786896932618606e-32 -2.0190454511595968e-01 0.0000000000000000e+00  8.5190276240072047e-17 -2.0190454511595948e-01 0.0000000000000000e+00  1.2626073189088963e-16 -2.0190454511595957e-01 0.0000000000000000e+00  2.2226817539412457e-16 -2.0190454511595937e-01 0.0000000000000000e+00  2.4906226564778239e-16 -2.0190454511595882e-01 0.0000000000000000e+00  2.8034607123042375e-16 -2.0190454511595887e-01 0.0000000000000000e+00  2.3093999614837939e-16 -2.0190454511595865e-01 0.0000000000000000e+00  2.1716090269050152e-16 -2.0190454511595854e-01 0.0000000000000000e+00  1.6861994002885054e-16 -2.0190454511595857e-01 0.0000000000000000e+00  5.1850515757934748e-17 -2.0190454511595871e-01 0.0000000000000000e+00  -9.9950605372775134e-33 -2.0190454511595851e-01 0.0000000000000000e+00  -9.0277966143151664e-34 -2.3588561378654224e-01 0.0000000000000000e+00  5.3907666477752215e-17 -2.3588561378654213e-01 0.0000000000000000e+00  1.9865388407872031e-16 -2.3588561378654196e-01 0.0000000000000000e+00  2.7777389907141902e-16 -2.3588561378654160e-01 0.0000000000000000e+00  3.6321580406968241e-16 -2.3588561378654141e-01 0.0000000000000000e+00  3.1812177252762587e-16 -2.3588561378654135e-01 0.0000000000000000e+00  2.5599815842604732e-16 -2.3588561378654108e-01 0.0000000000000000e+00  2.1025511929315749e-16 -2.3588561378654097e-01 0.0000000000000000e+00  1.4528632162787296e-16 -2.3588561378654102e-01 0.0000000000000000e+00  8.5940600942300983e-17 -2.3588561378654091e-01 0.0000000000000000e+00  9.0277966143151646e-34 -2.3588561378654119e-01 0.0000000000000000e+00  9.8476987977224111e-33 -2.7001535566611312e-01 0.0000000000000000e+00  7.5132490311940003e-17 -2.7001535566611268e-01 0.0000000000000000e+00  1.9371509550383061e-16 -2.7001535566611329e-01 0.0000000000000000e+00  3.2343502552871735e-16 -2.7001535566611268e-01 0.0000000000000000e+00  3.7029297212702968e-16 -2.7001535566611246e-01 0.0000000000000000e+00  3.6808030144561596e-16 -2.7001535566611234e-01 0.0000000000000000e+00  2.7301186823420846e-16 -2.7001535566611179e-01 0.0000000000000000e+00  1.9948690008877686e-16 -2.7001535566611212e-01 0.0000000000000000e+00  1.5677194043215980e-16 -2.7001535566611184e-01 0.0000000000000000e+00  9.2716746211238025e-17 -2.7001535566611201e-01 0.0000000000000000e+00  3.2267319930071775e-34 -2.7001535566611207e-01 0.0000000000000000e+00  1.6250033905767313e-32 -3.0431234761227316e-01 0.0000000000000000e+00  1.3231315480905072e-16 -3.0431234761227310e-01 0.0000000000000000e+00  2.6765545561801550e-16 -3.0431234761227294e-01 0.0000000000000000e+00  3.1243944932571262e-16 -3.0431234761227266e-01 0.0000000000000000e+00  3.0440943579173389e-16 -3.0431234761227244e-01 0.0000000000000000e+00  3.0283560894543197e-16 -3.0431234761227205e-01 0.0000000000000000e+00  2.7943834926194313e-16 -3.0431234761227177e-01 0.0000000000000000e+00  2.3884682115832224e-16 -3.0431234761227166e-01 0.0000000000000000e+00  2.0920511974637717e-16 -3.0431234761227177e-01 0.0000000000000000e+00  1.0658944705787347e-16 -3.0431234761227172e-01 0.0000000000000000e+00  -4.5174247902100543e-33 -3.0431234761227210e-01 0.0000000000000000e+00  3.6689559784759822e-33 -3.3879413533039138e-01 0.0000000000000000e+00  1.4158687085397484e-16 -3.3879413533039132e-01 0.0000000000000000e+00  2.3176627497779726e-16 -3.3879413533039121e-01 0.0000000000000000e+00  2.8520936644161616e-16 -3.3879413533039054e-01 0.0000000000000000e+00  2.7673585071975782e-16 -3.3879413533039027e-01 0.0000000000000000e+00  2.7535198273103948e-16 -3.3879413533039016e-01 0.0000000000000000e+00  3.0467093619896411e-16 -3.3879413533038982e-01 0.0000000000000000e+00  3.0039436832684918e-16 -3.3879413533038982e-01 0.0000000000000000e+00  1.6031317375334123e-16 -3.3879413533038988e-01 0.0000000000000000e+00  9.9271829336110131e-17 -3.3879413533038988e-01 0.0000000000000000e+00  1.6765907998013865e-32 -3.3879413533038999e-01 0.0000000000000000e+00  6.3194576300206231e-33 -3.7347712519849297e-01 0.0000000000000000e+00  1.8639446877846108e-16 -3.7347712519849280e-01 0.0000000000000000e+00  1.5669167253054926e-16 -3.7347712519849235e-01 0.0000000000000000e+00  2.7982302562290023e-16 -3.7347712519849208e-01 0.0000000000000000e+00  3.6321580406968261e-16 -3.7347712519849180e-01 0.0000000000000000e+00  3.5252159227952927e-16 -3.7347712519849147e-01 0.0000000000000000e+00  2.6731354877678666e-16 -3.7347712519849102e-01 0.0000000000000000e+00  2.4680052201515232e-16 -3.7347712519849119e-01 0.0000000000000000e+00  2.0755188803981835e-16 -3.7347712519849086e-01 0.0000000000000000e+00  6.3192570999233952e-17 -3.7347712519849124e-01 0.0000000000000000e+00  -7.2222372914521386e-33 -3.7347712519849108e-01 0.0000000000000000e+00  1.1220442553484132e-32 -4.0837648311647545e-01 0.0000000000000000e+00  8.4099734072815453e-17 -4.0837648311647490e-01 0.0000000000000000e+00  2.3389111445659049e-16 -4.0837648311647495e-01 0.0000000000000000e+00  2.9376159153552443e-16 -4.0837648311647434e-01 0.0000000000000000e+00  4.7223505815898931e-16 -4.0837648311647423e-01 0.0000000000000000e+00  5.0828592581418104e-16 -4.0837648311647406e-01 0.0000000000000000e+00  4.2199929351688005e-16 -4.0837648311647340e-01 0.0000000000000000e+00  2.1746129012071539e-16 -4.0837648311647362e-01 0.0000000000000000e+00  1.0661356748920369e-16 -4.0837648311647384e-01 0.0000000000000000e+00  1.3263462922601245e-16 -4.0837648311647345e-01 0.0000000000000000e+00  1.6821324160266932e-32 -4.0837648311647395e-01 0.0000000000000000e+00  2.7083389842945493e-32 -4.4350604100328472e-01 0.0000000000000000e+00  5.7567414461419948e-17 -4.4350604100328406e-01 0.0000000000000000e+00  2.1268663526997041e-16 -4.4350604100328428e-01 0.0000000000000000e+00  4.0767824988384528e-16 -4.4350604100328389e-01 0.0000000000000000e+00  4.7045094622358865e-16 -4.4350604100328334e-01 0.0000000000000000e+00  5.1001147125271201e-16 -4.4350604100328295e-01 0.0000000000000000e+00  4.3769328576912747e-16 -4.4350604100328272e-01 0.0000000000000000e+00  3.2192162634509375e-16 -4.4350604100328278e-01 0.0000000000000000e+00  2.0955732960335643e-16 -4.4350604100328289e-01 0.0000000000000000e+00  1.1650477529563570e-16 -4.4350604100328311e-01 0.0000000000000000e+00  -3.3275894083077298e-32 -4.4350604100328256e-01 0.0000000000000000e+00  -1.0590252988884361e-32 -4.7887821151852383e-01 0.0000000000000000e+00  1.4930087039270311e-16 -4.7887821151852422e-01 0.0000000000000000e+00  3.5283820966769122e-16 -4.7887821151852383e-01 0.0000000000000000e+00  4.4722832368321314e-16 -4.7887821151852311e-01 0.0000000000000000e+00  4.3618326470868123e-16 -4.7887821151852300e-01 0.0000000000000000e+00  3.8365118874409692e-16 -4.7887821151852228e-01 0.0000000000000000e+00  4.3931816301761571e-16 -4.7887821151852228e-01 0.0000000000000000e+00  4.7043969252602242e-16 -4.7887821151852245e-01 0.0000000000000000e+00  3.6115227401693860e-16 -4.7887821151852245e-01 0.0000000000000000e+00  1.4615955336288648e-16 -4.7887821151852228e-01 0.0000000000000000e+00  5.1587409224658040e-34 -4.7887821151852217e-01 0.0000000000000000e+00  2.5277830520082449e-32 -5.1450391153427000e-01 0.0000000000000000e+00  2.5616755569084225e-16 -5.1450391153426989e-01 0.0000000000000000e+00  3.9646075658989137e-16 -5.1450391153427000e-01 0.0000000000000000e+00  4.5990417748072722e-16 -5.1450391153426933e-01 0.0000000000000000e+00  4.1856297421363382e-16 -5.1450391153426911e-01 0.0000000000000000e+00  4.0484635191525866e-16 -5.1450391153426822e-01 0.0000000000000000e+00  5.2423627522702785e-16 -5.1450391153426844e-01 0.0000000000000000e+00  5.0698200181710021e-16 -5.1450391153426844e-01 0.0000000000000000e+00  3.5283820966769102e-16 -5.1450391153426811e-01 0.0000000000000000e+00  1.6758431079670526e-16 -5.1450391153426811e-01 0.0000000000000000e+00  4.3333423748712757e-32 -5.1450391153426789e-01 0.0000000000000000e+00  4.7161971969006700e-32 -5.5039249482891295e-01 0.0000000000000000e+00  2.8604658962136171e-16 -5.5039249482891262e-01 0.0000000000000000e+00  3.4370222040844401e-16 -5.5039249482891273e-01 0.0000000000000000e+00  5.1504217216964308e-16 -5.5039249482891206e-01 0.0000000000000000e+00  5.5690129999528340e-16 -5.5039249482891117e-01 0.0000000000000000e+00  5.7352424062252961e-16 -5.5039249482891139e-01 0.0000000000000000e+00  4.5536586411959415e-16 -5.5039249482891117e-01 0.0000000000000000e+00  4.3887896587932415e-16 -5.5039249482891073e-01 0.0000000000000000e+00  3.6010793074616906e-16 -5.5039249482891062e-01 0.0000000000000000e+00  1.6386749465112360e-16 -5.5039249482891084e-01 0.0000000000000000e+00  -2.7680855858220489e-32 -5.5039249482891062e-01 0.0000000000000000e+00  -1.1736135598609716e-32 -5.8655169441799315e-01 0.0000000000000000e+00  1.8835626216821188e-16 -5.8655169441799304e-01 0.0000000000000000e+00  4.5533802590096256e-16 -5.8655169441799304e-01 0.0000000000000000e+00  5.1880540138963635e-16 -5.8655169441799226e-01 0.0000000000000000e+00  6.0985409089667235e-16 -5.8655169441799204e-01 0.0000000000000000e+00  5.7621944892860671e-16 -5.8655169441799182e-01 0.0000000000000000e+00  4.1081466381222891e-16 -5.8655169441799038e-01 0.0000000000000000e+00  2.9259191638523505e-16 -5.8655169441799104e-01 0.0000000000000000e+00  2.0466021459968057e-16 -5.8655169441799115e-01 0.0000000000000000e+00  9.9290301579408582e-17 -5.8655169441799093e-01 0.0000000000000000e+00  3.3642354733932077e-32 -5.8655169441799071e-01 0.0000000000000000e+00  3.0807355946350500e-32 -6.2298757487757883e-01 0.0000000000000000e+00  1.0233838935074954e-16 -6.2298757487757883e-01 0.0000000000000000e+00  2.0755188803981852e-16 -6.2298757487757928e-01 0.0000000000000000e+00  4.1791437456350943e-16 -6.2298757487757794e-01 0.0000000000000000e+00  5.2401130033921894e-16 -6.2298757487757839e-01 0.0000000000000000e+00  5.5714709945688802e-16 -6.2298757487757694e-01 0.0000000000000000e+00  3.0253288836650398e-16 -6.2298757487757639e-01 0.0000000000000000e+00  1.2765251864011498e-16 -6.2298757487757705e-01 0.0000000000000000e+00  8.3993654691114097e-17 -6.2298757487757683e-01 0.0000000000000000e+00  2.6451891734932818e-17 -6.2298757487757661e-01 0.0000000000000000e+00  -2.2569491535787906e-33 -6.2298757487757717e-01 0.0000000000000000e+00  -2.5277830520082492e-32 -6.5970449495412942e-01 0.0000000000000000e+00  1.3945195561569504e-16 -6.5970449495413008e-01 0.0000000000000000e+00  3.2221386802039530e-17 -6.5970449495412986e-01 0.0000000000000000e+00  1.0332004851424559e-16 -6.5970449495412986e-01 0.0000000000000000e+00  1.9258927403850812e-16 -6.5970449495412864e-01 0.0000000000000000e+00  1.1293886150003289e-16 -6.5970449495412842e-01 0.0000000000000000e+00  1.2107193468989413e-16 -6.5970449495412742e-01 0.0000000000000000e+00  3.8291986154870754e-17 -6.5970449495412742e-01 0.0000000000000000e+00  9.6857547751915231e-17 -6.5970449495412742e-01 0.0000000000000000e+00  6.2676838611860587e-17 -6.5970449495412709e-01 0.0000000000000000e+00  -6.3194576300206231e-33 -6.5970449495412775e-01 0.0000000000000000e+00  -9.0277966143150894e-34 -6.9670508069136827e-01 0.0000000000000000e+00  6.3979297599279572e-17 -6.9670508069136827e-01 0.0000000000000000e+00  -4.8744065373951383e-17 -6.9670508069136838e-01 0.0000000000000000e+00  -1.8351956416681527e-16 -6.9670508069136827e-01 0.0000000000000000e+00  -4.3500933728430291e-16 -6.9670508069136750e-01 0.0000000000000000e+00  -4.6899444175963919e-16 -6.9670508069136705e-01 0.0000000000000000e+00  -1.8600223231837186e-16 -6.9670508069136572e-01 0.0000000000000000e+00  6.7970208950672320e-17 -6.9670508069136594e-01 0.0000000000000000e+00  5.4376167160537858e-17 -6.9670508069136627e-01 0.0000000000000000e+00  1.1374097350983023e-16 -6.9670508069136605e-01 0.0000000000000000e+00  1.4444474582904258e-32 -6.9670508069136661e-01 0.0000000000000000e+00  1.8601051783618773e-17 -1.6759455068275617e-02 0.0000000000000000e+00  4.2704378556503251e-17 -1.6759455068275607e-02 0.0000000000000000e+00  5.3725671017892177e-17 -1.6759455068275610e-02 0.0000000000000000e+00  5.9418348393261680e-17 -1.6759455068275593e-02 0.0000000000000000e+00  6.2806066119507773e-17 -1.6759455068275590e-02 0.0000000000000000e+00  5.5538024362896775e-17 -1.6759455068275572e-02 0.0000000000000000e+00  3.4257894428836390e-17 -1.6759455068275586e-02 0.0000000000000000e+00  2.4214386937641548e-17 -1.6759455068275586e-02 0.0000000000000000e+00  1.3467355603066571e-17 -1.6759455068275565e-02 0.0000000000000000e+00  -2.8617002744028877e-18 -1.6759455068275579e-02 0.0000000000000000e+00  2.9732829714233449e-17 -5.0289536623914173e-02 0.0000000000000000e+00  8.5276754000311711e-17 -5.0289536623914076e-02 0.0000000000000000e+00  1.4107512390175030e-16 -5.0289536623914090e-02 0.0000000000000000e+00  1.4949751935857113e-16 -5.0289536623914041e-02 0.0000000000000000e+00  1.5791991481539203e-16 -5.0289536623914000e-02 0.0000000000000000e+00  1.4471264014040098e-16 -5.0289536623913937e-02 0.0000000000000000e+00  9.6683081875012683e-17 -5.0289536623913937e-02 0.0000000000000000e+00  6.0009567629848987e-17 -5.0289536623913979e-02 0.0000000000000000e+00  3.2127719373331937e-17 -5.0289536623913972e-02 0.0000000000000000e+00  1.1032446865074810e-17 -5.0289536623913993e-02 0.0000000000000000e+00  3.1413258730327233e-17 -8.3853063561306812e-02 0.0000000000000000e+00  1.0459018353233027e-16 -8.3853063561306770e-02 0.0000000000000000e+00  1.8529270005005979e-16 -8.3853063561306715e-02 0.0000000000000000e+00  1.9461103252275108e-16 -8.3853063561306673e-02 0.0000000000000000e+00  2.0634868869211208e-16 -8.3853063561306548e-02 0.0000000000000000e+00  1.8223590512558814e-16 -8.3853063561306451e-02 0.0000000000000000e+00  1.4051435545357939e-16 -8.3853063561306396e-02 0.0000000000000000e+00  9.2646350025029857e-17 -8.3853063561306437e-02 0.0000000000000000e+00  5.6418769566457873e-17 -8.3853063561306451e-02 0.0000000000000000e+00  2.3499957107955292e-17 -8.3853063561306465e-02 0.0000000000000000e+00  3.4031030291187882e-17 -1.1747210364123647e-01 0.0000000000000000e+00  1.1580793753128751e-16 -1.1747210364123657e-01 0.0000000000000000e+00  2.1266548528472802e-16 -1.1747210364123645e-01 0.0000000000000000e+00  2.0634868869211226e-16 -1.1747210364123641e-01 0.0000000000000000e+00  2.2740467733416468e-16 -1.1747210364123621e-01 0.0000000000000000e+00  1.6995073332495427e-16 -1.1747210364123598e-01 0.0000000000000000e+00  1.7040310808101632e-16 -1.1747210364123603e-01 0.0000000000000000e+00  1.1580793753128751e-16 -1.1747210364123604e-01 0.0000000000000000e+00  7.6014177647995965e-17 -1.1747210364123603e-01 0.0000000000000000e+00  3.8443269751476526e-17 -1.1747210364123604e-01 0.0000000000000000e+00  6.2826517460654491e-17 -1.5116838236752927e-01 0.0000000000000000e+00  1.4834008996605437e-16 -1.5116838236752922e-01 0.0000000000000000e+00  1.6002551367959705e-16 -1.5116838236752911e-01 0.0000000000000000e+00  2.2423397970139038e-16 -1.5116838236752900e-01 0.0000000000000000e+00  2.0634868869211206e-16 -1.5116838236752878e-01 0.0000000000000000e+00  2.4671787296132328e-16 -1.5116838236752864e-01 0.0000000000000000e+00  2.0186782860814514e-16 -1.5116838236752855e-01 0.0000000000000000e+00  1.2633593185231344e-16 -1.5116838236752861e-01 0.0000000000000000e+00  9.0290109108037897e-17 -1.5116838236752872e-0