<?xml version="1.0"?>
<VTKFile type="UnstructuredGrid"  version="0.1"  >
<UnstructuredGrid>
<Piece  NumberOfPoints="431" NumberOfCells="800">
<Points>
<DataArray  type="Float64"  NumberOfComponents="3"  format="ascii">-0.25 -1 0  -0.2 -1 0  -0.15 -1 0  -0.1 -1 0  -0.04999999999999999 -1 0  0 -1 0  0.04999999999999999 -1 0  0.09999999999999998 -1 0  0.15 -1 0  0.2 -1 0  0.25 -1 0  -0.25 -0.95 0  -0.2 -0.95 0  -0.15 -0.95 0  -0.1 -0.95 0  -0.04999999999999999 -0.95 0  0 -0.95 0  0.04999999999999999 -0.95 0  0.09999999999999998 -0.95 0  0.15 -0.95 0  0.2 -0.95 0  0.25 -0.95 0  -0.25 -0.9 0  -0.2 -0.9 0  -0.15 -0.9 0  -0.1 -0.9 0  -0.04999999999999999 -0.9 0  0 -0.9 0  0.04999999999999999 -0.9 0  0.09999999999999998 -0.9 0  0.15 -0.9 0  0.2 -0.9 0  0.25 -0.9 0  -0.25 -0.85 0  -0.2 -0.85 0  -0.15 -0.85 0  -0.1 -0.85 0  -0.04999999999999999 -0.85 0  0 -0.85 0  0.04999999999999999 -0.85 0  0.09999999999999998 -0.85 0  0.15 -0.85 0  0.2 -0.85 0  0.25 -0.85 0  -0.25 -0.8 0  -0.2 -0.8 0  -0.15 -0.8 0  -0.1 -0.8 0  -0.04999999999999999 -0.8 0  0 -0.8 0  0.04999999999999999 -0.8 0  0.09999999999999998 -0.8 0  0.15 -0.8 0  0.2 -0.8 0  0.25 -0.8 0  -0.25 -0.75 0  -0.2 -0.75 0  -0.15 -0.75 0  -0.1 -0.75 0  -0.04999999999999999 -0.75 0  0 -0.75 0  0.04999999999999999 -0.75 0  0.09999999999999998 -0.75 0  0.15 -0.75 0  0.2 -0.75 0  0.25 -0.75 0  -0.25 -0.7 0  -0.2 -0.7 0  -0.15 -0.7 0  -0.1 -0.7 0  -0.04999999999999999 -0.7 0  0 -0.7 0  0.04999999999999999 -0.7 0  0.09999999999999998 -0.7 0  0.15 -0.7 0  0.2 -0.7 0  0.25 -0.7 0  -0.25 -0.65 0  -0.2 -0.65 0  -0.15 -0.65 0  -0.1 -0.65 0  -0.04999999999999999 -0.65 0  0 -0.65 0  0.04999999999999999 -0.65 0  0.09999999999999998 -0.65 0  0.15 -0.65 0  0.2 -0.65 0  0.25 -0.65 0  -0.25 -0.6 0  -0.2 -0.6 0  -0.15 -0.6 0  -0.1 -0.6 0  -0.04999999999999999 -0.6 0  0 -0.6 0  0.04999999999999999 -0.6 0  0.09999999999999998 -0.6 0  0.15 -0.6 0  0.2 -0.6 0  0.25 -0.6 0  -0.25 -0.55 0  -0.2 -0.55 0  -0.15 -0.55 0  -0.1 -0.55 0  -0.04999999999999999 -0.55 0  0 -0.55 0  0.04999999999999999 -0.55 0  0.09999999999999998 -0.55 0  0.15 -0.55 0  0.2 -0.55 0  0.25 -0.55 0  -0.25 -0.5 0  -0.2 -0.5 0  -0.15 -0.5 0  -0.1 -0.5 0  -0.04999999999999999 -0.5 0  0 -0.5 0  0.04999999999999999 -0.5 0  0.09999999999999998 -0.5 0  0.15 -0.5 0  0.2 -0.5 0  0.25 -0.5 0  -0.25 -0.45 0  -0.2 -0.45 0  -0.15 -0.45 0  -0.1 -0.45 0  -0.04999999999999999 -0.45 0  0 -0.45 0  0.04999999999999999 -0.45 0  0.09999999999999998 -0.45 0  0.15 -0.45 0  0.2 -0.45 0  0.25 -0.45 0  -0.25 -0.4 0  -0.2 -0.4 0  -0.15 -0.4 0  -0.1 -0.4 0  -0.04999999999999999 -0.4 0  0 -0.4 0  0.04999999999999999 -0.4 0  0.09999999999999998 -0.4 0  0.15 -0.4 0  0.2 -0.4 0  0.25 -0.4 0  -0.25 -0.35 0  -0.2 -0.35 0  -0.15 -0.35 0  -0.1 -0.35 0  -0.04999999999999999 -0.35 0  0 -0.35 0  0.04999999999999999 -0.35 0  0.09999999999999998 -0.35 0  0.15 -0.35 0  0.2 -0.35 0  0.25 -0.35 0  -0.25 -0.3 0  -0.2 -0.3 0  -0.15 -0.3 0  -0.1 -0.3 0  -0.04999999999999999 -0.3 0  0 -0.3 0  0.04999999999999999 -0.3 0  0.09999999999999998 -0.3 0  0.15 -0.3 0  0.2 -0.3 0  0.25 -0.3 0  -0.25 -0.25 0  -0.2 -0.25 0  -0.15 -0.25 0  -0.1 -0.25 0  -0.04999999999999999 -0.25 0  0 -0.25 0  0.04999999999999999 -0.25 0  0.09999999999999998 -0.25 0  0.15 -0.25 0  0.2 -0.25 0  0.25 -0.25 0  -0.25 -0.2 0  -0.2 -0.2 0  -0.15 -0.2 0  -0.1 -0.2 0  -0.04999999999999999 -0.2 0  0 -0.2 0  0.04999999999999999 -0.2 0  0.09999999999999998 -0.2 0  0.15 -0.2 0  0.2 -0.2 0  0.25 -0.2 0  -0.25 -0.15 0  -0.2 -0.15 0  -0.15 -0.15 0  -0.1 -0.15 0  -0.04999999999999999 -0.15 0  0 -0.15 0  0.04999999999999999 -0.15 0  0.09999999999999998 -0.15 0  0.15 -0.15 0  0.2 -0.15 0  0.25 -0.15 0  -0.25 -0.09999999999999998 0  -0.2 -0.09999999999999998 0  -0.15 -0.09999999999999998 0  -0.1 -0.09999999999999998 0  -0.04999999999999999 -0.09999999999999998 0  0 -0.09999999999999998 0  0.04999999999999999 -0.09999999999999998 0  0.09999999999999998 -0.09999999999999998 0  0.15 -0.09999999999999998 0  0.2 -0.09999999999999998 0  0.25 -0.09999999999999998 0  -0.25 -0.05000000000000004 0  -0.2 -0.05000000000000004 0  -0.15 -0.05000000000000004 0  -0.1 -0.05000000000000004 0  -0.04999999999999999 -0.05000000000000004 0  0 -0.05000000000000004 0  0.04999999999999999 -0.05000000000000004 0  0.09999999999999998 -0.05000000000000004 0  0.15 -0.05000000000000004 0  0.2 -0.05000000000000004 0  0.25 -0.05000000000000004 0  -0.25 0 0  -0.2 0 0  -0.15 0 0  -0.1 0 0  -0.04999999999999999 0 0  0 0 0  0.04999999999999999 0 0  0.09999999999999998 0 0  0.15 0 0  0.2 0 0  0.25 0 0  -0.225 -0.975 0  -0.175 -0.975 0  -0.125 -0.975 0  -0.07500000000000001 -0.975 0  -0.02499999999999999 -0.975 0  0.02500000000000002 -0.975 0  0.07500000000000001 -0.975 0  0.125 -0.975 0  0.175 -0.975 0  0.225 -0.975 0  -0.225 -0.925 0  -0.175 -0.925 0  -0.125 -0.925 0  -0.07500000000000001 -0.925 0  -0.02499999999999999 -0.925 0  0.02500000000000002 -0.925 0  0.07500000000000001 -0.925 0  0.125 -0.925 0  0.175 -0.925 0  0.225 -0.925 0  -0.225 -0.875 0  -0.175 -0.875 0  -0.125 -0.875 0  -0.07500000000000001 -0.875 0  -0.02499999999999999 -0.875 0  0.02500000000000002 -0.875 0  0.07500000000000001 -0.875 0  0.125 -0.875 0  0.175 -0.875 0  0.225 -0.875 0  -0.225 -0.825 0  -0.175 -0.825 0  -0.125 -0.825 0  -0.07500000000000001 -0.825 0  -0.02499999999999999 -0.825 0  0.02500000000000002 -0.825 0  0.07500000000000001 -0.825 0  0.125 -0.825 0  0.175 -0.825 0  0.225 -0.825 0  -0.225 -0.775 0  -0.175 -0.775 0  -0.125 -0.775 0  -0.07500000000000001 -0.775 0  -0.02499999999999999 -0.775 0  0.02500000000000002 -0.775 0  0.07500000000000001 -0.775 0  0.125 -0.775 0  0.175 -0.775 0  0.225 -0.775 0  -0.225 -0.725 0  -0.175 -0.725 0  -0.125 -0.725 0  -0.07500000000000001 -0.725 0  -0.02499999999999999 -0.725 0  0.02500000000000002 -0.725 0  0.07500000000000001 -0.725 0  0.125 -0.725 0  0.175 -0.725 0  0.225 -0.725 0  -0.225 -0.675 0  -0.175 -0.675 0  -0.125 -0.675 0  -0.07500000000000001 -0.675 0  -0.02499999999999999 -0.675 0  0.02500000000000002 -0.675 0  0.07500000000000001 -0.675 0  0.125 -0.675 0  0.175 -0.675 0  0.225 -0.675 0  -0.225 -0.625 0  -0.175 -0.625 0  -0.125 -0.625 0  -0.07500000000000001 -0.625 0  -0.02499999999999999 -0.625 0  0.02500000000000002 -0.625 0  0.07500000000000001 -0.625 0  0.125 -0.625 0  0.175 -0.625 0  0.225 -0.625 0  -0.225 -0.575 0  -0.175 -0.575 0  -0.125 -0.575 0  -0.07500000000000001 -0.575 0  -0.02499999999999999 -0.575 0  0.02500000000000002 -0.575 0  0.07500000000000001 -0.575 0  0.125 -0.575 0  0.175 -0.575 0  0.225 -0.575 0  -0.225 -0.525 0  -0.175 -0.525 0  -0.125 -0.525 0  -0.07500000000000001 -0.525 0  -0.02499999999999999 -0.525 0  0.02500000000000002 -0.525 0  0.07500000000000001 -0.525 0  0.125 -0.525 0  0.175 -0.525 0  0.225 -0.525 0  -0.225 -0.475 0  -0.175 -0.475 0  -0.125 -0.475 0  -0.07500000000000001 -0.475 0  -0.02499999999999999 -0.475 0  0.02500000000000002 -0.475 0  0.07500000000000001 -0.475 0  0.125 -0.475 0  0.175 -0.475 0  0.225 -0.475 0  -0.225 -0.425 0  -0.175 -0.425 0  -0.125 -0.425 0  -0.07500000000000001 -0.425 0  -0.02499999999999999 -0.425 0  0.02500000000000002 -0.425 0  0.07500000000000001 -0.425 0  0.125 -0.425 0  0.175 -0.425 0  0.225 -0.425 0  -0.225 -0.375 0  -0.175 -0.375 0  -0.125 -0.375 0  -0.07500000000000001 -0.375 0  -0.02499999999999999 -0.375 0  0.02500000000000002 -0.375 0  0.07500000000000001 -0.375 0  0.125 -0.375 0  0.175 -0.375 0  0.225 -0.375 0  -0.225 -0.325 0  -0.175 -0.325 0  -0.125 -0.325 0  -0.07500000000000001 -0.325 0  -0.02499999999999999 -0.325 0  0.02500000000000002 -0.325 0  0.07500000000000001 -0.325 0  0.125 -0.325 0  0.175 -0.325 0  0.225 -0.325 0  -0.225 -0.275 0  -0.175 -0.275 0  -0.125 -0.275 0  -0.07500000000000001 -0.275 0  -0.02499999999999999 -0.275 0  0.02500000000000002 -0.275 0  0.07500000000000001 -0.275 0  0.125 -0.275 0  0.175 -0.275 0  0.225 -0.275 0  -0.225 -0.225 0  -0.175 -0.225 0  -0.125 -0.225 0  -0.07500000000000001 -0.225 0  -0.02499999999999999 -0.225 0  0.02500000000000002 -0.225 0  0.07500000000000001 -0.225 0  0.125 -0.225 0  0.175 -0.225 0  0.225 -0.225 0  -0.225 -0.175 0  -0.175 -0.175 0  -0.125 -0.175 0  -0.07500000000000001 -0.175 0  -0.02499999999999999 -0.175 0  0.02500000000000002 -0.175 0  0.07500000000000001 -0.175 0  0.125 -0.175 0  0.175 -0.175 0  0.225 -0.175 0  -0.225 -0.125 0  -0.175 -0.125 0  -0.125 -0.125 0  -0.07500000000000001 -0.125 0  -0.02499999999999999 -0.125 0  0.02500000000000002 -0.125 0  0.07500000000000001 -0.125 0  0.125 -0.125 0  0.175 -0.125 0  0.225 -0.125 0  -0.225 -0.07499999999999996 0  -0.175 -0.07499999999999996 0  -0.125 -0.07499999999999996 0  -0.07500000000000001 -0.07499999999999996 0  -0.02499999999999999 -0.07499999999999996 0  0.02500000000000002 -0.07499999999999996 0  0.07500000000000001 -0.07499999999999996 0  0.125 -0.07499999999999996 0  0.175 -0.07499999999999996 0  0.225 -0.07499999999999996 0  -0.225 -0.02500000000000002 0  -0.175 -0.02500000000000002 0  -0.125 -0.02500000000000002 0  -0.07500000000000001 -0.02500000000000002 0  -0.02499999999999999 -0.02500000000000002 0  0.02500000000000002 -0.02500000000000002 0  0.07500000000000001 -0.02500000000000002 0  0.125 -0.02500000000000002 0  0.175 -0.02500000000000002 0  0.225 -0.02500000000000002 0  </DataArray>
</Points>
<Cells>
[...]
<PointData  Vectors="displacement"> 
<DataArray  type="Float64"  Name="displacement"  NumberOfComponents="3" format="ascii">3.6111186457260638e-33 -1.5246593050577391e-17 0.0000000000000000e+00  -3.6111186457260631e-33 6.0986372202309555e-18 0.0000000000000000e+00  1.6151292380298214e-32 -1.1768464010914425e-17 0.0000000000000000e+00  -1.8055593228630322e-33 -3.5575383784680583e-18 0.0000000000000000e+00  1.8324828394150157e-33 1.5500170810318382e-18 0.0000000000000000e+00  5.4166779685890947e-33 -9.6561755986990131e-18 0.0000000000000000e+00  5.2231622110849777e-33 4.9194085389753623e-18 0.0000000000000000e+00  -1.8055593228630316e-33 -8.1315162936412740e-18 0.0000000000000000e+00  -8.9975961131163237e-34 -6.3209833688852093e-18 0.0000000000000000e+00  -9.0277966143151612e-34 -3.0493186101154789e-18 0.0000000000000000e+00  2.2569491535787890e-34 -3.0493186101154774e-18 0.0000000000000000e+00  0.0000000000000000e+00 -3.5834922001381241e-02 0.0000000000000000e+00  3.5550043567966868e-17 -3.5834922001381261e-02 0.0000000000000000e+00  6.1554329412191692e-17 -3.5834922001381185e-02 0.0000000000000000e+00  9.0305877507159761e-17 -3.5834922001381213e-02 0.0000000000000000e+00  1.1409649866022717e-16 -3.5834922001381171e-02 0.0000000000000000e+00  1.1681855346592826e-16 -3.5834922001381095e-02 0.0000000000000000e+00  8.0535466836631360e-17 -3.5834922001381123e-02 0.0000000000000000e+00  5.5465759199810933e-17 -3.5834922001381102e-02 0.0000000000000000e+00  3.5011809351042912e-17 -3.5834922001381109e-02 0.0000000000000000e+00  4.2731271066671330e-18 -3.5834922001381123e-02 0.0000000000000000e+00  -5.0739538487363503e-34 -3.5834922001381136e-02 0.0000000000000000e+00  -2.6752595999992854e-33 -7.1677907857842268e-02 0.0000000000000000e+00  3.4398007612695452e-17 -7.1677907857842185e-02 0.0000000000000000e+00  1.0307396199480483e-16 -7.1677907857842185e-02 0.0000000000000000e+00  1.4627273359577053e-16 -7.1677907857842033e-02 0.0000000000000000e+00  1.8598243114075800e-16 -7.1677907857842060e-02 0.0000000000000000e+00  1.9942777199940807e-16 -7.1677907857841908e-02 0.0000000000000000e+00  1.7122620612665548e-16 -7.1677907857841824e-02 0.0000000000000000e+00  1.1506440973131904e-16 -7.1677907857841880e-02 0.0000000000000000e+00  7.2810780641567313e-17 -7.1677907857841908e-02 0.0000000000000000e+00  4.5133241074058813e-17 -7.1677907857841935e-02 0.0000000000000000e+00  1.2896852306164515e-33 -7.1677907857841949e-02 0.0000000000000000e+00  1.5347254244335780e-32 -1.0753697170811463e-01 0.0000000000000000e+00  5.4220204158580272e-17 -1.0753697170811463e-01 0.0000000000000000e+00  1.2035121677497683e-16 -1.0753697170811456e-01 0.0000000000000000e+00  1.8342533230446074e-16 -1.0753697170811445e-01 0.0000000000000000e+00  2.4509397505408443e-16 -1.0753697170811445e-01 0.0000000000000000e+00  2.5000552888769105e-16 -1.0753697170811427e-01 0.0000000000000000e+00  2.0557906410402352e-16 -1.0753697170811413e-01 0.0000000000000000e+00  1.5896464838992666e-16 -1.0753697170811417e-01 0.0000000000000000e+00  1.2107193468989413e-16 -1.0753697170811427e-01 0.0000000000000000e+00  7.3347653863398276e-17 -1.0753697170811410e-01 0.0000000000000000e+00  7.2222372914521303e-33 -1.0753697170811422e-01 0.0000000000000000e+00  6.3935258672247862e-33 -1.4342002856475175e-01 0.0000000000000000e+00  1.0681486574468577e-16 -1.4342002856475172e-01 0.0000000000000000e+00  1.6410431224760783e-16 -1.4342002856475178e-01 0.0000000000000000e+00  1.8950257590119931e-16 -1.4342002856475158e-01 0.0000000000000000e+00  2.3321211169786623e-16 -1.4342002856475158e-01 0.0000000000000000e+00  2.4183308204743687e-16 -1.4342002856475106e-01 0.0000000000000000e+00  2.1187588570731451e-16 -1.4342002856475136e-01 0.0000000000000000e+00  1.8144575212231006e-16 -1.4342002856475125e-01 0.0000000000000000e+00  1.5567663082999183e-16 -1.4342002856475117e-01 0.0000000000000000e+00  9.1341207273789440e-17 -1.4342002856475117e-01 0.0000000000000000e+00  -2.9161939416109983e-33 -1.4342002856475106e-01 0.0000000000000000e+00  -1.0833355937178193e-32 -1.7933484551544440e-01 0.0000000000000000e+00  1.3412355363026262e-16 -1.7933484551544457e-01 0.0000000000000000e+00  1.8793850486990964e-16 -1.7933484551544437e-01 0.0000000000000000e+00  2.4738817117951039e-16 -1.7933484551544424e-01 0.0000000000000000e+00  2.6981745445176384e-16 -1.7933484551544387e-01 0.0000000000000000e+00  2.6577615119200335e-16 -1.7933484551544396e-01 0.0000000000000000e+00  2.8697832019463919e-16 -1.7933484551544382e-01 0.0000000000000000e+00  2.4279246902991250e-16 -1.7933484551544382e-01 0.0000000000000000e+00  1.5974468882856318e-16 -1.7933484551544368e-01 0.0000000000000000e+00  6.6334973562311356e-17 -1.7933484551544357e-01 0.0000000000000000e+00  1.5548884662471453e-32 -1.7933484551544365e-01 0.0000000000000000e+00  1.0886259979802460e-32 -2.1528899383634212e-01 0.0000000000000000e+00  1.5711568402435810e-16 -2.1528899383634181e-01 0.0000000000000000e+00  2.1619988337481084e-16 -2.1528899383634179e-01 0.0000000000000000e+00  2.5319814576194373e-16 -2.1528899383634148e-01 0.0000000000000000e+00  3.0440943579173379e-16 -2.1528899383634126e-01 0.0000000000000000e+00  3.2567271481572616e-16 -2.1528899383634123e-01 0.0000000000000000e+00  2.9153333719050124e-16 -2.1528899383634104e-01 0.0000000000000000e+00  2.6816624306671784e-16 -2.1528899383634095e-01 0.0000000000000000e+00  1.8855478938499719e-16 -2.1528899383634084e-01 0.0000000000000000e+00  4.2277318146727580e-17 -2.1528899383634093e-01 0.0000000000000000e+00  -1.0575418891054916e-32 -2.1528899383634081e-01 0.0000000000000000e+00  -6.3194576300206163e-33 -2.5128980231261772e-01 0.0000000000000000e+00  1.0581812881978091e-16 -2.5128980231261733e-01 0.0000000000000000e+00  2.5590529276969440e-16 -2.5128980231261705e-01 0.0000000000000000e+00  3.1057268669238792e-16 -2.5128980231261699e-01 0.0000000000000000e+00  3.8397099287366450e-16 -2.5128980231261661e-01 0.0000000000000000e+00  3.9405543782082433e-16 -2.5128980231261672e-01 0.0000000000000000e+00  3.1980503434427394e-16 -2.5128980231261633e-01 0.0000000000000000e+00  2.0764885101217472e-16 -2.5128980231261638e-01 0.0000000000000000e+00  1.4182712349387610e-16 -2.5128980231261633e-01 0.0000000000000000e+00  9.2016406716012488e-17 -2.5128980231261616e-01 0.0000000000000000e+00  9.0277966143151653e-33 -2.5128980231261649e-01 0.0000000000000000e+00  1.0263384269104767e-32 -2.8734431205407052e-01 0.0000000000000000e+00  9.0860526687481639e-17 -2.8734431205407007e-01 0.0000000000000000e+00  2.3263107451129672e-16 -2.8734431205407024e-01 0.0000000000000000e+00  3.5932420616893593e-16 -2.8734431205406968e-01 0.0000000000000000e+00  4.1680635016121386e-16 -2.8734431205406957e-01 0.0000000000000000e+00  4.3121066739106071e-16 -2.8734431205406913e-01 0.0000000000000000e+00  3.3047351803031695e-16 -2.8734431205406891e-01 0.0000000000000000e+00  2.3370788442176865e-16 -2.8734431205406902e-01 0.0000000000000000e+00  1.8880330440340920e-16 -2.8734431205406907e-01 0.0000000000000000e+00  1.0649283454106172e-16 -2.8734431205406880e-01 0.0000000000000000e+00  -1.8481919840508907e-32 -2.8734431205406891e-01 0.0000000000000000e+00  -1.2638915260041246e-32 -3.2345923308434221e-01 0.0000000000000000e+00  1.4431356402625840e-16 -3.2345923308434227e-01 0.0000000000000000e+00  2.5069727726580407e-16 -3.2345923308434188e-01 0.0000000000000000e+00  3.2938966577512898e-16 -3.2345923308434166e-01 0.0000000000000000e+00  3.3554221899770668e-16 -3.2345923308434121e-01 0.0000000000000000e+00  3.2510599004558975e-16 -3.2345923308434071e-01 0.0000000000000000e+00  3.0617281609050987e-16 -3.2345923308434038e-01 0.0000000000000000e+00  2.6046680949580315e-16 -3.2345923308434082e-01 0.0000000000000000e+00  2.2258657307130708e-16 -3.2345923308434099e-01 0.0000000000000000e+00  1.3089510646404541e-16 -3.2345923308434055e-01 0.0000000000000000e+00  -1.9309257953782319e-32 -3.2345923308434044e-01 0.0000000000000000e+00  5.4849258962619841e-33 -3.5964090297139090e-01 0.0000000000000000e+00  1.3225679714253938e-16 -3.5964090297139051e-01 0.0000000000000000e+00  2.4560306751378512e-16 -3.5964090297139090e-01 0.0000000000000000e+00  3.1184912037371653e-16 -3.5964090297138968e-01 0.0000000000000000e+00  3.1824622832772156e-16 -3.5964090297138984e-01 0.0000000000000000e+00  3.4079300608195243e-16 -3.5964090297138923e-01 0.0000000000000000e+00  3.3697042678619852e-16 -3.5964090297138934e-01 0.0000000000000000e+00  2.6672192832610739e-16 -3.5964090297138895e-01 0.0000000000000000e+00  1.9529556164076752e-16 -3.5964090297138901e-01 0.0000000000000000e+00  1.3720850462476117e-16 -3.5964090297138934e-01 0.0000000000000000e+00  2.9985181611832488e-32 -3.5964090297138912e-01 0.0000000000000000e+00  -2.9340338996524318e-32 -3.9589524775427526e-01 0.0000000000000000e+00  1.5268098806556817e-16 -3.9589524775427543e-01 0.0000000000000000e+00  1.3579298068749836e-16 -3.9589524775427481e-01 0.0000000000000000e+00  2.9853066951666327e-16 -3.9589524775427487e-01 0.0000000000000000e+00  3.8397099287366460e-16 -3.9589524775427432e-01 0.0000000000000000e+00  4.0273468108473668e-16 -3.9589524775427426e-01 0.0000000000000000e+00  3.0481618249280661e-16 -3.9589524775427332e-01 0.0000000000000000e+00  2.8310302356811900e-16 -3.9589524775427348e-01 0.0000000000000000e+00  2.5598066191577587e-16 -3.9589524775427365e-01 0.0000000000000000e+00  8.1983999422663183e-17 -3.9589524775427343e-01 0.0000000000000000e+00  -1.5347254244335794e-32 -3.9589524775427354e-01 0.0000000000000000e+00  1.3240097968540290e-32 -4.3222774540715614e-01 0.0000000000000000e+00  3.0437710683602129e-17 -4.3222774540715492e-01 0.0000000000000000e+00  1.9761091605854962e-16 -4.3222774540715558e-01 0.0000000000000000e+00  2.8168817929831205e-16 -4.3222774540715470e-01 0.0000000000000000e+00  4.4803162246689457e-16 -4.3222774540715420e-01 0.0000000000000000e+00  4.7845034190845712e-16 -4.3222774540715436e-01 0.0000000000000000e+00  4.1014249762464149e-16 -4.3222774540715359e-01 0.0000000000000000e+00  3.0631784683810459e-16 -4.3222774540715370e-01 0.0000000000000000e+00  1.6882508393030552e-16 -4.3222774540715364e-01 0.0000000000000000e+00  9.6434722512338225e-17 -4.3222774540715375e-01 0.0000000000000000e+00  1.1830720911909807e-32 -4.3222774540715331e-01 0.0000000000000000e+00  -1.2638915260041230e-32 -4.6864339206575867e-01 0.0000000000000000e+00  2.4391988664050731e-18 -4.6864339206575872e-01 0.0000000000000000e+00  1.7137218880631492e-16 -4.6864339206575845e-01 0.0000000000000000e+00  3.5915017565908357e-16 -4.6864339206575784e-01 0.0000000000000000e+00  4.7391014435758562e-16 -4.6864339206575761e-01 0.0000000000000000e+00  5.2933174742672295e-16 -4.6864339206575689e-01 0.0000000000000000e+00  4.4108956635893870e-16 -4.6864339206575695e-01 0.0000000000000000e+00  3.4743321258332128e-16 -4.6864339206575678e-01 0.0000000000000000e+00  2.2416078130011070e-16 -4.6864339206575717e-01 0.0000000000000000e+00  1.1680665953699390e-16 -4.6864339206575717e-01 0.0000000000000000e+00  1.1314720873839922e-32 -4.6864339206575700e-01 0.0000000000000000e+00  2.9360675793626910e-32 -5.0514667122454260e-01 0.0000000000000000e+00  1.2248796753568932e-16 -5.0514667122454282e-01 0.0000000000000000e+00  2.9057264325574568e-16 -5.0514667122454304e-01 0.0000000000000000e+00  3.7713466618280914e-16 -5.0514667122454260e-01 0.0000000000000000e+00  3.4706837528012592e-16 -5.0514667122454204e-01 0.0000000000000000e+00  4.0117930213261394e-16 -5.0514667122454104e-01 0.0000000000000000e+00  4.4277736115161233e-16 -5.0514667122454027e-01 0.0000000000000000e+00  3.8655436172237217e-16 -5.0514667122454082e-01 0.0000000000000000e+00  2.7159950564494951e-16 -5.0514667122454027e-01 0.0000000000000000e+00  9.5124832223532613e-17 -5.0514667122454104e-01 0.0000000000000000e+00  -1.2896852306164536e-32 -5.0514667122454093e-01 0.0000000000000000e+00  -1.0833355937178193e-32 -5.4174152609446069e-01 0.0000000000000000e+00  2.6414073264630890e-16 -5.4174152609446047e-01 0.0000000000000000e+00  4.1732047744083332e-16 -5.4174152609446091e-01 0.0000000000000000e+00  4.5861213259815607e-16 -5.4174152609445958e-01 0.0000000000000000e+00  3.9434858727565471e-16 -5.4174152609445980e-01 0.0000000000000000e+00  3.5944377986397601e-16 -5.4174152609445880e-01 0.0000000000000000e+00  4.6199189132775801e-16 -5.4174152609445880e-01 0.0000000000000000e+00  3.6353921691867975e-16 -5.4174152609445825e-01 0.0000000000000000e+00  2.6289905818376981e-16 -5.4174152609445847e-01 0.0000000000000000e+00  1.3483089206515162e-16 -5.4174152609445858e-01 0.0000000000000000e+00  3.6111186457260631e-33 -5.4174152609445869e-01 0.0000000000000000e+00  9.1514965796760034e-32 -5.7843133529175395e-01 0.0000000000000000e+00  3.0641383097098383e-16 -5.7843133529175383e-01 0.0000000000000000e+00  3.6268503786684190e-16 -5.7843133529175339e-01 0.0000000000000000e+00  4.9894541522775311e-16 -5.7843133529175339e-01 0.0000000000000000e+00  5.0196884705100420e-16 -5.7843133529175239e-01 0.0000000000000000e+00  4.7352503831532426e-16 -5.7843133529175272e-01 0.0000000000000000e+00  3.8845581979952049e-16 -5.7843133529175228e-01 0.0000000000000000e+00  2.5341186666650768e-16 -5.7843133529175150e-01 0.0000000000000000e+00  2.3098592852374126e-16 -5.7843133529175161e-01 0.0000000000000000e+00  1.5557939418515038e-16 -5.7843133529175184e-01 0.0000000000000000e+00  2.2181158221873161e-32 -5.7843133529175184e-01 0.0000000000000000e+00  -2.2569491535787915e-32 -6.1521889200766133e-01 0.0000000000000000e+00  1.5455160152490232e-16 -6.1521889200766067e-01 0.0000000000000000e+00  4.2267637496554695e-16 -6.1521889200766111e-01 0.0000000000000000e+00  5.4500274663294314e-16 -6.1521889200766000e-01 0.0000000000000000e+00  6.5963728400731410e-16 -6.1521889200765989e-01 0.0000000000000000e+00  5.3701251811851089e-16 -6.1521889200765933e-01 0.0000000000000000e+00  3.1147767761933938e-16 -6.1521889200765867e-01 0.0000000000000000e+00  2.3764442043974853e-16 -6.1521889200765911e-01 0.0000000000000000e+00  1.4330167426095591e-16 -6.1521889200765856e-01 0.0000000000000000e+00  4.7042669950585928e-17 -6.1521889200765878e-01 0.0000000000000000e+00  -7.2022488652344567e-33 -6.1521889200765856e-01 0.0000000000000000e+00  1.8055593228630331e-32 -6.5210638678746369e-01 0.0000000000000000e+00  8.3630928903363714e-17 -6.5210638678746413e-01 0.0000000000000000e+00  2.0755188803981857e-16 -6.5210638678746347e-01 0.0000000000000000e+00  3.8660255082911706e-16 -6.5210638678746324e-01 0.0000000000000000e+00  4.8556498601980677e-16 -6.5210638678746258e-01 0.0000000000000000e+00  4.5672225362928795e-16 -6.5210638678746191e-01 0.0000000000000000e+00  2.6588531907288473e-16 -6.5210638678746102e-01 0.0000000000000000e+00  1.4142174871254838e-16 -6.5210638678746113e-01 0.0000000000000000e+00  7.2133064214099015e-17 -6.5210638678746113e-01 0.0000000000000000e+00  -1.0445310641187168e-17 -6.5210638678746102e-01 0.0000000000000000e+00  -2.1279806305171456e-33 -6.5210638678746202e-01 0.0000000000000000e+00  1.8055593228630350e-32 -6.8909539402504638e-01 0.0000000000000000e+00  9.4792535781366944e-17 -6.8909539402504683e-01 0.0000000000000000e+00  -5.1674297309047848e-17 -6.8909539402504683e-01 0.0000000000000000e+00  -2.2964330238888087e-17 -6.8909539402504605e-01 0.0000000000000000e+00  6.2958951880370622e-17 -6.8909539402504560e-01 0.0000000000000000e+00  2.3682094799180880e-17 -6.8909539402504449e-01 0.0000000000000000e+00  1.0204634495291069e-16 -6.8909539402504350e-01 0.0000000000000000e+00  1.3331710424689110e-16 -6.8909539402504427e-01 0.0000000000000000e+00  9.6857547751915231e-17 -6.8909539402504372e-01 0.0000000000000000e+00  4.7987110020645612e-17 -6.8909539402504416e-01 0.0000000000000000e+00  1.3541694921472762e-33 -6.8909539402504372e-01 0.0000000000000000e+00  -4.5138983071575854e-33 -7.2618686225623641e-01 0.0000000000000000e+00  7.1088108443644066e-18 -7.2618686225623574e-01 0.0000000000000000e+00  -1.6315339291555549e-16 -7.2618686225623552e-01 0.0000000000000000e+00  -3.8063317012376503e-16 -7.2618686225623641e-01 0.0000000000000000e+00  -6.7970208950672360e-16 -7.2618686225623474e-01 0.0000000000000000e+00  -5.9134081787084934e-16 -7.2618686225623397e-01 0.0000000000000000e+00  -2.2996865821172462e-16 -7.2618686225623374e-01 0.0000000000000000e+00  8.1564250740806789e-17 -7.2618686225623374e-01 0.0000000000000000e+00  1.1554935521614293e-16 -7.2618686225623363e-01 0.0000000000000000e+00  1.4217621688728788e-16 -7.2618686225623386e-01 0.0000000000000000e+00  7.2222372914521290e-33 -7.2618686225623408e-01 0.0000000000000000e+00  1.3538043605829044e-17 -1.7916937626329801e-02 0.0000000000000000e+00  2.7095594819710441e-17 -1.7916937626329781e-02 0.0000000000000000e+00  3.7078279998263623e-17 -1.7916937626329781e-02 0.0000000000000000e+00  5.6214130918582093e-17 -1.7916937626329760e-02 0.0000000000000000e+00  6.4319465303110362e-17 -1.7916937626329742e-02 0.0000000000000000e+00  5.1893802689399085e-17 -1.7916937626329742e-02 0.0000000000000000e+00  3.2583939680513574e-17 -1.7916937626329742e-02 0.0000000000000000e+00  2.3457687345840257e-17 -1.7916937626329739e-02 0.0000000000000000e+00  8.6155269429741812e-18 -1.7916937626329735e-02 0.0000000000000000e+00  -2.1118797698117461e-18 -1.7916937626329746e-02 0.0000000000000000e+00  1.6682606696536425e-17 -5.3754848033306234e-02 0.0000000000000000e+00  5.4745570469335882e-17 -5.3754848033306185e-02 0.0000000000000000e+00  1.1159673980287705e-16 -5.3754848033306150e-02 0.0000000000000000e+00  1.3896952503754500e-16 -5.3754848033306102e-02 0.0000000000000000e+00  1.6423671140800776e-16 -5.3754848033306074e-02 0.0000000000000000e+00  1.4954388922706805e-16 -5.3754848033306019e-02 0.0000000000000000e+00  1.0189491965842291e-16 -5.3754848033305991e-02 0.0000000000000000e+00  6.9484762518772538e-17 -5.3754848033305984e-02 0.0000000000000000e+00  3.5211985985299661e-17 -5.3754848033305942e-02 0.0000000000000000e+00  8.7882467495694290e-18 -5.3754848033306012e-02 0.0000000000000000e+00  1.8324400926024222e-17 -8.9604839025165042e-02 0.0000000000000000e+00  7.7298766655232923e-17 -8.9604839025165015e-02 0.0000000000000000e+00  1.4318072276595532e-16 -8.9604839025164987e-02 0.0000000000000000e+00  1.8785265648095508e-16 -8.9604839025164904e-02 0.0000000000000000e+00  2.3582707279098526e-16 -8.9604839025164792e-02 0.0000000000000000e+00  2.1826634819972942e-16 -8.9604839025164626e-02 0.0000000000000000e+00  1.5284186130376846e-16 -8.9604839025164668e-02 0.0000000000000000e+00  1.1159673980287685e-16 -8.9604839025164612e-02 0.0000000000000000e+00  8.7744252668825523e-17 -8.9604839025164598e-02 0.0000000000000000e+00  3.6743119753150705e-17 -8.9604839025164723e-02 0.0000000000000000e+00  2.6177715608606043e-17 -1.2547488155164882e-01 0.0000000000000000e+00  1.0949114093867178e-16 -1.2547488155164885e-01 0.0000000000000000e+00  1.5160311822277642e-16 -1.2547488155164871e-01 0.0000000000000000e+00  2.2740467733416463e-16 -1.2547488155164868e-01 0.0000000000000000e+00  2.5688306143303771e-16 -1.2547488155164849e-01 0.0000000000000000e+00  2.2194783340172418e-16 -1.2547488155164824e-01 0.0000000000000000e+00  1.9328739573675500e-16 -1.2547488155164818e-01 0.0000000000000000e+00  1.6002551367959727e-16 -1.2547488155164824e-01 0.0000000000000000e+00  1.1092076886864094e-16 -1.2547488155164824e-01 0.0000000000000000e+00  5.1681917338712127e-17 -1.2547488155164824e-01 0.0000000000000000e+00  7.3297603704096877e-17 -1.6137282293812108e-01 0.0000000000000000e+00  1.6911171527303012e-16 -1.6137282293812094e-01 0.0000000000000000e+00  1.9371509550688074e-16 -1.6137282293812083e-01 0.0000000000000000e+00  2.3725329817784900e-16 -1.6137282293812075e-01 0.0000000000000000e+00  2.4424946824780604e-16 -1.6137282293812066e-01 0.0000000000000000e+00  2.7063777765252779e-16 -1.6137282293812025e-01 0.0000000000000000e+00  2.2456499761480454e-16 -1.6137282293812019e-01 0.0000000000000000e+00  1.9371509550688067e-16 -1.6137282293812030e-01 0.0000000000000000e+00  1.1507973167346484e-16 -1.613728229381