<?xml version="1.0"?>
<VTKFile type="UnstructuredGrid"  version="0.1"  >
<UnstructuredGrid>
<Piece  NumberOfPoints="1876" NumberOfCells="3600">
<Points>
<DataArray  type="Float64"  NumberOfComponents="3"  format="ascii">-0.75 -3 0  -0.65 -3 0  -0.55 -3 0  -0.45 -3 0  -0.35 -3 0  -0.25 -3 0  -0.15 -3 0  -0.05000000000000004 -3 0  0.05000000000000004 -3 0  0.15 -3 0  0.25 -3 0  0.3500000000000001 -3 0  0.45 -3 0  0.55 -3 0  0.6499999999999999 -3 0  0.75 -3 0  -0.75 -2.95 0  -0.65 -2.95 0  -0.55 -2.95 0  -0.45 -2.95 0  -0.35 -2.95 0  -0.25 -2.95 0  -0.15 -2.95 0  -0.05000000000000004 -2.95 0  0.05000000000000004 -2.95 0  0.15 -2.95 0  0.25 -2.95 0  0.3500000000000001 -2.95 0  0.45 -2.95 0  0.55 -2.95 0  0.6499999999999999 -2.95 0  0.75 -2.95 0  -0.75 -2.9 0  -0.65 -2.9 0  -0.55 -2.9 0  -0.45 -2.9 0  -0.35 -2.9 0  -0.25 -2.9 0  -0.15 -2.9 0  -0.05000000000000004 -2.9 0  0.05000000000000004 -2.9 0  0.15 -2.9 0  0.25 -2.9 0  0.3500000000000001 -2.9 0  0.45 -2.9 0  0.55 -2.9 0  0.6499999999999999 -2.9 0  0.75 -2.9 0  -0.75 -2.85 0  -0.65 -2.85 0  -0.55 -2.85 0  -0.45 -2.85 0  -0.35 -2.85 0  -0.25 -2.85 0  -0.15 -2.85 0  -0.05000000000000004 -2.85 0  0.05000000000000004 -2.85 0  0.15 -2.85 0  0.25 -2.85 0  0.3500000000000001 -2.85 0  0.45 -2.85 0  0.55 -2.85 0  0.6499999999999999 -2.85 0  0.75 -2.85 0  -0.75 -2.8 0  -0.65 -2.8 0  -0.55 -2.8 0  -0.45 -2.8 0  -0.35 -2.8 0  -0.25 -2.8 0  -0.15 -2.8 0  -0.05000000000000004 -2.8 0  0.05000000000000004 -2.8 0  0.15 -2.8 0  0.25 -2.8 0  0.3500000000000001 -2.8 0  0.45 -2.8 0  0.55 -2.8 0  0.6499999999999999 -2.8 0  0.75 -2.8 0  -0.75 -2.75 0  -0.65 -2.75 0  -0.55 -2.75 0  -0.45 -2.75 0  -0.35 -2.75 0  -0.25 -2.75 0  -0.15 -2.75 0  -0.05000000000000004 -2.75 0  0.05000000000000004 -2.75 0  0.15 -2.75 0  0.25 -2.75 0  0.3500000000000001 -2.75 0  0.45 -2.75 0  0.55 -2.75 0  0.6499999999999999 -2.75 0  0.75 -2.75 0  -0.75 -2.7 0  -0.65 -2.7 0  -0.55 -2.7 0  -0.45 -2.7 0  -0.35 -2.7 0  -0.25 -2.7 0  -0.15 -2.7 0  -0.05000000000000004 -2.7 0  0.05000000000000004 -2.7 0  0.15 -2.7 0  0.25 -2.7 0  0.3500000000000001 -2.7 0  0.45 -2.7 0  0.55 -2.7 0  0.6499999999999999 -2.7 0  0.75 -2.7 0  -0.75 -2.65 0  -0.65 -2.65 0  -0.55 -2.65 0  -0.45 -2.65 0  -0.35 -2.65 0  -0.25 -2.65 0  -0.15 -2.65 0  -0.05000000000000004 -2.65 0  0.05000000000000004 -2.65 0  0.15 -2.65 0  0.25 -2.65 0  0.3500000000000001 -2.65 0  0.45 -2.65 0  0.55 -2.65 0  0.6499999999999999 -2.65 0  0.75 -2.65 0  -0.75 -2.6 0  -0.65 -2.6 0  -0.55 -2.6 0  -0.45 -2.6 0  -0.35 -2.6 0  -0.25 -2.6 0  -0.15 -2.6 0  -0.05000000000000004 -2.6 0  0.05000000000000004 -2.6 0  0.15 -2.6 0  0.25 -2.6 0  0.3500000000000001 -2.6 0  0.45 -2.6 0  0.55 -2.6 0  0.6499999999999999 -2.6 0  0.75 -2.6 0  -0.75 -2.55 0  -0.65 -2.55 0  -0.55 -2.55 0  -0.45 -2.55 0  -0.35 -2.55 0  -0.25 -2.55 0  -0.15 -2.55 0  -0.05000000000000004 -2.55 0  0.05000000000000004 -2.55 0  0.15 -2.55 0  0.25 -2.55 0  0.3500000000000001 -2.55 0  0.45 -2.55 0  0.55 -2.55 0  0.6499999999999999 -2.55 0  0.75 -2.55 0  -0.75 -2.5 0  -0.65 -2.5 0  -0.55 -2.5 0  -0.45 -2.5 0  -0.35 -2.5 0  -0.25 -2.5 0  -0.15 -2.5 0  -0.05000000000000004 -2.5 0  0.05000000000000004 -2.5 0  0.15 -2.5 0  0.25 -2.5 0  0.3500000000000001 -2.5 0  0.45 -2.5 0  0.55 -2.5 0  0.6499999999999999 -2.5 0  0.75 -2.5 0  -0.75 -2.45 0  -0.65 -2.45 0  -0.55 -2.45 0  -0.45 -2.45 0  -0.35 -2.45 0  -0.25 -2.45 0  -0.15 -2.45 0  -0.05000000000000004 -2.45 0  0.05000000000000004 -2.45 0  0.15 -2.45 0  0.25 -2.45 0  0.3500000000000001 -2.45 0  0.45 -2.45 0  0.55 -2.45 0  0.6499999999999999 -2.45 0  0.75 -2.45 0  -0.75 -2.4 0  -0.65 -2.4 0  -0.55 -2.4 0  -0.45 -2.4 0  -0.35 -2.4 0  -0.25 -2.4 0  -0.15 -2.4 0  -0.05000000000000004 -2.4 0  0.05000000000000004 -2.4 0  0.15 -2.4 0  0.25 -2.4 0  0.3500000000000001 -2.4 0  0.45 -2.4 0  0.55 -2.4 0  0.6499999999999999 -2.4 0  0.75 -2.4 0  -0.75 -2.35 0  -0.65 -2.35 0  -0.55 -2.35 0  -0.45 -2.35 0  -0.35 -2.35 0  -0.25 -2.35 0  -0.15 -2.35 0  -0.05000000000000004 -2.35 0  0.05000000000000004 -2.35 0  0.15 -2.35 0  0.25 -2.35 0  0.3500000000000001 -2.35 0  0.45 -2.35 0  0.55 -2.35 0  0.6499999999999999 -2.35 0  0.75 -2.35 0  -0.75 -2.3 0  -0.65 -2.3 0  -0.55 -2.3 0  -0.45 -2.3 0  -0.35 -2.3 0  -0.25 -2.3 0  -0.15 -2.3 0  -0.05000000000000004 -2.3 0  0.05000000000000004 -2.3 0  0.15 -2.3 0  0.25 -2.3 0  0.3500000000000001 -2.3 0  0.45 -2.3 0  0.55 -2.3 0  0.6499999999999999 -2.3 0  0.75 -2.3 0  -0.75 -2.25 0  -0.65 -2.25 0  -0.55 -2.25 0  -0.45 -2.25 0  -0.35 -2.25 0  -0.25 -2.25 0  -0.15 -2.25 0  -0.05000000000000004 -2.25 0  0.05000000000000004 -2.25 0  0.15 -2.25 0  0.25 -2.25 0  0.3500000000000001 -2.25 0  0.45 -2.25 0  0.55 -2.25 0  0.6499999999999999 -2.25 0  0.75 -2.25 0  -0.75 -2.2 0  -0.65 -2.2 0  -0.55 -2.2 0  -0.45 -2.2 0  -0.35 -2.2 0  -0.25 -2.2 0  -0.15 -2.2 0  -0.05000000000000004 -2.2 0  0.05000000000000004 -2.2 0  0.15 -2.2 0  0.25 -2.2 0  0.3500000000000001 -2.2 0  0.45 -2.2 0  0.55 -2.2 0  0.6499999999999999 -2.2 0  0.75 -2.2 0  -0.75 -2.15 0  -0.65 -2.15 0  -0.55 -2.15 0  -0.45 -2.15 0  -0.35 -2.15 0  -0.25 -2.15 0  -0.15 -2.15 0  -0.05000000000000004 -2.15 0  0.05000000000000004 -2.15 0  0.15 -2.15 0  0.25 -2.15 0  0.3500000000000001 -2.15 0  0.45 -2.15 0  0.55 -2.15 0  0.6499999999999999 -2.15 0  0.75 -2.15 0  -0.75 -2.1 0  -0.65 -2.1 0  -0.55 -2.1 0  -0.45 -2.1 0  -0.35 -2.1 0  -0.25 -2.1 0  -0.15 -2.1 0  -0.05000000000000004 -2.1 0  0.05000000000000004 -2.1 0  0.15 -2.1 0  0.25 -2.1 0  0.3500000000000001 -2.1 0  0.45 -2.1 0  0.55 -2.1 0  0.6499999999999999 -2.1 0  0.75 -2.1 0  -0.75 -2.05 0  -0.65 -2.05 0  -0.55 -2.05 0  -0.45 -2.05 0  -0.35 -2.05 0  -0.25 -2.05 0  -0.15 -2.05 0  -0.05000000000000004 -2.05 0  0.05000000000000004 -2.05 0  0.15 -2.05 0  0.25 -2.05 0  0.3500000000000001 -2.05 0  0.45 -2.05 0  0.55 -2.05 0  0.6499999999999999 -2.05 0  0.75 -2.05 0  -0.75 -2 0  -0.65 -2 0  -0.55 -2 0  -0.45 -2 0  -0.35 -2 0  -0.25 -2 0  -0.15 -2 0  -0.05000000000000004 -2 0  0.05000000000000004 -2 0  0.15 -2 0  0.25 -2 0  0.3500000000000001 -2 0  0.45 -2 0  0.55 -2 0  0.6499999999999999 -2 0  0.75 -2 0  -0.75 -1.95 0  -0.65 -1.95 0  -0.55 -1.95 0  -0.45 -1.95 0  -0.35 -1.95 0  -0.25 -1.95 0  -0.15 -1.95 0  -0.05000000000000004 -1.95 0  0.05000000000000004 -1.95 0  0.15 -1.95 0  0.25 -1.95 0  0.3500000000000001 -1.95 0  0.45 -1.95 0  0.55 -1.95 0  0.6499999999999999 -1.95 0  0.75 -1.95 0  -0.75 -1.9 0  -0.65 -1.9 0  -0.55 -1.9 0  -0.45 -1.9 0  -0.35 -1.9 0  -0.25 -1.9 0  -0.15 -1.9 0  -0.05000000000000004 -1.9 0  0.05000000000000004 -1.9 0  0.15 -1.9 0  0.25 -1.9 0  0.3500000000000001 -1.9 0  0.45 -1.9 0  0.55 -1.9 0  0.6499999999999999 -1.9 0  0.75 -1.9 0  -0.75 -1.85 0  -0.65 -1.85 0  -0.55 -1.85 0  -0.45 -1.85 0  -0.35 -1.85 0  -0.25 -1.85 0  -0.15 -1.85 0  -0.05000000000000004 -1.85 0  0.05000000000000004 -1.85 0  0.15 -1.85 0  0.25 -1.85 0  0.3500000000000001 -1.85 0  0.45 -1.85 0  0.55 -1.85 0  0.6499999999999999 -1.85 0  0.75 -1.85 0  -0.75 -1.8 0  -0.65 -1.8 0  -0.55 -1.8 0  -0.45 -1.8 0  -0.35 -1.8 0  -0.25 -1.8 0  -0.15 -1.8 0  -0.05000000000000004 -1.8 0  0.05000000000000004 -1.8 0  0.15 -1.8 0  0.25 -1.8 0  0.3500000000000001 -1.8 0  0.45 -1.8 0  0.55 -1.8 0  0.6499999999999999 -1.8 0  0.75 -1.8 0  -0.75 -1.75 0  -0.65 -1.75 0  -0.55 -1.75 0  -0.45 -1.75 0  -0.35 -1.75 0  -0.25 -1.75 0  -0.15 -1.75 0  -0.05000000000000004 -1.75 0  0.05000000000000004 -1.75 0  0.15 -1.75 0  0.25 -1.75 0  0.3500000000000001 -1.75 0  0.45 -1.75 0  0.55 -1.75 0  0.6499999999999999 -1.75 0  0.75 -1.75 0  -0.75 -1.7 0  -0.65 -1.7 0  -0.55 -1.7 0  -0.45 -1.7 0  -0.35 -1.7 0  -0.25 -1.7 0  -0.15 -1.7 0  -0.05000000000000004 -1.7 0  0.05000000000000004 -1.7 0  0.15 -1.7 0  0.25 -1.7 0  0.3500000000000001 -1.7 0  0.45 -1.7 0  0.55 -1.7 0  0.6499999999999999 -1.7 0  0.75 -1.7 0  -0.75 -1.65 0  -0.65 -1.65 0  -0.55 -1.65 0  -0.45 -1.65 0  -0.35 -1.65 0  -0.25 -1.65 0  -0.15 -1.65 0  -0.05000000000000004 -1.65 0  0.05000000000000004 -1.65 0  0.15 -1.65 0  0.25 -1.65 0  0.3500000000000001 -1.65 0  0.45 -1.65 0  0.55 -1.65 0  0.6499999999999999 -1.65 0  0.75 -1.65 0  -0.75 -1.6 0  -0.65 -1.6 0  -0.55 -1.6 0  -0.45 -1.6 0  -0.35 -1.6 0  -0.25 -1.6 0  -0.15 -1.6 0  -0.05000000000000004 -1.6 0  0.05000000000000004 -1.6 0  0.15 -1.6 0  0.25 -1.6 0  0.3500000000000001 -1.6 0  0.45 -1.6 0  0.55 -1.6 0  0.6499999999999999 -1.6 0  0.75 -1.6 0  -0.75 -1.55 0  -0.65 -1.55 0  -0.55 -1.55 0  -0.45 -1.55 0  -0.35 -1.55 0  -0.25 -1.55 0  -0.15 -1.55 0  -0.05000000000000004 -1.55 0  0.05000000000000004 -1.55 0  0.15 -1.55 0  0.25 -1.55 0  0.3500000000000001 -1.55 0  0.45 -1.55 0  0.55 -1.55 0  0.6499999999999999 -1.55 0  0.75 -1.55 0  -0.75 -1.5 0  -0.65 -1.5 0  -0.55 -1.5 0  -0.45 -1.5 0  -0.35 -1.5 0  -0.25 -1.5 0  -0.15 -1.5 0  -0.05000000000000004 -1.5 0  0.05000000000000004 -1.5 0  0.15 -1.5 0  0.25 -1.5 0  0.3500000000000001 -1.5 0  0.45 -1.5 0  0.55 -1.5 0  0.6499999999999999 -1.5 0  0.75 -1.5 0  -0.75 -1.45 0  -0.65 -1.45 0  -0.55 -1.45 0  -0.45 -1.45 0  -0.35 -1.45 0  -0.25 -1.45 0  -0.15 -1.45 0  -0.05000000000000004 -1.45 0  0.05000000000000004 -1.45 0  0.15 -1.45 0  0.25 -1.45 0  0.3500000000000001 -1.45 0  0.45 -1.45 0  0.55 -1.45 0  0.6499999999999999 -1.45 0  0.75 -1.45 0  -0.75 -1.4 0  -0.65 -1.4 0  -0.55 -1.4 0  -0.45 -1.4 0  -0.35 -1.4 0  -0.25 -1.4 0  -0.15 -1.4 0  -0.05000000000000004 -1.4 0  0.05000000000000004 -1.4 0  0.15 -1.4 0  0.25 -1.4 0  0.3500000000000001 -1.4 0  0.45 -1.4 0  0.55 -1.4 0  0.6499999999999999 -1.4 0  0.75 -1.4 0  -0.75 -1.35 0  -0.65 -1.35 0  -0.55 -1.35 0  -0.45 -1.35 0  -0.35 -1.35 0  -0.25 -1.35 0  -0.15 -1.35 0  -0.05000000000000004 -1.35 0  0.05000000000000004 -1.35 0  0.15 -1.35 0  0.25 -1.35 0  0.3500000000000001 -1.35 0  0.45 -1.35 0  0.55 -1.35 0  0.6499999999999999 -1.35 0  0.75 -1.35 0  -0.75 -1.3 0  -0.65 -1.3 0  -0.55 -1.3 0  -0.45 -1.3 0  -0.35 -1.3 0  -0.25 -1.3 0  -0.15 -1.3 0  -0.05000000000000004 -1.3 0  0.05000000000000004 -1.3 0  0.15 -1.3 0  0.25 -1.3 0  0.3500000000000001 -1.3 0  0.45 -1.3 0  0.55 -1.3 0  0.6499999999999999 -1.
[...]
<PointData  Vectors="displacement"> 
<DataArray  type="Float64"  Name="displacement"  NumberOfComponents="3" format="ascii">4.2317796629602281e-35 -3.1763735522036353e-20 0.0000000000000000e+00  6.6706917763021710e-36 5.7075462266159113e-21 0.0000000000000000e+00  2.5390677977761496e-34 -2.1837568171400006e-20 0.0000000000000000e+00  -7.9345868680504674e-35 -5.0871607672011375e-21 0.0000000000000000e+00  7.3350847491310980e-34 7.9409338805090913e-21 0.0000000000000000e+00  -2.7637449849470255e-34 -3.3746401330553711e-20 0.0000000000000000e+00  3.9496610187629006e-34 -7.9409338805090943e-21 0.0000000000000000e+00  1.1143642663135981e-33 4.9812635232717194e-22 0.0000000000000000e+00  1.1284745767893996e-34 -1.9852334701272727e-20 0.0000000000000000e+00  -1.6939477390067520e-34 2.1888885287633902e-20 0.0000000000000000e+00  2.2569491535787980e-34 -2.3822801641527260e-20 0.0000000000000000e+00  -2.3975952159447654e-35 9.9555205493752860e-21 0.0000000000000000e+00  -4.2317796629602487e-34 1.9852334701272728e-21 0.0000000000000000e+00  6.7939364294166621e-34 2.4567264192824991e-20 0.0000000000000000e+00  -5.9244915281443538e-34 -3.1763735522036395e-20 0.0000000000000000e+00  1.9748305093814477e-34 1.5881867761018170e-20 0.0000000000000000e+00  -1.1284745767893919e-34 -1.4912280701752533e-04 0.0000000000000000e+00  7.2297540262729953e-19 -1.4912280701752582e-04 0.0000000000000000e+00  1.5336167082126300e-18 -1.4912280701752595e-04 0.0000000000000000e+00  2.4844045936942456e-18 -1.4912280701752593e-04 0.0000000000000000e+00  3.3108785761059131e-18 -1.4912280701752552e-04 0.0000000000000000e+00  4.3369052260161646e-18 -1.4912280701752514e-04 0.0000000000000000e+00  5.1691561486550537e-18 -1.4912280701752435e-04 0.0000000000000000e+00  5.3793806234349705e-18 -1.4912280701752338e-04 0.0000000000000000e+00  5.5934185266043587e-18 -1.4912280701752235e-04 0.0000000000000000e+00  4.9686890017884143e-18 -1.4912280701752162e-04 0.0000000000000000e+00  4.2161707281483303e-18 -1.4912280701752107e-04 0.0000000000000000e+00  3.8435947038135876e-18 -1.4912280701752069e-04 0.0000000000000000e+00  3.0906358742067044e-18 -1.4912280701752004e-04 0.0000000000000000e+00  2.0862005271969830e-18 -1.4912280701751983e-04 0.0000000000000000e+00  1.0734750942233877e-18 -1.4912280701751953e-04 0.0000000000000000e+00  -3.8791528897910282e-34 -1.4912280701751958e-04 0.0000000000000000e+00  3.5617478829915337e-34 -2.9824561403505310e-04 0.0000000000000000e+00  1.3902807491247544e-18 -2.9824561403505315e-04 0.0000000000000000e+00  2.9080667639916746e-18 -2.9824561403505331e-04 0.0000000000000000e+00  4.6493888109259339e-18 -2.9824561403505277e-04 0.0000000000000000e+00  6.4061411324782984e-18 -2.9824561403505266e-04 0.0000000000000000e+00  7.9425946020251990e-18 -2.9824561403505228e-04 0.0000000000000000e+00  9.3787560830309811e-18 -2.9824561403505012e-04 0.0000000000000000e+00  1.0042701053908373e-17 -2.9824561403504833e-04 0.0000000000000000e+00  1.0026505774843954e-17 -2.9824561403504583e-04 0.0000000000000000e+00  9.2074856785800467e-18 -2.9824561403504432e-04 0.0000000000000000e+00  8.0151495419075541e-18 -2.9824561403504339e-04 0.0000000000000000e+00  7.0952602082866354e-18 -2.9824561403504220e-04 0.0000000000000000e+00  5.7328781998662439e-18 -2.9824561403504139e-04 0.0000000000000000e+00  3.7596915746403044e-18 -2.9824561403504052e-04 0.0000000000000000e+00  1.8840334791680243e-18 -2.9824561403503965e-04 0.0000000000000000e+00  2.1360411632084993e-34 -2.9824561403503987e-04 0.0000000000000000e+00  -5.0781355955522855e-34 -4.4736842105257927e-04 0.0000000000000000e+00  2.1640022095072292e-18 -4.4736842105257970e-04 0.0000000000000000e+00  4.0796941691002119e-18 -4.4736842105258046e-04 0.0000000000000000e+00  6.5646164795059963e-18 -4.4736842105257894e-04 0.0000000000000000e+00  9.1108449139921831e-18 -4.4736842105257867e-04 0.0000000000000000e+00  1.1040183775787747e-17 -4.4736842105257780e-04 0.0000000000000000e+00  1.2874684479581780e-17 -4.4736842105257515e-04 0.0000000000000000e+00  1.3954900402776705e-17 -4.4736842105257151e-04 0.0000000000000000e+00  1.3782204569585030e-17 -4.4736842105256859e-04 0.0000000000000000e+00  1.2679566753165656e-17 -4.4736842105256588e-04 0.0000000000000000e+00  1.1369187944501889e-17 -4.4736842105256425e-04 0.0000000000000000e+00  9.8287867891630793e-18 -4.4736842105256322e-04 0.0000000000000000e+00  7.9418970067365632e-18 -4.4736842105256062e-04 0.0000000000000000e+00  5.1667432507421714e-18 -4.4736842105255959e-04 0.0000000000000000e+00  2.4781739958861131e-18 -4.4736842105255932e-04 0.0000000000000000e+00  -6.2066101723416806e-34 -4.4736842105255818e-04 0.0000000000000000e+00  3.4507700040000606e-34 -5.9649122807010750e-04 0.0000000000000000e+00  2.6776220629787099e-18 -5.9649122807010706e-04 0.0000000000000000e+00  5.2833094468106878e-18 -5.9649122807010771e-04 0.0000000000000000e+00  8.2427578372305787e-18 -5.9649122807010782e-04 0.0000000000000000e+00  1.1187676758017934e-17 -5.9649122807010609e-04 0.0000000000000000e+00  1.3468521924350360e-17 -5.9649122807010522e-04 0.0000000000000000e+00  1.5750153553974068e-17 -5.9649122807010077e-04 0.0000000000000000e+00  1.7258649711763370e-17 -5.9649122807009709e-04 0.0000000000000000e+00  1.6811549162108490e-17 -5.9649122807009178e-04 0.0000000000000000e+00  1.5526988797080063e-17 -5.9649122807008906e-04 0.0000000000000000e+00  1.4335801281678799e-17 -5.9649122807008657e-04 0.0000000000000000e+00  1.2191411327405365e-17 -5.9649122807008429e-04 0.0000000000000000e+00  9.6708169467460036e-18 -5.9649122807008223e-04 0.0000000000000000e+00  6.3653861779492084e-18 -5.9649122807008017e-04 0.0000000000000000e+00  3.0912186760741693e-18 -5.9649122807007833e-04 0.0000000000000000e+00  4.0068482941561108e-34 -5.9649122807007844e-04 0.0000000000000000e+00  -4.5138983071575969e-34 -7.4561403508763421e-04 0.0000000000000000e+00  3.0919843501533662e-18 -7.4561403508763410e-04 0.0000000000000000e+00  6.2409701441753800e-18 -7.4561403508763453e-04 0.0000000000000000e+00  9.6493551595548812e-18 -7.4561403508763334e-04 0.0000000000000000e+00  1.2819046075233484e-17 -7.4561403508763269e-04 0.0000000000000000e+00  1.5703371627257596e-17 -7.4561403508763117e-04 0.0000000000000000e+00  1.8329070076947260e-17 -7.4561403508762618e-04 0.0000000000000000e+00  1.9681509267479595e-17 -7.4561403508762087e-04 0.0000000000000000e+00  1.9270472395245541e-17 -7.4561403508761426e-04 0.0000000000000000e+00  1.8237665879240647e-17 -7.4561403508761068e-04 0.0000000000000000e+00  1.6521562720396499e-17 -7.4561403508760710e-04 0.0000000000000000e+00  1.4029402911372208e-17 -7.4561403508760407e-04 0.0000000000000000e+00  1.0963153090462494e-17 -7.4561403508760201e-04 0.0000000000000000e+00  7.3735277287292871e-18 -7.4561403508759854e-04 0.0000000000000000e+00  3.7994710581379563e-18 -7.4561403508759713e-04 0.0000000000000000e+00  -8.0062185550536952e-35 -7.4561403508759637e-04 0.0000000000000000e+00  1.2677177084585789e-33 -8.9473684210516038e-04 0.0000000000000000e+00  3.2115296407941083e-18 -8.9473684210516103e-04 0.0000000000000000e+00  6.9458610771189419e-18 -8.9473684210516179e-04 0.0000000000000000e+00  1.0743646690123804e-17 -8.9473684210515962e-04 0.0000000000000000e+00  1.4144232465904815e-17 -8.9473684210515864e-04 0.0000000000000000e+00  1.7636628701313747e-17 -8.9473684210515615e-04 0.0000000000000000e+00  2.0444682886367124e-17 -8.9473684210515214e-04 0.0000000000000000e+00  2.1494001598207644e-17 -8.9473684210514314e-04 0.0000000000000000e+00  2.1156158290144259e-17 -8.9473684210513718e-04 0.0000000000000000e+00  2.0313996210512670e-17 -8.9473684210513110e-04 0.0000000000000000e+00  1.8036071434318116e-17 -8.9473684210512828e-04 0.0000000000000000e+00  1.5416119978377315e-17 -8.9473684210512330e-04 0.0000000000000000e+00  1.2285852343387154e-17 -8.9473684210512070e-04 0.0000000000000000e+00  8.5505559469768187e-18 -8.9473684210511723e-04 0.0000000000000000e+00  4.3327886743744645e-18 -8.9473684210511603e-04 0.0000000000000000e+00  1.6524092017273268e-34 -8.9473684210511430e-04 0.0000000000000000e+00  -4.5138983071575875e-34 -1.0438596491226886e-03 0.0000000000000000e+00  3.4977611686220820e-18 -1.0438596491226886e-03 0.0000000000000000e+00  7.7317165219118449e-18 -1.0438596491226899e-03 0.0000000000000000e+00  1.1803757536419040e-17 -1.0438596491226871e-03 0.0000000000000000e+00  1.5361935563193680e-17 -1.0438596491226862e-03 0.0000000000000000e+00  1.8994282851551897e-17 -1.0438596491226854e-03 0.0000000000000000e+00  2.1734288452844743e-17 -1.0438596491226765e-03 0.0000000000000000e+00  2.2927798665230202e-17 -1.0438596491226682e-03 0.0000000000000000e+00  2.2744977278449532e-17 -1.0438596491226600e-03 0.0000000000000000e+00  2.1679101813511960e-17 -1.0438596491226546e-03 0.0000000000000000e+00  1.9392101915339937e-17 -1.0438596491226504e-03 0.0000000000000000e+00  1.6777952028237843e-17 -1.0438596491226446e-03 0.0000000000000000e+00  1.3441861678028660e-17 -1.0438596491226409e-03 0.0000000000000000e+00  9.2520751234220250e-18 -1.0438596491226376e-03 0.0000000000000000e+00  4.4890818932461398e-18 -1.0438596491226355e-03 0.0000000000000000e+00  -7.3350847491310783e-34 -1.0438596491226335e-03 0.0000000000000000e+00  6.2029718359548473e-34 -1.1929824561402150e-03 0.0000000000000000e+00  4.1508270076336331e-18 -1.1929824561402150e-03 0.0000000000000000e+00  8.2581657916333706e-18 -1.1929824561402176e-03 0.0000000000000000e+00  1.2487437398250141e-17 -1.1929824561402137e-03 0.0000000000000000e+00  1.6767579691078881e-17 -1.1929824561402139e-03 0.0000000000000000e+00  1.9979080513861990e-17 -1.1929824561402102e-03 0.0000000000000000e+00  2.2447223214719275e-17 -1.1929824561402018e-03 0.0000000000000000e+00  2.3944250262596424e-17 -1.1929824561401911e-03 0.0000000000000000e+00  2.3912614999079708e-17 -1.1929824561401822e-03 0.0000000000000000e+00  2.2327116309071716e-17 -1.1929824561401777e-03 0.0000000000000000e+00  2.0595429139065035e-17 -1.1929824561401701e-03 0.0000000000000000e+00  1.7609887565562501e-17 -1.1929824561401656e-03 0.0000000000000000e+00  1.4614612863767590e-17 -1.1929824561401603e-03 0.0000000000000000e+00  9.6108793456267882e-18 -1.1929824561401562e-03 0.0000000000000000e+00  4.3212395251380216e-18 -1.1929824561401547e-03 0.0000000000000000e+00  3.0297721915721186e-34 -1.1929824561401525e-03 0.0000000000000000e+00  -1.1284745767893919e-34 -1.3421052631577431e-03 0.0000000000000000e+00  4.3713902403522167e-18 -1.3421052631577425e-03 0.0000000000000000e+00  8.5887073479611381e-18 -1.3421052631577453e-03 0.0000000000000000e+00  1.3131842745151810e-17 -1.3421052631577448e-03 0.0000000000000000e+00  1.7693460165638545e-17 -1.3421052631577418e-03 0.0000000000000000e+00  2.0482074227124244e-17 -1.3421052631577377e-03 0.0000000000000000e+00  2.2926788566520071e-17 -1.3421052631577271e-03 0.0000000000000000e+00  2.4881933324268434e-17 -1.3421052631577156e-03 0.0000000000000000e+00  2.4434982579628704e-17 -1.3421052631577054e-03 0.0000000000000000e+00  2.2776171084638770e-17 -1.3421052631576980e-03 0.0000000000000000e+00  2.1450245271940360e-17 -1.3421052631576922e-03 0.0000000000000000e+00  1.8576244338714971e-17 -1.3421052631576846e-03 0.0000000000000000e+00  1.5275490149674715e-17 -1.3421052631576813e-03 0.0000000000000000e+00  9.8144064380840454e-18 -1.3421052631576768e-03 0.0000000000000000e+00  4.2438508763874323e-18 -1.3421052631576724e-03 0.0000000000000000e+00  -1.0819522531906494e-33 -1.3421052631576720e-03 0.0000000000000000e+00  -7.0583725904605428e-35 -1.4912280701752719e-03 0.0000000000000000e+00  4.3884514081068427e-18 -1.4912280701752715e-03 0.0000000000000000e+00  9.3143595374276189e-18 -1.4912280701752736e-03 0.0000000000000000e+00  1.3892205920525078e-17 -1.4912280701752704e-03 0.0000000000000000e+00  1.7868393377425013e-17 -1.4912280701752684e-03 0.0000000000000000e+00  2.0859223914624242e-17 -1.4912280701752626e-03 0.0000000000000000e+00  2.3393641023184630e-17 -1.4912280701752554e-03 0.0000000000000000e+00  2.5378105999941315e-17 -1.4912280701752391e-03 0.0000000000000000e+00  2.4994258948989289e-17 -1.4912280701752287e-03 0.0000000000000000e+00  2.3394532812081442e-17 -1.4912280701752211e-03 0.0000000000000000e+00  2.1764484059509513e-17 -1.4912280701752136e-03 0.0000000000000000e+00  1.8901262496574301e-17 -1.4912280701752021e-03 0.0000000000000000e+00  1.5093607714811154e-17 -1.4912280701752012e-03 0.0000000000000000e+00  9.9998300096097931e-18 -1.4912280701751938e-03 0.0000000000000000e+00  4.7105670785523355e-18 -1.4912280701751910e-03 0.0000000000000000e+00  -2.5390677977761457e-34 -1.4912280701751899e-03 0.0000000000000000e+00  3.3854237303681760e-34 -1.6403508771927959e-03 0.0000000000000000e+00  4.1379833612611146e-18 -1.6403508771927985e-03 0.0000000000000000e+00  9.6934693885952267e-18 -1.6403508771927998e-03 0.0000000000000000e+00  1.4238647153903833e-17 -1.6403508771927976e-03 0.0000000000000000e+00  1.7970020720663934e-17 -1.6403508771927935e-03 0.0000000000000000e+00  2.1197164970268837e-17 -1.6403508771927887e-03 0.0000000000000000e+00  2.3971123268715153e-17 -1.6403508771927785e-03 0.0000000000000000e+00  2.5472870304295084e-17 -1.6403508771927653e-03 0.0000000000000000e+00  2.5351699049178987e-17 -1.6403508771927508e-03 0.0000000000000000e+00  2.4329937336786677e-17 -1.6403508771927423e-03 0.0000000000000000e+00  2.1085766829067325e-17 -1.6403508771927343e-03 0.0000000000000000e+00  1.8900667752133694e-17 -1.6403508771927219e-03 0.0000000000000000e+00  1.5278046504779349e-17 -1.6403508771927206e-03 0.0000000000000000e+00  1.0165266953785838e-17 -1.6403508771927131e-03 0.0000000000000000e+00  5.1433958214912491e-18 -1.6403508771927091e-03 0.0000000000000000e+00  3.9496610187628706e-34 -1.6403508771927081e-03 0.0000000000000000e+00  -6.7861086030135118e-34 -1.7894736842103257e-03 0.0000000000000000e+00  4.3819398109375921e-18 -1.7894736842103264e-03 0.0000000000000000e+00  9.5999561111149886e-18 -1.7894736842103281e-03 0.0000000000000000e+00  1.4012426666172420e-17 -1.7894736842103251e-03 0.0000000000000000e+00  1.8105281367918807e-17 -1.7894736842103210e-03 0.0000000000000000e+00  2.1041311659723480e-17 -1.7894736842103153e-03 0.0000000000000000e+00  2.4134481659553342e-17 -1.7894736842103045e-03 0.0000000000000000e+00  2.5814190770495842e-17 -1.7894736842102902e-03 0.0000000000000000e+00  2.5479114171557933e-17 -1.7894736842102763e-03 0.0000000000000000e+00  2.4450749366196644e-17 -1.7894736842102672e-03 0.0000000000000000e+00  2.0748910074888554e-17 -1.7894736842102572e-03 0.0000000000000000e+00  1.8868956443005811e-17 -1.7894736842102466e-03 0.0000000000000000e+00  1.5693503235853545e-17 -1.7894736842102392e-03 0.0000000000000000e+00  1.0394530038176231e-17 -1.7894736842102334e-03 0.0000000000000000e+00  5.2359401038294753e-18 -1.7894736842102288e-03 0.0000000000000000e+00  1.8288857114105890e-34 -1.7894736842102264e-03 0.0000000000000000e+00  -6.2066101723416832e-34 -1.9385964912278519e-03 0.0000000000000000e+00  5.3496161467387698e-18 -1.9385964912278543e-03 0.0000000000000000e+00  9.3674909827610475e-18 -1.9385964912278536e-03 0.0000000000000000e+00  1.4081702533285025e-17 -1.9385964912278519e-03 0.0000000000000000e+00  1.8113824418436587e-17 -1.9385964912278469e-03 0.0000000000000000e+00  2.1056785719052111e-17 -1.9385964912278443e-03 0.0000000000000000e+00  2.3972234976867029e-17 -1.9385964912278287e-03 0.0000000000000000e+00  2.5608532313561767e-17 -1.9385964912278142e-03 0.0000000000000000e+00  2.5851432451259540e-17 -1.9385964912277992e-03 0.0000000000000000e+00  2.3907279169816283e-17 -1.9385964912277882e-03 0.0000000000000000e+00  2.1422976541344469e-17 -1.9385964912277767e-03 0.0000000000000000e+00  1.8600862079513433e-17 -1.9385964912277665e-03 0.0000000000000000e+00  1.5750161814538288e-17 -1.9385964912277589e-03 0.0000000000000000e+00  1.0562506104037864e-17 -1.9385964912277515e-03 0.0000000000000000e+00  4.6544181601133108e-18 -1.9385964912277472e-03 0.0000000000000000e+00  -9.8057558846967249e-34 -1.9385964912277485e-03 0.0000000000000000e+00  -2.9606616017634285e-34 -2.0877192982453815e-03 0.0000000000000000e+00  5.2542305633033658e-18 -2.0877192982453798e-03 0.0000000000000000e+00  9.9763954526867470e-18 -2.0877192982453811e-03 0.0000000000000000e+00  1.4501426187766280e-17 -2.0877192982453789e-03 0.0000000000000000e+00  1.8462942125703878e-17 -2.0877192982453763e-03 0.0000000000000000e+00  2.0878373907777527e-17 -2.0877192982453672e-03 0.0000000000000000e+00  2.3747455334489726e-17 -2.0877192982453568e-03 0.0000000000000000e+00  2.5743857819808891e-17 -2.0877192982453399e-03 0.0000000000000000e+00  2.5196885108852086e-17 -2.0877192982453243e-03 0.0000000000000000e+00  2.3516652154142551e-17 -2.0877192982453126e-03 0.0000000000000000e+00  2.2049812433248977e-17 -2.0877192982453005e-03 0.0000000000000000e+00  1.8782916415557581e-17 -2.0877192982452887e-03 0.0000000000000000e+00  1.4868512777930499e-17 -2.0877192982452835e-03 0.0000000000000000e+00  1.0304102587259108e-17 -2.0877192982452731e-03 0.0000000000000000e+00  4.7542871461362612e-18 -2.0877192982452697e-03 0.0000000000000000e+00  -7.0126634414769333e-34 -2.0877192982452653e-03 0.0000000000000000e+00  5.0781355955522966e-34 -2.2368421052629097e-03 0.0000000000000000e+00  5.9564339062423797e-18 -2.2368421052629101e-03 0.0000000000000000e+00  1.0787088051933126e-17 -2.2368421052629092e-03 0.0000000000000000e+00  1.5219941245517845e-17 -2.2368421052629040e-03 0.0000000000000000e+00  1.8377960623121136e-17 -2.2368421052629001e-03 0.0000000000000000e+00  2.0888651118850030e-17 -2.2368421052628984e-03 0.0000000000000000e+00  2.3522991876384058e-17 -2.2368421052628797e-03 0.0000000000000000e+00  2.4759814676885116e-17 -2.2368421052628654e-03 0.0000000000000000e+00  2.4999067362716941e-17 -2.2368421052628459e-03 0.0000000000000000e+00  2.3706820269361240e-17 -2.2368421052628342e-03 0.0000000000000000e+00  2.1858724238716095e-17 -2.2368421052628251e-03 0.0000000000000000e+00  1.8571738457972959e-17 -2.2368421052628073e-03 0.0000000000000000e+00  1.4844873728855759e-17 -2.2368421052628047e-03 0.0000000000000000e+00  9.8047964944316633e-18 -2.2368421052627913e-03 0.0000000000000000e+00  5.0825267893853723e-18 -2.2368421052627882e-03 0.0000000000000000e+00  3.3854237303681970e-34 -2.2368421052627865e-03 0.0000000000000000e+00  -1.1844624277529206e-33 -2.3859649122804374e-03 0.0000000000000000e+00  6.0098636293749565e-18 -2.3859649122804391e-03 0.0000000000000000e+00  1.1865313551459045e-17 -2.3859649122804330e-03 0.0000000000000000e+00  1.5904492797463160e-17 -2.3859649122804274e-03 0.0000000000000000e+00  1.8385460439246389e-17 -2.3859649122804265e-03 0.0000000000000000e+00  2.1229261598044990e-17 -2.3859649122804217e-03 0.0000000000000000e+00  2.3392999080196374e-17 -2.3859649122804066e-03 0.0000000000000000e+00  2.4025356115951239e-17 -2.3859649122803888e-03 0.0000000000000000e+00  2.3909296551250434e-17 -2.3859649122803710e-03 0.0000000000000000e+00  2.4457360109974805e-17 -2.3859649122803550e-03 0.0000000000000000e+00  2.1851061606216092e-17 -2.3859649122803459e-03 0.0000000000000000e+00  1.8806998693215655e-17 -2.3859649122803341e-03 0.0000000000000000e+00  1.4246830094654367e-17 -2.3859649122803237e-03 0.0000000000000000e+00  9.7225700379237748e-18 -2.3859649122803146e-03 0.0000000000000000e+00  5.2100957290905860e-18 -2.3859649122803103e-03 0.0000000000000000e+00  -1.2207268499620241e-33 -2.3859649122803055e-03 0.0000000000000000e+00  0.0000000000000000e+00 -2.5350877192979694e-03 0.0000000000000000e+00  5.7982631566370693e-18 -2.5350877192979646e-03 0.0000000000000000e+00  1.2481606424690253e-17 -2.5350877192979655e-03 0.0000000000000000e+00  1.6863785712811704e-17 -2.5350877192979572e-03 0.0000000000000000e+00  1.9114582257232668e-17 -2.5350877192979538e-03 0.0000000000000000e+00  2.1148505971498087e-17 -2.5350877192979468e-03 0.0000000000000000e+00  2.2682995166324668e-17 -2.5350877192979308e-03 0.0000000000000000e+00  2.3258713318552118e-17 -2.5350877192979152e-03 0.0