<?xml version="1.0"?>
<VTKFile type="UnstructuredGrid"  version="0.1"  >
<UnstructuredGrid>
<Piece  NumberOfPoints="431" NumberOfCells="800">
<Points>
<DataArray  type="Float64"  NumberOfComponents="3"  format="ascii">-0.75 -3 0  -0.6 -3 0  -0.45 -3 0  -0.3 -3 0  -0.15 -3 0  0 -3 0  0.15 -3 0  0.3 -3 0  0.45 -3 0  0.6000000000000001 -3 0  0.75 -3 0  -0.75 -2.85 0  -0.6 -2.85 0  -0.45 -2.85 0  -0.3 -2.85 0  -0.15 -2.85 0  0 -2.85 0  0.15 -2.85 0  0.3 -2.85 0  0.45 -2.85 0  0.6000000000000001 -2.85 0  0.75 -2.85 0  -0.75 -2.7 0  -0.6 -2.7 0  -0.45 -2.7 0  -0.3 -2.7 0  -0.15 -2.7 0  0 -2.7 0  0.15 -2.7 0  0.3 -2.7 0  0.45 -2.7 0  0.6000000000000001 -2.7 0  0.75 -2.7 0  -0.75 -2.55 0  -0.6 -2.55 0  -0.45 -2.55 0  -0.3 -2.55 0  -0.15 -2.55 0  0 -2.55 0  0.15 -2.55 0  0.3 -2.55 0  0.45 -2.55 0  0.6000000000000001 -2.55 0  0.75 -2.55 0  -0.75 -2.4 0  -0.6 -2.4 0  -0.45 -2.4 0  -0.3 -2.4 0  -0.15 -2.4 0  0 -2.4 0  0.15 -2.4 0  0.3 -2.4 0  0.45 -2.4 0  0.6000000000000001 -2.4 0  0.75 -2.4 0  -0.75 -2.25 0  -0.6 -2.25 0  -0.45 -2.25 0  -0.3 -2.25 0  -0.15 -2.25 0  0 -2.25 0  0.15 -2.25 0  0.3 -2.25 0  0.45 -2.25 0  0.6000000000000001 -2.25 0  0.75 -2.25 0  -0.75 -2.1 0  -0.6 -2.1 0  -0.45 -2.1 0  -0.3 -2.1 0  -0.15 -2.1 0  0 -2.1 0  0.15 -2.1 0  0.3 -2.1 0  0.45 -2.1 0  0.6000000000000001 -2.1 0  0.75 -2.1 0  -0.75 -1.95 0  -0.6 -1.95 0  -0.45 -1.95 0  -0.3 -1.95 0  -0.15 -1.95 0  0 -1.95 0  0.15 -1.95 0  0.3 -1.95 0  0.45 -1.95 0  0.6000000000000001 -1.95 0  0.75 -1.95 0  -0.75 -1.8 0  -0.6 -1.8 0  -0.45 -1.8 0  -0.3 -1.8 0  -0.15 -1.8 0  0 -1.8 0  0.15 -1.8 0  0.3 -1.8 0  0.45 -1.8 0  0.6000000000000001 -1.8 0  0.75 -1.8 0  -0.75 -1.65 0  -0.6 -1.65 0  -0.45 -1.65 0  -0.3 -1.65 0  -0.15 -1.65 0  0 -1.65 0  0.15 -1.65 0  0.3 -1.65 0  0.45 -1.65 0  0.6000000000000001 -1.65 0  0.75 -1.65 0  -0.75 -1.5 0  -0.6 -1.5 0  -0.45 -1.5 0  -0.3 -1.5 0  -0.15 -1.5 0  0 -1.5 0  0.15 -1.5 0  0.3 -1.5 0  0.45 -1.5 0  0.6000000000000001 -1.5 0  0.75 -1.5 0  -0.75 -1.35 0  -0.6 -1.35 0  -0.45 -1.35 0  -0.3 -1.35 0  -0.15 -1.35 0  0 -1.35 0  0.15 -1.35 0  0.3 -1.35 0  0.45 -1.35 0  0.6000000000000001 -1.35 0  0.75 -1.35 0  -0.75 -1.2 0  -0.6 -1.2 0  -0.45 -1.2 0  -0.3 -1.2 0  -0.15 -1.2 0  0 -1.2 0  0.15 -1.2 0  0.3 -1.2 0  0.45 -1.2 0  0.6000000000000001 -1.2 0  0.75 -1.2 0  -0.75 -1.05 0  -0.6 -1.05 0  -0.45 -1.05 0  -0.3 -1.05 0  -0.15 -1.05 0  0 -1.05 0  0.15 -1.05 0  0.3 -1.05 0  0.45 -1.05 0  0.6000000000000001 -1.05 0  0.75 -1.05 0  -0.75 -0.8999999999999999 0  -0.6 -0.8999999999999999 0  -0.45 -0.8999999999999999 0  -0.3 -0.8999999999999999 0  -0.15 -0.8999999999999999 0  0 -0.8999999999999999 0  0.15 -0.8999999999999999 0  0.3 -0.8999999999999999 0  0.45 -0.8999999999999999 0  0.6000000000000001 -0.8999999999999999 0  0.75 -0.8999999999999999 0  -0.75 -0.75 0  -0.6 -0.75 0  -0.45 -0.75 0  -0.3 -0.75 0  -0.15 -0.75 0  0 -0.75 0  0.15 -0.75 0  0.3 -0.75 0  0.45 -0.75 0  0.6000000000000001 -0.75 0  0.75 -0.75 0  -0.75 -0.6000000000000001 0  -0.6 -0.6000000000000001 0  -0.45 -0.6000000000000001 0  -0.3 -0.6000000000000001 0  -0.15 -0.6000000000000001 0  0 -0.6000000000000001 0  0.15 -0.6000000000000001 0  0.3 -0.6000000000000001 0  0.45 -0.6000000000000001 0  0.6000000000000001 -0.6000000000000001 0  0.75 -0.6000000000000001 0  -0.75 -0.4500000000000002 0  -0.6 -0.4500000000000002 0  -0.45 -0.4500000000000002 0  -0.3 -0.4500000000000002 0  -0.15 -0.4500000000000002 0  0 -0.4500000000000002 0  0.15 -0.4500000000000002 0  0.3 -0.4500000000000002 0  0.45 -0.4500000000000002 0  0.6000000000000001 -0.4500000000000002 0  0.75 -0.4500000000000002 0  -0.75 -0.2999999999999998 0  -0.6 -0.2999999999999998 0  -0.45 -0.2999999999999998 0  -0.3 -0.2999999999999998 0  -0.15 -0.2999999999999998 0  0 -0.2999999999999998 0  0.15 -0.2999999999999998 0  0.3 -0.2999999999999998 0  0.45 -0.2999999999999998 0  0.6000000000000001 -0.2999999999999998 0  0.75 -0.2999999999999998 0  -0.75 -0.1499999999999999 0  -0.6 -0.1499999999999999 0  -0.45 -0.1499999999999999 0  -0.3 -0.1499999999999999 0  -0.15 -0.1499999999999999 0  0 -0.1499999999999999 0  0.15 -0.1499999999999999 0  0.3 -0.1499999999999999 0  0.45 -0.1499999999999999 0  0.6000000000000001 -0.1499999999999999 0  0.75 -0.1499999999999999 0  -0.75 0 0  -0.6 0 0  -0.45 0 0  -0.3 0 0  -0.15 0 0  0 0 0  0.15 0 0  0.3 0 0  0.45 0 0  0.6000000000000001 0 0  0.75 0 0  -0.675 -2.925 0  -0.525 -2.925 0  -0.375 -2.925 0  -0.225 -2.925 0  -0.07499999999999996 -2.925 0  0.07499999999999996 -2.925 0  0.225 -2.925 0  0.375 -2.925 0  0.5249999999999999 -2.925 0  0.675 -2.925 0  -0.675 -2.775 0  -0.525 -2.775 0  -0.375 -2.775 0  -0.225 -2.775 0  -0.07499999999999996 -2.775 0  0.07499999999999996 -2.775 0  0.225 -2.775 0  0.375 -2.775 0  0.5249999999999999 -2.775 0  0.675 -2.775 0  -0.675 -2.625 0  -0.525 -2.625 0  -0.375 -2.625 0  -0.225 -2.625 0  -0.07499999999999996 -2.625 0  0.07499999999999996 -2.625 0  0.225 -2.625 0  0.375 -2.625 0  0.5249999999999999 -2.625 0  0.675 -2.625 0  -0.675 -2.475 0  -0.525 -2.475 0  -0.375 -2.475 0  -0.225 -2.475 0  -0.07499999999999996 -2.475 0  0.07499999999999996 -2.475 0  0.225 -2.475 0  0.375 -2.475 0  0.5249999999999999 -2.475 0  0.675 -2.475 0  -0.675 -2.325 0  -0.525 -2.325 0  -0.375 -2.325 0  -0.225 -2.325 0  -0.07499999999999996 -2.325 0  0.07499999999999996 -2.325 0  0.225 -2.325 0  0.375 -2.325 0  0.5249999999999999 -2.325 0  0.675 -2.325 0  -0.675 -2.175 0  -0.525 -2.175 0  -0.375 -2.175 0  -0.225 -2.175 0  -0.07499999999999996 -2.175 0  0.07499999999999996 -2.175 0  0.225 -2.175 0  0.375 -2.175 0  0.5249999999999999 -2.175 0  0.675 -2.175 0  -0.675 -2.025 0  -0.525 -2.025 0  -0.375 -2.025 0  -0.225 -2.025 0  -0.07499999999999996 -2.025 0  0.07499999999999996 -2.025 0  0.225 -2.025 0  0.375 -2.025 0  0.5249999999999999 -2.025 0  0.675 -2.025 0  -0.675 -1.875 0  -0.525 -1.875 0  -0.375 -1.875 0  -0.225 -1.875 0  -0.07499999999999996 -1.875 0  0.07499999999999996 -1.875 0  0.225 -1.875 0  0.375 -1.875 0  0.5249999999999999 -1.875 0  0.675 -1.875 0  -0.675 -1.725 0  -0.525 -1.725 0  -0.375 -1.725 0  -0.225 -1.725 0  -0.07499999999999996 -1.725 0  0.07499999999999996 -1.725 0  0.225 -1.725 0  0.375 -1.725 0  0.5249999999999999 -1.725 0  0.675 -1.725 0  -0.675 -1.575 0  -0.525 -1.575 0  -0.375 -1.575 0  -0.225 -1.575 0  -0.07499999999999996 -1.575 0  0.07499999999999996 -1.575 0  0.225 -1.575 0  0.375 -1.575 0  0.5249999999999999 -1.575 0  0.675 -1.575 0  -0.675 -1.425 0  -0.525 -1.425 0  -0.375 -1.425 0  -0.225 -1.425 0  -0.07499999999999996 -1.425 0  0.07499999999999996 -1.425 0  0.225 -1.425 0  0.375 -1.425 0  0.5249999999999999 -1.425 0  0.675 -1.425 0  -0.675 -1.275 0  -0.525 -1.275 0  -0.375 -1.275 0  -0.225 -1.275 0  -0.07499999999999996 -1.275 0  0.07499999999999996 -1.275 0  0.225 -1.275 0  0.375 -1.275 0  0.5249999999999999 -1.275 0  0.675 -1.275 0  -0.675 -1.125 0  -0.525 -1.125 0  -0.375 -1.125 0  -0.225 -1.125 0  -0.07499999999999996 -1.125 0  0.07499999999999996 -1.125 0  0.225 -1.125 0  0.375 -1.125 0  0.5249999999999999 -1.125 0  0.675 -1.125 0  -0.675 -0.9750000000000001 0  -0.525 -0.9750000000000001 0  -0.375 -0.9750000000000001 0  -0.225 -0.9750000000000001 0  -0.07499999999999996 -0.9750000000000001 0  0.07499999999999996 -0.9750000000000001 0  0.225 -0.9750000000000001 0  0.375 -0.9750000000000001 0  0.5249999999999999 -0.9750000000000001 0  0.675 -0.9750000000000001 0  -0.675 -0.8250000000000002 0  -0.525 -0.8250000000000002 0  -0.375 -0.8250000000000002 0  -0.225 -0.8250000000000002 0  -0.07499999999999996 -0.8250000000000002 0  0.07499999999999996 -0.8250000000000002 0  0.225 -0.8250000000000002 0  0.375 -0.8250000000000002 0  0.5249999999999999 -0.8250000000000002 0  0.675 -0.8250000000000002 0  -0.675 -0.6749999999999998 0  -0.525 -0.6749999999999998 0  -0.375 -0.6749999999999998 0  -0.225 -0.6749999999999998 0  -0.07499999999999996 -0.6749999999999998 0  0.07499999999999996 -0.6749999999999998 0  0.225 -0.6749999999999998 0  0.375 -0.6749999999999998 0  0.5249999999999999 -0.6749999999999998 0  0.675 -0.6749999999999998 0  -0.675 -0.5249999999999999 0  -0.525 -0.5249999999999999 0  -0.375 -0.5249999999999999 0  -0.225 -0.5249999999999999 0  -0.07499999999999996 -0.5249999999999999 0  0.07499999999999996 -0.5249999999999999 0  0.225 -0.5249999999999999 0  0.375 -0.5249999999999999 0  0.5249999999999999 -0.5249999999999999 0  0.675 -0.5249999999999999 0  -0.675 -0.375 0  -0.525 -0.375 0  -0.375 -0.375 0  -0.225 -0.375 0  -0.07499999999999996 -0.375 0  0.07499999999999996 -0.375 0  0.225 -0.375 0  0.375 -0.375 0  0.5249999999999999 -0.375 0  0.675 -0.375 0  -0.675 -0.2250000000000001 0  -0.525 -0.2250000000000001 0  -0.375 -0.2250000000000001 0  -0.225 -0.2250000000000001 0  -0.07499999999999996 -0.2250000000000001 0  0.07499999999999996 -0.2250000000000001 0  0.225 -0.2250000000000001 0  0.375 -0.2250000000000001 0  0.5249999999999999 -0.2250000000000001 0  0.675 -0.2250000000000001 0  -0.675 -0.07500000000000018 0  -0.525 -0.07500000000000018 0  -0.375 -0.07500000000000018 0  -0.225 -0.07500000000000018 0  -0.07499999999999996 -0.07500000000000018 0  0.07499999999999996 -0.07500000000000018 0  0.225 -0.07500000000000018 0  0.375 -0.07500000000000018 0  0.5249999999999999 -0.07500000000000018 0  0.675 -0.07500000000000018 0  </DataArray>
</Points>
<Cells>
[...]
<PointData  Vectors="displacement"> 
<DataArray  type="Float64"  Name="displacement"  NumberOfComponents="3" format="ascii">2.6295363507367045e-29 -3.7007434154171848e-15 0.0000000000000000e+00  5.2590727014734068e-29 -4.1633363423443331e-15 0.0000000000000000e+00  -6.1629758220391491e-29 -5.8474637169384812e-15 0.0000000000000000e+00  8.5459931398942863e-29 -1.0177044392397258e-14 0.0000000000000000e+00  5.4013168572457164e-29 -2.3190656004688844e-15 0.0000000000000000e+00  -2.7610131682735386e-28 -8.3266726846886662e-15 0.0000000000000000e+00  2.7595366219828411e-28 -1.1835873716300076e-15 0.0000000000000000e+00  7.8886090522101102e-29 3.2381504884900365e-15 0.0000000000000000e+00  -2.6363362469909419e-28 -5.3776427755280980e-15 0.0000000000000000e+00  9.2033772275784557e-29 -2.7755575615628866e-15 0.0000000000000000e+00  2.1036290805893641e-28 -3.7007434154171872e-15 0.0000000000000000e+00  5.2590727014734158e-29 -4.9619295558266572e+01 0.0000000000000000e+00  9.6242618945666120e-13 -4.9619295558265037e+01 0.0000000000000000e+00  -5.5066925662650702e-13 -4.9619295558265549e+01 0.0000000000000000e+00  1.5173418531063972e-12 -4.9619295558266117e+01 0.0000000000000000e+00  -6.4627802947788925e-13 -4.9619295558264014e+01 0.0000000000000000e+00  -2.4396997816317045e-12 -4.9619295558266117e+01 0.0000000000000000e+00  -9.1558193182249756e-13 -4.9619295558265122e+01 0.0000000000000000e+00  1.6990514066472471e-13 -4.9619295558263637e+01 0.0000000000000000e+00  -1.6829901729613407e-12 -4.9619295558265456e+01 0.0000000000000000e+00  -7.2010022352563423e-13 -4.9619295558264859e+01 0.0000000000000000e+00  1.1424432840713547e-28 -4.9619295558264383e+01 0.0000000000000000e+00  6.3008472546494240e-29 -9.9238591126269426e+01 0.0000000000000000e+00  1.5011394803928055e-12 -9.9238591126267039e+01 0.0000000000000000e+00  -1.8855557507490122e-13 -9.9238591126269483e+01 0.0000000000000000e+00  3.1303908748189212e-13 -9.9238591126267323e+01 0.0000000000000000e+00  -1.5049014634201056e-12 -9.9238591126269114e+01 0.0000000000000000e+00  -1.3394166170425240e-12 -9.9238591126269299e+01 0.0000000000000000e+00  -7.8669787137549434e-13 -9.9238591126270066e+01 0.0000000000000000e+00  -2.9542942154817869e-12 -9.9238591126268616e+01 0.0000000000000000e+00  -3.1162557446042275e-13 -9.9238591126265305e+01 0.0000000000000000e+00  -2.2333221478080167e-12 -9.9238591126269327e+01 0.0000000000000000e+00  1.6622426217157044e-28 -9.9238591126267380e+01 0.0000000000000000e+00  -2.4980595331998709e-28 -1.4885788672793134e+02 0.0000000000000000e+00  8.3943660093768391e-13 -1.4885788672793416e+02 0.0000000000000000e+00  -1.3229584520316339e-12 -1.4885788672792845e+02 0.0000000000000000e+00  9.3281143910071743e-13 -1.4885788672793129e+02 0.0000000000000000e+00  -1.3640986587963986e-12 -1.4885788672793245e+02 0.0000000000000000e+00  -4.8778038845783445e-13 -1.4885788672793205e+02 0.0000000000000000e+00  -2.6317804146139507e-12 -1.4885788672792694e+02 0.0000000000000000e+00  -8.9001739287166746e-14 -1.4885788672793046e+02 0.0000000000000000e+00  -2.4935027169780652e-12 -1.4885788672793177e+02 0.0000000000000000e+00  -2.1848571449374775e-13 -1.4885788672792779e+02 0.0000000000000000e+00  -1.1832913578315184e-28 -1.4885788672793075e+02 0.0000000000000000e+00  -5.2763732525818824e-28 -1.9847718243621657e+02 0.0000000000000000e+00  1.1843160724707078e-12 -1.9847718243621719e+02 0.0000000000000000e+00  9.1840539179474994e-12 -1.9847718243621424e+02 0.0000000000000000e+00  -4.4028159426410096e-13 -1.9847718243621301e+02 0.0000000000000000e+00  -1.5084430273048335e-12 -1.9847718243622046e+02 0.0000000000000000e+00  -3.4924689992067037e-12 -1.9847718243621594e+02 0.0000000000000000e+00  -2.1354220341750415e-12 -1.9847718243621728e+02 0.0000000000000000e+00  -4.9090834740505735e-12 -1.9847718243621449e+02 0.0000000000000000e+00  -1.6170347302930368e-12 -1.9847718243621097e+02 0.0000000000000000e+00  1.4029911871650308e-12 -1.9847718243620926e+02 0.0000000000000000e+00  9.8848920420842112e-28 -1.9847718243621102e+02 0.0000000000000000e+00  1.1175529490630991e-28 -2.4809647847942338e+02 0.0000000000000000e+00  3.8098229462606053e-12 -2.4809647847942009e+02 0.0000000000000000e+00  -2.0667336013103115e-12 -2.4809647847941719e+02 0.0000000000000000e+00  9.2365799510490344e-13 -2.4809647847942426e+02 0.0000000000000000e+00  -4.2303066325610662e-12 -2.4809647847941406e+02 0.0000000000000000e+00  8.1074665102331555e-14 -2.4809647847941446e+02 0.0000000000000000e+00  -1.7025723031389283e-12 -2.4809647847941613e+02 0.0000000000000000e+00  -2.2995986491205843e-12 -2.4809647847941596e+02 0.0000000000000000e+00  -3.4446686061721524e-12 -2.4809647847941895e+02 0.0000000000000000e+00  -2.6941223762317374e-12 -2.4809647847941554e+02 0.0000000000000000e+00  8.8655470520767831e-28 -2.4809647847942185e+02 0.0000000000000000e+00  1.3875084478620290e-28 -2.9771577557382250e+02 0.0000000000000000e+00  4.7217758670198834e-13 -2.9771577557383029e+02 0.0000000000000000e+00  2.4646760959725389e-12 -2.9771577557383097e+02 0.0000000000000000e+00  -1.2493124527497718e-12 -2.9771577557382705e+02 0.0000000000000000e+00  -2.1619965754145099e-12 -2.9771577557382739e+02 0.0000000000000000e+00  -5.6690218283629422e-12 -2.9771577557382813e+02 0.0000000000000000e+00  -2.9070241494166731e-12 -2.9771577557382437e+02 0.0000000000000000e+00  -2.3629613565626852e-12 -2.9771577557381943e+02 0.0000000000000000e+00  2.8095256557065877e-12 -2.9771577557381477e+02 0.0000000000000000e+00  -5.4957575595554965e-12 -2.9771577557381681e+02 0.0000000000000000e+00  3.1742260233893123e-28 -2.9771577557380999e+02 0.0000000000000000e+00  -5.5220263365470844e-28 -3.4733507596720858e+02 0.0000000000000000e+00  1.1227510205575098e-12 -3.4733507596721199e+02 0.0000000000000000e+00  1.1130014890115420e-13 -3.4733507596721847e+02 0.0000000000000000e+00  -4.6923931293770486e-12 -3.4733507596721375e+02 0.0000000000000000e+00  -2.5367426484863571e-12 -3.4733507596722166e+02 0.0000000000000000e+00  -3.6298982649140216e-14 -3.4733507596721671e+02 0.0000000000000000e+00  2.4247412577510793e-12 -3.4733507596721313e+02 0.0000000000000000e+00  -3.8149970291640766e-12 -3.4733507596721068e+02 0.0000000000000000e+00  2.8322155137930069e-12 -3.4733507596720455e+02 0.0000000000000000e+00  2.8804587730095475e-12 -3.4733507596720523e+02 0.0000000000000000e+00  -2.6295363507367084e-29 -3.4733507596720472e+02 0.0000000000000000e+00  -1.1394889738373015e-27 -3.9695438671379497e+02 0.0000000000000000e+00  -2.8439851226757238e-12 -3.9695438671379486e+02 0.0000000000000000e+00  3.9636603882599253e-13 -3.9695438671380606e+02 0.0000000000000000e+00  2.5187260103579017e-12 -3.9695438671380697e+02 0.0000000000000000e+00  6.0001035167167839e-13 -3.9695438671380765e+02 0.0000000000000000e+00  -5.5671411816923531e-13 -3.9695438671380282e+02 0.0000000000000000e+00  -4.1080210649109970e-13 -3.9695438671380327e+02 0.0000000000000000e+00  1.0917658150728185e-11 -3.9695438671379139e+02 0.0000000000000000e+00  1.3224212386285406e-12 -3.9695438671379213e+02 0.0000000000000000e+00  2.4815434645074994e-12 -3.9695438671379407e+02 0.0000000000000000e+00  -1.1352531623615172e-28 -3.9695438671378497e+02 0.0000000000000000e+00  2.6295363507367051e-27 -4.4657372995177207e+02 0.0000000000000000e+00  -1.3978722115609247e-12 -4.4657372995176041e+02 0.0000000000000000e+00  -1.2548363248491785e-11 -4.4657372995175353e+02 0.0000000000000000e+00  -4.4501653133343202e-13 -4.4657372995176740e+02 0.0000000000000000e+00  -4.5762260846273693e-13 -4.4657372995175882e+02 0.0000000000000000e+00  6.1614416346715490e-12 -4.4657372995176172e+02 0.0000000000000000e+00  1.3640931595997159e-11 -4.4657372995175280e+02 0.0000000000000000e+00  9.6443063901615668e-12 -4.4657372995175893e+02 0.0000000000000000e+00  2.5410811726993928e-12 -4.4657372995175706e+02 0.0000000000000000e+00  3.5465834614494009e-13 -4.4657372995174995e+02 0.0000000000000000e+00  -6.1945610731271054e-28 -4.4657372995177002e+02 0.0000000000000000e+00  -7.2055965494001150e-28 -4.9619317515722287e+02 0.0000000000000000e+00  -6.9376160961134728e-12 -4.9619317515723048e+02 0.0000000000000000e+00  -1.8016638128454265e-13 -4.9619317515722838e+02 0.0000000000000000e+00  -3.7428080097639377e-12 -4.9619317515722713e+02 0.0000000000000000e+00  3.0412085160830775e-12 -4.9619317515722054e+02 0.0000000000000000e+00  1.6105791717917018e-12 -4.9619317515721650e+02 0.0000000000000000e+00  5.2461860999205406e-13 -4.9619317515721906e+02 0.0000000000000000e+00  7.5434327601972837e-12 -4.9619317515722491e+02 0.0000000000000000e+00  4.7588005487372246e-12 -4.9619317515721804e+02 0.0000000000000000e+00  3.3483807163738426e-12 -4.9619317515722418e+02 0.0000000000000000e+00  3.6813508910313957e-28 -4.9619317515720604e+02 0.0000000000000000e+00  -8.5459931398942897e-29 -5.4581294036660540e+02 0.0000000000000000e+00  -1.3009891122975193e-12 -5.4581294036659847e+02 0.0000000000000000e+00  2.4777379033751807e-12 -5.4581294036658608e+02 0.0000000000000000e+00  2.3932855719510208e-12 -5.4581294036657903e+02 0.0000000000000000e+00  -6.1544835846799724e-12 -5.4581294036659040e+02 0.0000000000000000e+00  -5.0796394991937902e-13 -5.4581294036658142e+02 0.0000000000000000e+00  -4.4287745620530601e-12 -5.4581294036658187e+02 0.0000000000000000e+00  1.9841017975900713e-12 -5.4581294036658960e+02 0.0000000000000000e+00  9.1092122377464750e-12 -5.4581294036659597e+02 0.0000000000000000e+00  2.0932442806604136e-12 -5.4581294036658198e+02 0.0000000000000000e+00  2.2088105346188338e-27 -5.4581294036659369e+02 0.0000000000000000e+00  4.9719125344112256e-28 -5.9543370984220678e+02 0.0000000000000000e+00  -4.4240947233467127e-13 -5.9543370984221633e+02 0.0000000000000000e+00  3.4588567086983039e-12 -5.9543370984221895e+02 0.0000000000000000e+00  -1.0660444780606373e-11 -5.9543370984222258e+02 0.0000000000000000e+00  4.8625553456421581e-12 -5.9543370984221986e+02 0.0000000000000000e+00  -7.2066552513816889e-13 -5.9543370984222054e+02 0.0000000000000000e+00  1.0063325368012629e-11 -5.9543370984222076e+02 0.0000000000000000e+00  -1.2719746745810623e-11 -5.9543370984221690e+02 0.0000000000000000e+00  1.9223752883060672e-12 -5.9543370984220303e+02 0.0000000000000000e+00  9.6711325692496254e-12 -5.9543370984221940e+02 0.0000000000000000e+00  4.7519478338313368e-28 -5.9543370984220837e+02 0.0000000000000000e+00  1.2621774483536192e-27 -6.4505763100015542e+02 0.0000000000000000e+00  4.4286963759677026e-12 -6.4505763100013201e+02 0.0000000000000000e+00  -1.0757734626500024e-11 -6.4505763100015190e+02 0.0000000000000000e+00  6.5844264374822839e-13 -6.4505763100015611e+02 0.0000000000000000e+00  -5.2896849545141647e-12 -6.4505763100014178e+02 0.0000000000000000e+00  7.9007356450935706e-14 -6.4505763100014940e+02 0.0000000000000000e+00  -8.9258084917982141e-12 -6.4505763100014030e+02 0.0000000000000000e+00  5.5335851931781132e-12 -6.4505763100013826e+02 0.0000000000000000e+00  5.0978328297835127e-12 -6.4505763100013996e+02 0.0000000000000000e+00  -3.6701068734666453e-12 -6.4505763100013712e+02 0.0000000000000000e+00  -7.6256554171364543e-28 -6.4505763100012905e+02 0.0000000000000000e+00  -1.1516049797837406e-27 -6.9469144306244289e+02 0.0000000000000000e+00  -7.5723333672024073e-12 -6.9469144306245141e+02 0.0000000000000000e+00  -3.2285815526190021e-12 -6.9469144306243686e+02 0.0000000000000000e+00  -3.7261756851629992e-12 -6.9469144306242890e+02 0.0000000000000000e+00  -8.3435051172871598e-12 -6.9469144306245107e+02 0.0000000000000000e+00  -2.3256544745940212e-12 -6.9469144306244732e+02 0.0000000000000000e+00  2.2412697831797076e-12 -6.9469144306244459e+02 0.0000000000000000e+00  1.6590446029169573e-12 -6.9469144306243390e+02 0.0000000000000000e+00  -1.3304992032520715e-11 -6.9469144306242913e+02 0.0000000000000000e+00  1.2110020554401625e-11 -6.9469144306242436e+02 0.0000000000000000e+00  -4.6204710162945090e-28 -6.9469144306241549e+02 0.0000000000000000e+00  -6.4916678658812382e-28 -7.4435629568647732e+02 0.0000000000000000e+00  2.5234287033391738e-12 -7.4435629568645413e+02 0.0000000000000000e+00  -1.9511317144432365e-12 -7.4435629568646152e+02 0.0000000000000000e+00  -1.5302303956861995e-11 -7.4435629568646482e+02 0.0000000000000000e+00  -7.5814013244535551e-12 -7.4435629568644038e+02 0.0000000000000000e+00  -7.1185810083283221e-13 -7.4435629568643628e+02 0.0000000000000000e+00  -2.8294977627048402e-12 -7.4435629568643787e+02 0.0000000000000000e+00  -4.3266186931419086e-12 -7.4435629568645004e+02 0.0000000000000000e+00  1.1934221096288103e-11 -7.4435629568644720e+02 0.0000000000000000e+00  7.1801140660628694e-13 -7.4435629568644356e+02 0.0000000000000000e+00  -5.3116634284881452e-27 -7.4435629568646800e+02 0.0000000000000000e+00  1.0458568208396411e-27 -7.9411856270624139e+02 0.0000000000000000e+00  -1.8999975207233182e-13 -7.9411856270626026e+02 0.0000000000000000e+00  -2.3809774526476118e-11 -7.9411856270625231e+02 0.0000000000000000e+00  5.9828751065064472e-12 -7.9411856270624969e+02 0.0000000000000000e+00  -2.4085616638719907e-12 -7.9411856270624685e+02 0.0000000000000000e+00  -1.5707439989330845e-11 -7.9411856270624264e+02 0.0000000000000000e+00  -1.8182510702927077e-12 -7.9411856270624276e+02 0.0000000000000000e+00  3.4342353796055553e-12 -7.9411856270621945e+02 0.0000000000000000e+00  1.0584774900466745e-13 -7.9411856270624230e+02 0.0000000000000000e+00  -2.1907809777355148e-12 -7.9411856270620672e+02 0.0000000000000000e+00  2.3714415814834032e-27 -7.9411856270624423e+02 0.0000000000000000e+00  -6.3108872417680935e-28 -8.4418654469923808e+02 0.0000000000000000e+00  3.9690930895231010e-12 -8.4418654469922933e+02 0.0000000000000000e+00  -6.9835383584179443e-12 -8.4418654469922626e+02 0.0000000000000000e+00  -5.0300201574878179e-12 -8.4418654469923820e+02 0.0000000000000000e+00  -1.0968863571027636e-11 -8.4418654469921762e+02 0.0000000000000000e+00  -2.8862609243771035e-12 -8.4418654469922649e+02 0.0000000000000000e+00  -5.2665780145000597e-12 -8.4418654469922058e+02 0.0000000000000000e+00  2.8024739853825192e-12 -8.4418654469922205e+02 0.0000000000000000e+00  8.3672082568249009e-12 -8.4418654469920352e+02 0.0000000000000000e+00  2.7324250945513387e-13 -8.4418654469922410e+02 0.0000000000000000e+00  5.8221373041651262e-27 -8.4418654469920921e+02 0.0000000000000000e+00  -2.0740467966435771e-27 -8.9521395003134853e+02 0.0000000000000000e+00  -2.1926317265215209e-11 -8.9521395003136092e+02 0.0000000000000000e+00  -9.3974784478017251e-12 -8.9521395003136479e+02 0.0000000000000000e+00  -2.0465774874040974e-11 -8.9521395003133728e+02 0.0000000000000000e+00  -8.9587733093738725e-12 -8.9521395003135979e+02 0.0000000000000000e+00  -1.2172941551490095e-11 -8.9521395003134546e+02 0.0000000000000000e+00  2.4153555490958950e-12 -8.9521395003133807e+02 0.0000000000000000e+00  9.0249844544959317e-12 -8.9521395003133921e+02 0.0000000000000000e+00  -1.2720647350595100e-11 -8.9521395003134319e+02 0.0000000000000000e+00  -1.4078518920366462e-12 -8.9521395003136774e+02 0.0000000000000000e+00  3.8709357663188804e-28 -8.9521395003132648e+02 0.0000000000000000e+00  -2.5243548967072396e-27 -9.4925230747360058e+02 0.0000000000000000e+00  -1.9310198127490136e-11 -9.4925230747359569e+02 0.0000000000000000e+00  5.2993044882341325e-12 -9.4925230747359353e+02 0.0000000000000000e+00  -3.5266420020240211e-11 -9.4925230747358353e+02 0.0000000000000000e+00  -2.1834938528799975e-11 -9.4925230747357023e+02 0.0000000000000000e+00  -2.0170054297499367e-11 -9.4925230747355977e+02 0.0000000000000000e+00  6.2697900687020780e-13 -9.4925230747356864e+02 0.0000000000000000e+00  -1.0486908124136400e-11 -9.4925230747358205e+02 0.0000000000000000e+00  3.4591945206632121e-12 -9.4925230747359274e+02 0.0000000000000000e+00  3.2532704351172216e-12 -9.4925230747358080e+02 0.0000000000000000e+00  -1.0016890036087653e-27 -9.4925230747360354e+02 0.0000000000000000e+00  1.4725403564125538e-27 -1.0127399166064940e+03 0.0000000000000000e+00  2.6065621111698861e-12 -1.0127399166065188e+03 0.0000000000000000e+00  -3.9776041711760450e-11 -1.0127399166065077e+03 0.0000000000000000e+00  -2.8377542822245530e-11 -1.0127399166064830e+03 0.0000000000000000e+00  -3.3843476719145124e-11 -1.0127399166064627e+03 0.0000000000000000e+00  -2.0844183150870978e-11 -1.0127399166064600e+03 0.0000000000000000e+00  -1.3814290090798249e-11 -1.0127399166064484e+03 0.0000000000000000e+00  -2.4922392897780545e-12 -1.0127399166064723e+03 0.0000000000000000e+00  -2.3931161362073323e-11 -1.0127399166064663e+03 0.0000000000000000e+00  -1.5935572906925013e-11 -1.0127399166064733e+03 0.0000000000000000e+00  5.0487097934144748e-27 -1.0127399166064465e+03 0.0000000000000000e+00  1.5592575537652019e-13 -2.4809647770010834e+01 0.0000000000000000e+00  2.7848087498629233e-12 -2.4809647770011615e+01 0.0000000000000000e+00  8.8123865902823353e-13 -2.4809647770015278e+01 0.0000000000000000e+00  -2.5341523155418333e-12 -2.4809647770011289e+01 0.0000000000000000e+00  1.2446116660157252e-12 -2.4809647770010869e+01 0.0000000000000000e+00  -3.7519642370075062e-12 -2.4809647770016436e+01 0.0000000000000000e+00  -1.3399872275026809e-13 -2.4809647770012912e+01 0.0000000000000000e+00  3.6494946254925957e-13 -2.4809647770007974e+01 0.0000000000000000e+00  3.1068512530057067e-13 -2.4809647770013910e+01 0.0000000000000000e+00  1.9554924144867117e-12 -2.4809647770011264e+01 0.0000000000000000e+00  1.1701122562003310e-12 -7.4428943301622070e+01 0.0000000000000000e+00  9.0145874951875977e-13 -7.4428943301622510e+01 0.0000000000000000e+00  -9.0365207980956037e-13 -7.4428943301623477e+01 0.0000000000000000e+00  3.2790287847458562e-12 -7.4428943301622226e+01 0.0000000000000000e+00  -5.7311720498601496e-12 -7.4428943301622752e+01 0.0000000000000000e+00  -3.3536020146330517e-12 -7.4428943301623534e+01 0.0000000000000000e+00  3.6628615856358383e-12 -7.4428943301619753e+01 0.0000000000000000e+00  -3.6058349980750423e-12 -7.4428943301622084e+01 0.0000000000000000e+00  5.8561918764357442e-13 -7.4428943301620095e+01 0.0000000000000000e+00  -1.9115165938227925e-12 -7.4428943301623931e+01 0.0000000000000000e+00  3.2422157347436511e-12 -1.2404823879571425e+02 0.0000000000000000e+00  -2.1545509032478718e-12 -1.2404823879571421e+02 0.0000000000000000e+00  2.7109562394286777e-12 -1.2404823879571208e+02 0.0000000000000000e+00  -3.8970294281199216e-13 -1.2404823879571276e+02 0.0000000000000000e+00  -1.5704244882127290e-12 -1.2404823879571300e+02 0.0000000000000000e+00  -3.6804082279622326e-12 -1.2404823879571002e+02 0.0000000000000000e+00  1.3467047985511387e-12 -1.2404823879571434e+02 0.0000000000000000e+00  -2.0178638675359112e-13 -1.2404823879570722e+02 0.0000000000000000e+00  -4.7419800887093857e-12 -1.2404823879571097e+02 0.0000000000000000e+00  1.8406186887737288e-12 -1.2404823879571036e+02 0.0000000000000000e+00  1.0362001507170647e-13 -1.7366753416852669e+02 0.0000000000000000e+00  9.0540674404219991e-12 -1.7366753416851708e+02 0.0000000000000000e+00  4.2901540488046123e-12 -1.7366753416851097e+02 0.0000000000000000e+00  1.5616511670495317e-12 -1.7366753416851091e+02 0.0000000000000000e+00  -5.2157394315221707e-12 -1.7366753416851324e+02 0.0000000000000000e+00  -4.6235402530061973e-12 -1.7366753416851455e+02 0.0000000000000000e+00  -6.8431905072957059e-13 -1.7366753416850997e+02 0.0000000000000000e+00  -2.2328102360343012e-12 -1.7366753416852202e+02 0.0000000000000000e+00  -1.7678242143847228e-12 -1.7366753416851412e+02 0.0000000000000000e+00  -2.2523719065586702e-12 -1.7366753416851793e+02 0.0000000000000000e+00  7.6842421703175939e-12 -2.2328682915956327e+02 0.0000000000000000e+00  1.0931558169346720e-11 -2.2328682915956301e+02 0.0000000000000000e+00  3.4830085017902467e-12 -2.2328682915956463e+02 0.0000000000000000e+00  -5.2420593950117689e-12 -2.2328682915957657e+02 0.0000000000000000e+00  -1.3642514408775388e-12 -2.2328682915957620e+02 0.0000000000000000e+00  -1.7985308384559209e-13 -2.2328682915956432e+02 0.0000000000000000e+00  -7.0493635546308893e-12 -2.2328682915957006e+02 0.00000000