<?xml version="1.0"?>
<VTKFile type="UnstructuredGrid"  version="0.1"  >
<UnstructuredGrid>
<Piece  NumberOfPoints="1411" NumberOfCells="2700">
<Points>
<DataArray  type="Float64"  NumberOfComponents="3"  format="ascii">-0.75 -4.5 0  -0.65 -4.5 0  -0.55 -4.5 0  -0.45 -4.5 0  -0.35 -4.5 0  -0.25 -4.5 0  -0.15 -4.5 0  -0.05000000000000004 -4.5 0  0.05000000000000004 -4.5 0  0.15 -4.5 0  0.25 -4.5 0  0.3500000000000001 -4.5 0  0.45 -4.5 0  0.55 -4.5 0  0.6499999999999999 -4.5 0  0.75 -4.5 0  -0.75 -4.4 0  -0.65 -4.4 0  -0.55 -4.4 0  -0.45 -4.4 0  -0.35 -4.4 0  -0.25 -4.4 0  -0.15 -4.4 0  -0.05000000000000004 -4.4 0  0.05000000000000004 -4.4 0  0.15 -4.4 0  0.25 -4.4 0  0.3500000000000001 -4.4 0  0.45 -4.4 0  0.55 -4.4 0  0.6499999999999999 -4.4 0  0.75 -4.4 0  -0.75 -4.3 0  -0.65 -4.3 0  -0.55 -4.3 0  -0.45 -4.3 0  -0.35 -4.3 0  -0.25 -4.3 0  -0.15 -4.3 0  -0.05000000000000004 -4.3 0  0.05000000000000004 -4.3 0  0.15 -4.3 0  0.25 -4.3 0  0.3500000000000001 -4.3 0  0.45 -4.3 0  0.55 -4.3 0  0.6499999999999999 -4.3 0  0.75 -4.3 0  -0.75 -4.2 0  -0.65 -4.2 0  -0.55 -4.2 0  -0.45 -4.2 0  -0.35 -4.2 0  -0.25 -4.2 0  -0.15 -4.2 0  -0.05000000000000004 -4.2 0  0.05000000000000004 -4.2 0  0.15 -4.2 0  0.25 -4.2 0  0.3500000000000001 -4.2 0  0.45 -4.2 0  0.55 -4.2 0  0.6499999999999999 -4.2 0  0.75 -4.2 0  -0.75 -4.1 0  -0.65 -4.1 0  -0.55 -4.1 0  -0.45 -4.1 0  -0.35 -4.1 0  -0.25 -4.1 0  -0.15 -4.1 0  -0.05000000000000004 -4.1 0  0.05000000000000004 -4.1 0  0.15 -4.1 0  0.25 -4.1 0  0.3500000000000001 -4.1 0  0.45 -4.1 0  0.55 -4.1 0  0.6499999999999999 -4.1 0  0.75 -4.1 0  -0.75 -4 0  -0.65 -4 0  -0.55 -4 0  -0.45 -4 0  -0.35 -4 0  -0.25 -4 0  -0.15 -4 0  -0.05000000000000004 -4 0  0.05000000000000004 -4 0  0.15 -4 0  0.25 -4 0  0.3500000000000001 -4 0  0.45 -4 0  0.55 -4 0  0.6499999999999999 -4 0  0.75 -4 0  -0.75 -3.9 0  -0.65 -3.9 0  -0.55 -3.9 0  -0.45 -3.9 0  -0.35 -3.9 0  -0.25 -3.9 0  -0.15 -3.9 0  -0.05000000000000004 -3.9 0  0.05000000000000004 -3.9 0  0.15 -3.9 0  0.25 -3.9 0  0.3500000000000001 -3.9 0  0.45 -3.9 0  0.55 -3.9 0  0.6499999999999999 -3.9 0  0.75 -3.9 0  -0.75 -3.8 0  -0.65 -3.8 0  -0.55 -3.8 0  -0.45 -3.8 0  -0.35 -3.8 0  -0.25 -3.8 0  -0.15 -3.8 0  -0.05000000000000004 -3.8 0  0.05000000000000004 -3.8 0  0.15 -3.8 0  0.25 -3.8 0  0.3500000000000001 -3.8 0  0.45 -3.8 0  0.55 -3.8 0  0.6499999999999999 -3.8 0  0.75 -3.8 0  -0.75 -3.7 0  -0.65 -3.7 0  -0.55 -3.7 0  -0.45 -3.7 0  -0.35 -3.7 0  -0.25 -3.7 0  -0.15 -3.7 0  -0.05000000000000004 -3.7 0  0.05000000000000004 -3.7 0  0.15 -3.7 0  0.25 -3.7 0  0.3500000000000001 -3.7 0  0.45 -3.7 0  0.55 -3.7 0  0.6499999999999999 -3.7 0  0.75 -3.7 0  -0.75 -3.6 0  -0.65 -3.6 0  -0.55 -3.6 0  -0.45 -3.6 0  -0.35 -3.6 0  -0.25 -3.6 0  -0.15 -3.6 0  -0.05000000000000004 -3.6 0  0.05000000000000004 -3.6 0  0.15 -3.6 0  0.25 -3.6 0  0.3500000000000001 -3.6 0  0.45 -3.6 0  0.55 -3.6 0  0.6499999999999999 -3.6 0  0.75 -3.6 0  -0.75 -3.5 0  -0.65 -3.5 0  -0.55 -3.5 0  -0.45 -3.5 0  -0.35 -3.5 0  -0.25 -3.5 0  -0.15 -3.5 0  -0.05000000000000004 -3.5 0  0.05000000000000004 -3.5 0  0.15 -3.5 0  0.25 -3.5 0  0.3500000000000001 -3.5 0  0.45 -3.5 0  0.55 -3.5 0  0.6499999999999999 -3.5 0  0.75 -3.5 0  -0.75 -3.4 0  -0.65 -3.4 0  -0.55 -3.4 0  -0.45 -3.4 0  -0.35 -3.4 0  -0.25 -3.4 0  -0.15 -3.4 0  -0.05000000000000004 -3.4 0  0.05000000000000004 -3.4 0  0.15 -3.4 0  0.25 -3.4 0  0.3500000000000001 -3.4 0  0.45 -3.4 0  0.55 -3.4 0  0.6499999999999999 -3.4 0  0.75 -3.4 0  -0.75 -3.3 0  -0.65 -3.3 0  -0.55 -3.3 0  -0.45 -3.3 0  -0.35 -3.3 0  -0.25 -3.3 0  -0.15 -3.3 0  -0.05000000000000004 -3.3 0  0.05000000000000004 -3.3 0  0.15 -3.3 0  0.25 -3.3 0  0.3500000000000001 -3.3 0  0.45 -3.3 0  0.55 -3.3 0  0.6499999999999999 -3.3 0  0.75 -3.3 0  -0.75 -3.2 0  -0.65 -3.2 0  -0.55 -3.2 0  -0.45 -3.2 0  -0.35 -3.2 0  -0.25 -3.2 0  -0.15 -3.2 0  -0.05000000000000004 -3.2 0  0.05000000000000004 -3.2 0  0.15 -3.2 0  0.25 -3.2 0  0.3500000000000001 -3.2 0  0.45 -3.2 0  0.55 -3.2 0  0.6499999999999999 -3.2 0  0.75 -3.2 0  -0.75 -3.1 0  -0.65 -3.1 0  -0.55 -3.1 0  -0.45 -3.1 0  -0.35 -3.1 0  -0.25 -3.1 0  -0.15 -3.1 0  -0.05000000000000004 -3.1 0  0.05000000000000004 -3.1 0  0.15 -3.1 0  0.25 -3.1 0  0.3500000000000001 -3.1 0  0.45 -3.1 0  0.55 -3.1 0  0.6499999999999999 -3.1 0  0.75 -3.1 0  -0.75 -3 0  -0.65 -3 0  -0.55 -3 0  -0.45 -3 0  -0.35 -3 0  -0.25 -3 0  -0.15 -3 0  -0.05000000000000004 -3 0  0.05000000000000004 -3 0  0.15 -3 0  0.25 -3 0  0.3500000000000001 -3 0  0.45 -3 0  0.55 -3 0  0.6499999999999999 -3 0  0.75 -3 0  -0.75 -2.9 0  -0.65 -2.9 0  -0.55 -2.9 0  -0.45 -2.9 0  -0.35 -2.9 0  -0.25 -2.9 0  -0.15 -2.9 0  -0.05000000000000004 -2.9 0  0.05000000000000004 -2.9 0  0.15 -2.9 0  0.25 -2.9 0  0.3500000000000001 -2.9 0  0.45 -2.9 0  0.55 -2.9 0  0.6499999999999999 -2.9 0  0.75 -2.9 0  -0.75 -2.8 0  -0.65 -2.8 0  -0.55 -2.8 0  -0.45 -2.8 0  -0.35 -2.8 0  -0.25 -2.8 0  -0.15 -2.8 0  -0.05000000000000004 -2.8 0  0.05000000000000004 -2.8 0  0.15 -2.8 0  0.25 -2.8 0  0.3500000000000001 -2.8 0  0.45 -2.8 0  0.55 -2.8 0  0.6499999999999999 -2.8 0  0.75 -2.8 0  -0.75 -2.7 0  -0.65 -2.7 0  -0.55 -2.7 0  -0.45 -2.7 0  -0.35 -2.7 0  -0.25 -2.7 0  -0.15 -2.7 0  -0.05000000000000004 -2.7 0  0.05000000000000004 -2.7 0  0.15 -2.7 0  0.25 -2.7 0  0.3500000000000001 -2.7 0  0.45 -2.7 0  0.55 -2.7 0  0.6499999999999999 -2.7 0  0.75 -2.7 0  -0.75 -2.6 0  -0.65 -2.6 0  -0.55 -2.6 0  -0.45 -2.6 0  -0.35 -2.6 0  -0.25 -2.6 0  -0.15 -2.6 0  -0.05000000000000004 -2.6 0  0.05000000000000004 -2.6 0  0.15 -2.6 0  0.25 -2.6 0  0.3500000000000001 -2.6 0  0.45 -2.6 0  0.55 -2.6 0  0.6499999999999999 -2.6 0  0.75 -2.6 0  -0.75 -2.5 0  -0.65 -2.5 0  -0.55 -2.5 0  -0.45 -2.5 0  -0.35 -2.5 0  -0.25 -2.5 0  -0.15 -2.5 0  -0.05000000000000004 -2.5 0  0.05000000000000004 -2.5 0  0.15 -2.5 0  0.25 -2.5 0  0.3500000000000001 -2.5 0  0.45 -2.5 0  0.55 -2.5 0  0.6499999999999999 -2.5 0  0.75 -2.5 0  -0.75 -2.4 0  -0.65 -2.4 0  -0.55 -2.4 0  -0.45 -2.4 0  -0.35 -2.4 0  -0.25 -2.4 0  -0.15 -2.4 0  -0.05000000000000004 -2.4 0  0.05000000000000004 -2.4 0  0.15 -2.4 0  0.25 -2.4 0  0.3500000000000001 -2.4 0  0.45 -2.4 0  0.55 -2.4 0  0.6499999999999999 -2.4 0  0.75 -2.4 0  -0.75 -2.3 0  -0.65 -2.3 0  -0.55 -2.3 0  -0.45 -2.3 0  -0.35 -2.3 0  -0.25 -2.3 0  -0.15 -2.3 0  -0.05000000000000004 -2.3 0  0.05000000000000004 -2.3 0  0.15 -2.3 0  0.25 -2.3 0  0.3500000000000001 -2.3 0  0.45 -2.3 0  0.55 -2.3 0  0.6499999999999999 -2.3 0  0.75 -2.3 0  -0.75 -2.2 0  -0.65 -2.2 0  -0.55 -2.2 0  -0.45 -2.2 0  -0.35 -2.2 0  -0.25 -2.2 0  -0.15 -2.2 0  -0.05000000000000004 -2.2 0  0.05000000000000004 -2.2 0  0.15 -2.2 0  0.25 -2.2 0  0.3500000000000001 -2.2 0  0.45 -2.2 0  0.55 -2.2 0  0.6499999999999999 -2.2 0  0.75 -2.2 0  -0.75 -2.1 0  -0.65 -2.1 0  -0.55 -2.1 0  -0.45 -2.1 0  -0.35 -2.1 0  -0.25 -2.1 0  -0.15 -2.1 0  -0.05000000000000004 -2.1 0  0.05000000000000004 -2.1 0  0.15 -2.1 0  0.25 -2.1 0  0.3500000000000001 -2.1 0  0.45 -2.1 0  0.55 -2.1 0  0.6499999999999999 -2.1 0  0.75 -2.1 0  -0.75 -2 0  -0.65 -2 0  -0.55 -2 0  -0.45 -2 0  -0.35 -2 0  -0.25 -2 0  -0.15 -2 0  -0.05000000000000004 -2 0  0.05000000000000004 -2 0  0.15 -2 0  0.25 -2 0  0.3500000000000001 -2 0  0.45 -2 0  0.55 -2 0  0.6499999999999999 -2 0  0.75 -2 0  -0.75 -1.9 0  -0.65 -1.9 0  -0.55 -1.9 0  -0.45 -1.9 0  -0.35 -1.9 0  -0.25 -1.9 0  -0.15 -1.9 0  -0.05000000000000004 -1.9 0  0.05000000000000004 -1.9 0  0.15 -1.9 0  0.25 -1.9 0  0.3500000000000001 -1.9 0  0.45 -1.9 0  0.55 -1.9 0  0.6499999999999999 -1.9 0  0.75 -1.9 0  -0.75 -1.8 0  -0.65 -1.8 0  -0.55 -1.8 0  -0.45 -1.8 0  -0.35 -1.8 0  -0.25 -1.8 0  -0.15 -1.8 0  -0.05000000000000004 -1.8 0  0.05000000000000004 -1.8 0  0.15 -1.8 0  0.25 -1.8 0  0.3500000000000001 -1.8 0  0.45 -1.8 0  0.55 -1.8 0  0.6499999999999999 -1.8 0  0.75 -1.8 0  -0.75 -1.7 0  -0.65 -1.7 0  -0.55 -1.7 0  -0.45 -1.7 0  -0.35 -1.7 0  -0.25 -1.7 0  -0.15 -1.7 0  -0.05000000000000004 -1.7 0  0.05000000000000004 -1.7 0  0.15 -1.7 0  0.25 -1.7 0  0.3500000000000001 -1.7 0  0.45 -1.7 0  0.55 -1.7 0  0.6499999999999999 -1.7 0  0.75 -1.7 0  -0.75 -1.6 0  -0.65 -1.6 0  -0.55 -1.6 0  -0.45 -1.6 0  -0.35 -1.6 0  -0.25 -1.6 0  -0.15 -1.6 0  -0.05000000000000004 -1.6 0  0.05000000000000004 -1.6 0  0.15 -1.6 0  0.25 -1.6 0  0.3500000000000001 -1.6 0  0.45 -1.6 0  0.55 -1.6 0  0.6499999999999999 -1.6 0  0.75 -1.6 0  -0.75 -1.5 0  -0.65 -1.5 0  -0.55 -1.5 0  -0.45 -1.5 0  -0.35 -1.5 0  -0.25 -1.5 0  -0.15 -1.5 0  -0.05000000000000004 -1.5 0  0.05000000000000004 -1.5 0  0.15 -1.5 0  0.25 -1.5 0  0.3500000000000001 -1.5 0  0.45 -1.5 0  0.55 -1.5 0  0.6499999999999999 -1.5 0  0.75 -1.5 0  -0.75 -1.4 0  -0.65 -1.4 0  -0.55 -1.4 0  -0.45 -1.4 0  -0.35 -1.4 0  -0.25 -1.4 0  -0.15 -1.4 0  -0.05000000000000004 -1.4 0  0.05000000000000004 -1.4 0  0.15 -1.4 0  0.25 -1.4 0  0.3500000000000001 -1.4 0  0.45 -1.4 0  0.55 -1.4 0  0.6499999999999999 -1.4 0  0.75 -1.4 0  -0.75 -1.3 0  -0.65 -1.3 0  -0.55 -1.3 0  -0.45 -1.3 0  -0.35 -1.3 0  -0.25 -1.3 0  -0.15 -1.3 0  -0.05000000000000004 -1.3 0  0.05000000000000004 -1.3 0  0.15 -1.3 0  0.25 -1.3 0  0.3500000000000001 -1.3 0  0.45 -1.3 0  0.55 -1.3 0  0.6499999999999999 -1.3 0  0.75 -1.3 0  -0.75 -1.2 0  -0.65 -1.2 0  -0.55 -1.2 0  -0.45 -1.2 0  -0.35 -1.2 0  -0.25 -1.2 0  -0.15 -1.2 0  -0.05000000000000004 -1.2 0  0.05000000000000004 -1.2 0  0.15 -1.2 0  0.25 -1.2 0  0.3500000000000001 -1.2 0  0.45 -1.2 0  0.55 -1.2 0  0.6499999999999999 -1.2 0  0.75 -1.2 0  -0.75 -1.1 0  -0.65 -1.1 0  -0.55 -1.1 0  -0.45 -1.1 0  -0.35 -1.1 0  -0.25 -1.1 0  -0.15 -1.1 0  -0.05000000000000004 -1.1 0  0.05000000000000004 -1.1 0  0.15 -1.1 0  0.25 -1.1 0  0.3500000000000001 -1.1 0  0.45 -1.1 0  0.55 -1.1 0  0.6499999999999999 -1.1 0  0.75 -1.1 0  -0.75 -1 0  -0.65 -1 0  -0.55 -1 0  -0.45 -1 0  -0.35 -1 0  -0.25 -1 0  -0.15 -1 0  -0.05000000000000004 -1 0  0.05000000000000004 -1 0  0.15 -1 0  0.25 -1 0  0.3500000000000001 -1 0  0.45 -1 0  0.55 -1 0  0.6499999999999999 -1 0  0.75 -1 0  -0.75 -0.8999999999999999 0  -0.65 -0.899999
[...]
<PointData  Vectors="displacement"> 
<DataArray  type="Float64"  Name="displacement"  NumberOfComponents="3" format="ascii">-6.1713453418170094e-36 -1.9852334701272721e-21 0.0000000000000000e+00  5.2527908213353120e-36 5.1647691132490928e-22 0.0000000000000000e+00  7.0529661049337491e-36 -3.4741585727227283e-21 0.0000000000000000e+00  -7.0792253171164247e-36 3.8657768939783038e-21 0.0000000000000000e+00  -7.0529661049337478e-36 -1.9852334701272728e-21 0.0000000000000000e+00  -6.3779308601635069e-35 -2.5181973445072449e-21 0.0000000000000000e+00  -7.7582627154271253e-35 1.9852334701272736e-21 0.0000000000000000e+00  -5.8707049502877911e-35 -7.1111683285418339e-21 0.0000000000000000e+00  -2.8211864419734991e-35 9.9261673506363641e-22 0.0000000000000000e+00  -4.9069613905688532e-35 5.1000546515279729e-22 0.0000000000000000e+00  -2.4685381367268102e-35 -4.4667753077863615e-21 0.0000000000000000e+00  5.8422872796459317e-35 2.6572369384699177e-21 0.0000000000000000e+00  7.0529661049337478e-36 -1.4889251025954547e-21 0.0000000000000000e+00  1.6971199689996824e-35 -4.6528909456107938e-22 0.0000000000000000e+00  -3.5264830524668772e-36 -1.9852334701272747e-21 0.0000000000000000e+00  3.5264830524668712e-36 2.9778502051909072e-21 0.0000000000000000e+00  1.0579449157400550e-35 -3.4746122520872743e-05 0.0000000000000000e+00  -9.4065826991423399e-20 -3.4746122520872776e-05 0.0000000000000000e+00  -1.7355087600308598e-19 -3.4746122520872770e-05 0.0000000000000000e+00  -2.5680050393598436e-19 -3.4746122520872776e-05 0.0000000000000000e+00  -3.2997077152746811e-19 -3.4746122520872756e-05 0.0000000000000000e+00  -4.2143921641636874e-19 -3.4746122520872756e-05 0.0000000000000000e+00  -5.1808281332504342e-19 -3.4746122520872770e-05 0.0000000000000000e+00  -6.0645062081798010e-19 -3.4746122520872763e-05 0.0000000000000000e+00  -5.9036114858381380e-19 -3.4746122520872783e-05 0.0000000000000000e+00  -5.5871423262601508e-19 -3.4746122520872837e-05 0.0000000000000000e+00  -4.9655288311213875e-19 -3.4746122520872824e-05 0.0000000000000000e+00  -3.9160287426608288e-19 -3.4746122520872919e-05 0.0000000000000000e+00  -3.0500488185019375e-19 -3.4746122520873000e-05 0.0000000000000000e+00  -2.1912022345312295e-19 -3.4746122520873068e-05 0.0000000000000000e+00  -1.2008896705251328e-19 -3.4746122520873163e-05 0.0000000000000000e+00  -1.1989722501940003e-35 -3.4746122520873190e-05 0.0000000000000000e+00  -2.8211864419734922e-35 -6.9589675234287958e-05 0.0000000000000000e+00  -1.6619103180710817e-19 -6.9589675234287958e-05 0.0000000000000000e+00  -3.1163186307627337e-19 -6.9589675234288067e-05 0.0000000000000000e+00  -4.5738847935591186e-19 -6.9589675234288053e-05 0.0000000000000000e+00  -6.2827968687880021e-19 -6.9589675234287986e-05 0.0000000000000000e+00  -7.6218520686376235e-19 -6.9589675234288026e-05 0.0000000000000000e+00  -9.1342391221126530e-19 -6.9589675234287986e-05 0.0000000000000000e+00  -1.0385617442223498e-18 -6.9589675234288121e-05 0.0000000000000000e+00  -1.0522853696288250e-18 -6.9589675234288080e-05 0.0000000000000000e+00  -1.0058361759453704e-18 -6.9589675234288162e-05 0.0000000000000000e+00  -8.9474342483641553e-19 -6.9589675234288257e-05 0.0000000000000000e+00  -7.3833157017557149e-19 -6.9589675234288392e-05 0.0000000000000000e+00  -5.8133965294201000e-19 -6.9589675234288623e-05 0.0000000000000000e+00  -4.0706384282591851e-19 -6.9589675234288799e-05 0.0000000000000000e+00  -2.0331881550869618e-19 -6.9589675234288975e-05 0.0000000000000000e+00  1.9409432112991453e-35 -6.9589675234288948e-05 0.0000000000000000e+00  4.8103432887555834e-35 -1.0462786211550134e-04 0.0000000000000000e+00  -2.3271164427245352e-19 -1.0462786211550163e-04 0.0000000000000000e+00  -4.4554328144536274e-19 -1.0462786211550160e-04 0.0000000000000000e+00  -6.7485927936343092e-19 -1.0462786211550156e-04 0.0000000000000000e+00  -8.7240773308865062e-19 -1.0462786211550161e-04 0.0000000000000000e+00  -1.0909527506810454e-18 -1.0462786211550157e-04 0.0000000000000000e+00  -1.2533282417208249e-18 -1.0462786211550163e-04 0.0000000000000000e+00  -1.3571984408062375e-18 -1.0462786211550183e-04 0.0000000000000000e+00  -1.4121652592048334e-18 -1.0462786211550180e-04 0.0000000000000000e+00  -1.3758227082411260e-18 -1.0462786211550197e-04 0.0000000000000000e+00  -1.2362733994764384e-18 -1.0462786211550210e-04 0.0000000000000000e+00  -1.0314388425786591e-18 -1.0462786211550236e-04 0.0000000000000000e+00  -8.0705474025003836e-19 -1.0462786211550266e-04 0.0000000000000000e+00  -5.3136821910380179e-19 -1.0462786211550287e-04 0.0000000000000000e+00  -2.7119091115926824e-19 -1.0462786211550313e-04 0.0000000000000000e+00  6.5491828117241755e-36 -1.0462786211550325e-04 0.0000000000000000e+00  -5.2897245787002745e-35 -1.3995743492381453e-04 0.0000000000000000e+00  -2.8605970100389412e-19 -1.3995743492381456e-04 0.0000000000000000e+00  -6.0674694778535753e-19 -1.3995743492381470e-04 0.0000000000000000e+00  -8.8927190617538009e-19 -1.3995743492381456e-04 0.0000000000000000e+00  -1.1385009134506562e-18 -1.3995743492381472e-04 0.0000000000000000e+00  -1.3354444418588305e-18 -1.3995743492381470e-04 0.0000000000000000e+00  -1.5298861180282872e-18 -1.3995743492381470e-04 0.0000000000000000e+00  -1.6770893596222543e-18 -1.3995743492381475e-04 0.0000000000000000e+00  -1.6762082912967638e-18 -1.3995743492381513e-04 0.0000000000000000e+00  -1.6675260532360515e-18 -1.3995743492381491e-04 0.0000000000000000e+00  -1.5261562774729194e-18 -1.3995743492381529e-04 0.0000000000000000e+00  -1.2769087409421568e-18 -1.3995743492381575e-04 0.0000000000000000e+00  -9.6549340508589705e-19 -1.3995743492381630e-04 0.0000000000000000e+00  -6.4437699600866530e-19 -1.3995743492381665e-04 0.0000000000000000e+00  -3.1299163535529972e-19 -1.3995743492381689e-04 0.0000000000000000e+00  7.0529661049336970e-36 -1.3995743492381692e-04 0.0000000000000000e+00  5.7196142443711958e-35 -1.7567446764811740e-04 0.0000000000000000e+00  -3.7178321393116514e-19 -1.7567446764811729e-04 0.0000000000000000e+00  -7.3643085258133077e-19 -1.7567446764811726e-04 0.0000000000000000e+00  -1.0946044319827723e-18 -1.7567446764811751e-04 0.0000000000000000e+00  -1.3765291123347191e-18 -1.7567446764811751e-04 0.0000000000000000e+00  -1.5809616468259758e-18 -1.7567446764811775e-04 0.0000000000000000e+00  -1.7371998437612366e-18 -1.7567446764811762e-04 0.0000000000000000e+00  -1.8684476492564356e-18 -1.7567446764811808e-04 0.0000000000000000e+00  -1.9343977842173577e-18 -1.7567446764811797e-04 0.0000000000000000e+00  -1.8706357092518889e-18 -1.7567446764811805e-04 0.0000000000000000e+00  -1.6912825891930650e-18 -1.7567446764811848e-04 0.0000000000000000e+00  -1.4467906158248605e-18 -1.7567446764811922e-04 0.0000000000000000e+00  -1.1155763347994503e-18 -1.7567446764811979e-04 0.0000000000000000e+00  -7.2988573892593507e-19 -1.7567446764812016e-04 0.0000000000000000e+00  -3.4899135896916760e-19 -1.7567446764812041e-04 0.0000000000000000e+00  5.8611173235582541e-35 -1.7567446764812052e-04 0.0000000000000000e+00  -1.4105932209867431e-35 -2.1187413163604345e-04 0.0000000000000000e+00  -4.6349396601975865e-19 -2.1187413163604353e-04 0.0000000000000000e+00  -8.9826406602846061e-19 -2.1187413163604351e-04 0.0000000000000000e+00  -1.2667766523619407e-18 -2.1187413163604375e-04 0.0000000000000000e+00  -1.5570316849741569e-18 -2.1187413163604386e-04 0.0000000000000000e+00  -1.8005396533295823e-18 -2.1187413163604391e-04 0.0000000000000000e+00  -1.9409394287594679e-18 -2.1187413163604391e-04 0.0000000000000000e+00  -2.0589660763684425e-18 -2.1187413163604408e-04 0.0000000000000000e+00  -2.1489677042493291e-18 -2.1187413163604440e-04 0.0000000000000000e+00  -2.0610342117780516e-18 -2.1187413163604475e-04 0.0000000000000000e+00  -1.8681021168691544e-18 -2.1187413163604503e-04 0.0000000000000000e+00  -1.5841286373043916e-18 -2.1187413163604576e-04 0.0000000000000000e+00  -1.2606697863816547e-18 -2.1187413163604641e-04 0.0000000000000000e+00  -8.5919729751400446e-19 -2.1187413163604700e-04 0.0000000000000000e+00  -4.1376483949582243e-19 -2.1187413163604725e-04 0.0000000000000000e+00  -3.0624221545577012e-35 -2.1187413163604700e-04 0.0000000000000000e+00  1.4984823922295829e-34 -2.4865047166634433e-04 0.0000000000000000e+00  -5.3210274383487084e-19 -2.4865047166634422e-04 0.0000000000000000e+00  -1.0213544292896189e-18 -2.4865047166634438e-04 0.0000000000000000e+00  -1.3900976873266895e-18 -2.4865047166634476e-04 0.0000000000000000e+00  -1.7034186119914542e-18 -2.4865047166634509e-04 0.0000000000000000e+00  -1.9667010870972200e-18 -2.4865047166634492e-04 0.0000000000000000e+00  -2.1514052940167091e-18 -2.4865047166634519e-04 0.0000000000000000e+00  -2.2751659596950769e-18 -2.4865047166634498e-04 0.0000000000000000e+00  -2.3030692584323019e-18 -2.4865047166634536e-04 0.0000000000000000e+00  -2.2613367679393200e-18 -2.4865047166634568e-04 0.0000000000000000e+00  -1.9944725235831793e-18 -2.4865047166634606e-04 0.0000000000000000e+00  -1.6941287732547595e-18 -2.4865047166634704e-04 0.0000000000000000e+00  -1.3447129074884419e-18 -2.4865047166634796e-04 0.0000000000000000e+00  -8.8800096919541605e-19 -2.4865047166634866e-04 0.0000000000000000e+00  -4.7009855707542152e-19 -2.4865047166634883e-04 0.0000000000000000e+00  -2.5189164660477485e-36 -2.4865047166634883e-04 0.0000000000000000e+00  -1.1990042378387330e-34 -2.8609618325024864e-04 0.0000000000000000e+00  -5.2792872548910841e-19 -2.8609618325024853e-04 0.0000000000000000e+00  -1.0478220970572289e-18 -2.8609618325024859e-04 0.0000000000000000e+00  -1.5770527438091521e-18 -2.8609618325024918e-04 0.0000000000000000e+00  -1.9173371985946623e-18 -2.8609618325024945e-04 0.0000000000000000e+00  -2.1106688378915122e-18 -2.8609618325024994e-04 0.0000000000000000e+00  -2.3249824176937618e-18 -2.8609618325024940e-04 0.0000000000000000e+00  -2.4459575993141439e-18 -2.8609618325024962e-04 0.0000000000000000e+00  -2.4262853082932308e-18 -2.8609618325024978e-04 0.0000000000000000e+00  -2.3764832634171136e-18 -2.8609618325025027e-04 0.0000000000000000e+00  -2.2106935026613365e-18 -2.8609618325025092e-04 0.0000000000000000e+00  -1.8190698465767419e-18 -2.8609618325025162e-04 0.0000000000000000e+00  -1.3940382762473545e-18 -2.8609618325025303e-04 0.0000000000000000e+00  -9.0533701143026186e-19 -2.8609618325025357e-04 0.0000000000000000e+00  -4.8776574138471849e-19 -2.8609618325025379e-04 0.0000000000000000e+00  3.5264830524668615e-35 -2.8609618325025363e-04 0.0000000000000000e+00  1.5492440284736962e-34 -3.2430239147892442e-04 0.0000000000000000e+00  -5.5342599694358403e-19 -3.2430239147892436e-04 0.0000000000000000e+00  -1.1086188417408780e-18 -3.2430239147892415e-04 0.0000000000000000e+00  -1.6285588559922314e-18 -3.2430239147892491e-04 0.0000000000000000e+00  -1.9705073532186873e-18 -3.2430239147892583e-04 0.0000000000000000e+00  -2.2970719159854582e-18 -3.2430239147892599e-04 0.0000000000000000e+00  -2.5347652373704284e-18 -3.2430239147892534e-04 0.0000000000000000e+00  -2.5719033708181827e-18 -3.2430239147892550e-04 0.0000000000000000e+00  -2.5145904398634285e-18 -3.2430239147892556e-04 0.0000000000000000e+00  -2.5500607332217065e-18 -3.2430239147892577e-04 0.0000000000000000e+00  -2.3701184813254695e-18 -3.2430239147892680e-04 0.0000000000000000e+00  -1.9584669118533299e-18 -3.2430239147892810e-04 0.0000000000000000e+00  -1.4813867063319317e-18 -3.2430239147892935e-04 0.0000000000000000e+00  -1.0326500286626395e-18 -3.2430239147893033e-04 0.0000000000000000e+00  -5.6514931251253114e-19 -3.2430239147892984e-04 0.0000000000000000e+00  -5.3132988922145250e-36 -3.2430239147893027e-04 0.0000000000000000e+00  -6.3476694944403568e-35 -3.6335843176991023e-04 0.0000000000000000e+00  -6.5769216842813036e-19 -3.6335843176991045e-04 0.0000000000000000e+00  -1.2093795447302918e-18 -3.6335843176991012e-04 0.0000000000000000e+00  -1.6087497581364954e-18 -3.6335843176991099e-04 0.0000000000000000e+00  -2.0701406982798955e-18 -3.6335843176991202e-04 0.0000000000000000e+00  -2.4112673755050581e-18 -3.6335843176991229e-04 0.0000000000000000e+00  -2.5424080392729036e-18 -3.6335843176991196e-04 0.0000000000000000e+00  -2.6518266939281814e-18 -3.6335843176991180e-04 0.0000000000000000e+00  -2.7423631774712937e-18 -3.6335843176991191e-04 0.0000000000000000e+00  -2.6028439078619913e-18 -3.6335843176991180e-04 0.0000000000000000e+00  -2.4348235899335252e-18 -3.6335843176991332e-04 0.0000000000000000e+00  -2.0494684038816021e-18 -3.6335843176991462e-04 0.0000000000000000e+00  -1.5875212042401931e-18 -3.6335843176991587e-04 0.0000000000000000e+00  -1.1573258583843696e-18 -3.6335843176991690e-04 0.0000000000000000e+00  -6.3842384318121200e-19 -3.6335843176991711e-04 0.0000000000000000e+00  7.4386184491003384e-35 -3.6335843176991706e-04 0.0000000000000000e+00  -4.6725183467388915e-35 -4.0335163290456511e-04 0.0000000000000000e+00  -6.5150420447786704e-19 -4.0335163290456505e-04 0.0000000000000000e+00  -1.2300591018173246e-18 -4.0335163290456533e-04 0.0000000000000000e+00  -1.6628449417730910e-18 -4.0335163290456592e-04 0.0000000000000000e+00  -2.0805077802993638e-18 -4.0335163290456668e-04 0.0000000000000000e+00  -2.3579299775310493e-18 -4.0335163290456706e-04 0.0000000000000000e+00  -2.5802443422336312e-18 -4.0335163290456701e-04 0.0000000000000000e+00  -2.7430360197066053e-18 -4.0335163290456668e-04 0.0000000000000000e+00  -2.8575396944223344e-18 -4.0335163290456695e-04 0.0000000000000000e+00  -2.7041876031713528e-18 -4.0335163290456760e-04 0.0000000000000000e+00  -2.3664241464814670e-18 -4.0335163290456858e-04 0.0000000000000000e+00  -2.0628313108207541e-18 -4.0335163290457031e-04 0.0000000000000000e+00  -1.6345199281513102e-18 -4.0335163290457113e-04 0.0000000000000000e+00  -1.2002649176805829e-18 -4.0335163290457221e-04 0.0000000000000000e+00  -5.8764152114890069e-19 -4.0335163290457232e-04 0.0000000000000000e+00  -8.5139376552414116e-35 -4.0335163290457286e-04 0.0000000000000000e+00  7.0529661049337237e-36 -4.4436710279012459e-04 0.0000000000000000e+00  -6.4537148963926111e-19 -4.4436710279012443e-04 0.0000000000000000e+00  -1.1949259687311362e-18 -4.4436710279012497e-04 0.0000000000000000e+00  -1.5780061138376320e-18 -4.4436710279012606e-04 0.0000000000000000e+00  -1.9232041777201444e-18 -4.4436710279012633e-04 0.0000000000000000e+00  -2.3697534086504775e-18 -4.4436710279012682e-04 0.0000000000000000e+00  -2.6824712611037588e-18 -4.4436710279012665e-04 0.0000000000000000e+00  -2.8148508374685529e-18 -4.4436710279012676e-04 0.0000000000000000e+00  -2.8414507634482665e-18 -4.4436710279012682e-04 0.0000000000000000e+00  -2.7783641523953552e-18 -4.4436710279012736e-04 0.0000000000000000e+00  -2.4853249506678309e-18 -4.4436710279012844e-04 0.0000000000000000e+00  -2.1552425869123373e-18 -4.4436710279012985e-04 0.0000000000000000e+00  -1.6742681042178358e-18 -4.4436710279013126e-04 0.0000000000000000e+00  -9.7965572132379089e-19 -4.4436710279013197e-04 0.0000000000000000e+00  -4.4491413623955351e-19 -4.4436710279013305e-04 0.0000000000000000e+00  7.0529661049337224e-36 -4.4436710279013283e-04 0.0000000000000000e+00  2.1179136786012460e-35 -4.8648751742273949e-04 0.0000000000000000e+00  -6.1398330340394614e-19 -4.8648751742274020e-04 0.0000000000000000e+00  -1.0851509888100345e-18 -4.8648751742274009e-04 0.0000000000000000e+00  -1.6051546631310705e-18 -4.8648751742274128e-04 0.0000000000000000e+00  -2.0658926656896980e-18 -4.8648751742274204e-04 0.0000000000000000e+00  -2.4423830569555209e-18 -4.8648751742274302e-04 0.0000000000000000e+00  -2.7485254698692003e-18 -4.8648751742274210e-04 0.0000000000000000e+00  -2.9592227072395817e-18 -4.8648751742274199e-04 0.0000000000000000e+00  -2.9844302778568752e-18 -4.8648751742274199e-04 0.0000000000000000e+00  -2.9320173133044047e-18 -4.8648751742274394e-04 0.0000000000000000e+00  -2.6368148570896712e-18 -4.8648751742274410e-04 0.0000000000000000e+00  -2.0983423246501028e-18 -4.8648751742274573e-04 0.0000000000000000e+00  -1.5595123467808700e-18 -4.8648751742274735e-04 0.0000000000000000e+00  -9.7838892513242404e-19 -4.8648751742274844e-04 0.0000000000000000e+00  -4.7858997741322187e-19 -4.8648751742274898e-04 0.0000000000000000e+00  7.6234437733398851e-35 -4.8648751742274876e-04 0.0000000000000000e+00  -3.5264830524668577e-35 -5.2979291357067805e-04 0.0000000000000000e+00  -5.4706062184347075e-19 -5.2979291357067794e-04 0.0000000000000000e+00  -1.1431048370026475e-18 -5.2979291357067881e-04 0.0000000000000000e+00  -1.6883440163016563e-18 -5.2979291357067924e-04 0.0000000000000000e+00  -2.0813500030121179e-18 -5.2979291357068022e-04 0.0000000000000000e+00  -2.5724246904006817e-18 -5.2979291357068065e-04 0.0000000000000000e+00  -2.9005887192999983e-18 -5.2979291357068033e-04 0.0000000000000000e+00  -3.1213858155282104e-18 -5.2979291357068022e-04 0.0000000000000000e+00  -3.1239421685298498e-18 -5.2979291357068119e-04 0.0000000000000000e+00  -3.0761620512840072e-18 -5.2979291357068141e-04 0.0000000000000000e+00  -2.7454237338124213e-18 -5.2979291357068315e-04 0.0000000000000000e+00  -2.1765896040569069e-18 -5.2979291357068499e-04 0.0000000000000000e+00  -1.5944741395338909e-18 -5.2979291357068629e-04 0.0000000000000000e+00  -1.0089503832491496e-18 -5.2979291357068759e-04 0.0000000000000000e+00  -4.9614210958372115e-19 -5.2979291357068759e-04 0.0000000000000000e+00  -7.9866873576862710e-35 -5.2979291357068748e-04 0.0000000000000000e+00  3.9262634149897924e-36 -5.7436048573849402e-04 0.0000000000000000e+00  -6.4900415654260260e-19 -5.7436048573849619e-04 0.0000000000000000e+00  -1.2042745210055428e-18 -5.7436048573849348e-04 0.0000000000000000e+00  -1.7207314932734621e-18 -5.7436048573849575e-04 0.0000000000000000e+00  -2.1687550796202461e-18 -5.7436048573849651e-04 0.0000000000000000e+00  -2.5184832106955379e-18 -5.7436048573849673e-04 0.0000000000000000e+00  -2.9178716465771133e-18 -5.7436048573849651e-04 0.0000000000000000e+00  -3.1112514459972652e-18 -5.7436048573849695e-04 0.0000000000000000e+00  -3.2470394260296624e-18 -5.7436048573849771e-04 0.0000000000000000e+00  -3.0893290756027943e-18 -5.7436048573849825e-04 0.0000000000000000e+00  -2.7877002677159336e-18 -5.7436048573849987e-04 0.0000000000000000e+00  -2.3019798124123352e-18 -5.7436048573850204e-04 0.0000000000000000e+00  -1.7432729500871214e-18 -5.7436048573850334e-04 0.0000000000000000e+00  -1.1596370548358924e-18 -5.7436048573850465e-04 0.0000000000000000e+00  -6.0442528328608608e-19 -5.7436048573850497e-04 0.0000000000000000e+00  1.8639981848753422e-35 -5.7436048573850421e-04 0.0000000000000000e+00  -2.1158898314801148e-35 -6.2026438801221452e-04 0.0000000000000000e+00  -6.8465192328932231e-19 -6.2026438801221506e-04 0.0000000000000000e+00  -1.3368632992809703e-18 -6.2026438801221538e-04 0.0000000000000000e+00  -1.7131450821445030e-18 -6.2026438801221701e-04 0.0000000000000000e+00  -2.1966467030035028e-18 -6.2026438801221712e-04 0.0000000000000000e+00  -2.5032031052924848e-18 -6.2026438801221777e-04 0.0000000000000000e+00  -2.8452869842381520e-18 -6.2026438801221701e-04 0.0000000000000000e+00  -3.0849876924264301e-18 -6.2026438801221679e-04 0.0000000000000000e+00  -3.2424300892743569e-18 -6.2026438801221766e-04 0.0000000000000000e+00  -3.1092456853609373e-18 -6.2026438801221864e-04 0.0000000000000000e+00  -2.7164855548491423e-18 -6.2026438801222037e-04 0.0000000000000000e+00  -2.3511737311770908e-18 -6.2026438801222287e-04 0.0000000000000000e+00  -1.8198165325049849e-18 -6.2026438801222417e-04 0.0000000000000000e+00  -1.2566618218360337e-18 -6.2026438801222525e-04 0.0000000000000000e+00  -5.9549122626762076e-19 -6.2026438801222547e-04 0.0000000000000000e+00  -6.3476694944403429e-35 -6.2026438801222612e-04 0.0000000000000000e+00  4.5451736707494476e-37 -6.6757554142118014e-04 0.0000000000000000e+00  -6.7390400922757506e-19 -6.6757554142117960e-04 0.0000000000000000e+00  -1.2504489925543094e-18 -6.6757554142118133e-04 0.0000000000000000e+00  -1.6974159663163510e-18 -6.6757554142118068e-04 0.0000000000000000e+00  -2.1493967954480863e-18 -6.67575541