<?xml version="1.0"?>
<VTKFile type="UnstructuredGrid"  version="0.1"  >
<UnstructuredGrid>
<Piece  NumberOfPoints="431" NumberOfCells="800">
<Points>
<DataArray  type="Float64"  NumberOfComponents="3"  format="ascii">-0.75 -3 0  -0.6 -3 0  -0.45 -3 0  -0.3 -3 0  -0.15 -3 0  0 -3 0  0.15 -3 0  0.3 -3 0  0.45 -3 0  0.6000000000000001 -3 0  0.75 -3 0  -0.75 -2.85 0  -0.6 -2.85 0  -0.45 -2.85 0  -0.3 -2.85 0  -0.15 -2.85 0  0 -2.85 0  0.15 -2.85 0  0.3 -2.85 0  0.45 -2.85 0  0.6000000000000001 -2.85 0  0.75 -2.85 0  -0.75 -2.7 0  -0.6 -2.7 0  -0.45 -2.7 0  -0.3 -2.7 0  -0.15 -2.7 0  0 -2.7 0  0.15 -2.7 0  0.3 -2.7 0  0.45 -2.7 0  0.6000000000000001 -2.7 0  0.75 -2.7 0  -0.75 -2.55 0  -0.6 -2.55 0  -0.45 -2.55 0  -0.3 -2.55 0  -0.15 -2.55 0  0 -2.55 0  0.15 -2.55 0  0.3 -2.55 0  0.45 -2.55 0  0.6000000000000001 -2.55 0  0.75 -2.55 0  -0.75 -2.4 0  -0.6 -2.4 0  -0.45 -2.4 0  -0.3 -2.4 0  -0.15 -2.4 0  0 -2.4 0  0.15 -2.4 0  0.3 -2.4 0  0.45 -2.4 0  0.6000000000000001 -2.4 0  0.75 -2.4 0  -0.75 -2.25 0  -0.6 -2.25 0  -0.45 -2.25 0  -0.3 -2.25 0  -0.15 -2.25 0  0 -2.25 0  0.15 -2.25 0  0.3 -2.25 0  0.45 -2.25 0  0.6000000000000001 -2.25 0  0.75 -2.25 0  -0.75 -2.1 0  -0.6 -2.1 0  -0.45 -2.1 0  -0.3 -2.1 0  -0.15 -2.1 0  0 -2.1 0  0.15 -2.1 0  0.3 -2.1 0  0.45 -2.1 0  0.6000000000000001 -2.1 0  0.75 -2.1 0  -0.75 -1.95 0  -0.6 -1.95 0  -0.45 -1.95 0  -0.3 -1.95 0  -0.15 -1.95 0  0 -1.95 0  0.15 -1.95 0  0.3 -1.95 0  0.45 -1.95 0  0.6000000000000001 -1.95 0  0.75 -1.95 0  -0.75 -1.8 0  -0.6 -1.8 0  -0.45 -1.8 0  -0.3 -1.8 0  -0.15 -1.8 0  0 -1.8 0  0.15 -1.8 0  0.3 -1.8 0  0.45 -1.8 0  0.6000000000000001 -1.8 0  0.75 -1.8 0  -0.75 -1.65 0  -0.6 -1.65 0  -0.45 -1.65 0  -0.3 -1.65 0  -0.15 -1.65 0  0 -1.65 0  0.15 -1.65 0  0.3 -1.65 0  0.45 -1.65 0  0.6000000000000001 -1.65 0  0.75 -1.65 0  -0.75 -1.5 0  -0.6 -1.5 0  -0.45 -1.5 0  -0.3 -1.5 0  -0.15 -1.5 0  0 -1.5 0  0.15 -1.5 0  0.3 -1.5 0  0.45 -1.5 0  0.6000000000000001 -1.5 0  0.75 -1.5 0  -0.75 -1.35 0  -0.6 -1.35 0  -0.45 -1.35 0  -0.3 -1.35 0  -0.15 -1.35 0  0 -1.35 0  0.15 -1.35 0  0.3 -1.35 0  0.45 -1.35 0  0.6000000000000001 -1.35 0  0.75 -1.35 0  -0.75 -1.2 0  -0.6 -1.2 0  -0.45 -1.2 0  -0.3 -1.2 0  -0.15 -1.2 0  0 -1.2 0  0.15 -1.2 0  0.3 -1.2 0  0.45 -1.2 0  0.6000000000000001 -1.2 0  0.75 -1.2 0  -0.75 -1.05 0  -0.6 -1.05 0  -0.45 -1.05 0  -0.3 -1.05 0  -0.15 -1.05 0  0 -1.05 0  0.15 -1.05 0  0.3 -1.05 0  0.45 -1.05 0  0.6000000000000001 -1.05 0  0.75 -1.05 0  -0.75 -0.8999999999999999 0  -0.6 -0.8999999999999999 0  -0.45 -0.8999999999999999 0  -0.3 -0.8999999999999999 0  -0.15 -0.8999999999999999 0  0 -0.8999999999999999 0  0.15 -0.8999999999999999 0  0.3 -0.8999999999999999 0  0.45 -0.8999999999999999 0  0.6000000000000001 -0.8999999999999999 0  0.75 -0.8999999999999999 0  -0.75 -0.75 0  -0.6 -0.75 0  -0.45 -0.75 0  -0.3 -0.75 0  -0.15 -0.75 0  0 -0.75 0  0.15 -0.75 0  0.3 -0.75 0  0.45 -0.75 0  0.6000000000000001 -0.75 0  0.75 -0.75 0  -0.75 -0.6000000000000001 0  -0.6 -0.6000000000000001 0  -0.45 -0.6000000000000001 0  -0.3 -0.6000000000000001 0  -0.15 -0.6000000000000001 0  0 -0.6000000000000001 0  0.15 -0.6000000000000001 0  0.3 -0.6000000000000001 0  0.45 -0.6000000000000001 0  0.6000000000000001 -0.6000000000000001 0  0.75 -0.6000000000000001 0  -0.75 -0.4500000000000002 0  -0.6 -0.4500000000000002 0  -0.45 -0.4500000000000002 0  -0.3 -0.4500000000000002 0  -0.15 -0.4500000000000002 0  0 -0.4500000000000002 0  0.15 -0.4500000000000002 0  0.3 -0.4500000000000002 0  0.45 -0.4500000000000002 0  0.6000000000000001 -0.4500000000000002 0  0.75 -0.4500000000000002 0  -0.75 -0.2999999999999998 0  -0.6 -0.2999999999999998 0  -0.45 -0.2999999999999998 0  -0.3 -0.2999999999999998 0  -0.15 -0.2999999999999998 0  0 -0.2999999999999998 0  0.15 -0.2999999999999998 0  0.3 -0.2999999999999998 0  0.45 -0.2999999999999998 0  0.6000000000000001 -0.2999999999999998 0  0.75 -0.2999999999999998 0  -0.75 -0.1499999999999999 0  -0.6 -0.1499999999999999 0  -0.45 -0.1499999999999999 0  -0.3 -0.1499999999999999 0  -0.15 -0.1499999999999999 0  0 -0.1499999999999999 0  0.15 -0.1499999999999999 0  0.3 -0.1499999999999999 0  0.45 -0.1499999999999999 0  0.6000000000000001 -0.1499999999999999 0  0.75 -0.1499999999999999 0  -0.75 0 0  -0.6 0 0  -0.45 0 0  -0.3 0 0  -0.15 0 0  0 0 0  0.15 0 0  0.3 0 0  0.45 0 0  0.6000000000000001 0 0  0.75 0 0  -0.675 -2.925 0  -0.525 -2.925 0  -0.375 -2.925 0  -0.225 -2.925 0  -0.07499999999999996 -2.925 0  0.07499999999999996 -2.925 0  0.225 -2.925 0  0.375 -2.925 0  0.5249999999999999 -2.925 0  0.675 -2.925 0  -0.675 -2.775 0  -0.525 -2.775 0  -0.375 -2.775 0  -0.225 -2.775 0  -0.07499999999999996 -2.775 0  0.07499999999999996 -2.775 0  0.225 -2.775 0  0.375 -2.775 0  0.5249999999999999 -2.775 0  0.675 -2.775 0  -0.675 -2.625 0  -0.525 -2.625 0  -0.375 -2.625 0  -0.225 -2.625 0  -0.07499999999999996 -2.625 0  0.07499999999999996 -2.625 0  0.225 -2.625 0  0.375 -2.625 0  0.5249999999999999 -2.625 0  0.675 -2.625 0  -0.675 -2.475 0  -0.525 -2.475 0  -0.375 -2.475 0  -0.225 -2.475 0  -0.07499999999999996 -2.475 0  0.07499999999999996 -2.475 0  0.225 -2.475 0  0.375 -2.475 0  0.5249999999999999 -2.475 0  0.675 -2.475 0  -0.675 -2.325 0  -0.525 -2.325 0  -0.375 -2.325 0  -0.225 -2.325 0  -0.07499999999999996 -2.325 0  0.07499999999999996 -2.325 0  0.225 -2.325 0  0.375 -2.325 0  0.5249999999999999 -2.325 0  0.675 -2.325 0  -0.675 -2.175 0  -0.525 -2.175 0  -0.375 -2.175 0  -0.225 -2.175 0  -0.07499999999999996 -2.175 0  0.07499999999999996 -2.175 0  0.225 -2.175 0  0.375 -2.175 0  0.5249999999999999 -2.175 0  0.675 -2.175 0  -0.675 -2.025 0  -0.525 -2.025 0  -0.375 -2.025 0  -0.225 -2.025 0  -0.07499999999999996 -2.025 0  0.07499999999999996 -2.025 0  0.225 -2.025 0  0.375 -2.025 0  0.5249999999999999 -2.025 0  0.675 -2.025 0  -0.675 -1.875 0  -0.525 -1.875 0  -0.375 -1.875 0  -0.225 -1.875 0  -0.07499999999999996 -1.875 0  0.07499999999999996 -1.875 0  0.225 -1.875 0  0.375 -1.875 0  0.5249999999999999 -1.875 0  0.675 -1.875 0  -0.675 -1.725 0  -0.525 -1.725 0  -0.375 -1.725 0  -0.225 -1.725 0  -0.07499999999999996 -1.725 0  0.07499999999999996 -1.725 0  0.225 -1.725 0  0.375 -1.725 0  0.5249999999999999 -1.725 0  0.675 -1.725 0  -0.675 -1.575 0  -0.525 -1.575 0  -0.375 -1.575 0  -0.225 -1.575 0  -0.07499999999999996 -1.575 0  0.07499999999999996 -1.575 0  0.225 -1.575 0  0.375 -1.575 0  0.5249999999999999 -1.575 0  0.675 -1.575 0  -0.675 -1.425 0  -0.525 -1.425 0  -0.375 -1.425 0  -0.225 -1.425 0  -0.07499999999999996 -1.425 0  0.07499999999999996 -1.425 0  0.225 -1.425 0  0.375 -1.425 0  0.5249999999999999 -1.425 0  0.675 -1.425 0  -0.675 -1.275 0  -0.525 -1.275 0  -0.375 -1.275 0  -0.225 -1.275 0  -0.07499999999999996 -1.275 0  0.07499999999999996 -1.275 0  0.225 -1.275 0  0.375 -1.275 0  0.5249999999999999 -1.275 0  0.675 -1.275 0  -0.675 -1.125 0  -0.525 -1.125 0  -0.375 -1.125 0  -0.225 -1.125 0  -0.07499999999999996 -1.125 0  0.07499999999999996 -1.125 0  0.225 -1.125 0  0.375 -1.125 0  0.5249999999999999 -1.125 0  0.675 -1.125 0  -0.675 -0.9750000000000001 0  -0.525 -0.9750000000000001 0  -0.375 -0.9750000000000001 0  -0.225 -0.9750000000000001 0  -0.07499999999999996 -0.9750000000000001 0  0.07499999999999996 -0.9750000000000001 0  0.225 -0.9750000000000001 0  0.375 -0.9750000000000001 0  0.5249999999999999 -0.9750000000000001 0  0.675 -0.9750000000000001 0  -0.675 -0.8250000000000002 0  -0.525 -0.8250000000000002 0  -0.375 -0.8250000000000002 0  -0.225 -0.8250000000000002 0  -0.07499999999999996 -0.8250000000000002 0  0.07499999999999996 -0.8250000000000002 0  0.225 -0.8250000000000002 0  0.375 -0.8250000000000002 0  0.5249999999999999 -0.8250000000000002 0  0.675 -0.8250000000000002 0  -0.675 -0.6749999999999998 0  -0.525 -0.6749999999999998 0  -0.375 -0.6749999999999998 0  -0.225 -0.6749999999999998 0  -0.07499999999999996 -0.6749999999999998 0  0.07499999999999996 -0.6749999999999998 0  0.225 -0.6749999999999998 0  0.375 -0.6749999999999998 0  0.5249999999999999 -0.6749999999999998 0  0.675 -0.6749999999999998 0  -0.675 -0.5249999999999999 0  -0.525 -0.5249999999999999 0  -0.375 -0.5249999999999999 0  -0.225 -0.5249999999999999 0  -0.07499999999999996 -0.5249999999999999 0  0.07499999999999996 -0.5249999999999999 0  0.225 -0.5249999999999999 0  0.375 -0.5249999999999999 0  0.5249999999999999 -0.5249999999999999 0  0.675 -0.5249999999999999 0  -0.675 -0.375 0  -0.525 -0.375 0  -0.375 -0.375 0  -0.225 -0.375 0  -0.07499999999999996 -0.375 0  0.07499999999999996 -0.375 0  0.225 -0.375 0  0.375 -0.375 0  0.5249999999999999 -0.375 0  0.675 -0.375 0  -0.675 -0.2250000000000001 0  -0.525 -0.2250000000000001 0  -0.375 -0.2250000000000001 0  -0.225 -0.2250000000000001 0  -0.07499999999999996 -0.2250000000000001 0  0.07499999999999996 -0.2250000000000001 0  0.225 -0.2250000000000001 0  0.375 -0.2250000000000001 0  0.5249999999999999 -0.2250000000000001 0  0.675 -0.2250000000000001 0  -0.675 -0.07500000000000018 0  -0.525 -0.07500000000000018 0  -0.375 -0.07500000000000018 0  -0.225 -0.07500000000000018 0  -0.07499999999999996 -0.07500000000000018 0  0.07499999999999996 -0.07500000000000018 0  0.225 -0.07500000000000018 0  0.375 -0.07500000000000018 0  0.5249999999999999 -0.07500000000000018 0  0.675 -0.07500000000000018 0  </DataArray>
</Points>
<Cells>
[...]
<PointData  Vectors="displacement"> 
<DataArray  type="Float64"  Name="displacement"  NumberOfComponents="3" format="ascii">2.6952747595051211e-28 -1.2952601953960146e-14 0.0000000000000000e+00  -6.5738408768417582e-28 5.0885221961986289e-15 0.0000000000000000e+00  1.8981965531880579e-28 -1.0495077029659672e-14 0.0000000000000000e+00  -3.9443045261050550e-28 -2.7755575615628886e-15 0.0000000000000000e+00  7.3831623058533967e-28 -7.3996379121811176e-15 0.0000000000000000e+00  -1.8932661725304265e-27 -2.7755575615628886e-15 0.0000000000000000e+00  3.9693416153820882e-28 3.5869021873062062e-16 0.0000000000000000e+00  -1.5777218104420220e-28 -1.3415194880887295e-14 0.0000000000000000e+00  4.7930474227957657e-30 7.3436627149684781e-15 0.0000000000000000e+00  -1.3147681753683509e-28 -7.4014868308343648e-15 0.0000000000000000e+00  -8.4145163223574563e-28 5.5511151231257811e-15 0.0000000000000000e+00  0.0000000000000000e+00 -4.9619295558271475e+01 0.0000000000000000e+00  2.1732059694832355e-12 -4.9619295558267822e+01 0.0000000000000000e+00  -1.0862516843043431e-12 -4.9619295558268476e+01 0.0000000000000000e+00  3.8840806789816498e-12 -4.9619295558270316e+01 0.0000000000000000e+00  -1.6490122054479134e-12 -4.9619295558265094e+01 0.0000000000000000e+00  -5.8317654856166238e-12 -4.9619295558270316e+01 0.0000000000000000e+00  -2.0984836140792682e-12 -4.9619295558268703e+01 0.0000000000000000e+00  -1.2643890428862147e-13 -4.9619295558264170e+01 0.0000000000000000e+00  -4.3399440614808288e-12 -4.9619295558269144e+01 0.0000000000000000e+00  -1.7250752607537162e-12 -4.9619295558267673e+01 0.0000000000000000e+00  -8.0527476209596467e-28 -4.9619295558266366e+01 0.0000000000000000e+00  1.1435068976981760e-27 -9.9238591126278337e+01 0.0000000000000000e+00  3.5454048029377818e-12 -9.9238591126272524e+01 0.0000000000000000e+00  2.2817358519591307e-13 -9.9238591126278052e+01 0.0000000000000000e+00  1.1165811480109502e-12 -9.9238591126273406e+01 0.0000000000000000e+00  -3.3034524973433207e-12 -9.9238591126277328e+01 0.0000000000000000e+00  -3.7601256665202573e-12 -9.9238591126277683e+01 0.0000000000000000e+00  -3.1194169303582053e-12 -9.9238591126279815e+01 0.0000000000000000e+00  -7.8362072150507631e-12 -9.9238591126277342e+01 0.0000000000000000e+00  -1.1578861283165298e-12 -9.9238591126269185e+01 0.0000000000000000e+00  -5.5642111016318779e-12 -9.9238591126279175e+01 0.0000000000000000e+00  -3.2869204384208840e-28 -9.9238591126274329e+01 0.0000000000000000e+00  7.0997481469891071e-28 -1.4885788672794337e+02 0.0000000000000000e+00  1.7575009197567083e-12 -1.4885788672794936e+02 0.0000000000000000e+00  -3.5175728842888243e-12 -1.4885788672793660e+02 0.0000000000000000e+00  2.4766121187326386e-12 -1.4885788672794365e+02 0.0000000000000000e+00  -3.4884336606360773e-12 -1.4885788672794675e+02 0.0000000000000000e+00  -1.3415225594870598e-12 -1.4885788672794513e+02 0.0000000000000000e+00  -6.5967920507335183e-12 -1.4885788672793399e+02 0.0000000000000000e+00  -1.8452711435485738e-12 -1.4885788672794217e+02 0.0000000000000000e+00  -7.1490020093706379e-12 -1.4885788672794533e+02 0.0000000000000000e+00  -6.4485839221131201e-13 -1.4885788672793581e+02 0.0000000000000000e+00  1.8406754455156952e-28 -1.4885788672794303e+02 0.0000000000000000e+00  -2.6071491365698712e-27 -1.9847718243623325e+02 0.0000000000000000e+00  3.2587550529130350e-12 -1.9847718243623501e+02 0.0000000000000000e+00  2.0676965912774134e-11 -1.9847718243622842e+02 0.0000000000000000e+00  -1.5040514717610203e-12 -1.9847718243622629e+02 0.0000000000000000e+00  -4.1913456526082849e-12 -1.9847718243624362e+02 0.0000000000000000e+00  -8.8408206316266471e-12 -1.9847718243623351e+02 0.0000000000000000e+00  -6.2330811685153651e-12 -1.9847718243623606e+02 0.0000000000000000e+00  -1.1910349050767895e-11 -1.9847718243623021e+02 0.0000000000000000e+00  -4.2581164541080584e-12 -1.9847718243622361e+02 0.0000000000000000e+00  2.4584649563979670e-12 -1.9847718243621790e+02 0.0000000000000000e+00  1.0267447087491538e-28 -1.9847718243622350e+02 0.0000000000000000e+00  1.3969411863288739e-27 -2.4809647847944163e+02 0.0000000000000000e+00  8.2145864584873008e-12 -2.4809647847943486e+02 0.0000000000000000e+00  -4.6962619361582144e-12 -2.4809647847942747e+02 0.0000000000000000e+00  9.9039289552377012e-13 -2.4809647847944430e+02 0.0000000000000000e+00  -1.0449650114503478e-11 -2.4809647847941994e+02 0.0000000000000000e+00  -1.0019679878472596e-12 -2.4809647847942355e+02 0.0000000000000000e+00  -5.7419025715383686e-12 -2.4809647847942608e+02 0.0000000000000000e+00  -6.0948034708794755e-12 -2.4809647847942759e+02 0.0000000000000000e+00  -8.6313209113892254e-12 -2.4809647847943398e+02 0.0000000000000000e+00  -5.2766442079527834e-12 -2.4809647847942742e+02 0.0000000000000000e+00  7.7136794237002081e-28 -2.4809647847944066e+02 0.0000000000000000e+00  -5.2962688800180227e-28 -2.9771577557383927e+02 0.0000000000000000e+00  2.8344791578227885e-13 -2.9771577557385854e+02 0.0000000000000000e+00  4.1582400800472375e-12 -2.9771577557385962e+02 0.0000000000000000e+00  -2.0234918439157309e-12 -2.9771577557385012e+02 0.0000000000000000e+00  -5.4626446805473265e-12 -2.9771577557385177e+02 0.0000000000000000e+00  -1.1950606590674428e-11 -2.9771577557385501e+02 0.0000000000000000e+00  -7.9538813799158500e-12 -2.9771577557384757e+02 0.0000000000000000e+00  -6.1515642003481026e-12 -2.9771577557383506e+02 0.0000000000000000e+00  4.2963656188150862e-12 -2.9771577557382642e+02 0.0000000000000000e+00  -1.3709608891832053e-11 -2.9771577557383193e+02 0.0000000000000000e+00  1.6979291864757030e-27 -2.9771577557381670e+02 0.0000000000000000e+00  -6.3108872417680962e-28 -3.4733507596722802e+02 0.0000000000000000e+00  2.7460176198347093e-12 -3.4733507596723319e+02 0.0000000000000000e+00  4.5820413532984533e-14 -3.4733507596724922e+02 0.0000000000000000e+00  -1.2489530259120786e-11 -3.4733507596723950e+02 0.0000000000000000e+00  -5.9094573061329947e-12 -3.4733507596725639e+02 0.0000000000000000e+00  -8.4623534811752472e-13 -3.4733507596724610e+02 0.0000000000000000e+00  4.0581247820059556e-12 -3.4733507596724183e+02 0.0000000000000000e+00  -9.7601431522785973e-12 -3.4733507596723371e+02 0.0000000000000000e+00  6.1905168609368782e-12 -3.4733507596721921e+02 0.0000000000000000e+00  4.9243661658830546e-12 -3.4733507596722063e+02 0.0000000000000000e+00  -2.1036290805893668e-28 -3.4733507596721739e+02 0.0000000000000000e+00  -7.2160586376541933e-28 -3.9695438671381527e+02 0.0000000000000000e+00  -6.8772366835709329e-12 -3.9695438671381658e+02 0.0000000000000000e+00  1.2719746518688671e-12 -3.9695438671384295e+02 0.0000000000000000e+00  6.8679424545667544e-12 -3.9695438671384409e+02 0.0000000000000000e+00  -3.4377997628856636e-13 -3.9695438671384477e+02 0.0000000000000000e+00  -4.6014493780072115e-12 -3.9695438671383630e+02 0.0000000000000000e+00  -2.3657206974926037e-12 -3.9695438671383795e+02 0.0000000000000000e+00  2.3820909881750877e-11 -3.9695438671380901e+02 0.0000000000000000e+00  1.3638595063239841e-12 -3.9695438671381322e+02 0.0000000000000000e+00  5.2492043147185908e-12 -3.9695438671381686e+02 0.0000000000000000e+00  1.4827973090306649e-27 -3.9695438671379560e+02 0.0000000000000000e+00  3.1554436208840461e-27 -4.4657372995180879e+02 0.0000000000000000e+00  -3.3796229852820301e-12 -4.4657372995178235e+02 0.0000000000000000e+00  -2.8223288836200185e-11 -4.4657372995176763e+02 0.0000000000000000e+00  -3.0027352295103807e-12 -4.4657372995179844e+02 0.0000000000000000e+00  -2.6988923916424448e-12 -4.4657372995178088e+02 0.0000000000000000e+00  1.5505779839870942e-11 -4.4657372995178793e+02 0.0000000000000000e+00  2.9794480435986793e-11 -4.4657372995177002e+02 0.0000000000000000e+00  1.9926401770070392e-11 -4.4657372995178298e+02 0.0000000000000000e+00  6.3979652415312184e-12 -4.4657372995177792e+02 0.0000000000000000e+00  9.8040814996131861e-13 -4.4657372995175911e+02 0.0000000000000000e+00  -1.4359733665351231e-28 -4.4657372995180623e+02 0.0000000000000000e+00  -2.1701903197624174e-27 -4.9619317515725373e+02 0.0000000000000000e+00  -1.6420428166080889e-11 -4.9619317515727420e+02 0.0000000000000000e+00  -1.1098249087127857e-12 -4.9619317515726959e+02 0.0000000000000000e+00  -8.4843250198624741e-12 -4.9619317515726675e+02 0.0000000000000000e+00  6.7310160047905073e-12 -4.9619317515725203e+02 0.0000000000000000e+00  1.9405263344524488e-12 -4.9619317515724464e+02 0.0000000000000000e+00  1.1380774922826132e-12 -4.9619317515725101e+02 0.0000000000000000e+00  1.6928353187797644e-11 -4.9619317515726419e+02 0.0000000000000000e+00  1.2023164620338755e-11 -4.9619317515724651e+02 0.0000000000000000e+00  7.7470396734224344e-12 -4.9619317515725982e+02 0.0000000000000000e+00  1.4725403564125578e-27 -4.9619317515721730e+02 0.0000000000000000e+00  6.1629758220391511e-28 -5.4581294036665122e+02 0.0000000000000000e+00  -3.0997809173634864e-12 -5.4581294036663837e+02 0.0000000000000000e+00  5.3329483118990271e-12 -5.4581294036660586e+02 0.0000000000000000e+00  6.4750333463517955e-12 -5.4581294036659074e+02 0.0000000000000000e+00  -1.3894431324663922e-11 -5.4581294036662007e+02 0.0000000000000000e+00  -2.2542956765139329e-12 -5.4581294036659858e+02 0.0000000000000000e+00  -1.1607666115370015e-11 -5.4581294036659904e+02 0.0000000000000000e+00  5.1959807251685779e-12 -5.4581294036661654e+02 0.0000000000000000e+00  2.0769580434482058e-11 -5.4581294036663235e+02 0.0000000000000000e+00  4.7517674098535295e-12 -5.4581294036660483e+02 0.0000000000000000e+00  2.9450807128251116e-27 -5.4581294036662723e+02 0.0000000000000000e+00  -2.7102793587135213e-27 -5.9543370984223588e+02 0.0000000000000000e+00  -1.3648865564500966e-13 -5.9543370984225862e+02 0.0000000000000000e+00  7.5504352276702609e-12 -5.9543370984226237e+02 0.0000000000000000e+00  -2.5933824546026835e-11 -5.9543370984227249e+02 0.0000000000000000e+00  1.2118391979462849e-11 -5.9543370984226840e+02 0.0000000000000000e+00  1.4773643265332480e-13 -5.9543370984227033e+02 0.0000000000000000e+00  2.3105865802717301e-11 -5.9543370984227192e+02 0.0000000000000000e+00  -2.9013914131074467e-11 -5.9543370984226215e+02 0.0000000000000000e+00  5.3221149031453828e-12 -5.9543370984223350e+02 0.0000000000000000e+00  2.3185559319025214e-11 -5.9543370984226885e+02 0.0000000000000000e+00  1.7155963838322153e-27 -5.9543370984224566e+02 0.0000000000000000e+00  4.2072581611787308e-28 -6.4505763100021704e+02 0.0000000000000000e+00  9.7764411486944082e-12 -6.4505763100016179e+02 0.0000000000000000e+00  -2.4245215137437478e-11 -6.4505763100021147e+02 0.0000000000000000e+00  5.7373373464704328e-12 -6.4505763100021966e+02 0.0000000000000000e+00  -9.5632315185835139e-12 -6.4505763100018555e+02 0.0000000000000000e+00  5.7010303725170213e-13 -6.4505763100020442e+02 0.0000000000000000e+00  -1.9162271105447311e-11 -6.4505763100018635e+02 0.0000000000000000e+00  1.5407209605518393e-11 -6.4505763100018407e+02 0.0000000000000000e+00  1.5939262418095503e-11 -6.4505763100018930e+02 0.0000000000000000e+00  -7.9373221489174346e-12 -6.4505763100018100e+02 0.0000000000000000e+00  -4.5770367105010828e-28 -6.4505763100016213e+02 0.0000000000000000e+00  -4.7509181064996487e-27 -6.9469144306249837e+02 0.0000000000000000e+00  -1.3590243251716991e-11 -6.9469144306251701e+02 0.0000000000000000e+00  -6.6877760732822187e-12 -6.9469144306248154e+02 0.0000000000000000e+00  -9.0226833161847447e-12 -6.9469144306246392e+02 0.0000000000000000e+00  -1.9063855219670651e-11 -6.9469144306251837e+02 0.0000000000000000e+00  -5.7442762863476103e-12 -6.9469144306251030e+02 0.0000000000000000e+00  5.8301840983677897e-12 -6.9469144306250553e+02 0.0000000000000000e+00  5.9340328039557432e-12 -6.9469144306248518e+02 0.0000000000000000e+00  -3.0194074128371788e-11 -6.9469144306247017e+02 0.0000000000000000e+00  2.8524604103836099e-11 -6.9469144306246210e+02 0.0000000000000000e+00  -1.1457265528209954e-27 -6.9469144306244027e+02 0.0000000000000000e+00  -2.4717641696925016e-27 -7.4435629568654053e+02 0.0000000000000000e+00  2.6383368945947278e-12 -7.4435629568649028e+02 0.0000000000000000e+00  -1.1844285422743611e-12 -7.4435629568650381e+02 0.0000000000000000e+00  -3.2144644447475092e-11 -7.4435629568651348e+02 0.0000000000000000e+00  -1.3000806073492613e-11 -7.4435629568646243e+02 0.0000000000000000e+00  3.4477341714933330e-14 -7.4435629568645777e+02 0.0000000000000000e+00  -6.4988768277437634e-12 -7.4435629568645516e+02 0.0000000000000000e+00  -1.0836078046295413e-11 -7.4435629568648312e+02 0.0000000000000000e+00  2.7587076302289175e-11 -7.4435629568648062e+02 0.0000000000000000e+00  -1.3191497409523890e-13 -7.4435629568647175e+02 0.0000000000000000e+00  -7.5204739631069783e-27 -7.4435629568652678e+02 0.0000000000000000e+00  -3.4440189836738457e-27 -7.9411856270630244e+02 0.0000000000000000e+00  3.5293750471798226e-12 -7.9411856270633757e+02 0.0000000000000000e+00  -5.6118315112325317e-11 -7.9411856270631995e+02 0.0000000000000000e+00  1.2182400286507558e-11 -7.9411856270631597e+02 0.0000000000000000e+00  -1.0160744872113361e-11 -7.9411856270631051e+02 0.0000000000000000e+00  -3.3148348001091225e-11 -7.9411856270629892e+02 0.0000000000000000e+00  -1.2633404526665680e-13 -7.9411856270631188e+02 0.0000000000000000e+00  8.2657629377073200e-12 -7.9411856270625265e+02 0.0000000000000000e+00  7.8327334263455085e-13 -7.9411856270630221e+02 0.0000000000000000e+00  -4.3710212166156165e-12 -7.9411856270621558e+02 0.0000000000000000e+00  8.5350266741114923e-27 -7.9411856270629835e+02 0.0000000000000000e+00  4.6279839772966021e-27 -8.4418654469931118e+02 0.0000000000000000e+00  1.0460964352722805e-11 -8.4418654469929481e+02 0.0000000000000000e+00  -1.7238114787422865e-11 -8.4418654469928470e+02 0.0000000000000000e+00  -1.0834080130569349e-11 -8.4418654469931198e+02 0.0000000000000000e+00  -2.6339604929227678e-11 -8.4418654469926446e+02 0.0000000000000000e+00  -4.7141843530467462e-12 -8.4418654469929243e+02 0.0000000000000000e+00  -1.0078693963731663e-11 -8.4418654469927822e+02 0.0000000000000000e+00  9.4264528615418992e-12 -8.4418654469927867e+02 0.0000000000000000e+00  2.4182832527917676e-11 -8.4418654469923547e+02 0.0000000000000000e+00  9.7671010888112304e-13 -8.4418654469928072e+02 0.0000000000000000e+00  7.1480972139190334e-27 -8.4418654469924491e+02 0.0000000000000000e+00  -4.2072581611787301e-27 -8.9521395003140378e+02 0.0000000000000000e+00  -4.8847363676969745e-11 -8.9521395003143357e+02 0.0000000000000000e+00  -2.0870473608001376e-11 -8.9521395003144369e+02 0.0000000000000000e+00  -4.8045869729055315e-11 -8.9521395003138150e+02 0.0000000000000000e+00  -1.9808843206282228e-11 -8.9521395003143459e+02 0.0000000000000000e+00  -2.8610871763938513e-11 -8.9521395003140469e+02 0.0000000000000000e+00  1.0018883557250944e-11 -8.9521395003138446e+02 0.0000000000000000e+00  2.3230653202828892e-11 -8.9521395003138684e+02 0.0000000000000000e+00  -2.5399856433494758e-11 -8.9521395003139514e+02 0.0000000000000000e+00  -1.3741797282988439e-12 -8.9521395003144528e+02 0.0000000000000000e+00  -1.2544297073201989e-27 -8.9521395003135308e+02 0.0000000000000000e+00  -1.6829032644714930e-27 -9.4925230747367391e+02 0.0000000000000000e+00  -4.4335947109503525e-11 -9.4925230747366265e+02 0.0000000000000000e+00  1.3540818192973407e-11 -9.4925230747365936e+02 0.0000000000000000e+00  -7.9468579010579432e-11 -9.4925230747363378e+02 0.0000000000000000e+00  -5.2673733905418496e-11 -9.4925230747360479e+02 0.0000000000000000e+00  -4.1509304694744459e-11 -9.4925230747357864e+02 0.0000000000000000e+00  3.1529116724794953e-12 -9.4925230747360115e+02 0.0000000000000000e+00  -2.1620414238588065e-11 -9.4925230747362662e+02 0.0000000000000000e+00  8.8785992697022468e-12 -9.4925230747364958e+02 0.0000000000000000e+00  5.4596810410226159e-12 -9.4925230747361877e+02 0.0000000000000000e+00  -1.0846837446788928e-28 -9.4925230747367709e+02 0.0000000000000000e+00  4.6279839772965992e-27 -1.0127399166065709e+03 0.0000000000000000e+00  1.7772014394340070e-12 -1.0127399166066244e+03 0.0000000000000000e+00  -9.0415361535161726e-11 -1.0127399166065950e+03 0.0000000000000000e+00  -5.6358593030208218e-11 -1.0127399166065438e+03 0.0000000000000000e+00  -6.6525796496461827e-11 -1.0127399166065047e+03 0.0000000000000000e+00  -4.8428740744550734e-11 -1.0127399166064987e+03 0.0000000000000000e+00  -3.5437878012719310e-11 -1.0127399166064698e+03 0.0000000000000000e+00  -1.2347912844809438e-11 -1.0127399166065152e+03 0.0000000000000000e+00  -4.7812761147361288e-11 -1.0127399166065028e+03 0.0000000000000000e+00  -4.6147997377303280e-11 -1.0127399166065192e+03 0.0000000000000000e+00  5.0487097934144748e-27 -1.0127399166064447e+03 0.0000000000000000e+00  1.0823081843781978e-13 -2.4809647770009455e+01 0.0000000000000000e+00  5.6563225556230790e-12 -2.4809647770010940e+01 0.0000000000000000e+00  3.7046705701544694e-12 -2.4809647770018948e+01 0.0000000000000000e+00  -5.6586872389657301e-12 -2.4809647770010230e+01 0.0000000000000000e+00  2.6665745827303343e-12 -2.4809647770009121e+01 0.0000000000000000e+00  -7.7443379471846105e-12 -2.4809647770023727e+01 0.0000000000000000e+00  -7.3620474734559009e-13 -2.4809647770014681e+01 0.0000000000000000e+00  -4.6505439072151874e-13 -2.4809647770001799e+01 0.0000000000000000e+00  6.8951534526594026e-13 -2.4809647770016937e+01 0.0000000000000000e+00  4.7217987569313297e-12 -2.4809647770010042e+01 0.0000000000000000e+00  2.1171419022368538e-12 -7.4428943301627612e+01 0.0000000000000000e+00  2.4016966684258943e-12 -7.4428943301627768e+01 0.0000000000000000e+00  -4.8033933368517880e-13 -7.4428943301629971e+01 0.0000000000000000e+00  7.9486289738588527e-12 -7.4428943301627186e+01 0.0000000000000000e+00  -1.3289388231956613e-11 -7.4428943301628294e+01 0.0000000000000000e+00  -9.2251472031043960e-12 -7.4428943301630412e+01 0.0000000000000000e+00  8.4662549224876261e-12 -7.4428943301623178e+01 0.0000000000000000e+00  -9.7778664363859676e-12 -7.4428943301628749e+01 0.0000000000000000e+00  7.9398556526956527e-13 -7.4428943301623391e+01 0.0000000000000000e+00  -3.7603158101021838e-12 -7.4428943301632657e+01 0.0000000000000000e+00  7.7905890278911769e-12 -1.2404823879572697e+02 0.0000000000000000e+00  -5.4343632888229564e-12 -1.2404823879572712e+02 0.0000000000000000e+00  7.0537502152124816e-12 -1.2404823879572345e+02 0.0000000000000000e+00  -2.6256574721839994e-13 -1.2404823879572578e+02 0.0000000000000000e+00  -4.3822739210182025e-12 -1.2404823879572642e+02 0.0000000000000000e+00  -8.7031345938940061e-12 -1.2404823879571831e+02 0.0000000000000000e+00  8.8610543748316118e-13 -1.2404823879572815e+02 0.0000000000000000e+00  -1.8292374625271149e-12 -1.2404823879571312e+02 0.0000000000000000e+00  -1.1615877220076275e-11 -1.2404823879572183e+02 0.0000000000000000e+00  4.7038033157550826e-12 -1.2404823879572052e+02 0.0000000000000000e+00  2.5086951017360415e-13 -1.7366753416855380e+02 0.0000000000000000e+00  2.0709424605732691e-11 -1.7366753416853126e+02 0.0000000000000000e+00  9.5892400313771821e-12 -1.7366753416851648e+02 0.0000000000000000e+00  2.3380900899926985e-12 -1.7366753416851881e+02 0.0000000000000000e+00  -1.1049998005049914e-11 -1.7366753416852308e+02 0.0000000000000000e+00  -1.2072089920562668e-11 -1.7366753416852606e+02 0.0000000000000000e+00  -2.9127426261822692e-12 -1.7366753416851719e+02 0.0000000000000000e+00  -6.2246713652901282e-12 -1.7366753416854306e+02 0.0000000000000000e+00  -5.3868191942045660e-12 -1.7366753416852458e+02 0.0000000000000000e+00  -4.8865017633815201e-12 -1.7366753416853385e+02 0.0000000000000000e+00  1.8035336307480681e-11 -2.2328682915957279e+02 0.0000000000000000e+00  2.5205751701872497e-11 -2.2328682915957188e+02 0.0000000000000000e+00  7.0405902334676966e-12 -2.2328682915957771e+02 0.0000000000000000e+00  -1.2809048898271437e-11 -2.2328682915960360e+02 0.0000000000000000e+00  -3.3031554179446535e-12 -2.2328682915960482e+02 0.0000000000000000e+00  -2.7416628634998787e-12 -2.2328682915957745e+02 0.0000000000000000e+00  -1.7599282253378432e-11 -2.2328682915958939e+02 0.000000