<?xml version="1.0"?>
<VTKFile type="UnstructuredGrid"  version="0.1"  >
<UnstructuredGrid>
<Piece  NumberOfPoints="1876" NumberOfCells="3600">
<Points>
<DataArray  type="Float64"  NumberOfComponents="3"  format="ascii">-0.75 -3 0  -0.65 -3 0  -0.55 -3 0  -0.45 -3 0  -0.35 -3 0  -0.25 -3 0  -0.15 -3 0  -0.05000000000000004 -3 0  0.05000000000000004 -3 0  0.15 -3 0  0.25 -3 0  0.3500000000000001 -3 0  0.45 -3 0  0.55 -3 0  0.6499999999999999 -3 0  0.75 -3 0  -0.75 -2.95 0  -0.65 -2.95 0  -0.55 -2.95 0  -0.45 -2.95 0  -0.35 -2.95 0  -0.25 -2.95 0  -0.15 -2.95 0  -0.05000000000000004 -2.95 0  0.05000000000000004 -2.95 0  0.15 -2.95 0  0.25 -2.95 0  0.3500000000000001 -2.95 0  0.45 -2.95 0  0.55 -2.95 0  0.6499999999999999 -2.95 0  0.75 -2.95 0  -0.75 -2.9 0  -0.65 -2.9 0  -0.55 -2.9 0  -0.45 -2.9 0  -0.35 -2.9 0  -0.25 -2.9 0  -0.15 -2.9 0  -0.05000000000000004 -2.9 0  0.05000000000000004 -2.9 0  0.15 -2.9 0  0.25 -2.9 0  0.3500000000000001 -2.9 0  0.45 -2.9 0  0.55 -2.9 0  0.6499999999999999 -2.9 0  0.75 -2.9 0  -0.75 -2.85 0  -0.65 -2.85 0  -0.55 -2.85 0  -0.45 -2.85 0  -0.35 -2.85 0  -0.25 -2.85 0  -0.15 -2.85 0  -0.05000000000000004 -2.85 0  0.05000000000000004 -2.85 0  0.15 -2.85 0  0.25 -2.85 0  0.3500000000000001 -2.85 0  0.45 -2.85 0  0.55 -2.85 0  0.6499999999999999 -2.85 0  0.75 -2.85 0  -0.75 -2.8 0  -0.65 -2.8 0  -0.55 -2.8 0  -0.45 -2.8 0  -0.35 -2.8 0  -0.25 -2.8 0  -0.15 -2.8 0  -0.05000000000000004 -2.8 0  0.05000000000000004 -2.8 0  0.15 -2.8 0  0.25 -2.8 0  0.3500000000000001 -2.8 0  0.45 -2.8 0  0.55 -2.8 0  0.6499999999999999 -2.8 0  0.75 -2.8 0  -0.75 -2.75 0  -0.65 -2.75 0  -0.55 -2.75 0  -0.45 -2.75 0  -0.35 -2.75 0  -0.25 -2.75 0  -0.15 -2.75 0  -0.05000000000000004 -2.75 0  0.05000000000000004 -2.75 0  0.15 -2.75 0  0.25 -2.75 0  0.3500000000000001 -2.75 0  0.45 -2.75 0  0.55 -2.75 0  0.6499999999999999 -2.75 0  0.75 -2.75 0  -0.75 -2.7 0  -0.65 -2.7 0  -0.55 -2.7 0  -0.45 -2.7 0  -0.35 -2.7 0  -0.25 -2.7 0  -0.15 -2.7 0  -0.05000000000000004 -2.7 0  0.05000000000000004 -2.7 0  0.15 -2.7 0  0.25 -2.7 0  0.3500000000000001 -2.7 0  0.45 -2.7 0  0.55 -2.7 0  0.6499999999999999 -2.7 0  0.75 -2.7 0  -0.75 -2.65 0  -0.65 -2.65 0  -0.55 -2.65 0  -0.45 -2.65 0  -0.35 -2.65 0  -0.25 -2.65 0  -0.15 -2.65 0  -0.05000000000000004 -2.65 0  0.05000000000000004 -2.65 0  0.15 -2.65 0  0.25 -2.65 0  0.3500000000000001 -2.65 0  0.45 -2.65 0  0.55 -2.65 0  0.6499999999999999 -2.65 0  0.75 -2.65 0  -0.75 -2.6 0  -0.65 -2.6 0  -0.55 -2.6 0  -0.45 -2.6 0  -0.35 -2.6 0  -0.25 -2.6 0  -0.15 -2.6 0  -0.05000000000000004 -2.6 0  0.05000000000000004 -2.6 0  0.15 -2.6 0  0.25 -2.6 0  0.3500000000000001 -2.6 0  0.45 -2.6 0  0.55 -2.6 0  0.6499999999999999 -2.6 0  0.75 -2.6 0  -0.75 -2.55 0  -0.65 -2.55 0  -0.55 -2.55 0  -0.45 -2.55 0  -0.35 -2.55 0  -0.25 -2.55 0  -0.15 -2.55 0  -0.05000000000000004 -2.55 0  0.05000000000000004 -2.55 0  0.15 -2.55 0  0.25 -2.55 0  0.3500000000000001 -2.55 0  0.45 -2.55 0  0.55 -2.55 0  0.6499999999999999 -2.55 0  0.75 -2.55 0  -0.75 -2.5 0  -0.65 -2.5 0  -0.55 -2.5 0  -0.45 -2.5 0  -0.35 -2.5 0  -0.25 -2.5 0  -0.15 -2.5 0  -0.05000000000000004 -2.5 0  0.05000000000000004 -2.5 0  0.15 -2.5 0  0.25 -2.5 0  0.3500000000000001 -2.5 0  0.45 -2.5 0  0.55 -2.5 0  0.6499999999999999 -2.5 0  0.75 -2.5 0  -0.75 -2.45 0  -0.65 -2.45 0  -0.55 -2.45 0  -0.45 -2.45 0  -0.35 -2.45 0  -0.25 -2.45 0  -0.15 -2.45 0  -0.05000000000000004 -2.45 0  0.05000000000000004 -2.45 0  0.15 -2.45 0  0.25 -2.45 0  0.3500000000000001 -2.45 0  0.45 -2.45 0  0.55 -2.45 0  0.6499999999999999 -2.45 0  0.75 -2.45 0  -0.75 -2.4 0  -0.65 -2.4 0  -0.55 -2.4 0  -0.45 -2.4 0  -0.35 -2.4 0  -0.25 -2.4 0  -0.15 -2.4 0  -0.05000000000000004 -2.4 0  0.05000000000000004 -2.4 0  0.15 -2.4 0  0.25 -2.4 0  0.3500000000000001 -2.4 0  0.45 -2.4 0  0.55 -2.4 0  0.6499999999999999 -2.4 0  0.75 -2.4 0  -0.75 -2.35 0  -0.65 -2.35 0  -0.55 -2.35 0  -0.45 -2.35 0  -0.35 -2.35 0  -0.25 -2.35 0  -0.15 -2.35 0  -0.05000000000000004 -2.35 0  0.05000000000000004 -2.35 0  0.15 -2.35 0  0.25 -2.35 0  0.3500000000000001 -2.35 0  0.45 -2.35 0  0.55 -2.35 0  0.6499999999999999 -2.35 0  0.75 -2.35 0  -0.75 -2.3 0  -0.65 -2.3 0  -0.55 -2.3 0  -0.45 -2.3 0  -0.35 -2.3 0  -0.25 -2.3 0  -0.15 -2.3 0  -0.05000000000000004 -2.3 0  0.05000000000000004 -2.3 0  0.15 -2.3 0  0.25 -2.3 0  0.3500000000000001 -2.3 0  0.45 -2.3 0  0.55 -2.3 0  0.6499999999999999 -2.3 0  0.75 -2.3 0  -0.75 -2.25 0  -0.65 -2.25 0  -0.55 -2.25 0  -0.45 -2.25 0  -0.35 -2.25 0  -0.25 -2.25 0  -0.15 -2.25 0  -0.05000000000000004 -2.25 0  0.05000000000000004 -2.25 0  0.15 -2.25 0  0.25 -2.25 0  0.3500000000000001 -2.25 0  0.45 -2.25 0  0.55 -2.25 0  0.6499999999999999 -2.25 0  0.75 -2.25 0  -0.75 -2.2 0  -0.65 -2.2 0  -0.55 -2.2 0  -0.45 -2.2 0  -0.35 -2.2 0  -0.25 -2.2 0  -0.15 -2.2 0  -0.05000000000000004 -2.2 0  0.05000000000000004 -2.2 0  0.15 -2.2 0  0.25 -2.2 0  0.3500000000000001 -2.2 0  0.45 -2.2 0  0.55 -2.2 0  0.6499999999999999 -2.2 0  0.75 -2.2 0  -0.75 -2.15 0  -0.65 -2.15 0  -0.55 -2.15 0  -0.45 -2.15 0  -0.35 -2.15 0  -0.25 -2.15 0  -0.15 -2.15 0  -0.05000000000000004 -2.15 0  0.05000000000000004 -2.15 0  0.15 -2.15 0  0.25 -2.15 0  0.3500000000000001 -2.15 0  0.45 -2.15 0  0.55 -2.15 0  0.6499999999999999 -2.15 0  0.75 -2.15 0  -0.75 -2.1 0  -0.65 -2.1 0  -0.55 -2.1 0  -0.45 -2.1 0  -0.35 -2.1 0  -0.25 -2.1 0  -0.15 -2.1 0  -0.05000000000000004 -2.1 0  0.05000000000000004 -2.1 0  0.15 -2.1 0  0.25 -2.1 0  0.3500000000000001 -2.1 0  0.45 -2.1 0  0.55 -2.1 0  0.6499999999999999 -2.1 0  0.75 -2.1 0  -0.75 -2.05 0  -0.65 -2.05 0  -0.55 -2.05 0  -0.45 -2.05 0  -0.35 -2.05 0  -0.25 -2.05 0  -0.15 -2.05 0  -0.05000000000000004 -2.05 0  0.05000000000000004 -2.05 0  0.15 -2.05 0  0.25 -2.05 0  0.3500000000000001 -2.05 0  0.45 -2.05 0  0.55 -2.05 0  0.6499999999999999 -2.05 0  0.75 -2.05 0  -0.75 -2 0  -0.65 -2 0  -0.55 -2 0  -0.45 -2 0  -0.35 -2 0  -0.25 -2 0  -0.15 -2 0  -0.05000000000000004 -2 0  0.05000000000000004 -2 0  0.15 -2 0  0.25 -2 0  0.3500000000000001 -2 0  0.45 -2 0  0.55 -2 0  0.6499999999999999 -2 0  0.75 -2 0  -0.75 -1.95 0  -0.65 -1.95 0  -0.55 -1.95 0  -0.45 -1.95 0  -0.35 -1.95 0  -0.25 -1.95 0  -0.15 -1.95 0  -0.05000000000000004 -1.95 0  0.05000000000000004 -1.95 0  0.15 -1.95 0  0.25 -1.95 0  0.3500000000000001 -1.95 0  0.45 -1.95 0  0.55 -1.95 0  0.6499999999999999 -1.95 0  0.75 -1.95 0  -0.75 -1.9 0  -0.65 -1.9 0  -0.55 -1.9 0  -0.45 -1.9 0  -0.35 -1.9 0  -0.25 -1.9 0  -0.15 -1.9 0  -0.05000000000000004 -1.9 0  0.05000000000000004 -1.9 0  0.15 -1.9 0  0.25 -1.9 0  0.3500000000000001 -1.9 0  0.45 -1.9 0  0.55 -1.9 0  0.6499999999999999 -1.9 0  0.75 -1.9 0  -0.75 -1.85 0  -0.65 -1.85 0  -0.55 -1.85 0  -0.45 -1.85 0  -0.35 -1.85 0  -0.25 -1.85 0  -0.15 -1.85 0  -0.05000000000000004 -1.85 0  0.05000000000000004 -1.85 0  0.15 -1.85 0  0.25 -1.85 0  0.3500000000000001 -1.85 0  0.45 -1.85 0  0.55 -1.85 0  0.6499999999999999 -1.85 0  0.75 -1.85 0  -0.75 -1.8 0  -0.65 -1.8 0  -0.55 -1.8 0  -0.45 -1.8 0  -0.35 -1.8 0  -0.25 -1.8 0  -0.15 -1.8 0  -0.05000000000000004 -1.8 0  0.05000000000000004 -1.8 0  0.15 -1.8 0  0.25 -1.8 0  0.3500000000000001 -1.8 0  0.45 -1.8 0  0.55 -1.8 0  0.6499999999999999 -1.8 0  0.75 -1.8 0  -0.75 -1.75 0  -0.65 -1.75 0  -0.55 -1.75 0  -0.45 -1.75 0  -0.35 -1.75 0  -0.25 -1.75 0  -0.15 -1.75 0  -0.05000000000000004 -1.75 0  0.05000000000000004 -1.75 0  0.15 -1.75 0  0.25 -1.75 0  0.3500000000000001 -1.75 0  0.45 -1.75 0  0.55 -1.75 0  0.6499999999999999 -1.75 0  0.75 -1.75 0  -0.75 -1.7 0  -0.65 -1.7 0  -0.55 -1.7 0  -0.45 -1.7 0  -0.35 -1.7 0  -0.25 -1.7 0  -0.15 -1.7 0  -0.05000000000000004 -1.7 0  0.05000000000000004 -1.7 0  0.15 -1.7 0  0.25 -1.7 0  0.3500000000000001 -1.7 0  0.45 -1.7 0  0.55 -1.7 0  0.6499999999999999 -1.7 0  0.75 -1.7 0  -0.75 -1.65 0  -0.65 -1.65 0  -0.55 -1.65 0  -0.45 -1.65 0  -0.35 -1.65 0  -0.25 -1.65 0  -0.15 -1.65 0  -0.05000000000000004 -1.65 0  0.05000000000000004 -1.65 0  0.15 -1.65 0  0.25 -1.65 0  0.3500000000000001 -1.65 0  0.45 -1.65 0  0.55 -1.65 0  0.6499999999999999 -1.65 0  0.75 -1.65 0  -0.75 -1.6 0  -0.65 -1.6 0  -0.55 -1.6 0  -0.45 -1.6 0  -0.35 -1.6 0  -0.25 -1.6 0  -0.15 -1.6 0  -0.05000000000000004 -1.6 0  0.05000000000000004 -1.6 0  0.15 -1.6 0  0.25 -1.6 0  0.3500000000000001 -1.6 0  0.45 -1.6 0  0.55 -1.6 0  0.6499999999999999 -1.6 0  0.75 -1.6 0  -0.75 -1.55 0  -0.65 -1.55 0  -0.55 -1.55 0  -0.45 -1.55 0  -0.35 -1.55 0  -0.25 -1.55 0  -0.15 -1.55 0  -0.05000000000000004 -1.55 0  0.05000000000000004 -1.55 0  0.15 -1.55 0  0.25 -1.55 0  0.3500000000000001 -1.55 0  0.45 -1.55 0  0.55 -1.55 0  0.6499999999999999 -1.55 0  0.75 -1.55 0  -0.75 -1.5 0  -0.65 -1.5 0  -0.55 -1.5 0  -0.45 -1.5 0  -0.35 -1.5 0  -0.25 -1.5 0  -0.15 -1.5 0  -0.05000000000000004 -1.5 0  0.05000000000000004 -1.5 0  0.15 -1.5 0  0.25 -1.5 0  0.3500000000000001 -1.5 0  0.45 -1.5 0  0.55 -1.5 0  0.6499999999999999 -1.5 0  0.75 -1.5 0  -0.75 -1.45 0  -0.65 -1.45 0  -0.55 -1.45 0  -0.45 -1.45 0  -0.35 -1.45 0  -0.25 -1.45 0  -0.15 -1.45 0  -0.05000000000000004 -1.45 0  0.05000000000000004 -1.45 0  0.15 -1.45 0  0.25 -1.45 0  0.3500000000000001 -1.45 0  0.45 -1.45 0  0.55 -1.45 0  0.6499999999999999 -1.45 0  0.75 -1.45 0  -0.75 -1.4 0  -0.65 -1.4 0  -0.55 -1.4 0  -0.45 -1.4 0  -0.35 -1.4 0  -0.25 -1.4 0  -0.15 -1.4 0  -0.05000000000000004 -1.4 0  0.05000000000000004 -1.4 0  0.15 -1.4 0  0.25 -1.4 0  0.3500000000000001 -1.4 0  0.45 -1.4 0  0.55 -1.4 0  0.6499999999999999 -1.4 0  0.75 -1.4 0  -0.75 -1.35 0  -0.65 -1.35 0  -0.55 -1.35 0  -0.45 -1.35 0  -0.35 -1.35 0  -0.25 -1.35 0  -0.15 -1.35 0  -0.05000000000000004 -1.35 0  0.05000000000000004 -1.35 0  0.15 -1.35 0  0.25 -1.35 0  0.3500000000000001 -1.35 0  0.45 -1.35 0  0.55 -1.35 0  0.6499999999999999 -1.35 0  0.75 -1.35 0  -0.75 -1.3 0  -0.65 -1.3 0  -0.55 -1.3 0  -0.45 -1.3 0  -0.35 -1.3 0  -0.25 -1.3 0  -0.15 -1.3 0  -0.05000000000000004 -1.3 0  0.05000000000000004 -1.3 0  0.15 -1.3 0  0.25 -1.3 0  0.3500000000000001 -1.3 0  0.45 -1.3 0  0.55 -1.3 0  0.6499999999999999 -1.
[...]
<PointData  Vectors="displacement"> 
<DataArray  type="Float64"  Name="displacement"  NumberOfComponents="3" format="ascii">1.5600032549536619e-30 -5.8546917314217407e-16 0.0000000000000000e+00  -4.4742989428443052e-31 2.6834003769016333e-16 0.0000000000000000e+00  0.0000000000000000e+00 -2.1141942363467408e-16 0.0000000000000000e+00  -2.1955601366014562e-30 -1.1587410718438868e-16 0.0000000000000000e+00  5.5466782398352575e-30 -1.3010426069826095e-16 0.0000000000000000e+00  6.5122190063586669e-30 -1.1344275325086576e-16 0.0000000000000000e+00  -1.3866695599588147e-30 -3.2526065174565250e-17 0.0000000000000000e+00  7.9723122842013027e-30 7.7304122861840122e-17 0.0000000000000000e+00  -7.3955709864470095e-30 -1.7889335846010880e-16 0.0000000000000000e+00  -4.1892999207764495e-30 1.3164881359045522e-16 0.0000000000000000e+00  9.2444637330587566e-31 4.8789097761847829e-17 0.0000000000000000e+00  -5.6825007346010243e-30 2.9964326108567626e-16 0.0000000000000000e+00  -2.5422275265911594e-30 6.5052130349130476e-17 0.0000000000000000e+00  7.7370443524120401e-33 -1.9515639104739134e-16 0.0000000000000000e+00  -1.8488927466117541e-30 1.3010426069826107e-16 0.0000000000000000e+00  4.6222318665293774e-31 -2.6020852139652171e-16 0.0000000000000000e+00  -2.0800043399382074e-30 -1.4912280701752534e+00 0.0000000000000000e+00  7.2317553883024224e-15 -1.4912280701752585e+00 0.0000000000000000e+00  1.5799980956195860e-14 -1.4912280701752585e+00 0.0000000000000000e+00  2.5016651757817222e-14 -1.4912280701752556e+00 0.0000000000000000e+00  3.2241209605917858e-14 -1.4912280701752543e+00 0.0000000000000000e+00  4.2896092767762134e-14 -1.4912280701752525e+00 0.0000000000000000e+00  5.1436234415138313e-14 -1.4912280701752432e+00 0.0000000000000000e+00  5.4182504930803020e-14 -1.4912280701752341e+00 0.0000000000000000e+00  5.4802113359022376e-14 -1.4912280701752236e+00 0.0000000000000000e+00  4.8992815133229620e-14 -1.4912280701752172e+00 0.0000000000000000e+00  4.3005498614602201e-14 -1.4912280701752116e+00 0.0000000000000000e+00  3.7857127189506555e-14 -1.4912280701752059e+00 0.0000000000000000e+00  3.0027004642271877e-14 -1.4912280701751999e+00 0.0000000000000000e+00  2.0354364571182983e-14 -1.4912280701751974e+00 0.0000000000000000e+00  1.0737037778695218e-14 -1.4912280701751945e+00 0.0000000000000000e+00  -1.2998925319583719e-30 -1.4912280701751948e+00 0.0000000000000000e+00  2.3400048824304933e-30 -2.9824561403505321e+00 0.0000000000000000e+00  1.3877468113420021e-14 -2.9824561403505312e+00 0.0000000000000000e+00  3.0005695613677954e-14 -2.9824561403505339e+00 0.0000000000000000e+00  4.6153019359626714e-14 -2.9824561403505250e+00 0.0000000000000000e+00  6.2932186690530669e-14 -2.9824561403505259e+00 0.0000000000000000e+00  7.8554395380637404e-14 -2.9824561403505219e+00 0.0000000000000000e+00  9.3469701734151888e-14 -2.9824561403505019e+00 0.0000000000000000e+00  1.0043454627442836e-13 -2.9824561403504823e+00 0.0000000000000000e+00  9.9443610437479801e-14 -2.9824561403504615e+00 0.0000000000000000e+00  9.1147695223176550e-14 -2.9824561403504459e+00 0.0000000000000000e+00  7.9922392765208508e-14 -2.9824561403504344e+00 0.0000000000000000e+00  7.0502254322313181e-14 -2.9824561403504219e+00 0.0000000000000000e+00  5.6360827420904279e-14 -2.9824561403504113e+00 0.0000000000000000e+00  3.7598455332828556e-14 -2.9824561403504051e+00 0.0000000000000000e+00  1.8913427668684431e-14 -2.9824561403503993e+00 0.0000000000000000e+00  1.7828608628041836e-30 -2.9824561403503984e+00 0.0000000000000000e+00  -2.3111159332646848e-31 -4.4736842105257928e+00 0.0000000000000000e+00  2.1193778242796692e-14 -4.4736842105257937e+00 0.0000000000000000e+00  4.1569634238892644e-14 -4.4736842105257981e+00 0.0000000000000000e+00  6.5086065513698054e-14 -4.4736842105257901e+00 0.0000000000000000e+00  8.9647308990415555e-14 -4.4736842105257875e+00 0.0000000000000000e+00  1.0963680258899376e-13 -4.4736842105257795e+00 0.0000000000000000e+00  1.2801466159090740e-13 -4.4736842105257493e+00 0.0000000000000000e+00  1.3832222392520870e-13 -4.4736842105257217e+00 0.0000000000000000e+00  1.3706017240636809e-13 -4.4736842105256853e+00 0.0000000000000000e+00  1.2599996594831155e-13 -4.4736842105256622e+00 0.0000000000000000e+00  1.1277375631391391e-13 -4.4736842105256454e+00 0.0000000000000000e+00  9.7280018677708510e-14 -4.4736842105256311e+00 0.0000000000000000e+00  7.8910094629948092e-14 -4.4736842105256054e+00 0.0000000000000000e+00  5.1578612586236873e-14 -4.4736842105255983e+00 0.0000000000000000e+00  2.4927671872802339e-14 -4.4736842105255894e+00 0.0000000000000000e+00  -5.5466782398352414e-30 -4.4736842105255858e+00 0.0000000000000000e+00  -4.5518132715184178e-31 -5.9649122807010704e+00 0.0000000000000000e+00  2.6509052168235287e-14 -5.9649122807010748e+00 0.0000000000000000e+00  5.2852274875955047e-14 -5.9649122807010766e+00 0.0000000000000000e+00  8.1403650016828471e-14 -5.9649122807010748e+00 0.0000000000000000e+00  1.1044806889766986e-13 -5.9649122807010633e+00 0.0000000000000000e+00  1.3475206460142502e-13 -5.9649122807010553e+00 0.0000000000000000e+00  1.5686042929729249e-13 -5.9649122807010118e+00 0.0000000000000000e+00  1.7020819112874805e-13 -5.9649122807009709e+00 0.0000000000000000e+00  1.6627853679758312e-13 -5.9649122807009185e+00 0.0000000000000000e+00  1.5502819115959406e-13 -5.9649122807008874e+00 0.0000000000000000e+00  1.4299557978081845e-13 -5.9649122807008634e+00 0.0000000000000000e+00  1.2009991351485243e-13 -5.9649122807008492e+00 0.0000000000000000e+00  9.4321181021874865e-14 -5.9649122807008172e+00 0.0000000000000000e+00  6.3773275164616123e-14 -5.9649122807008013e+00 0.0000000000000000e+00  3.0862490269684836e-14 -5.9649122807007950e+00 0.0000000000000000e+00  -3.9904150720503495e-30 -5.9649122807007826e+00 0.0000000000000000e+00  4.6222318665293792e-31 -7.4561403508763373e+00 0.0000000000000000e+00  3.0220035789113571e-14 -7.4561403508763462e+00 0.0000000000000000e+00  6.2920934792529343e-14 -7.4561403508763453e+00 0.0000000000000000e+00  9.5693453009669046e-14 -7.4561403508763338e+00 0.0000000000000000e+00  1.2701886425393619e-13 -7.4561403508763231e+00 0.0000000000000000e+00  1.5635519320733163e-13 -7.4561403508763071e+00 0.0000000000000000e+00  1.8193356176077329e-13 -7.4561403508762645e+00 0.0000000000000000e+00  1.9551019824938369e-13 -7.4561403508762112e+00 0.0000000000000000e+00  1.9222391207402087e-13 -7.4561403508761375e+00 0.0000000000000000e+00  1.8053113145917924e-13 -7.4561403508761099e+00 0.0000000000000000e+00  1.6408692210163542e-13 -7.4561403508760788e+00 0.0000000000000000e+00  1.3827867909371881e-13 -7.4561403508760380e+00 0.0000000000000000e+00  1.0759599891432780e-13 -7.4561403508760167e+00 0.0000000000000000e+00  7.3547233104037361e-14 -7.4561403508759891e+00 0.0000000000000000e+00  3.7231476673604593e-14 -7.4561403508759758e+00 0.0000000000000000e+00  4.0968141035762345e-30 -7.4561403508759732e+00 0.0000000000000000e+00  1.3661207432120805e-30 -8.9473684210516069e+00 0.0000000000000000e+00  3.2440520854529561e-14 -8.9473684210516051e+00 0.0000000000000000e+00  6.9816352494622035e-14 -8.9473684210516069e+00 0.0000000000000000e+00  1.0725645618528276e-13 -8.9473684210515962e+00 0.0000000000000000e+00  1.4171946575371046e-13 -8.9473684210515856e+00 0.0000000000000000e+00  1.7545948389813459e-13 -8.9473684210515643e+00 0.0000000000000000e+00  2.0284470589138993e-13 -8.9473684210515163e+00 0.0000000000000000e+00  2.1425864251637850e-13 -8.9473684210514346e+00 0.0000000000000000e+00  2.0975686882963816e-13 -8.9473684210513671e+00 0.0000000000000000e+00  2.0201805100263503e-13 -8.9473684210513138e+00 0.0000000000000000e+00  1.8080786057893906e-13 -8.9473684210512836e+00 0.0000000000000000e+00  1.5237345855628844e-13 -8.9473684210512374e+00 0.0000000000000000e+00  1.1998250610606557e-13 -8.9473684210512072e+00 0.0000000000000000e+00  8.1960344500188364e-14 -8.9473684210511752e+00 0.0000000000000000e+00  4.2952529283552318e-14 -8.9473684210511628e+00 0.0000000000000000e+00  -4.2590565055877533e-30 -8.9473684210511504e+00 0.0000000000000000e+00  3.6977854932234956e-30 -1.0438596491226900e+01 0.0000000000000000e+00  3.3732446152894509e-14 -1.0438596491226891e+01 0.0000000000000000e+00  7.8141566225404399e-14 -1.0438596491226916e+01 0.0000000000000000e+00  1.1928632229943742e-13 -1.0438596491226878e+01 0.0000000000000000e+00  1.5546447132984421e-13 -1.0438596491226866e+01 0.0000000000000000e+00  1.9027004237159813e-13 -1.0438596491226850e+01 0.0000000000000000e+00  2.1653386939260892e-13 -1.0438596491226766e+01 0.0000000000000000e+00  2.2797266904841198e-13 -1.0438596491226692e+01 0.0000000000000000e+00  2.2716735247735173e-13 -1.0438596491226601e+01 0.0000000000000000e+00  2.1578833809040494e-13 -1.0438596491226543e+01 0.0000000000000000e+00  1.9263629700593353e-13 -1.0438596491226500e+01 0.0000000000000000e+00  1.6568409461294118e-13 -1.0438596491226447e+01 0.0000000000000000e+00  1.3210804314276306e-13 -1.0438596491226411e+01 0.0000000000000000e+00  8.9671977225308723e-14 -1.0438596491226370e+01 0.0000000000000000e+00  4.3922269829889730e-14 -1.0438596491226356e+01 0.0000000000000000e+00  -5.0844550531823055e-30 -1.0438596491226342e+01 0.0000000000000000e+00  -4.2142025259714073e-30 -1.1929824561402151e+01 0.0000000000000000e+00  4.1095509769379989e-14 -1.1929824561402169e+01 0.0000000000000000e+00  8.2410278629771213e-14 -1.1929824561402182e+01 0.0000000000000000e+00  1.2804274374263090e-13 -1.1929824561402150e+01 0.0000000000000000e+00  1.6919814678532663e-13 -1.1929824561402134e+01 0.0000000000000000e+00  2.0089208337222522e-13 -1.1929824561402123e+01 0.0000000000000000e+00  2.2588456534353822e-13 -1.1929824561402024e+01 0.0000000000000000e+00  2.3921550236202700e-13 -1.1929824561401924e+01 0.0000000000000000e+00  2.3830059109678476e-13 -1.1929824561401823e+01 0.0000000000000000e+00  2.2198050225901999e-13 -1.1929824561401762e+01 0.0000000000000000e+00  2.0383455115097356e-13 -1.1929824561401700e+01 0.0000000000000000e+00  1.7400683099566617e-13 -1.1929824561401661e+01 0.0000000000000000e+00  1.4220338676508817e-13 -1.1929824561401599e+01 0.0000000000000000e+00  9.5473917488160827e-14 -1.1929824561401567e+01 0.0000000000000000e+00  4.2936619675725687e-14 -1.1929824561401549e+01 0.0000000000000000e+00  -4.2975970242478242e-31 -1.1929824561401537e+01 0.0000000000000000e+00  1.2942249226282177e-29 -1.3421052631577442e+01 0.0000000000000000e+00  4.4299522924684283e-14 -1.3421052631577433e+01 0.0000000000000000e+00  8.7796925598080153e-14 -1.3421052631577462e+01 0.0000000000000000e+00  1.3643286725481058e-13 -1.3421052631577426e+01 0.0000000000000000e+00  1.7759273824869240e-13 -1.3421052631577417e+01 0.0000000000000000e+00  2.0676924806089804e-13 -1.3421052631577377e+01 0.0000000000000000e+00  2.3126205622032822e-13 -1.3421052631577275e+01 0.0000000000000000e+00  2.4828608484031813e-13 -1.3421052631577169e+01 0.0000000000000000e+00  2.4296826204718554e-13 -1.3421052631577044e+01 0.0000000000000000e+00  2.2582094878243690e-13 -1.3421052631576984e+01 0.0000000000000000e+00  2.1330930751462325e-13 -1.3421052631576915e+01 0.0000000000000000e+00  1.8239536092041490e-13 -1.3421052631576881e+01 0.0000000000000000e+00  1.4601728294649744e-13 -1.3421052631576835e+01 0.0000000000000000e+00  9.6803820992032039e-14 -1.3421052631576767e+01 0.0000000000000000e+00  4.3837510502350404e-14 -1.3421052631576755e+01 0.0000000000000000e+00  -6.9256133923352351e-30 -1.3421052631576714e+01 0.0000000000000000e+00  -1.0513606142424979e-29 -1.4912280701752708e+01 0.0000000000000000e+00  4.5754792281177986e-14 -1.4912280701752715e+01 0.0000000000000000e+00  9.4698761812365772e-14 -1.4912280701752733e+01 0.0000000000000000e+00  1.4229745488135582e-13 -1.4912280701752698e+01 0.0000000000000000e+00  1.8105672367033169e-13 -1.4912280701752675e+01 0.0000000000000000e+00  2.1086695193295062e-13 -1.4912280701752636e+01 0.0000000000000000e+00  2.3451169930655163e-13 -1.4912280701752543e+01 0.0000000000000000e+00  2.5291049605380838e-13 -1.4912280701752408e+01 0.0000000000000000e+00  2.5017389610654513e-13 -1.4912280701752282e+01 0.0000000000000000e+00  2.3225140533821770e-13 -1.4912280701752229e+01 0.0000000000000000e+00  2.1531459971225641e-13 -1.4912280701752126e+01 0.0000000000000000e+00  1.8492585014189369e-13 -1.4912280701752049e+01 0.0000000000000000e+00  1.4687147769483872e-13 -1.4912280701752019e+01 0.0000000000000000e+00  9.7569886337910515e-14 -1.4912280701751937e+01 0.0000000000000000e+00  4.6527085141270390e-14 -1.4912280701751934e+01 0.0000000000000000e+00  1.0201926048268412e-29 -1.4912280701751905e+01 0.0000000000000000e+00  2.7733391199176098e-30 -1.6403508771927960e+01 0.0000000000000000e+00  4.3976852436623389e-14 -1.6403508771927982e+01 0.0000000000000000e+00  9.6919855395556100e-14 -1.6403508771928006e+01 0.0000000000000000e+00  1.4597831573800935e-13 -1.6403508771927957e+01 0.0000000000000000e+00  1.8338262865081070e-13 -1.6403508771927957e+01 0.0000000000000000e+00  2.1433669638651058e-13 -1.6403508771927875e+01 0.0000000000000000e+00  2.3681937964830428e-13 -1.6403508771927786e+01 0.0000000000000000e+00  2.5574908076440345e-13 -1.6403508771927651e+01 0.0000000000000000e+00  2.5345064970551685e-13 -1.6403508771927505e+01 0.0000000000000000e+00  2.3798110245749927e-13 -1.6403508771927431e+01 0.0000000000000000e+00  2.1052504625978720e-13 -1.6403508771927346e+01 0.0000000000000000e+00  1.8751384919233159e-13 -1.6403508771927250e+01 0.0000000000000000e+00  1.4702595306778226e-13 -1.6403508771927214e+01 0.0000000000000000e+00  1.0000738623591029e-13 -1.6403508771927150e+01 0.0000000000000000e+00  4.9920746165514026e-14 -1.6403508771927111e+01 0.0000000000000000e+00  -4.6222318665293477e-31 -1.6403508771927097e+01 0.0000000000000000e+00  4.6778782058109943e-30 -1.7894736842103249e+01 0.0000000000000000e+00  4.4298131023567466e-14 -1.7894736842103267e+01 0.0000000000000000e+00  9.9420518256685761e-14 -1.7894736842103285e+01 0.0000000000000000e+00  1.4472530981893424e-13 -1.7894736842103242e+01 0.0000000000000000e+00  1.8453819749957686e-13 -1.7894736842103203e+01 0.0000000000000000e+00  2.1338602764405465e-13 -1.7894736842103168e+01 0.0000000000000000e+00  2.3973915977981915e-13 -1.7894736842103036e+01 0.0000000000000000e+00  2.5673648144666468e-13 -1.7894736842102908e+01 0.0000000000000000e+00  2.5088166562848850e-13 -1.7894736842102756e+01 0.0000000000000000e+00  2.3944435979980988e-13 -1.7894736842102663e+01 0.0000000000000000e+00  2.0833741957880958e-13 -1.7894736842102578e+01 0.0000000000000000e+00  1.8823281953919410e-13 -1.7894736842102475e+01 0.0000000000000000e+00  1.5213061201320000e-13 -1.7894736842102414e+01 0.0000000000000000e+00  1.0106442981091966e-13 -1.7894736842102340e+01 0.0000000000000000e+00  4.9886814322501568e-14 -1.7894736842102329e+01 0.0000000000000000e+00  1.2776765781177580e-30 -1.7894736842102290e+01 0.0000000000000000e+00  -4.1600086798764322e-30 -1.9385964912278514e+01 0.0000000000000000e+00  5.2262940285039241e-14 -1.9385964912278538e+01 0.0000000000000000e+00  9.9613266750887852e-14 -1.9385964912278556e+01 0.0000000000000000e+00  1.4789370145971113e-13 -1.9385964912278503e+01 0.0000000000000000e+00  1.8311758095042405e-13 -1.9385964912278489e+01 0.0000000000000000e+00  2.1289757223913902e-13 -1.9385964912278425e+01 0.0000000000000000e+00  2.4014234284087379e-13 -1.9385964912278283e+01 0.0000000000000000e+00  2.5592230185899003e-13 -1.9385964912278130e+01 0.0000000000000000e+00  2.5201407044247023e-13 -1.9385964912277988e+01 0.0000000000000000e+00  2.3649771582483293e-13 -1.9385964912277863e+01 0.0000000000000000e+00  2.1206035761380420e-13 -1.9385964912277785e+01 0.0000000000000000e+00  1.8576186036476499e-13 -1.9385964912277700e+01 0.0000000000000000e+00  1.5196903633664540e-13 -1.9385964912277597e+01 0.0000000000000000e+00  1.0263982990648083e-13 -1.9385964912277547e+01 0.0000000000000000e+00  4.4764428811888337e-14 -1.9385964912277537e+01 0.0000000000000000e+00  -4.9452228673663969e-30 -1.9385964912277466e+01 0.0000000000000000e+00  1.0795389820635304e-29 -2.0877192982453820e+01 0.0000000000000000e+00  5.5156233388694340e-14 -2.0877192982453803e+01 0.0000000000000000e+00  1.0491978153053224e-13 -2.0877192982453842e+01 0.0000000000000000e+00  1.4543396964917076e-13 -2.0877192982453781e+01 0.0000000000000000e+00  1.8381302337527077e-13 -2.0877192982453746e+01 0.0000000000000000e+00  2.1139602644182770e-13 -2.0877192982453700e+01 0.0000000000000000e+00  2.3578449646716810e-13 -2.0877192982453558e+01 0.0000000000000000e+00  2.5644565652968943e-13 -2.0877192982453394e+01 0.0000000000000000e+00  2.5257770972573403e-13 -2.0877192982453213e+01 0.0000000000000000e+00  2.3259757713601864e-13 -2.0877192982453117e+01 0.0000000000000000e+00  2.1562100881875196e-13 -2.0877192982453000e+01 0.0000000000000000e+00  1.8571207364829611e-13 -2.0877192982452922e+01 0.0000000000000000e+00  1.4579061991223484e-13 -2.0877192982452847e+01 0.0000000000000000e+00  1.0311284043243164e-13 -2.0877192982452751e+01 0.0000000000000000e+00  4.6473010858379365e-14 -2.0877192982452712e+01 0.0000000000000000e+00  4.9193753436633768e-30 -2.0877192982452698e+01 0.0000000000000000e+00  -6.4711246131411307e-30 -2.2368421052629103e+01 0.0000000000000000e+00  5.8643493020081608e-14 -2.2368421052629095e+01 0.0000000000000000e+00  1.1700273686879192e-13 -2.2368421052629099e+01 0.0000000000000000e+00  1.5613632154033332e-13 -2.2368421052629049e+01 0.0000000000000000e+00  1.8345759807351126e-13 -2.2368421052628985e+01 0.0000000000000000e+00  2.0843661116159214e-13 -2.2368421052628971e+01 0.0000000000000000e+00  2.3449512998689256e-13 -2.2368421052628840e+01 0.0000000000000000e+00  2.4988312094796906e-13 -2.2368421052628630e+01 0.0000000000000000e+00  2.5050905429259771e-13 -2.2368421052628459e+01 0.0000000000000000e+00  2.3356668995030879e-13 -2.2368421052628349e+01 0.0000000000000000e+00  2.1301153881107640e-13 -2.2368421052628250e+01 0.0000000000000000e+00  1.8492999693968056e-13 -2.2368421052628104e+01 0.0000000000000000e+00  1.4393983492830958e-13 -2.2368421052628040e+01 0.0000000000000000e+00  9.4888897963993128e-14 -2.2368421052627948e+01 0.0000000000000000e+00  4.8196885582505253e-14 -2.2368421052627916e+01 0.0000000000000000e+00  -4.1600086798764407e-30 -2.2368421052627898e+01 0.0000000000000000e+00  3.7091023204505330e-30 -2.3859649122804381e+01 0.0000000000000000e+00  5.7756152817940524e-14 -2.3859649122804353e+01 0.0000000000000000e+00  1.2250455254158444e-13 -2.3859649122804345e+01 0.0000000000000000e+00  1.6412698147634119e-13 -2.3859649122804303e+01 0.0000000000000000e+00  1.8433897457064135e-13 -2.3859649122804264e+01 0.0000000000000000e+00  2.0727494411116656e-13 -2.3859649122804207e+01 0.0000000000000000e+00  2.3576180620609625e-13 -2.3859649122804065e+01 0.0000000000000000e+00  2.4472772050101585e-13 -2.3859649122803866e+01 0.0000000000000000e+00  2.4253769801707281e-13 -2.3859649122803717e+01 0.0000000000000000e+00  2.4115824603035610e-13 -2.3859649122803553e+01 0.0000000000000000e+00  2.1116731370491325e-13 -2.3859649122803464e+01 0.0000000000000000e+00  1.8184153679829607e-13 -2.3859649122803351e+01 0.0000000000000000e+00  1.3959297885723030e-13 -2.3859649122803280e+01 0.0000000000000000e+00  9.5032365206816595e-14 -2.3859649122803184e+01 0.0000000000000000e+00  5.0246029035985085e-14 -2.3859649122803109e+01 0.0000000000000000e+00  -2.7508466030113110e-31 -2.3859649122803098e+01 0.0000000000000000e+00  -3.6977854932234956e-30 -2.5350877192979688e+01 0.0000000000000000e+00  6.0894468190470854e-14 -2.5350877192979656e+01 0.0000000000000000e+00  1.2834438315474324e-13 -2.5350877192979667e+01 0.0000000000000000e+00  1.6999452564181686e-13 -2.5350877192979567e+01 0.0000000000000000e+00  1.9437364580789268e-13 -2.5350877192979521e+01 0.0000000000000000e+00  2.1131594153490863e-13 -2.5350877192979492e+01 0.0000000000000000e+00  2.2630921825959057e-13 -2.5350877192979315e+01 0.0000000000000000e+00  2.3706702365869273e-13 -2.5350877192979123e+01 