<?xml version="1.0"?>
<VTKFile type="UnstructuredGrid"  version="0.1"  >
<UnstructuredGrid>
<Piece  NumberOfPoints="1411" NumberOfCells="2700">
<Points>
<DataArray  type="Float64"  NumberOfComponents="3"  format="ascii">-0.75 -4.5 0  -0.65 -4.5 0  -0.55 -4.5 0  -0.45 -4.5 0  -0.35 -4.5 0  -0.25 -4.5 0  -0.15 -4.5 0  -0.05000000000000004 -4.5 0  0.05000000000000004 -4.5 0  0.15 -4.5 0  0.25 -4.5 0  0.3500000000000001 -4.5 0  0.45 -4.5 0  0.55 -4.5 0  0.6499999999999999 -4.5 0  0.75 -4.5 0  -0.75 -4.4 0  -0.65 -4.4 0  -0.55 -4.4 0  -0.45 -4.4 0  -0.35 -4.4 0  -0.25 -4.4 0  -0.15 -4.4 0  -0.05000000000000004 -4.4 0  0.05000000000000004 -4.4 0  0.15 -4.4 0  0.25 -4.4 0  0.3500000000000001 -4.4 0  0.45 -4.4 0  0.55 -4.4 0  0.6499999999999999 -4.4 0  0.75 -4.4 0  -0.75 -4.3 0  -0.65 -4.3 0  -0.55 -4.3 0  -0.45 -4.3 0  -0.35 -4.3 0  -0.25 -4.3 0  -0.15 -4.3 0  -0.05000000000000004 -4.3 0  0.05000000000000004 -4.3 0  0.15 -4.3 0  0.25 -4.3 0  0.3500000000000001 -4.3 0  0.45 -4.3 0  0.55 -4.3 0  0.6499999999999999 -4.3 0  0.75 -4.3 0  -0.75 -4.2 0  -0.65 -4.2 0  -0.55 -4.2 0  -0.45 -4.2 0  -0.35 -4.2 0  -0.25 -4.2 0  -0.15 -4.2 0  -0.05000000000000004 -4.2 0  0.05000000000000004 -4.2 0  0.15 -4.2 0  0.25 -4.2 0  0.3500000000000001 -4.2 0  0.45 -4.2 0  0.55 -4.2 0  0.6499999999999999 -4.2 0  0.75 -4.2 0  -0.75 -4.1 0  -0.65 -4.1 0  -0.55 -4.1 0  -0.45 -4.1 0  -0.35 -4.1 0  -0.25 -4.1 0  -0.15 -4.1 0  -0.05000000000000004 -4.1 0  0.05000000000000004 -4.1 0  0.15 -4.1 0  0.25 -4.1 0  0.3500000000000001 -4.1 0  0.45 -4.1 0  0.55 -4.1 0  0.6499999999999999 -4.1 0  0.75 -4.1 0  -0.75 -4 0  -0.65 -4 0  -0.55 -4 0  -0.45 -4 0  -0.35 -4 0  -0.25 -4 0  -0.15 -4 0  -0.05000000000000004 -4 0  0.05000000000000004 -4 0  0.15 -4 0  0.25 -4 0  0.3500000000000001 -4 0  0.45 -4 0  0.55 -4 0  0.6499999999999999 -4 0  0.75 -4 0  -0.75 -3.9 0  -0.65 -3.9 0  -0.55 -3.9 0  -0.45 -3.9 0  -0.35 -3.9 0  -0.25 -3.9 0  -0.15 -3.9 0  -0.05000000000000004 -3.9 0  0.05000000000000004 -3.9 0  0.15 -3.9 0  0.25 -3.9 0  0.3500000000000001 -3.9 0  0.45 -3.9 0  0.55 -3.9 0  0.6499999999999999 -3.9 0  0.75 -3.9 0  -0.75 -3.8 0  -0.65 -3.8 0  -0.55 -3.8 0  -0.45 -3.8 0  -0.35 -3.8 0  -0.25 -3.8 0  -0.15 -3.8 0  -0.05000000000000004 -3.8 0  0.05000000000000004 -3.8 0  0.15 -3.8 0  0.25 -3.8 0  0.3500000000000001 -3.8 0  0.45 -3.8 0  0.55 -3.8 0  0.6499999999999999 -3.8 0  0.75 -3.8 0  -0.75 -3.7 0  -0.65 -3.7 0  -0.55 -3.7 0  -0.45 -3.7 0  -0.35 -3.7 0  -0.25 -3.7 0  -0.15 -3.7 0  -0.05000000000000004 -3.7 0  0.05000000000000004 -3.7 0  0.15 -3.7 0  0.25 -3.7 0  0.3500000000000001 -3.7 0  0.45 -3.7 0  0.55 -3.7 0  0.6499999999999999 -3.7 0  0.75 -3.7 0  -0.75 -3.6 0  -0.65 -3.6 0  -0.55 -3.6 0  -0.45 -3.6 0  -0.35 -3.6 0  -0.25 -3.6 0  -0.15 -3.6 0  -0.05000000000000004 -3.6 0  0.05000000000000004 -3.6 0  0.15 -3.6 0  0.25 -3.6 0  0.3500000000000001 -3.6 0  0.45 -3.6 0  0.55 -3.6 0  0.6499999999999999 -3.6 0  0.75 -3.6 0  -0.75 -3.5 0  -0.65 -3.5 0  -0.55 -3.5 0  -0.45 -3.5 0  -0.35 -3.5 0  -0.25 -3.5 0  -0.15 -3.5 0  -0.05000000000000004 -3.5 0  0.05000000000000004 -3.5 0  0.15 -3.5 0  0.25 -3.5 0  0.3500000000000001 -3.5 0  0.45 -3.5 0  0.55 -3.5 0  0.6499999999999999 -3.5 0  0.75 -3.5 0  -0.75 -3.4 0  -0.65 -3.4 0  -0.55 -3.4 0  -0.45 -3.4 0  -0.35 -3.4 0  -0.25 -3.4 0  -0.15 -3.4 0  -0.05000000000000004 -3.4 0  0.05000000000000004 -3.4 0  0.15 -3.4 0  0.25 -3.4 0  0.3500000000000001 -3.4 0  0.45 -3.4 0  0.55 -3.4 0  0.6499999999999999 -3.4 0  0.75 -3.4 0  -0.75 -3.3 0  -0.65 -3.3 0  -0.55 -3.3 0  -0.45 -3.3 0  -0.35 -3.3 0  -0.25 -3.3 0  -0.15 -3.3 0  -0.05000000000000004 -3.3 0  0.05000000000000004 -3.3 0  0.15 -3.3 0  0.25 -3.3 0  0.3500000000000001 -3.3 0  0.45 -3.3 0  0.55 -3.3 0  0.6499999999999999 -3.3 0  0.75 -3.3 0  -0.75 -3.2 0  -0.65 -3.2 0  -0.55 -3.2 0  -0.45 -3.2 0  -0.35 -3.2 0  -0.25 -3.2 0  -0.15 -3.2 0  -0.05000000000000004 -3.2 0  0.05000000000000004 -3.2 0  0.15 -3.2 0  0.25 -3.2 0  0.3500000000000001 -3.2 0  0.45 -3.2 0  0.55 -3.2 0  0.6499999999999999 -3.2 0  0.75 -3.2 0  -0.75 -3.1 0  -0.65 -3.1 0  -0.55 -3.1 0  -0.45 -3.1 0  -0.35 -3.1 0  -0.25 -3.1 0  -0.15 -3.1 0  -0.05000000000000004 -3.1 0  0.05000000000000004 -3.1 0  0.15 -3.1 0  0.25 -3.1 0  0.3500000000000001 -3.1 0  0.45 -3.1 0  0.55 -3.1 0  0.6499999999999999 -3.1 0  0.75 -3.1 0  -0.75 -3 0  -0.65 -3 0  -0.55 -3 0  -0.45 -3 0  -0.35 -3 0  -0.25 -3 0  -0.15 -3 0  -0.05000000000000004 -3 0  0.05000000000000004 -3 0  0.15 -3 0  0.25 -3 0  0.3500000000000001 -3 0  0.45 -3 0  0.55 -3 0  0.6499999999999999 -3 0  0.75 -3 0  -0.75 -2.9 0  -0.65 -2.9 0  -0.55 -2.9 0  -0.45 -2.9 0  -0.35 -2.9 0  -0.25 -2.9 0  -0.15 -2.9 0  -0.05000000000000004 -2.9 0  0.05000000000000004 -2.9 0  0.15 -2.9 0  0.25 -2.9 0  0.3500000000000001 -2.9 0  0.45 -2.9 0  0.55 -2.9 0  0.6499999999999999 -2.9 0  0.75 -2.9 0  -0.75 -2.8 0  -0.65 -2.8 0  -0.55 -2.8 0  -0.45 -2.8 0  -0.35 -2.8 0  -0.25 -2.8 0  -0.15 -2.8 0  -0.05000000000000004 -2.8 0  0.05000000000000004 -2.8 0  0.15 -2.8 0  0.25 -2.8 0  0.3500000000000001 -2.8 0  0.45 -2.8 0  0.55 -2.8 0  0.6499999999999999 -2.8 0  0.75 -2.8 0  -0.75 -2.7 0  -0.65 -2.7 0  -0.55 -2.7 0  -0.45 -2.7 0  -0.35 -2.7 0  -0.25 -2.7 0  -0.15 -2.7 0  -0.05000000000000004 -2.7 0  0.05000000000000004 -2.7 0  0.15 -2.7 0  0.25 -2.7 0  0.3500000000000001 -2.7 0  0.45 -2.7 0  0.55 -2.7 0  0.6499999999999999 -2.7 0  0.75 -2.7 0  -0.75 -2.6 0  -0.65 -2.6 0  -0.55 -2.6 0  -0.45 -2.6 0  -0.35 -2.6 0  -0.25 -2.6 0  -0.15 -2.6 0  -0.05000000000000004 -2.6 0  0.05000000000000004 -2.6 0  0.15 -2.6 0  0.25 -2.6 0  0.3500000000000001 -2.6 0  0.45 -2.6 0  0.55 -2.6 0  0.6499999999999999 -2.6 0  0.75 -2.6 0  -0.75 -2.5 0  -0.65 -2.5 0  -0.55 -2.5 0  -0.45 -2.5 0  -0.35 -2.5 0  -0.25 -2.5 0  -0.15 -2.5 0  -0.05000000000000004 -2.5 0  0.05000000000000004 -2.5 0  0.15 -2.5 0  0.25 -2.5 0  0.3500000000000001 -2.5 0  0.45 -2.5 0  0.55 -2.5 0  0.6499999999999999 -2.5 0  0.75 -2.5 0  -0.75 -2.4 0  -0.65 -2.4 0  -0.55 -2.4 0  -0.45 -2.4 0  -0.35 -2.4 0  -0.25 -2.4 0  -0.15 -2.4 0  -0.05000000000000004 -2.4 0  0.05000000000000004 -2.4 0  0.15 -2.4 0  0.25 -2.4 0  0.3500000000000001 -2.4 0  0.45 -2.4 0  0.55 -2.4 0  0.6499999999999999 -2.4 0  0.75 -2.4 0  -0.75 -2.3 0  -0.65 -2.3 0  -0.55 -2.3 0  -0.45 -2.3 0  -0.35 -2.3 0  -0.25 -2.3 0  -0.15 -2.3 0  -0.05000000000000004 -2.3 0  0.05000000000000004 -2.3 0  0.15 -2.3 0  0.25 -2.3 0  0.3500000000000001 -2.3 0  0.45 -2.3 0  0.55 -2.3 0  0.6499999999999999 -2.3 0  0.75 -2.3 0  -0.75 -2.2 0  -0.65 -2.2 0  -0.55 -2.2 0  -0.45 -2.2 0  -0.35 -2.2 0  -0.25 -2.2 0  -0.15 -2.2 0  -0.05000000000000004 -2.2 0  0.05000000000000004 -2.2 0  0.15 -2.2 0  0.25 -2.2 0  0.3500000000000001 -2.2 0  0.45 -2.2 0  0.55 -2.2 0  0.6499999999999999 -2.2 0  0.75 -2.2 0  -0.75 -2.1 0  -0.65 -2.1 0  -0.55 -2.1 0  -0.45 -2.1 0  -0.35 -2.1 0  -0.25 -2.1 0  -0.15 -2.1 0  -0.05000000000000004 -2.1 0  0.05000000000000004 -2.1 0  0.15 -2.1 0  0.25 -2.1 0  0.3500000000000001 -2.1 0  0.45 -2.1 0  0.55 -2.1 0  0.6499999999999999 -2.1 0  0.75 -2.1 0  -0.75 -2 0  -0.65 -2 0  -0.55 -2 0  -0.45 -2 0  -0.35 -2 0  -0.25 -2 0  -0.15 -2 0  -0.05000000000000004 -2 0  0.05000000000000004 -2 0  0.15 -2 0  0.25 -2 0  0.3500000000000001 -2 0  0.45 -2 0  0.55 -2 0  0.6499999999999999 -2 0  0.75 -2 0  -0.75 -1.9 0  -0.65 -1.9 0  -0.55 -1.9 0  -0.45 -1.9 0  -0.35 -1.9 0  -0.25 -1.9 0  -0.15 -1.9 0  -0.05000000000000004 -1.9 0  0.05000000000000004 -1.9 0  0.15 -1.9 0  0.25 -1.9 0  0.3500000000000001 -1.9 0  0.45 -1.9 0  0.55 -1.9 0  0.6499999999999999 -1.9 0  0.75 -1.9 0  -0.75 -1.8 0  -0.65 -1.8 0  -0.55 -1.8 0  -0.45 -1.8 0  -0.35 -1.8 0  -0.25 -1.8 0  -0.15 -1.8 0  -0.05000000000000004 -1.8 0  0.05000000000000004 -1.8 0  0.15 -1.8 0  0.25 -1.8 0  0.3500000000000001 -1.8 0  0.45 -1.8 0  0.55 -1.8 0  0.6499999999999999 -1.8 0  0.75 -1.8 0  -0.75 -1.7 0  -0.65 -1.7 0  -0.55 -1.7 0  -0.45 -1.7 0  -0.35 -1.7 0  -0.25 -1.7 0  -0.15 -1.7 0  -0.05000000000000004 -1.7 0  0.05000000000000004 -1.7 0  0.15 -1.7 0  0.25 -1.7 0  0.3500000000000001 -1.7 0  0.45 -1.7 0  0.55 -1.7 0  0.6499999999999999 -1.7 0  0.75 -1.7 0  -0.75 -1.6 0  -0.65 -1.6 0  -0.55 -1.6 0  -0.45 -1.6 0  -0.35 -1.6 0  -0.25 -1.6 0  -0.15 -1.6 0  -0.05000000000000004 -1.6 0  0.05000000000000004 -1.6 0  0.15 -1.6 0  0.25 -1.6 0  0.3500000000000001 -1.6 0  0.45 -1.6 0  0.55 -1.6 0  0.6499999999999999 -1.6 0  0.75 -1.6 0  -0.75 -1.5 0  -0.65 -1.5 0  -0.55 -1.5 0  -0.45 -1.5 0  -0.35 -1.5 0  -0.25 -1.5 0  -0.15 -1.5 0  -0.05000000000000004 -1.5 0  0.05000000000000004 -1.5 0  0.15 -1.5 0  0.25 -1.5 0  0.3500000000000001 -1.5 0  0.45 -1.5 0  0.55 -1.5 0  0.6499999999999999 -1.5 0  0.75 -1.5 0  -0.75 -1.4 0  -0.65 -1.4 0  -0.55 -1.4 0  -0.45 -1.4 0  -0.35 -1.4 0  -0.25 -1.4 0  -0.15 -1.4 0  -0.05000000000000004 -1.4 0  0.05000000000000004 -1.4 0  0.15 -1.4 0  0.25 -1.4 0  0.3500000000000001 -1.4 0  0.45 -1.4 0  0.55 -1.4 0  0.6499999999999999 -1.4 0  0.75 -1.4 0  -0.75 -1.3 0  -0.65 -1.3 0  -0.55 -1.3 0  -0.45 -1.3 0  -0.35 -1.3 0  -0.25 -1.3 0  -0.15 -1.3 0  -0.05000000000000004 -1.3 0  0.05000000000000004 -1.3 0  0.15 -1.3 0  0.25 -1.3 0  0.3500000000000001 -1.3 0  0.45 -1.3 0  0.55 -1.3 0  0.6499999999999999 -1.3 0  0.75 -1.3 0  -0.75 -1.2 0  -0.65 -1.2 0  -0.55 -1.2 0  -0.45 -1.2 0  -0.35 -1.2 0  -0.25 -1.2 0  -0.15 -1.2 0  -0.05000000000000004 -1.2 0  0.05000000000000004 -1.2 0  0.15 -1.2 0  0.25 -1.2 0  0.3500000000000001 -1.2 0  0.45 -1.2 0  0.55 -1.2 0  0.6499999999999999 -1.2 0  0.75 -1.2 0  -0.75 -1.1 0  -0.65 -1.1 0  -0.55 -1.1 0  -0.45 -1.1 0  -0.35 -1.1 0  -0.25 -1.1 0  -0.15 -1.1 0  -0.05000000000000004 -1.1 0  0.05000000000000004 -1.1 0  0.15 -1.1 0  0.25 -1.1 0  0.3500000000000001 -1.1 0  0.45 -1.1 0  0.55 -1.1 0  0.6499999999999999 -1.1 0  0.75 -1.1 0  -0.75 -1 0  -0.65 -1 0  -0.55 -1 0  -0.45 -1 0  -0.35 -1 0  -0.25 -1 0  -0.15 -1 0  -0.05000000000000004 -1 0  0.05000000000000004 -1 0  0.15 -1 0  0.25 -1 0  0.3500000000000001 -1 0  0.45 -1 0  0.55 -1 0  0.6499999999999999 -1 0  0.75 -1 0  -0.75 -0.8999999999999999 0  -0.65 -0.899999
[...]
<PointData  Vectors="displacement"> 
<DataArray  type="Float64"  Name="displacement"  NumberOfComponents="3" format="ascii">5.2897245787003439e-36 -1.5881867761018176e-20 0.0000000000000000e+00  -1.3854573791470814e-35 2.9868623278186158e-21 0.0000000000000000e+00  -2.8211864419734996e-35 0.0000000000000000e+00 0.0000000000000000e+00  4.8178766692998059e-35 1.7273857635580083e-21 0.0000000000000000e+00  -8.4635593259204979e-35 3.9704669402545456e-21 0.0000000000000000e+00  -1.5524194500202024e-34 -1.8934208191957771e-20 0.0000000000000000e+00  4.2317796629602500e-35 5.9557004103818203e-21 0.0000000000000000e+00  -1.4877994534682495e-35 -1.4451103795242864e-20 0.0000000000000000e+00  5.6423728839469982e-35 7.9409338805090913e-21 0.0000000000000000e+00  8.5218452798029390e-35 2.9393634219987208e-21 0.0000000000000000e+00  -8.4635593259204925e-35 -1.7867101231145446e-20 0.0000000000000000e+00  1.1307475053193110e-34 -7.4664359392848312e-21 0.0000000000000000e+00  -1.4105932209867496e-35 -9.9261673506363641e-22 0.0000000000000000e+00  2.0718087933242876e-35 3.9084283943130670e-21 0.0000000000000000e+00  0.0000000000000000e+00 1.9852334701272747e-21 0.0000000000000000e+00  3.5264830524668712e-36 0.0000000000000000e+00 0.0000000000000000e+00  2.1158898314801100e-35 -6.4578327355873221e-05 0.0000000000000000e+00  -2.0588129016037196e-19 -6.4578327355873288e-05 0.0000000000000000e+00  -3.7681301793687982e-19 -6.4578327355873315e-05 0.0000000000000000e+00  -5.0791029102485063e-19 -6.4578327355873315e-05 0.0000000000000000e+00  -5.9967241456943507e-19 -6.4578327355873370e-05 0.0000000000000000e+00  -7.1751714432281686e-19 -6.4578327355873315e-05 0.0000000000000000e+00  -8.2871113016991177e-19 -6.4578327355873424e-05 0.0000000000000000e+00  -9.2992146787951204e-19 -6.4578327355873356e-05 0.0000000000000000e+00  -9.5637973423241004e-19 -6.4578327355873383e-05 0.0000000000000000e+00  -9.3181908261851453e-19 -6.4578327355873410e-05 0.0000000000000000e+00  -8.7959577002489596e-19 -6.4578327355873383e-05 0.0000000000000000e+00  -7.6235009578286252e-19 -6.4578327355873627e-05 0.0000000000000000e+00  -6.3613578753107552e-19 -6.4578327355873708e-05 0.0000000000000000e+00  -4.6680453049809263e-19 -6.4578327355873885e-05 0.0000000000000000e+00  -2.3785961427775791e-19 -6.4578327355873993e-05 0.0000000000000000e+00  -3.9515967871987403e-35 -6.4578327355873952e-05 0.0000000000000000e+00  -7.7582627154271040e-35 -1.2918074940322305e-04 0.0000000000000000e+00  -3.5359794001512366e-19 -1.2918074940322302e-04 0.0000000000000000e+00  -6.8164191730470769e-19 -1.2918074940322319e-04 0.0000000000000000e+00  -9.3930364415780298e-19 -1.2918074940322332e-04 0.0000000000000000e+00  -1.1668592233060255e-18 -1.2918074940322324e-04 0.0000000000000000e+00  -1.3427676178477646e-18 -1.2918074940322321e-04 0.0000000000000000e+00  -1.5527157426899604e-18 -1.2918074940322327e-04 0.0000000000000000e+00  -1.7319743094718430e-18 -1.2918074940322343e-04 0.0000000000000000e+00  -1.7281211377231001e-18 -1.2918074940322335e-04 0.0000000000000000e+00  -1.6792439180061935e-18 -1.2918074940322348e-04 0.0000000000000000e+00  -1.5074404666185803e-18 -1.2918074940322359e-04 0.0000000000000000e+00  -1.3039167715304438e-18 -1.2918074940322400e-04 0.0000000000000000e+00  -1.1238818671099606e-18 -1.2918074940322422e-04 0.0000000000000000e+00  -7.9723706976694380e-19 -1.2918074940322449e-04 0.0000000000000000e+00  -3.9956567221708965e-19 -1.2918074940322487e-04 0.0000000000000000e+00  9.9733348827578509e-36 -1.2918074940322470e-04 0.0000000000000000e+00  3.7138274646291673e-35 -1.9383130102817748e-04 0.0000000000000000e+00  -4.8035451405882678e-19 -1.9383130102817742e-04 0.0000000000000000e+00  -8.3991866300212872e-19 -1.9383130102817772e-04 0.0000000000000000e+00  -1.2800381703048474e-18 -1.9383130102817767e-04 0.0000000000000000e+00  -1.6431542470829985e-18 -1.9383130102817778e-04 0.0000000000000000e+00  -1.9438303316039912e-18 -1.9383130102817788e-04 0.0000000000000000e+00  -2.1090578912243606e-18 -1.9383130102817797e-04 0.0000000000000000e+00  -2.2460100633496783e-18 -1.9383130102817786e-04 0.0000000000000000e+00  -2.3447709592678161e-18 -1.9383130102817816e-04 0.0000000000000000e+00  -2.2045267367609940e-18 -1.9383130102817816e-04 0.0000000000000000e+00  -2.0199108925598926e-18 -1.9383130102817862e-04 0.0000000000000000e+00  -1.8144449559995683e-18 -1.9383130102817886e-04 0.0000000000000000e+00  -1.4722283070669770e-18 -1.9383130102817948e-04 0.0000000000000000e+00  -1.0111144934093998e-18 -1.9383130102818008e-04 0.0000000000000000e+00  -5.1744413187153457e-19 -1.9383130102818022e-04 0.0000000000000000e+00  1.2594582330238801e-34 -1.9383130102818040e-04 0.0000000000000000e+00  -4.9370762734535894e-35 -2.5855389765461412e-04 0.0000000000000000e+00  -5.2343405198634321e-19 -2.5855389765461407e-04 0.0000000000000000e+00  -1.0657544240253647e-18 -2.5855389765461429e-04 0.0000000000000000e+00  -1.5777060749950087e-18 -2.5855389765461445e-04 0.0000000000000000e+00  -2.0530849575415042e-18 -2.5855389765461439e-04 0.0000000000000000e+00  -2.3598037256945612e-18 -2.5855389765461488e-04 0.0000000000000000e+00  -2.5974969338906525e-18 -2.5855389765461461e-04 0.0000000000000000e+00  -2.7684609356840299e-18 -2.5855389765461466e-04 0.0000000000000000e+00  -2.7618474233989504e-18 -2.5855389765461494e-04 0.0000000000000000e+00  -2.6851856603008519e-18 -2.5855389765461477e-04 0.0000000000000000e+00  -2.5601635644388790e-18 -2.5855389765461548e-04 0.0000000000000000e+00  -2.1515284452128768e-18 -2.5855389765461607e-04 0.0000000000000000e+00  -1.6400759133863415e-18 -2.5855389765461710e-04 0.0000000000000000e+00  -1.1158363118957394e-18 -2.5855389765461770e-04 0.0000000000000000e+00  -5.8072684670367806e-19 -2.5855389765461797e-04 0.0000000000000000e+00  1.4105932209867394e-35 -2.5855389765461824e-04 0.0000000000000000e+00  2.8383511887176057e-35 -3.2337227588376423e-04 0.0000000000000000e+00  -5.9806729971158943e-19 -3.2337227588376412e-04 0.0000000000000000e+00  -1.2618345729507808e-18 -3.2337227588376450e-04 0.0000000000000000e+00  -1.9468373173946896e-18 -3.2337227588376450e-04 0.0000000000000000e+00  -2.4607963507075477e-18 -3.2337227588376504e-04 0.0000000000000000e+00  -2.7768172514763946e-18 -3.2337227588376499e-04 0.0000000000000000e+00  -2.9864984127349477e-18 -3.2337227588376504e-04 0.0000000000000000e+00  -3.1776677602482754e-18 -3.2337227588376542e-04 0.0000000000000000e+00  -3.2725568276980003e-18 -3.2337227588376548e-04 0.0000000000000000e+00  -3.1758580517569894e-18 -3.2337227588376526e-04 0.0000000000000000e+00  -2.8555060035425576e-18 -3.2337227588376624e-04 0.0000000000000000e+00  -2.4805693005393377e-18 -3.2337227588376743e-04 0.0000000000000000e+00  -1.8840616834940299e-18 -3.2337227588376846e-04 0.0000000000000000e+00  -1.2700687481946656e-18 -3.2337227588376884e-04 0.0000000000000000e+00  -6.0321577842371682e-19 -3.2337227588376933e-04 0.0000000000000000e+00  6.3742789518318979e-36 -3.2337227588376954e-04 0.0000000000000000e+00  0.0000000000000000e+00 -3.8830993457767836e-04 0.0000000000000000e+00  -7.6296160632022786e-19 -3.8830993457767820e-04 0.0000000000000000e+00  -1.5334040064750745e-18 -3.8830993457767847e-04 0.0000000000000000e+00  -2.1963027922292729e-18 -3.8830993457767836e-04 0.0000000000000000e+00  -2.6954588956931334e-18 -3.8830993457767901e-04 0.0000000000000000e+00  -3.0436889824577000e-18 -3.8830993457767934e-04 0.0000000000000000e+00  -3.3044687476616459e-18 -3.8830993457767934e-04 0.0000000000000000e+00  -3.4727106259339778e-18 -3.8830993457767896e-04 0.0000000000000000e+00  -3.5057685355754014e-18 -3.8830993457767982e-04 0.0000000000000000e+00  -3.3457466361241798e-18 -3.8830993457767999e-04 0.0000000000000000e+00  -3.0757811526390010e-18 -3.8830993457768069e-04 0.0000000000000000e+00  -2.6088084065963455e-18 -3.8830993457768243e-04 0.0000000000000000e+00  -2.0688135355085134e-18 -3.8830993457768356e-04 0.0000000000000000e+00  -1.4042351236618598e-18 -3.8830993457768422e-04 0.0000000000000000e+00  -6.6776142226684331e-19 -3.8830993457768503e-04 0.0000000000000000e+00  1.0824314561249778e-34 -3.8830993457768438e-04 0.0000000000000000e+00  3.3299608683573490e-35 -4.5339007653277000e-04 0.0000000000000000e+00  -8.9560246210188356e-19 -4.5339007653276956e-04 0.0000000000000000e+00  -1.7292295843905542e-18 -4.5339007653276918e-04 0.0000000000000000e+00  -2.3832659013583937e-18 -4.5339007653277049e-04 0.0000000000000000e+00  -2.8410015918389938e-18 -4.5339007653277076e-04 0.0000000000000000e+00  -3.1665682130203057e-18 -4.5339007653277124e-04 0.0000000000000000e+00  -3.4448550874364303e-18 -4.5339007653277081e-04 0.0000000000000000e+00  -3.6416167847829171e-18 -4.5339007653277108e-04 0.0000000000000000e+00  -3.6512140235427375e-18 -4.5339007653277124e-04 0.0000000000000000e+00  -3.4161534543069130e-18 -4.5339007653277238e-04 0.0000000000000000e+00  -3.0821402418523945e-18 -4.5339007653277298e-04 0.0000000000000000e+00  -2.6844466958558866e-18 -4.5339007653277433e-04 0.0000000000000000e+00  -2.1708570011098756e-18 -4.5339007653277591e-04 0.0000000000000000e+00  -1.4127876624516298e-18 -4.5339007653277715e-04 0.0000000000000000e+00  -6.8621718059462608e-19 -4.5339007653277759e-04 0.0000000000000000e+00  -5.0378329320955185e-35 -4.5339007653277721e-04 0.0000000000000000e+00  7.0529661049337237e-36 -5.1863555088822310e-04 0.0000000000000000e+00  -8.4781788205907045e-19 -5.1863555088822321e-04 0.0000000000000000e+00  -1.6794597969915436e-18 -5.1863555088822353e-04 0.0000000000000000e+00  -2.4988162848311401e-18 -5.1863555088822418e-04 0.0000000000000000e+00  -3.0605944229115387e-18 -5.1863555088822472e-04 0.0000000000000000e+00  -3.3191341648288811e-18 -5.1863555088822494e-04 0.0000000000000000e+00  -3.4910830287449779e-18 -5.1863555088822462e-04 0.0000000000000000e+00  -3.7442538474774998e-18 -5.1863555088822483e-04 0.0000000000000000e+00  -3.7265850062955055e-18 -5.1863555088822548e-04 0.0000000000000000e+00  -3.5454524384851383e-18 -5.1863555088822570e-04 0.0000000000000000e+00  -3.3130222466346242e-18 -5.1863555088822689e-04 0.0000000000000000e+00  -2.8117531151914398e-18 -5.1863555088822830e-04 0.0000000000000000e+00  -2.1768221401759987e-18 -5.1863555088823069e-04 0.0000000000000000e+00  -1.4728617051626656e-18 -5.1863555088823199e-04 0.0000000000000000e+00  -7.4690673631440569e-19 -5.1863555088823210e-04 0.0000000000000000e+00  -8.4635593259204669e-35 -5.1863555088823166e-04 0.0000000000000000e+00  -7.0524918002348358e-35 -5.8406879641220602e-04 0.0000000000000000e+00  -8.6462852109750690e-19 -5.8406879641220580e-04 0.0000000000000000e+00  -1.7539517791332662e-18 -5.8406879641220613e-04 0.0000000000000000e+00  -2.5303323257411336e-18 -5.8406879641220678e-04 0.0000000000000000e+00  -3.0306343814419447e-18 -5.8406879641220797e-04 0.0000000000000000e+00  -3.5216676825357551e-18 -5.8406879641220873e-04 0.0000000000000000e+00  -3.7757511289636036e-18 -5.8406879641220765e-04 0.0000000000000000e+00  -3.8263774605434133e-18 -5.8406879641220743e-04 0.0000000000000000e+00  -3.7253308997624084e-18 -5.8406879641220808e-04 0.0000000000000000e+00  -3.7438050108865054e-18 -5.8406879641220851e-04 0.0000000000000000e+00  -3.4283423303083407e-18 -5.8406879641221025e-04 0.0000000000000000e+00  -2.8421628216810698e-18 -5.8406879641221220e-04 0.0000000000000000e+00  -2.2385585203204141e-18 -5.8406879641221383e-04 0.0000000000000000e+00  -1.6042918100169833e-18 -5.8406879641221567e-04 0.0000000000000000e+00  -8.1484480114954282e-19 -5.8406879641221534e-04 0.0000000000000000e+00  7.8949948498154097e-35 -5.8406879641221578e-04 0.0000000000000000e+00  1.2695338988880714e-34 -6.4971178580665084e-04 0.0000000000000000e+00  -1.0207930530811608e-18 -6.4971178580665106e-04 0.0000000000000000e+00  -1.8952729022200005e-18 -6.4971178580665063e-04 0.0000000000000000e+00  -2.5215345138098388e-18 -6.4971178580665204e-04 0.0000000000000000e+00  -3.1743702060763855e-18 -6.4971178580665344e-04 0.0000000000000000e+00  -3.5580082361526832e-18 -6.4971178580665290e-04 0.0000000000000000e+00  -3.7743098615919596e-18 -6.4971178580665366e-04 0.0000000000000000e+00  -3.7632292191541328e-18 -6.4971178580665344e-04 0.0000000000000000e+00  -3.8245761213466156e-18 -6.4971178580665301e-04 0.0000000000000000e+00  -3.8502158909613257e-18 -6.4971178580665290e-04 0.0000000000000000e+00  -3.5510828352594548e-18 -6.4971178580665616e-04 0.0000000000000000e+00  -2.9685653291509003e-18 -6.4971178580665594e-04 0.0000000000000000e+00  -2.2917461468713611e-18 -6.4971178580666038e-04 0.0000000000000000e+00  -1.6513384460060682e-18 -6.4971178580666049e-04 0.0000000000000000e+00  -9.1844302435021913e-19 -6.4971178580666168e-04 0.0000000000000000e+00  7.9599026654706725e-35 -6.4971178580666082e-04 0.0000000000000000e+00  9.2015111582781989e-37 -7.1558597116885814e-04 0.0000000000000000e+00  -1.0342739745442385e-18 -7.1558597116885858e-04 0.0000000000000000e+00  -1.9511300505783315e-18 -7.1558597116885858e-04 0.0000000000000000e+00  -2.5895296853678349e-18 -7.1558597116886009e-04 0.0000000000000000e+00  -3.1692647871435392e-18 -7.1558597116886096e-04 0.0000000000000000e+00  -3.5581138025019698e-18 -7.1558597116886183e-04 0.0000000000000000e+00  -3.6504521509060200e-18 -7.1558597116886172e-04 0.0000000000000000e+00  -3.8341698058706851e-18 -7.1558597116886085e-04 0.0000000000000000e+00  -3.8878913597614215e-18 -7.1558597116886129e-04 0.0000000000000000e+00  -3.6044574298361414e-18 -7.1558597116886150e-04 0.0000000000000000e+00  -3.3552704059422472e-18 -7.1558597116886400e-04 0.0000000000000000e+00  -2.9468429172719972e-18 -7.1558597116886671e-04 0.0000000000000000e+00  -2.1932157936366980e-18 -7.1558597116886725e-04 0.0000000000000000e+00  -1.5936658197595087e-18 -7.1558597116886953e-04 0.0000000000000000e+00  -8.1995535243979568e-19 -7.1558597116886996e-04 0.0000000000000000e+00  -2.0151331728382044e-35 -7.1558597116887029e-04 0.0000000000000000e+00  1.0579449157400585e-34 -7.8171223074527884e-04 0.0000000000000000e+00  -1.0022331931031369e-18 -7.8171223074527862e-04 0.0000000000000000e+00  -1.8419012071093953e-18 -7.8171223074527895e-04 0.0000000000000000e+00  -2.3157468387894263e-18 -7.8171223074527971e-04 0.0000000000000000e+00  -2.8618078660407144e-18 -7.8171223074528155e-04 0.0000000000000000e+00  -3.3781231769785849e-18 -7.8171223074528220e-04 0.0000000000000000e+00  -3.6653900210860525e-18 -7.8171223074528198e-04 0.0000000000000000e+00  -3.8611543996472191e-18 -7.8171223074528220e-04 0.0000000000000000e+00  -3.8865313021593804e-18 -7.8171223074528209e-04 0.0000000000000000e+00  -3.6425130364860582e-18 -7.8171223074528296e-04 0.0000000000000000e+00  -3.1491583033748078e-18 -7.8171223074528448e-04 0.0000000000000000e+00  -2.7801953746533759e-18 -7.8171223074528621e-04 0.0000000000000000e+00  -2.2032548380085060e-18 -7.8171223074528892e-04 0.0000000000000000e+00  -1.2161243437122915e-18 -7.8171223074529012e-04 0.0000000000000000e+00  -5.4996310023249898e-19 -7.8171223074529163e-04 0.0000000000000000e+00  8.4635593259204669e-35 -7.8171223074529120e-04 0.0000000000000000e+00  2.2678252983829843e-34 -8.4811081710963973e-04 0.0000000000000000e+00  -7.6442060560127555e-19 -8.4811081710963973e-04 0.0000000000000000e+00  -1.5742317689529481e-18 -8.4811081710963983e-04 0.0000000000000000e+00  -2.4336747512737812e-18 -8.4811081710964189e-04 0.0000000000000000e+00  -2.9340498071369341e-18 -8.4811081710964276e-04 0.0000000000000000e+00  -3.2902919743771455e-18 -8.4811081710964558e-04 0.0000000000000000e+00  -3.6966168527580984e-18 -8.4811081710964352e-04 0.0000000000000000e+00  -3.9280710735557707e-18 -8.4811081710964352e-04 0.0000000000000000e+00  -3.9057529178335642e-18 -8.4811081710964330e-04 0.0000000000000000e+00  -3.7505280198113260e-18 -8.4811081710964504e-04 0.0000000000000000e+00  -3.3695003332124352e-18 -8.4811081710964634e-04 0.0000000000000000e+00  -2.6954519877683881e-18 -8.4811081710964862e-04 0.0000000000000000e+00  -1.9895049027957415e-18 -8.4811081710965057e-04 0.0000000000000000e+00  -1.1746895516196652e-18 -8.4811081710965263e-04 0.0000000000000000e+00  -5.4208853201480484e-19 -8.4811081710965360e-04 0.0000000000000000e+00  4.5739395545195057e-35 -8.4811081710965306e-04 0.0000000000000000e+00  -1.7632415262334289e-34 -9.1480130689404894e-04 0.0000000000000000e+00  -7.5599359582499217e-19 -9.1480130689405056e-04 0.0000000000000000e+00  -1.5126757436432927e-18 -9.1480130689404959e-04 0.0000000000000000e+00  -2.1568518105773663e-18 -9.1480130689405154e-04 0.0000000000000000e+00  -2.7201538373937222e-18 -9.1480130689405338e-04 0.0000000000000000e+00  -3.4274841423920255e-18 -9.1480130689405414e-04 0.0000000000000000e+00  -3.8892715241822220e-18 -9.1480130689405360e-04 0.0000000000000000e+00  -4.1213102759138702e-18 -9.1480130689405338e-04 0.0000000000000000e+00  -4.0136946732039521e-18 -9.1480130689405371e-04 0.0000000000000000e+00  -3.9183900970036503e-18 -9.1480130689405501e-04 0.0000000000000000e+00  -3.5791310920212855e-18 -9.1480130689405783e-04 0.0000000000000000e+00  -2.7841642435033421e-18 -9.1480130689405934e-04 0.0000000000000000e+00  -1.8647239936921773e-18 -9.1480130689406206e-04 0.0000000000000000e+00  -1.1645023989140848e-18 -9.1480130689406368e-04 0.0000000000000000e+00  -5.4829780573595176e-19 -9.1480130689406455e-04 0.0000000000000000e+00  -4.7902384818298108e-35 -9.1480130689406444e-04 0.0000000000000000e+00  2.1099720920133369e-34 -9.8180255219784229e-04 0.0000000000000000e+00  -8.0887255330901135e-19 -9.8180255219784338e-04 0.0000000000000000e+00  -1.4649838163475963e-18 -9.8180255219784294e-04 0.0000000000000000e+00  -2.1611543024720400e-18 -9.8180255219784511e-04 0.0000000000000000e+00  -2.7886406825958155e-18 -9.8180255219784685e-04 0.0000000000000000e+00  -3.3429821116678285e-18 -9.8180255219784880e-04 0.0000000000000000e+00  -3.9002953868333077e-18 -9.8180255219784685e-04 0.0000000000000000e+00  -4.2429227102850874e-18 -9.8180255219784685e-04 0.0000000000000000e+00  -4.2765667461625974e-18 -9.8180255219784836e-04 0.0000000000000000e+00  -3.9554805766936686e-18 -9.8180255219784836e-04 0.0000000000000000e+00  -3.5376889370146545e-18 -9.8180255219785140e-04 0.0000000000000000e+00  -2.8200466715067856e-18 -9.8180255219785422e-04 0.0000000000000000e+00  -2.0209987181872443e-18 -9.8180255219785660e-04 0.0000000000000000e+00  -1.2945470980675781e-18 -9.8180255219785769e-04 0.0000000000000000e+00  -6.8028833317476982e-19 -9.8180255219785942e-04 0.0000000000000000e+00  6.6499394703660865e-35 -9.8180255219785855e-04 0.0000000000000000e+00  -4.9370762734536011e-35 -1.0491326337947813e-03 0.0000000000000000e+00  -8.2966642298933613e-19 -1.0491326337947818e-03 0.0000000000000000e+00  -1.6153338106911369e-18 -1.0491326337947824e-03 0.0000000000000000e+00  -2.0482894518216959e-18 -1.0491326337947844e-03 0.0000000000000000e+00  -2.5956313368524059e-18 -1.0491326337947859e-03 0.0000000000000000e+00  -3.3138692792785183e-18 -1.0491326337947861e-03 0.0000000000000000e+00  -3.7572687258573367e-18 -1.0491326337947855e-03 0.0000000000000000e+00  -4.0928370639109621e-18 -1.0491326337947855e-03 0.0000000000000000e+00  -4.4086028737585191e-18 -1.0491326337947863e-03 0.0000000000000000e+00  -4.0180333968333058e-18 -1.0491326337947878e-03 0.0000000000000000e+00  -3.3931732324950330e-18 -1.0491326337947909e-03 0.0000000000000000e+00  -2.8410015918389834e-18 -1.0491326337947944e-03 0.0000000000000000e+00  -2.2165794705792956e-18 -1.0491326337947954e-03 0.0000000000000000e+00  -1.5404241687022340e-18 -1.0491326337947976e-03 0.0000000000000000e+00  -6.4040214011283410e-19 -1.0491326337947985e-03 0.0000000000000000e+00  -1.4105932209867429e-34 -1.0491326337947993e-03 0.0000000000000000e+00  1.3960556001334809e-35 -1.1168088162547536e-03 0.0000000000000000e+00  -8.4965521345866670e-19 -1.1168088162547528e-03 0.0000000000000000e+00  -1.5594187679299160e-18 -1.1168088162547543e-03 0.0000000000000000e+00  -2.0286753421532973e-18 -1.1168088162547558e-03 0.0000000000000000e+00  -2.5505144872440686e-18 -1.1168088162547575e-