<?xml version="1.0"?>
<VTKFile type="UnstructuredGrid"  version="0.1"  >
<UnstructuredGrid>
<Piece  NumberOfPoints="1876" NumberOfCells="3600">
<Points>
<DataArray  type="Float64"  NumberOfComponents="3"  format="ascii">-0.75 -3 0  -0.65 -3 0  -0.55 -3 0  -0.45 -3 0  -0.35 -3 0  -0.25 -3 0  -0.15 -3 0  -0.05000000000000004 -3 0  0.05000000000000004 -3 0  0.15 -3 0  0.25 -3 0  0.3500000000000001 -3 0  0.45 -3 0  0.55 -3 0  0.6499999999999999 -3 0  0.75 -3 0  -0.75 -2.95 0  -0.65 -2.95 0  -0.55 -2.95 0  -0.45 -2.95 0  -0.35 -2.95 0  -0.25 -2.95 0  -0.15 -2.95 0  -0.05000000000000004 -2.95 0  0.05000000000000004 -2.95 0  0.15 -2.95 0  0.25 -2.95 0  0.3500000000000001 -2.95 0  0.45 -2.95 0  0.55 -2.95 0  0.6499999999999999 -2.95 0  0.75 -2.95 0  -0.75 -2.9 0  -0.65 -2.9 0  -0.55 -2.9 0  -0.45 -2.9 0  -0.35 -2.9 0  -0.25 -2.9 0  -0.15 -2.9 0  -0.05000000000000004 -2.9 0  0.05000000000000004 -2.9 0  0.15 -2.9 0  0.25 -2.9 0  0.3500000000000001 -2.9 0  0.45 -2.9 0  0.55 -2.9 0  0.6499999999999999 -2.9 0  0.75 -2.9 0  -0.75 -2.85 0  -0.65 -2.85 0  -0.55 -2.85 0  -0.45 -2.85 0  -0.35 -2.85 0  -0.25 -2.85 0  -0.15 -2.85 0  -0.05000000000000004 -2.85 0  0.05000000000000004 -2.85 0  0.15 -2.85 0  0.25 -2.85 0  0.3500000000000001 -2.85 0  0.45 -2.85 0  0.55 -2.85 0  0.6499999999999999 -2.85 0  0.75 -2.85 0  -0.75 -2.8 0  -0.65 -2.8 0  -0.55 -2.8 0  -0.45 -2.8 0  -0.35 -2.8 0  -0.25 -2.8 0  -0.15 -2.8 0  -0.05000000000000004 -2.8 0  0.05000000000000004 -2.8 0  0.15 -2.8 0  0.25 -2.8 0  0.3500000000000001 -2.8 0  0.45 -2.8 0  0.55 -2.8 0  0.6499999999999999 -2.8 0  0.75 -2.8 0  -0.75 -2.75 0  -0.65 -2.75 0  -0.55 -2.75 0  -0.45 -2.75 0  -0.35 -2.75 0  -0.25 -2.75 0  -0.15 -2.75 0  -0.05000000000000004 -2.75 0  0.05000000000000004 -2.75 0  0.15 -2.75 0  0.25 -2.75 0  0.3500000000000001 -2.75 0  0.45 -2.75 0  0.55 -2.75 0  0.6499999999999999 -2.75 0  0.75 -2.75 0  -0.75 -2.7 0  -0.65 -2.7 0  -0.55 -2.7 0  -0.45 -2.7 0  -0.35 -2.7 0  -0.25 -2.7 0  -0.15 -2.7 0  -0.05000000000000004 -2.7 0  0.05000000000000004 -2.7 0  0.15 -2.7 0  0.25 -2.7 0  0.3500000000000001 -2.7 0  0.45 -2.7 0  0.55 -2.7 0  0.6499999999999999 -2.7 0  0.75 -2.7 0  -0.75 -2.65 0  -0.65 -2.65 0  -0.55 -2.65 0  -0.45 -2.65 0  -0.35 -2.65 0  -0.25 -2.65 0  -0.15 -2.65 0  -0.05000000000000004 -2.65 0  0.05000000000000004 -2.65 0  0.15 -2.65 0  0.25 -2.65 0  0.3500000000000001 -2.65 0  0.45 -2.65 0  0.55 -2.65 0  0.6499999999999999 -2.65 0  0.75 -2.65 0  -0.75 -2.6 0  -0.65 -2.6 0  -0.55 -2.6 0  -0.45 -2.6 0  -0.35 -2.6 0  -0.25 -2.6 0  -0.15 -2.6 0  -0.05000000000000004 -2.6 0  0.05000000000000004 -2.6 0  0.15 -2.6 0  0.25 -2.6 0  0.3500000000000001 -2.6 0  0.45 -2.6 0  0.55 -2.6 0  0.6499999999999999 -2.6 0  0.75 -2.6 0  -0.75 -2.55 0  -0.65 -2.55 0  -0.55 -2.55 0  -0.45 -2.55 0  -0.35 -2.55 0  -0.25 -2.55 0  -0.15 -2.55 0  -0.05000000000000004 -2.55 0  0.05000000000000004 -2.55 0  0.15 -2.55 0  0.25 -2.55 0  0.3500000000000001 -2.55 0  0.45 -2.55 0  0.55 -2.55 0  0.6499999999999999 -2.55 0  0.75 -2.55 0  -0.75 -2.5 0  -0.65 -2.5 0  -0.55 -2.5 0  -0.45 -2.5 0  -0.35 -2.5 0  -0.25 -2.5 0  -0.15 -2.5 0  -0.05000000000000004 -2.5 0  0.05000000000000004 -2.5 0  0.15 -2.5 0  0.25 -2.5 0  0.3500000000000001 -2.5 0  0.45 -2.5 0  0.55 -2.5 0  0.6499999999999999 -2.5 0  0.75 -2.5 0  -0.75 -2.45 0  -0.65 -2.45 0  -0.55 -2.45 0  -0.45 -2.45 0  -0.35 -2.45 0  -0.25 -2.45 0  -0.15 -2.45 0  -0.05000000000000004 -2.45 0  0.05000000000000004 -2.45 0  0.15 -2.45 0  0.25 -2.45 0  0.3500000000000001 -2.45 0  0.45 -2.45 0  0.55 -2.45 0  0.6499999999999999 -2.45 0  0.75 -2.45 0  -0.75 -2.4 0  -0.65 -2.4 0  -0.55 -2.4 0  -0.45 -2.4 0  -0.35 -2.4 0  -0.25 -2.4 0  -0.15 -2.4 0  -0.05000000000000004 -2.4 0  0.05000000000000004 -2.4 0  0.15 -2.4 0  0.25 -2.4 0  0.3500000000000001 -2.4 0  0.45 -2.4 0  0.55 -2.4 0  0.6499999999999999 -2.4 0  0.75 -2.4 0  -0.75 -2.35 0  -0.65 -2.35 0  -0.55 -2.35 0  -0.45 -2.35 0  -0.35 -2.35 0  -0.25 -2.35 0  -0.15 -2.35 0  -0.05000000000000004 -2.35 0  0.05000000000000004 -2.35 0  0.15 -2.35 0  0.25 -2.35 0  0.3500000000000001 -2.35 0  0.45 -2.35 0  0.55 -2.35 0  0.6499999999999999 -2.35 0  0.75 -2.35 0  -0.75 -2.3 0  -0.65 -2.3 0  -0.55 -2.3 0  -0.45 -2.3 0  -0.35 -2.3 0  -0.25 -2.3 0  -0.15 -2.3 0  -0.05000000000000004 -2.3 0  0.05000000000000004 -2.3 0  0.15 -2.3 0  0.25 -2.3 0  0.3500000000000001 -2.3 0  0.45 -2.3 0  0.55 -2.3 0  0.6499999999999999 -2.3 0  0.75 -2.3 0  -0.75 -2.25 0  -0.65 -2.25 0  -0.55 -2.25 0  -0.45 -2.25 0  -0.35 -2.25 0  -0.25 -2.25 0  -0.15 -2.25 0  -0.05000000000000004 -2.25 0  0.05000000000000004 -2.25 0  0.15 -2.25 0  0.25 -2.25 0  0.3500000000000001 -2.25 0  0.45 -2.25 0  0.55 -2.25 0  0.6499999999999999 -2.25 0  0.75 -2.25 0  -0.75 -2.2 0  -0.65 -2.2 0  -0.55 -2.2 0  -0.45 -2.2 0  -0.35 -2.2 0  -0.25 -2.2 0  -0.15 -2.2 0  -0.05000000000000004 -2.2 0  0.05000000000000004 -2.2 0  0.15 -2.2 0  0.25 -2.2 0  0.3500000000000001 -2.2 0  0.45 -2.2 0  0.55 -2.2 0  0.6499999999999999 -2.2 0  0.75 -2.2 0  -0.75 -2.15 0  -0.65 -2.15 0  -0.55 -2.15 0  -0.45 -2.15 0  -0.35 -2.15 0  -0.25 -2.15 0  -0.15 -2.15 0  -0.05000000000000004 -2.15 0  0.05000000000000004 -2.15 0  0.15 -2.15 0  0.25 -2.15 0  0.3500000000000001 -2.15 0  0.45 -2.15 0  0.55 -2.15 0  0.6499999999999999 -2.15 0  0.75 -2.15 0  -0.75 -2.1 0  -0.65 -2.1 0  -0.55 -2.1 0  -0.45 -2.1 0  -0.35 -2.1 0  -0.25 -2.1 0  -0.15 -2.1 0  -0.05000000000000004 -2.1 0  0.05000000000000004 -2.1 0  0.15 -2.1 0  0.25 -2.1 0  0.3500000000000001 -2.1 0  0.45 -2.1 0  0.55 -2.1 0  0.6499999999999999 -2.1 0  0.75 -2.1 0  -0.75 -2.05 0  -0.65 -2.05 0  -0.55 -2.05 0  -0.45 -2.05 0  -0.35 -2.05 0  -0.25 -2.05 0  -0.15 -2.05 0  -0.05000000000000004 -2.05 0  0.05000000000000004 -2.05 0  0.15 -2.05 0  0.25 -2.05 0  0.3500000000000001 -2.05 0  0.45 -2.05 0  0.55 -2.05 0  0.6499999999999999 -2.05 0  0.75 -2.05 0  -0.75 -2 0  -0.65 -2 0  -0.55 -2 0  -0.45 -2 0  -0.35 -2 0  -0.25 -2 0  -0.15 -2 0  -0.05000000000000004 -2 0  0.05000000000000004 -2 0  0.15 -2 0  0.25 -2 0  0.3500000000000001 -2 0  0.45 -2 0  0.55 -2 0  0.6499999999999999 -2 0  0.75 -2 0  -0.75 -1.95 0  -0.65 -1.95 0  -0.55 -1.95 0  -0.45 -1.95 0  -0.35 -1.95 0  -0.25 -1.95 0  -0.15 -1.95 0  -0.05000000000000004 -1.95 0  0.05000000000000004 -1.95 0  0.15 -1.95 0  0.25 -1.95 0  0.3500000000000001 -1.95 0  0.45 -1.95 0  0.55 -1.95 0  0.6499999999999999 -1.95 0  0.75 -1.95 0  -0.75 -1.9 0  -0.65 -1.9 0  -0.55 -1.9 0  -0.45 -1.9 0  -0.35 -1.9 0  -0.25 -1.9 0  -0.15 -1.9 0  -0.05000000000000004 -1.9 0  0.05000000000000004 -1.9 0  0.15 -1.9 0  0.25 -1.9 0  0.3500000000000001 -1.9 0  0.45 -1.9 0  0.55 -1.9 0  0.6499999999999999 -1.9 0  0.75 -1.9 0  -0.75 -1.85 0  -0.65 -1.85 0  -0.55 -1.85 0  -0.45 -1.85 0  -0.35 -1.85 0  -0.25 -1.85 0  -0.15 -1.85 0  -0.05000000000000004 -1.85 0  0.05000000000000004 -1.85 0  0.15 -1.85 0  0.25 -1.85 0  0.3500000000000001 -1.85 0  0.45 -1.85 0  0.55 -1.85 0  0.6499999999999999 -1.85 0  0.75 -1.85 0  -0.75 -1.8 0  -0.65 -1.8 0  -0.55 -1.8 0  -0.45 -1.8 0  -0.35 -1.8 0  -0.25 -1.8 0  -0.15 -1.8 0  -0.05000000000000004 -1.8 0  0.05000000000000004 -1.8 0  0.15 -1.8 0  0.25 -1.8 0  0.3500000000000001 -1.8 0  0.45 -1.8 0  0.55 -1.8 0  0.6499999999999999 -1.8 0  0.75 -1.8 0  -0.75 -1.75 0  -0.65 -1.75 0  -0.55 -1.75 0  -0.45 -1.75 0  -0.35 -1.75 0  -0.25 -1.75 0  -0.15 -1.75 0  -0.05000000000000004 -1.75 0  0.05000000000000004 -1.75 0  0.15 -1.75 0  0.25 -1.75 0  0.3500000000000001 -1.75 0  0.45 -1.75 0  0.55 -1.75 0  0.6499999999999999 -1.75 0  0.75 -1.75 0  -0.75 -1.7 0  -0.65 -1.7 0  -0.55 -1.7 0  -0.45 -1.7 0  -0.35 -1.7 0  -0.25 -1.7 0  -0.15 -1.7 0  -0.05000000000000004 -1.7 0  0.05000000000000004 -1.7 0  0.15 -1.7 0  0.25 -1.7 0  0.3500000000000001 -1.7 0  0.45 -1.7 0  0.55 -1.7 0  0.6499999999999999 -1.7 0  0.75 -1.7 0  -0.75 -1.65 0  -0.65 -1.65 0  -0.55 -1.65 0  -0.45 -1.65 0  -0.35 -1.65 0  -0.25 -1.65 0  -0.15 -1.65 0  -0.05000000000000004 -1.65 0  0.05000000000000004 -1.65 0  0.15 -1.65 0  0.25 -1.65 0  0.3500000000000001 -1.65 0  0.45 -1.65 0  0.55 -1.65 0  0.6499999999999999 -1.65 0  0.75 -1.65 0  -0.75 -1.6 0  -0.65 -1.6 0  -0.55 -1.6 0  -0.45 -1.6 0  -0.35 -1.6 0  -0.25 -1.6 0  -0.15 -1.6 0  -0.05000000000000004 -1.6 0  0.05000000000000004 -1.6 0  0.15 -1.6 0  0.25 -1.6 0  0.3500000000000001 -1.6 0  0.45 -1.6 0  0.55 -1.6 0  0.6499999999999999 -1.6 0  0.75 -1.6 0  -0.75 -1.55 0  -0.65 -1.55 0  -0.55 -1.55 0  -0.45 -1.55 0  -0.35 -1.55 0  -0.25 -1.55 0  -0.15 -1.55 0  -0.05000000000000004 -1.55 0  0.05000000000000004 -1.55 0  0.15 -1.55 0  0.25 -1.55 0  0.3500000000000001 -1.55 0  0.45 -1.55 0  0.55 -1.55 0  0.6499999999999999 -1.55 0  0.75 -1.55 0  -0.75 -1.5 0  -0.65 -1.5 0  -0.55 -1.5 0  -0.45 -1.5 0  -0.35 -1.5 0  -0.25 -1.5 0  -0.15 -1.5 0  -0.05000000000000004 -1.5 0  0.05000000000000004 -1.5 0  0.15 -1.5 0  0.25 -1.5 0  0.3500000000000001 -1.5 0  0.45 -1.5 0  0.55 -1.5 0  0.6499999999999999 -1.5 0  0.75 -1.5 0  -0.75 -1.45 0  -0.65 -1.45 0  -0.55 -1.45 0  -0.45 -1.45 0  -0.35 -1.45 0  -0.25 -1.45 0  -0.15 -1.45 0  -0.05000000000000004 -1.45 0  0.05000000000000004 -1.45 0  0.15 -1.45 0  0.25 -1.45 0  0.3500000000000001 -1.45 0  0.45 -1.45 0  0.55 -1.45 0  0.6499999999999999 -1.45 0  0.75 -1.45 0  -0.75 -1.4 0  -0.65 -1.4 0  -0.55 -1.4 0  -0.45 -1.4 0  -0.35 -1.4 0  -0.25 -1.4 0  -0.15 -1.4 0  -0.05000000000000004 -1.4 0  0.05000000000000004 -1.4 0  0.15 -1.4 0  0.25 -1.4 0  0.3500000000000001 -1.4 0  0.45 -1.4 0  0.55 -1.4 0  0.6499999999999999 -1.4 0  0.75 -1.4 0  -0.75 -1.35 0  -0.65 -1.35 0  -0.55 -1.35 0  -0.45 -1.35 0  -0.35 -1.35 0  -0.25 -1.35 0  -0.15 -1.35 0  -0.05000000000000004 -1.35 0  0.05000000000000004 -1.35 0  0.15 -1.35 0  0.25 -1.35 0  0.3500000000000001 -1.35 0  0.45 -1.35 0  0.55 -1.35 0  0.6499999999999999 -1.35 0  0.75 -1.35 0  -0.75 -1.3 0  -0.65 -1.3 0  -0.55 -1.3 0  -0.45 -1.3 0  -0.35 -1.3 0  -0.25 -1.3 0  -0.15 -1.3 0  -0.05000000000000004 -1.3 0  0.05000000000000004 -1.3 0  0.15 -1.3 0  0.25 -1.3 0  0.3500000000000001 -1.3 0  0.45 -1.3 0  0.55 -1.3 0  0.6499999999999999 -1.
[...]
<PointData  Vectors="displacement"> 
<DataArray  type="Float64"  Name="displacement"  NumberOfComponents="3" format="ascii">6.3555688164778853e-31 -4.5536491244391314e-16 0.0000000000000000e+00  2.1597103692641415e-31 -2.8460307027744596e-17 0.0000000000000000e+00  4.6222318665293818e-31 -1.1384122811097836e-16 0.0000000000000000e+00  4.1888976290422520e-31 4.9297317530200446e-17 0.0000000000000000e+00  4.6222318665293808e-30 -1.6263032587282619e-17 0.0000000000000000e+00  2.7947827840649565e-30 -2.6103645803426043e-16 0.0000000000000000e+00  4.6222318665293829e-30 -4.8789097761847872e-17 0.0000000000000000e+00  4.1600708445815472e-30 -1.6061970772126551e-16 0.0000000000000000e+00  -3.6977854932235047e-30 -1.6263032587282619e-17 0.0000000000000000e+00  9.2620112582393734e-31 -2.4457385837368775e-16 0.0000000000000000e+00  1.8488927466117513e-30 2.4394548880923914e-16 0.0000000000000000e+00  3.4042198850378504e-31 -1.2190369550298690e-16 0.0000000000000000e+00  2.3111159332646905e-31 3.2526065174565237e-16 0.0000000000000000e+00  1.3840900476634657e-30 -7.6232965252887252e-17 0.0000000000000000e+00  -2.3111159332646928e-30 -3.2526065174565269e-17 0.0000000000000000e+00  0.0000000000000000e+00 -1.3010426069826085e-16 0.0000000000000000e+00  -6.9333477997940245e-31 -1.4912280701752549e+00 0.0000000000000000e+00  6.9127660299917773e-15 -1.4912280701752578e+00 0.0000000000000000e+00  1.5522033478162739e-14 -1.4912280701752578e+00 0.0000000000000000e+00  2.4374298882750263e-14 -1.4912280701752545e+00 0.0000000000000000e+00  3.1715641541255029e-14 -1.4912280701752536e+00 0.0000000000000000e+00  4.2565164992799740e-14 -1.4912280701752514e+00 0.0000000000000000e+00  5.0810736531103760e-14 -1.4912280701752412e+00 0.0000000000000000e+00  5.3861894100657033e-14 -1.4912280701752327e+00 0.0000000000000000e+00  5.3362380805212837e-14 -1.4912280701752236e+00 0.0000000000000000e+00  4.8381746253654468e-14 -1.4912280701752154e+00 0.0000000000000000e+00  4.2986394716933105e-14 -1.4912280701752116e+00 0.0000000000000000e+00  3.7570523835423942e-14 -1.4912280701752045e+00 0.0000000000000000e+00  3.0123800914174059e-14 -1.4912280701752025e+00 0.0000000000000000e+00  2.1906626179042316e-14 -1.4912280701751968e+00 0.0000000000000000e+00  1.1633866920303168e-14 -1.4912280701751930e+00 0.0000000000000000e+00  4.3338109697826863e-31 -1.4912280701751928e+00 0.0000000000000000e+00  1.1555579666323424e-31 -2.9824561403505290e+00 0.0000000000000000e+00  1.3208972771649573e-14 -2.9824561403505272e+00 0.0000000000000000e+00  2.9482193257235753e-14 -2.9824561403505312e+00 0.0000000000000000e+00  4.5005264165492949e-14 -2.9824561403505223e+00 0.0000000000000000e+00  6.1314423188127648e-14 -2.9824561403505259e+00 0.0000000000000000e+00  7.8078478248834071e-14 -2.9824561403505183e+00 0.0000000000000000e+00  9.2330903458960541e-14 -2.9824561403504970e+00 0.0000000000000000e+00  9.8645122640837236e-14 -2.9824561403504801e+00 0.0000000000000000e+00  9.7537106209319796e-14 -2.9824561403504588e+00 0.0000000000000000e+00  8.9976694920282773e-14 -2.9824561403504428e+00 0.0000000000000000e+00  7.9488776614194558e-14 -2.9824561403504348e+00 0.0000000000000000e+00  6.9198024137642180e-14 -2.9824561403504211e+00 0.0000000000000000e+00  5.6969139763973220e-14 -2.9824561403504117e+00 0.0000000000000000e+00  3.9764132175667712e-14 -2.9824561403504068e+00 0.0000000000000000e+00  2.0384078734506425e-14 -2.9824561403503971e+00 0.0000000000000000e+00  -1.2546057923436862e-30 -2.9824561403503931e+00 0.0000000000000000e+00  2.0800043399382161e-30 -4.4736842105257875e+00 0.0000000000000000e+00  2.0203414773507122e-14 -4.4736842105257910e+00 0.0000000000000000e+00  4.0791901741141435e-14 -4.4736842105257946e+00 0.0000000000000000e+00  6.3375849466338444e-14 -4.4736842105257857e+00 0.0000000000000000e+00  8.6752262821011133e-14 -4.4736842105257821e+00 0.0000000000000000e+00  1.0843094701062328e-13 -4.4736842105257750e+00 0.0000000000000000e+00  1.2652283338841735e-13 -4.4736842105257404e+00 0.0000000000000000e+00  1.3571376355586665e-13 -4.4736842105257146e+00 0.0000000000000000e+00  1.3423751135075827e-13 -4.4736842105256809e+00 0.0000000000000000e+00  1.2461709560386310e-13 -4.4736842105256569e+00 0.0000000000000000e+00  1.1093150877152742e-13 -4.4736842105256418e+00 0.0000000000000000e+00  9.6639727016439707e-14 -4.4736842105256267e+00 0.0000000000000000e+00  7.8911360314901380e-14 -4.4736842105256107e+00 0.0000000000000000e+00  5.4039424255427569e-14 -4.4736842105255974e+00 0.0000000000000000e+00  2.7425969164484402e-14 -4.4736842105255823e+00 0.0000000000000000e+00  -1.8488927466117471e-30 -4.4736842105255805e+00 0.0000000000000000e+00  -5.9722473797737870e-30 -5.9649122807010651e+00 0.0000000000000000e+00  2.5221043361864659e-14 -5.9649122807010668e+00 0.0000000000000000e+00  5.1986376769858556e-14 -5.9649122807010686e+00 0.0000000000000000e+00  7.9139703281173087e-14 -5.9649122807010624e+00 0.0000000000000000e+00  1.0675593750002437e-13 -5.9649122807010624e+00 0.0000000000000000e+00  1.3265149040280681e-13 -5.9649122807010464e+00 0.0000000000000000e+00  1.5495988748947598e-13 -5.9649122807010011e+00 0.0000000000000000e+00  1.6668923044180539e-13 -5.9649122807009656e+00 0.0000000000000000e+00  1.6327453703014156e-13 -5.9649122807009123e+00 0.0000000000000000e+00  1.5381251133134716e-13 -5.9649122807008821e+00 0.0000000000000000e+00  1.4014233182271360e-13 -5.9649122807008599e+00 0.0000000000000000e+00  1.1926323754732755e-13 -5.9649122807008448e+00 0.0000000000000000e+00  9.5033278398646974e-14 -5.9649122807008208e+00 0.0000000000000000e+00  6.6540967260103365e-14 -5.9649122807007977e+00 0.0000000000000000e+00  3.3446761553538524e-14 -5.9649122807007862e+00 0.0000000000000000e+00  -3.8222401179779654e-30 -5.9649122807007791e+00 0.0000000000000000e+00  2.7733391199176273e-30 -7.4561403508763311e+00 0.0000000000000000e+00  2.9870074260906192e-14 -7.4561403508763338e+00 0.0000000000000000e+00  6.0421877010250666e-14 -7.4561403508763426e+00 0.0000000000000000e+00  9.2248283629676636e-14 -7.4561403508763284e+00 0.0000000000000000e+00  1.2288552123857233e-13 -7.4561403508763195e+00 0.0000000000000000e+00  1.5423981530569140e-13 -7.4561403508762991e+00 0.0000000000000000e+00  1.8018100935787717e-13 -7.4561403508762520e+00 0.0000000000000000e+00  1.9052099836363493e-13 -7.4561403508761961e+00 0.0000000000000000e+00  1.8782232551727915e-13 -7.4561403508761348e+00 0.0000000000000000e+00  1.7783079357959649e-13 -7.4561403508761002e+00 0.0000000000000000e+00  1.6182297536598003e-13 -7.4561403508760655e+00 0.0000000000000000e+00  1.3799731988451101e-13 -7.4561403508760380e+00 0.0000000000000000e+00  1.0769056515291364e-13 -7.4561403508760078e+00 0.0000000000000000e+00  7.5749969040331812e-14 -7.4561403508759811e+00 0.0000000000000000e+00  3.9311239959112698e-14 -7.4561403508759687e+00 0.0000000000000000e+00  1.7423647465628320e-30 -7.4561403508759643e+00 0.0000000000000000e+00  7.1108850625874156e-30 -8.9473684210515909e+00 0.0000000000000000e+00  3.1594275096634036e-14 -8.9473684210516069e+00 0.0000000000000000e+00  6.6849005395375088e-14 -8.9473684210516033e+00 0.0000000000000000e+00  1.0292210380947983e-13 -8.9473684210515874e+00 0.0000000000000000e+00  1.3641052892243503e-13 -8.9473684210515785e+00 0.0000000000000000e+00  1.7298143013540235e-13 -8.9473684210515554e+00 0.0000000000000000e+00  1.9991634000505297e-13 -8.9473684210515056e+00 0.0000000000000000e+00  2.0911852601690025e-13 -8.9473684210514328e+00 0.0000000000000000e+00  2.0593673073090588e-13 -8.9473684210513564e+00 0.0000000000000000e+00  1.9772167569168523e-13 -8.9473684210513138e+00 0.0000000000000000e+00  1.7857934454024232e-13 -8.9473684210512694e+00 0.0000000000000000e+00  1.5138913388861220e-13 -8.9473684210512268e+00 0.0000000000000000e+00  1.1922384754499423e-13 -8.9473684210512090e+00 0.0000000000000000e+00  8.3630862544043138e-14 -8.9473684210511735e+00 0.0000000000000000e+00  4.4948230486126209e-14 -8.9473684210511539e+00 0.0000000000000000e+00  -5.6457260655465610e-30 -8.9473684210511415e+00 0.0000000000000000e+00  -2.3111159332646848e-30 -1.0438596491226878e+01 0.0000000000000000e+00  3.2394369440994416e-14 -1.0438596491226875e+01 0.0000000000000000e+00  7.3883995680965929e-14 -1.0438596491226900e+01 0.0000000000000000e+00  1.1175498392004293e-13 -1.0438596491226868e+01 0.0000000000000000e+00  1.5005748356786547e-13 -1.0438596491226855e+01 0.0000000000000000e+00  1.8699512619347920e-13 -1.0438596491226836e+01 0.0000000000000000e+00  2.1204933714778480e-13 -1.0438596491226759e+01 0.0000000000000000e+00  2.2330635492070907e-13 -1.0438596491226670e+01 0.0000000000000000e+00  2.2181075535660109e-13 -1.0438596491226589e+01 0.0000000000000000e+00  2.1150508351605969e-13 -1.0438596491226527e+01 0.0000000000000000e+00  1.9123846303065282e-13 -1.0438596491226495e+01 0.0000000000000000e+00  1.6350810266936827e-13 -1.0438596491226438e+01 0.0000000000000000e+00  1.3034571694873954e-13 -1.0438596491226409e+01 0.0000000000000000e+00  9.1837491494196575e-14 -1.0438596491226374e+01 0.0000000000000000e+00  4.6694017472147493e-14 -1.0438596491226352e+01 0.0000000000000000e+00  1.3866695599588105e-30 -1.0438596491226340e+01 0.0000000000000000e+00  -4.1296449778394298e-30 -1.1929824561402127e+01 0.0000000000000000e+00  3.8217055882787311e-14 -1.1929824561402159e+01 0.0000000000000000e+00  7.8518056206148652e-14 -1.1929824561402166e+01 0.0000000000000000e+00  1.1979747899281183e-13 -1.1929824561402132e+01 0.0000000000000000e+00  1.6095024183604815e-13 -1.1929824561402127e+01 0.0000000000000000e+00  1.9740568280120113e-13 -1.1929824561402111e+01 0.0000000000000000e+00  2.2129361269235642e-13 -1.1929824561402006e+01 0.0000000000000000e+00  2.3358024363958006e-13 -1.1929824561401908e+01 0.0000000000000000e+00  2.3216392677195536e-13 -1.1929824561401814e+01 0.0000000000000000e+00  2.1926926607916127e-13 -1.1929824561401762e+01 0.0000000000000000e+00  2.0086516955758439e-13 -1.1929824561401693e+01 0.0000000000000000e+00  1.7201481675355879e-13 -1.1929824561401642e+01 0.0000000000000000e+00  1.3895574701769165e-13 -1.1929824561401608e+01 0.0000000000000000e+00  9.6236528791970338e-14 -1.1929824561401567e+01 0.0000000000000000e+00  4.7358271786392593e-14 -1.1929824561401539e+01 0.0000000000000000e+00  -1.1411340724725287e-29 -1.1929824561401514e+01 0.0000000000000000e+00  4.6222318665293494e-31 -1.3421052631577425e+01 0.0000000000000000e+00  4.1018154064204243e-14 -1.3421052631577425e+01 0.0000000000000000e+00  8.3312754093271704e-14 -1.3421052631577441e+01 0.0000000000000000e+00  1.2794107490818631e-13 -1.3421052631577425e+01 0.0000000000000000e+00  1.6878358326705366e-13 -1.3421052631577409e+01 0.0000000000000000e+00  2.0187857925228817e-13 -1.3421052631577373e+01 0.0000000000000000e+00  2.2672420634074455e-13 -1.3421052631577268e+01 0.0000000000000000e+00  2.4174937647293104e-13 -1.3421052631577153e+01 0.0000000000000000e+00  2.3656748544301713e-13 -1.3421052631577046e+01 0.0000000000000000e+00  2.2426809010626746e-13 -1.3421052631576982e+01 0.0000000000000000e+00  2.1039939771580508e-13 -1.3421052631576913e+01 0.0000000000000000e+00  1.8052514405183019e-13 -1.3421052631576869e+01 0.0000000000000000e+00  1.4204436979440823e-13 -1.3421052631576822e+01 0.0000000000000000e+00  9.8468221151825048e-14 -1.3421052631576758e+01 0.0000000000000000e+00  4.7594701913967639e-14 -1.3421052631576742e+01 0.0000000000000000e+00  4.4517794307672262e-30 -1.3421052631576703e+01 0.0000000000000000e+00  5.8905581951785375e-30 -1.4912280701752694e+01 0.0000000000000000e+00  4.2090447444806550e-14 -1.4912280701752692e+01 0.0000000000000000e+00  8.8775895726082435e-14 -1.4912280701752715e+01 0.0000000000000000e+00  1.3231859899196330e-13 -1.4912280701752691e+01 0.0000000000000000e+00  1.7152253005106530e-13 -1.4912280701752659e+01 0.0000000000000000e+00  2.0469031464328203e-13 -1.4912280701752625e+01 0.0000000000000000e+00  2.2861248008240199e-13 -1.4912280701752515e+01 0.0000000000000000e+00  2.4488959576862841e-13 -1.4912280701752392e+01 0.0000000000000000e+00  2.4318189629252148e-13 -1.4912280701752275e+01 0.0000000000000000e+00  2.2878166088465880e-13 -1.4912280701752213e+01 0.0000000000000000e+00  2.1426500213706193e-13 -1.4912280701752136e+01 0.0000000000000000e+00  1.8446971034687513e-13 -1.4912280701752035e+01 0.0000000000000000e+00  1.4281661731087270e-13 -1.4912280701752010e+01 0.0000000000000000e+00  9.7565233959678549e-14 -1.4912280701751936e+01 0.0000000000000000e+00  4.7963555360066342e-14 -1.4912280701751918e+01 0.0000000000000000e+00  -5.1504869369898815e-30 -1.4912280701751902e+01 0.0000000000000000e+00  0.0000000000000000e+00 -1.6403508771927950e+01 0.0000000000000000e+00  4.4075102743067724e-14 -1.6403508771927971e+01 0.0000000000000000e+00  8.9963023683162715e-14 -1.6403508771928006e+01 0.0000000000000000e+00  1.3438890199461606e-13 -1.6403508771927950e+01 0.0000000000000000e+00  1.7093479353627229e-13 -1.6403508771927932e+01 0.0000000000000000e+00  2.0796319416330668e-13 -1.6403508771927861e+01 0.0000000000000000e+00  2.3132439283831603e-13 -1.6403508771927761e+01 0.0000000000000000e+00  2.4574588132914325e-13 -1.6403508771927640e+01 0.0000000000000000e+00  2.4585779549201552e-13 -1.6403508771927498e+01 0.0000000000000000e+00  2.3336642909197984e-13 -1.6403508771927427e+01 0.0000000000000000e+00  2.1171223217667770e-13 -1.6403508771927335e+01 0.0000000000000000e+00  1.8372419922177794e-13 -1.6403508771927239e+01 0.0000000000000000e+00  1.4624112937304145e-13 -1.6403508771927207e+01 0.0000000000000000e+00  9.8038736900557783e-14 -1.6403508771927140e+01 0.0000000000000000e+00  5.2297070398217060e-14 -1.6403508771927118e+01 0.0000000000000000e+00  -5.5466782398352168e-30 -1.6403508771927079e+01 0.0000000000000000e+00  3.6191032577557717e-30 -1.7894736842103235e+01 0.0000000000000000e+00  4.5063132847304729e-14 -1.7894736842103253e+01 0.0000000000000000e+00  9.2582988536731380e-14 -1.7894736842103253e+01 0.0000000000000000e+00  1.3256656580206320e-13 -1.7894736842103221e+01 0.0000000000000000e+00  1.7079047343079066e-13 -1.7894736842103189e+01 0.0000000000000000e+00  2.0571749924857515e-13 -1.7894736842103150e+01 0.0000000000000000e+00  2.3299743482656226e-13 -1.7894736842103022e+01 0.0000000000000000e+00  2.4550287617680913e-13 -1.7894736842102898e+01 0.0000000000000000e+00  2.4525677910971330e-13 -1.7894736842102741e+01 0.0000000000000000e+00  2.3486312909168692e-13 -1.7894736842102649e+01 0.0000000000000000e+00  2.0775537998862797e-13 -1.7894736842102574e+01 0.0000000000000000e+00  1.8269738710262464e-13 -1.7894736842102464e+01 0.0000000000000000e+00  1.5037585307580872e-13 -1.7894736842102414e+01 0.0000000000000000e+00  1.0204116056758549e-13 -1.7894736842102343e+01 0.0000000000000000e+00  5.2512208693096519e-14 -1.7894736842102319e+01 0.0000000000000000e+00  -7.7398373495980860e-30 -1.7894736842102283e+01 0.0000000000000000e+00  -4.6222318665293696e-30 -1.9385964912278506e+01 0.0000000000000000e+00  5.1370216900732816e-14 -1.9385964912278514e+01 0.0000000000000000e+00  9.5332845598936995e-14 -1.9385964912278531e+01 0.0000000000000000e+00  1.3480534196381236e-13 -1.9385964912278485e+01 0.0000000000000000e+00  1.7102429475269751e-13 -1.9385964912278467e+01 0.0000000000000000e+00  2.0433953995877259e-13 -1.9385964912278425e+01 0.0000000000000000e+00  2.3306515778429959e-13 -1.9385964912278272e+01 0.0000000000000000e+00  2.4343107481128005e-13 -1.9385964912278137e+01 0.0000000000000000e+00  2.4315913582144248e-13 -1.9385964912277984e+01 0.0000000000000000e+00  2.3001710287620216e-13 -1.9385964912277860e+01 0.0000000000000000e+00  2.0648464411989839e-13 -1.9385964912277785e+01 0.0000000000000000e+00  1.7968054281040965e-13 -1.9385964912277704e+01 0.0000000000000000e+00  1.4934537817911015e-13 -1.9385964912277608e+01 0.0000000000000000e+00  1.0477357471221760e-13 -1.9385964912277540e+01 0.0000000000000000e+00  4.9716246158336124e-14 -1.9385964912277515e+01 0.0000000000000000e+00  4.8197290841153580e-30 -1.9385964912277466e+01 0.0000000000000000e+00  -1.5264353680738339e-29 -2.0877192982453796e+01 0.0000000000000000e+00  5.4143190209097343e-14 -2.0877192982453781e+01 0.0000000000000000e+00  1.0113320757456505e-13 -2.0877192982453817e+01 0.0000000000000000e+00  1.3682112880700333e-13 -2.0877192982453789e+01 0.0000000000000000e+00  1.7193248160745274e-13 -2.0877192982453725e+01 0.0000000000000000e+00  2.0116520192716757e-13 -2.0877192982453700e+01 0.0000000000000000e+00  2.2641800801994699e-13 -2.0877192982453540e+01 0.0000000000000000e+00  2.4061002238205468e-13 -2.0877192982453366e+01 0.0000000000000000e+00  2.3987992151270998e-13 -2.0877192982453206e+01 0.0000000000000000e+00  2.2450849987129257e-13 -2.0877192982453128e+01 0.0000000000000000e+00  2.0867080423319472e-13 -2.0877192982453003e+01 0.0000000000000000e+00  1.8022946214970410e-13 -2.0877192982452922e+01 0.0000000000000000e+00  1.4344206619571620e-13 -2.0877192982452836e+01 0.0000000000000000e+00  1.0355499437375676e-13 -2.0877192982452751e+01 0.0000000000000000e+00  5.0285449755990351e-14 -2.0877192982452705e+01 0.0000000000000000e+00  -8.6501767787906363e-30 -2.0877192982452694e+01 0.0000000000000000e+00  1.2017802852976385e-29 -2.2368421052629078e+01 0.0000000000000000e+00  5.9784364460675642e-14 -2.2368421052629060e+01 0.0000000000000000e+00  1.0933493371336027e-13 -2.2368421052629081e+01 0.0000000000000000e+00  1.4285519232122271e-13 -2.2368421052629028e+01 0.0000000000000000e+00  1.7163833157590826e-13 -2.2368421052628992e+01 0.0000000000000000e+00  2.0026423848335114e-13 -2.2368421052628968e+01 0.0000000000000000e+00  2.2391104092498401e-13 -2.2368421052628811e+01 0.0000000000000000e+00  2.3313114550995316e-13 -2.2368421052628630e+01 0.0000000000000000e+00  2.3405299215250276e-13 -2.2368421052628456e+01 0.0000000000000000e+00  2.2537329253464564e-13 -2.2368421052628346e+01 0.0000000000000000e+00  2.0725620474792881e-13 -2.2368421052628218e+01 0.0000000000000000e+00  1.7939317068400123e-13 -2.2368421052628115e+01 0.0000000000000000e+00  1.4085836558618060e-13 -2.2368421052628058e+01 0.0000000000000000e+00  9.7054412232881005e-14 -2.2368421052627930e+01 0.0000000000000000e+00  5.2210429322054930e-14 -2.2368421052627902e+01 0.0000000000000000e+00  4.6222318665293787e-30 -2.2368421052627877e+01 0.0000000000000000e+00  4.5727946339214984e-30 -2.3859649122804356e+01 0.0000000000000000e+00  5.8833540955526496e-14 -2.3859649122804367e+01 0.0000000000000000e+00  1.1563203395282279e-13 -2.3859649122804331e+01 0.0000000000000000e+00  1.5390941430662432e-13 -2.3859649122804260e+01 0.0000000000000000e+00  1.7201699859313112e-13 -2.3859649122804260e+01 0.0000000000000000e+00  2.0092076879613411e-13 -2.3859649122804207e+01 0.0000000000000000e+00  2.2438696455304474e-13 -2.3859649122804058e+01 0.0000000000000000e+00  2.2478284192222501e-13 -2.3859649122803862e+01 0.0000000000000000e+00  2.2295367160342349e-13 -2.3859649122803699e+01 0.0000000000000000e+00  2.2778068669152229e-13 -2.3859649122803578e+01 0.0000000000000000e+00  2.0694108757136750e-13 -2.3859649122803464e+01 0.0000000000000000e+00  1.7664337595128600e-13 -2.3859649122803336e+01 0.0000000000000000e+00  1.3828765007028944e-13 -2.3859649122803262e+01 0.0000000000000000e+00  9.6045479448513297e-14 -2.3859649122803148e+01 0.0000000000000000e+00  5.2837504311978351e-14 -2.3859649122803120e+01 0.0000000000000000e+00  -5.0948422124416760e-30 -2.3859649122803077e+01 0.0000000000000000e+00  -3.6977854932234956e-30 -2.5350877192979652e+01 0.0000000000000000e+00  5.8043573853250678e-14 -2.5350877192979631e+01 0.0000000000000000e+00  1.2044733805634024e-13 -2.5350877192979635e+01 0.0000000000000000e+00  1.6054000130886066e-13 -2.5350877192979539e+01 0.0000000000000000e+00  1.8038353874495207e-13 -2.5350877192979492e+01 0.0000000000000000e+00  2.0056311358646075e-13 -2.5350877192979482e+01 0.0000000000000000e+00  2.1515100710483737e-13 -2.5350877192979297e+01 0.0000000000000000e+00  2.1654907145409590e-13 -2.5350877192979095e+01 0.00