<?xml version="1.0"?>
<VTKFile type="UnstructuredGrid"  version="0.1"  >
<UnstructuredGrid>
<Piece  NumberOfPoints="1411" NumberOfCells="2700">
<Points>
<DataArray  type="Float64"  NumberOfComponents="3"  format="ascii">-0.75 -4.5 0  -0.65 -4.5 0  -0.55 -4.5 0  -0.45 -4.5 0  -0.35 -4.5 0  -0.25 -4.5 0  -0.15 -4.5 0  -0.05000000000000004 -4.5 0  0.05000000000000004 -4.5 0  0.15 -4.5 0  0.25 -4.5 0  0.3500000000000001 -4.5 0  0.45 -4.5 0  0.55 -4.5 0  0.6499999999999999 -4.5 0  0.75 -4.5 0  -0.75 -4.4 0  -0.65 -4.4 0  -0.55 -4.4 0  -0.45 -4.4 0  -0.35 -4.4 0  -0.25 -4.4 0  -0.15 -4.4 0  -0.05000000000000004 -4.4 0  0.05000000000000004 -4.4 0  0.15 -4.4 0  0.25 -4.4 0  0.3500000000000001 -4.4 0  0.45 -4.4 0  0.55 -4.4 0  0.6499999999999999 -4.4 0  0.75 -4.4 0  -0.75 -4.3 0  -0.65 -4.3 0  -0.55 -4.3 0  -0.45 -4.3 0  -0.35 -4.3 0  -0.25 -4.3 0  -0.15 -4.3 0  -0.05000000000000004 -4.3 0  0.05000000000000004 -4.3 0  0.15 -4.3 0  0.25 -4.3 0  0.3500000000000001 -4.3 0  0.45 -4.3 0  0.55 -4.3 0  0.6499999999999999 -4.3 0  0.75 -4.3 0  -0.75 -4.2 0  -0.65 -4.2 0  -0.55 -4.2 0  -0.45 -4.2 0  -0.35 -4.2 0  -0.25 -4.2 0  -0.15 -4.2 0  -0.05000000000000004 -4.2 0  0.05000000000000004 -4.2 0  0.15 -4.2 0  0.25 -4.2 0  0.3500000000000001 -4.2 0  0.45 -4.2 0  0.55 -4.2 0  0.6499999999999999 -4.2 0  0.75 -4.2 0  -0.75 -4.1 0  -0.65 -4.1 0  -0.55 -4.1 0  -0.45 -4.1 0  -0.35 -4.1 0  -0.25 -4.1 0  -0.15 -4.1 0  -0.05000000000000004 -4.1 0  0.05000000000000004 -4.1 0  0.15 -4.1 0  0.25 -4.1 0  0.3500000000000001 -4.1 0  0.45 -4.1 0  0.55 -4.1 0  0.6499999999999999 -4.1 0  0.75 -4.1 0  -0.75 -4 0  -0.65 -4 0  -0.55 -4 0  -0.45 -4 0  -0.35 -4 0  -0.25 -4 0  -0.15 -4 0  -0.05000000000000004 -4 0  0.05000000000000004 -4 0  0.15 -4 0  0.25 -4 0  0.3500000000000001 -4 0  0.45 -4 0  0.55 -4 0  0.6499999999999999 -4 0  0.75 -4 0  -0.75 -3.9 0  -0.65 -3.9 0  -0.55 -3.9 0  -0.45 -3.9 0  -0.35 -3.9 0  -0.25 -3.9 0  -0.15 -3.9 0  -0.05000000000000004 -3.9 0  0.05000000000000004 -3.9 0  0.15 -3.9 0  0.25 -3.9 0  0.3500000000000001 -3.9 0  0.45 -3.9 0  0.55 -3.9 0  0.6499999999999999 -3.9 0  0.75 -3.9 0  -0.75 -3.8 0  -0.65 -3.8 0  -0.55 -3.8 0  -0.45 -3.8 0  -0.35 -3.8 0  -0.25 -3.8 0  -0.15 -3.8 0  -0.05000000000000004 -3.8 0  0.05000000000000004 -3.8 0  0.15 -3.8 0  0.25 -3.8 0  0.3500000000000001 -3.8 0  0.45 -3.8 0  0.55 -3.8 0  0.6499999999999999 -3.8 0  0.75 -3.8 0  -0.75 -3.7 0  -0.65 -3.7 0  -0.55 -3.7 0  -0.45 -3.7 0  -0.35 -3.7 0  -0.25 -3.7 0  -0.15 -3.7 0  -0.05000000000000004 -3.7 0  0.05000000000000004 -3.7 0  0.15 -3.7 0  0.25 -3.7 0  0.3500000000000001 -3.7 0  0.45 -3.7 0  0.55 -3.7 0  0.6499999999999999 -3.7 0  0.75 -3.7 0  -0.75 -3.6 0  -0.65 -3.6 0  -0.55 -3.6 0  -0.45 -3.6 0  -0.35 -3.6 0  -0.25 -3.6 0  -0.15 -3.6 0  -0.05000000000000004 -3.6 0  0.05000000000000004 -3.6 0  0.15 -3.6 0  0.25 -3.6 0  0.3500000000000001 -3.6 0  0.45 -3.6 0  0.55 -3.6 0  0.6499999999999999 -3.6 0  0.75 -3.6 0  -0.75 -3.5 0  -0.65 -3.5 0  -0.55 -3.5 0  -0.45 -3.5 0  -0.35 -3.5 0  -0.25 -3.5 0  -0.15 -3.5 0  -0.05000000000000004 -3.5 0  0.05000000000000004 -3.5 0  0.15 -3.5 0  0.25 -3.5 0  0.3500000000000001 -3.5 0  0.45 -3.5 0  0.55 -3.5 0  0.6499999999999999 -3.5 0  0.75 -3.5 0  -0.75 -3.4 0  -0.65 -3.4 0  -0.55 -3.4 0  -0.45 -3.4 0  -0.35 -3.4 0  -0.25 -3.4 0  -0.15 -3.4 0  -0.05000000000000004 -3.4 0  0.05000000000000004 -3.4 0  0.15 -3.4 0  0.25 -3.4 0  0.3500000000000001 -3.4 0  0.45 -3.4 0  0.55 -3.4 0  0.6499999999999999 -3.4 0  0.75 -3.4 0  -0.75 -3.3 0  -0.65 -3.3 0  -0.55 -3.3 0  -0.45 -3.3 0  -0.35 -3.3 0  -0.25 -3.3 0  -0.15 -3.3 0  -0.05000000000000004 -3.3 0  0.05000000000000004 -3.3 0  0.15 -3.3 0  0.25 -3.3 0  0.3500000000000001 -3.3 0  0.45 -3.3 0  0.55 -3.3 0  0.6499999999999999 -3.3 0  0.75 -3.3 0  -0.75 -3.2 0  -0.65 -3.2 0  -0.55 -3.2 0  -0.45 -3.2 0  -0.35 -3.2 0  -0.25 -3.2 0  -0.15 -3.2 0  -0.05000000000000004 -3.2 0  0.05000000000000004 -3.2 0  0.15 -3.2 0  0.25 -3.2 0  0.3500000000000001 -3.2 0  0.45 -3.2 0  0.55 -3.2 0  0.6499999999999999 -3.2 0  0.75 -3.2 0  -0.75 -3.1 0  -0.65 -3.1 0  -0.55 -3.1 0  -0.45 -3.1 0  -0.35 -3.1 0  -0.25 -3.1 0  -0.15 -3.1 0  -0.05000000000000004 -3.1 0  0.05000000000000004 -3.1 0  0.15 -3.1 0  0.25 -3.1 0  0.3500000000000001 -3.1 0  0.45 -3.1 0  0.55 -3.1 0  0.6499999999999999 -3.1 0  0.75 -3.1 0  -0.75 -3 0  -0.65 -3 0  -0.55 -3 0  -0.45 -3 0  -0.35 -3 0  -0.25 -3 0  -0.15 -3 0  -0.05000000000000004 -3 0  0.05000000000000004 -3 0  0.15 -3 0  0.25 -3 0  0.3500000000000001 -3 0  0.45 -3 0  0.55 -3 0  0.6499999999999999 -3 0  0.75 -3 0  -0.75 -2.9 0  -0.65 -2.9 0  -0.55 -2.9 0  -0.45 -2.9 0  -0.35 -2.9 0  -0.25 -2.9 0  -0.15 -2.9 0  -0.05000000000000004 -2.9 0  0.05000000000000004 -2.9 0  0.15 -2.9 0  0.25 -2.9 0  0.3500000000000001 -2.9 0  0.45 -2.9 0  0.55 -2.9 0  0.6499999999999999 -2.9 0  0.75 -2.9 0  -0.75 -2.8 0  -0.65 -2.8 0  -0.55 -2.8 0  -0.45 -2.8 0  -0.35 -2.8 0  -0.25 -2.8 0  -0.15 -2.8 0  -0.05000000000000004 -2.8 0  0.05000000000000004 -2.8 0  0.15 -2.8 0  0.25 -2.8 0  0.3500000000000001 -2.8 0  0.45 -2.8 0  0.55 -2.8 0  0.6499999999999999 -2.8 0  0.75 -2.8 0  -0.75 -2.7 0  -0.65 -2.7 0  -0.55 -2.7 0  -0.45 -2.7 0  -0.35 -2.7 0  -0.25 -2.7 0  -0.15 -2.7 0  -0.05000000000000004 -2.7 0  0.05000000000000004 -2.7 0  0.15 -2.7 0  0.25 -2.7 0  0.3500000000000001 -2.7 0  0.45 -2.7 0  0.55 -2.7 0  0.6499999999999999 -2.7 0  0.75 -2.7 0  -0.75 -2.6 0  -0.65 -2.6 0  -0.55 -2.6 0  -0.45 -2.6 0  -0.35 -2.6 0  -0.25 -2.6 0  -0.15 -2.6 0  -0.05000000000000004 -2.6 0  0.05000000000000004 -2.6 0  0.15 -2.6 0  0.25 -2.6 0  0.3500000000000001 -2.6 0  0.45 -2.6 0  0.55 -2.6 0  0.6499999999999999 -2.6 0  0.75 -2.6 0  -0.75 -2.5 0  -0.65 -2.5 0  -0.55 -2.5 0  -0.45 -2.5 0  -0.35 -2.5 0  -0.25 -2.5 0  -0.15 -2.5 0  -0.05000000000000004 -2.5 0  0.05000000000000004 -2.5 0  0.15 -2.5 0  0.25 -2.5 0  0.3500000000000001 -2.5 0  0.45 -2.5 0  0.55 -2.5 0  0.6499999999999999 -2.5 0  0.75 -2.5 0  -0.75 -2.4 0  -0.65 -2.4 0  -0.55 -2.4 0  -0.45 -2.4 0  -0.35 -2.4 0  -0.25 -2.4 0  -0.15 -2.4 0  -0.05000000000000004 -2.4 0  0.05000000000000004 -2.4 0  0.15 -2.4 0  0.25 -2.4 0  0.3500000000000001 -2.4 0  0.45 -2.4 0  0.55 -2.4 0  0.6499999999999999 -2.4 0  0.75 -2.4 0  -0.75 -2.3 0  -0.65 -2.3 0  -0.55 -2.3 0  -0.45 -2.3 0  -0.35 -2.3 0  -0.25 -2.3 0  -0.15 -2.3 0  -0.05000000000000004 -2.3 0  0.05000000000000004 -2.3 0  0.15 -2.3 0  0.25 -2.3 0  0.3500000000000001 -2.3 0  0.45 -2.3 0  0.55 -2.3 0  0.6499999999999999 -2.3 0  0.75 -2.3 0  -0.75 -2.2 0  -0.65 -2.2 0  -0.55 -2.2 0  -0.45 -2.2 0  -0.35 -2.2 0  -0.25 -2.2 0  -0.15 -2.2 0  -0.05000000000000004 -2.2 0  0.05000000000000004 -2.2 0  0.15 -2.2 0  0.25 -2.2 0  0.3500000000000001 -2.2 0  0.45 -2.2 0  0.55 -2.2 0  0.6499999999999999 -2.2 0  0.75 -2.2 0  -0.75 -2.1 0  -0.65 -2.1 0  -0.55 -2.1 0  -0.45 -2.1 0  -0.35 -2.1 0  -0.25 -2.1 0  -0.15 -2.1 0  -0.05000000000000004 -2.1 0  0.05000000000000004 -2.1 0  0.15 -2.1 0  0.25 -2.1 0  0.3500000000000001 -2.1 0  0.45 -2.1 0  0.55 -2.1 0  0.6499999999999999 -2.1 0  0.75 -2.1 0  -0.75 -2 0  -0.65 -2 0  -0.55 -2 0  -0.45 -2 0  -0.35 -2 0  -0.25 -2 0  -0.15 -2 0  -0.05000000000000004 -2 0  0.05000000000000004 -2 0  0.15 -2 0  0.25 -2 0  0.3500000000000001 -2 0  0.45 -2 0  0.55 -2 0  0.6499999999999999 -2 0  0.75 -2 0  -0.75 -1.9 0  -0.65 -1.9 0  -0.55 -1.9 0  -0.45 -1.9 0  -0.35 -1.9 0  -0.25 -1.9 0  -0.15 -1.9 0  -0.05000000000000004 -1.9 0  0.05000000000000004 -1.9 0  0.15 -1.9 0  0.25 -1.9 0  0.3500000000000001 -1.9 0  0.45 -1.9 0  0.55 -1.9 0  0.6499999999999999 -1.9 0  0.75 -1.9 0  -0.75 -1.8 0  -0.65 -1.8 0  -0.55 -1.8 0  -0.45 -1.8 0  -0.35 -1.8 0  -0.25 -1.8 0  -0.15 -1.8 0  -0.05000000000000004 -1.8 0  0.05000000000000004 -1.8 0  0.15 -1.8 0  0.25 -1.8 0  0.3500000000000001 -1.8 0  0.45 -1.8 0  0.55 -1.8 0  0.6499999999999999 -1.8 0  0.75 -1.8 0  -0.75 -1.7 0  -0.65 -1.7 0  -0.55 -1.7 0  -0.45 -1.7 0  -0.35 -1.7 0  -0.25 -1.7 0  -0.15 -1.7 0  -0.05000000000000004 -1.7 0  0.05000000000000004 -1.7 0  0.15 -1.7 0  0.25 -1.7 0  0.3500000000000001 -1.7 0  0.45 -1.7 0  0.55 -1.7 0  0.6499999999999999 -1.7 0  0.75 -1.7 0  -0.75 -1.6 0  -0.65 -1.6 0  -0.55 -1.6 0  -0.45 -1.6 0  -0.35 -1.6 0  -0.25 -1.6 0  -0.15 -1.6 0  -0.05000000000000004 -1.6 0  0.05000000000000004 -1.6 0  0.15 -1.6 0  0.25 -1.6 0  0.3500000000000001 -1.6 0  0.45 -1.6 0  0.55 -1.6 0  0.6499999999999999 -1.6 0  0.75 -1.6 0  -0.75 -1.5 0  -0.65 -1.5 0  -0.55 -1.5 0  -0.45 -1.5 0  -0.35 -1.5 0  -0.25 -1.5 0  -0.15 -1.5 0  -0.05000000000000004 -1.5 0  0.05000000000000004 -1.5 0  0.15 -1.5 0  0.25 -1.5 0  0.3500000000000001 -1.5 0  0.45 -1.5 0  0.55 -1.5 0  0.6499999999999999 -1.5 0  0.75 -1.5 0  -0.75 -1.4 0  -0.65 -1.4 0  -0.55 -1.4 0  -0.45 -1.4 0  -0.35 -1.4 0  -0.25 -1.4 0  -0.15 -1.4 0  -0.05000000000000004 -1.4 0  0.05000000000000004 -1.4 0  0.15 -1.4 0  0.25 -1.4 0  0.3500000000000001 -1.4 0  0.45 -1.4 0  0.55 -1.4 0  0.6499999999999999 -1.4 0  0.75 -1.4 0  -0.75 -1.3 0  -0.65 -1.3 0  -0.55 -1.3 0  -0.45 -1.3 0  -0.35 -1.3 0  -0.25 -1.3 0  -0.15 -1.3 0  -0.05000000000000004 -1.3 0  0.05000000000000004 -1.3 0  0.15 -1.3 0  0.25 -1.3 0  0.3500000000000001 -1.3 0  0.45 -1.3 0  0.55 -1.3 0  0.6499999999999999 -1.3 0  0.75 -1.3 0  -0.75 -1.2 0  -0.65 -1.2 0  -0.55 -1.2 0  -0.45 -1.2 0  -0.35 -1.2 0  -0.25 -1.2 0  -0.15 -1.2 0  -0.05000000000000004 -1.2 0  0.05000000000000004 -1.2 0  0.15 -1.2 0  0.25 -1.2 0  0.3500000000000001 -1.2 0  0.45 -1.2 0  0.55 -1.2 0  0.6499999999999999 -1.2 0  0.75 -1.2 0  -0.75 -1.1 0  -0.65 -1.1 0  -0.55 -1.1 0  -0.45 -1.1 0  -0.35 -1.1 0  -0.25 -1.1 0  -0.15 -1.1 0  -0.05000000000000004 -1.1 0  0.05000000000000004 -1.1 0  0.15 -1.1 0  0.25 -1.1 0  0.3500000000000001 -1.1 0  0.45 -1.1 0  0.55 -1.1 0  0.6499999999999999 -1.1 0  0.75 -1.1 0  -0.75 -1 0  -0.65 -1 0  -0.55 -1 0  -0.45 -1 0  -0.35 -1 0  -0.25 -1 0  -0.15 -1 0  -0.05000000000000004 -1 0  0.05000000000000004 -1 0  0.15 -1 0  0.25 -1 0  0.3500000000000001 -1 0  0.45 -1 0  0.55 -1 0  0.6499999999999999 -1 0  0.75 -1 0  -0.75 -0.8999999999999999 0  -0.65 -0.899999
[...]
<PointData  Vectors="displacement"> 
<DataArray  type="Float64"  Name="displacement"  NumberOfComponents="3" format="ascii">0.0000000000000000e+00 -1.3896634290890904e-20 0.0000000000000000e+00  3.2558447410875287e-36 2.4685243271968513e-21 0.0000000000000000e+00  3.5264830524668746e-36 -6.9483171454454565e-21 0.0000000000000000e+00  -5.1874212709099372e-35 -2.4951127695837898e-21 0.0000000000000000e+00  -1.4105932209867496e-35 -6.4520087779136369e-21 0.0000000000000000e+00  -4.9964591876273337e-35 -5.0429203285924201e-21 0.0000000000000000e+00  1.4105932209867501e-35 2.9778502051909102e-21 0.0000000000000000e+00  -1.1520285349699623e-34 -1.5488310735201940e-20 0.0000000000000000e+00  2.1158898314801245e-35 4.9630836753181818e-21 0.0000000000000000e+00  2.8503161051346707e-35 -3.9872182470577691e-21 0.0000000000000000e+00  2.8211864419734975e-35 -9.9261673506363584e-22 0.0000000000000000e+00  5.6511546532671115e-35 -3.2497535198250432e-21 0.0000000000000000e+00  -2.1158898314801245e-35 -1.4889251025954547e-21 0.0000000000000000e+00  4.2097391438823289e-35 7.5376833318894858e-21 0.0000000000000000e+00  -1.7632415262334387e-35 -2.9778502051909120e-21 0.0000000000000000e+00  3.5264830524668711e-35 -1.9852334701272713e-21 0.0000000000000000e+00  0.0000000000000000e+00 -3.9752942519635548e-05 0.0000000000000000e+00  -9.0066725289385063e-20 -3.9752942519635623e-05 0.0000000000000000e+00  -1.7576619972199965e-19 -3.9752942519635643e-05 0.0000000000000000e+00  -2.6608244986138151e-19 -3.9752942519635643e-05 0.0000000000000000e+00  -3.1006062704395089e-19 -3.9752942519635636e-05 0.0000000000000000e+00  -3.9067525667144368e-19 -3.9752942519635589e-05 0.0000000000000000e+00  -4.7824454730532485e-19 -3.9752942519635623e-05 0.0000000000000000e+00  -5.6863795273199020e-19 -3.9752942519635602e-05 0.0000000000000000e+00  -5.5100957805592658e-19 -3.9752942519635663e-05 0.0000000000000000e+00  -5.4534941386731255e-19 -3.9752942519635697e-05 0.0000000000000000e+00  -5.0808435018844756e-19 -3.9752942519635738e-05 0.0000000000000000e+00  -4.5740573463342815e-19 -3.9752942519635846e-05 0.0000000000000000e+00  -3.8669792506730684e-19 -3.9752942519635901e-05 0.0000000000000000e+00  -2.8088936359951515e-19 -3.9752942519635989e-05 0.0000000000000000e+00  -1.4559048515246770e-19 -3.9752942519636063e-05 0.0000000000000000e+00  2.0968932979490149e-36 -3.9752942519636036e-05 0.0000000000000000e+00  -2.4685381367268059e-35 -7.9591386237557051e-05 0.0000000000000000e+00  -1.6619103180710820e-19 -7.9591386237557119e-05 0.0000000000000000e+00  -3.1585451704749679e-19 -7.9591386237557227e-05 0.0000000000000000e+00  -4.5403265611364228e-19 -7.9591386237557282e-05 0.0000000000000000e+00  -5.9710038166004861e-19 -7.9591386237557227e-05 0.0000000000000000e+00  -7.0258394885875518e-19 -7.9591386237557160e-05 0.0000000000000000e+00  -8.3843586890465486e-19 -7.9591386237557173e-05 0.0000000000000000e+00  -9.3257312954464807e-19 -7.9591386237557309e-05 0.0000000000000000e+00  -9.8007798672090778e-19 -7.9591386237557336e-05 0.0000000000000000e+00  -9.7543306735256419e-19 -7.9591386237557458e-05 0.0000000000000000e+00  -9.0936588312929834e-19 -7.9591386237557471e-05 0.0000000000000000e+00  -7.8022549693276760e-19 -7.9591386237557742e-05 0.0000000000000000e+00  -6.6219118474196509e-19 -7.9591386237557891e-05 0.0000000000000000e+00  -4.7124818318851136e-19 -7.9591386237558054e-05 0.0000000000000000e+00  -2.4044659921028393e-19 -7.9591386237558244e-05 0.0000000000000000e+00  -2.8859304667648754e-35 -7.9591386237558162e-05 0.0000000000000000e+00  1.9230352895483373e-35 -1.1960062479779986e-04 0.0000000000000000e+00  -2.4994954384819095e-19 -1.1960062479780002e-04 0.0000000000000000e+00  -4.4032900463363123e-19 -1.1960062479780015e-04 0.0000000000000000e+00  -6.4622440712107400e-19 -1.1960062479779992e-04 0.0000000000000000e+00  -8.3511435836252667e-19 -1.1960062479780011e-04 0.0000000000000000e+00  -1.0114160150740033e-18 -1.1960062479780002e-04 0.0000000000000000e+00  -1.1563095405608939e-18 -1.1960062479780020e-04 0.0000000000000000e+00  -1.2915601628497919e-18 -1.1960062479780023e-04 0.0000000000000000e+00  -1.4018729943932916e-18 -1.1960062479780031e-04 0.0000000000000000e+00  -1.3552992711533963e-18 -1.1960062479780039e-04 0.0000000000000000e+00  -1.2512259322111359e-18 -1.1960062479780063e-04 0.0000000000000000e+00  -1.0878707515303725e-18 -1.1960062479780092e-04 0.0000000000000000e+00  -8.6078801203385371e-19 -1.1960062479780124e-04 0.0000000000000000e+00  -5.8430974326801280e-19 -1.1960062479780164e-04 0.0000000000000000e+00  -3.0179820861638233e-19 -1.1960062479780180e-04 0.0000000000000000e+00  1.0201611687493429e-34 -1.1960062479780177e-04 0.0000000000000000e+00  -6.7003177996870142e-35 -1.5986553714854944e-04 0.0000000000000000e+00  -2.8895840611600087e-19 -1.5986553714854955e-04 0.0000000000000000e+00  -5.9061004090281936e-19 -1.5986553714854965e-04 0.0000000000000000e+00  -8.6346332885337244e-19 -1.5986553714854968e-04 0.0000000000000000e+00  -1.0998377731920416e-18 -1.5986553714854979e-04 0.0000000000000000e+00  -1.2838776935799830e-18 -1.5986553714854984e-04 0.0000000000000000e+00  -1.4621361344121774e-18 -1.5986553714854971e-04 0.0000000000000000e+00  -1.6782589767069820e-18 -1.5986553714854979e-04 0.0000000000000000e+00  -1.7209347795417204e-18 -1.5986553714855020e-04 0.0000000000000000e+00  -1.7268543415317379e-18 -1.5986553714854987e-04 0.0000000000000000e+00  -1.5836708346148001e-18 -1.5986553714855055e-04 0.0000000000000000e+00  -1.3249164278437079e-18 -1.5986553714855117e-04 0.0000000000000000e+00  -1.0143919265274536e-18 -1.5986553714855152e-04 0.0000000000000000e+00  -6.7646916618996192e-19 -1.5986553714855177e-04 0.0000000000000000e+00  -3.4426673507974621e-19 -1.5986553714855209e-04 0.0000000000000000e+00  -4.5844279682069031e-35 -1.5986553714855217e-04 0.0000000000000000e+00  6.3562518668227439e-35 -2.0047038122706002e-04 0.0000000000000000e+00  -3.6979488848293504e-19 -2.0047038122706002e-04 0.0000000000000000e+00  -7.4213143544248267e-19 -2.0047038122706008e-04 0.0000000000000000e+00  -1.0628886750068468e-18 -2.0047038122706032e-04 0.0000000000000000e+00  -1.3383503545221931e-18 -2.0047038122706046e-04 0.0000000000000000e+00  -1.5606929077641066e-18 -2.0047038122706046e-04 0.0000000000000000e+00  -1.7435338247180708e-18 -2.0047038122706035e-04 0.0000000000000000e+00  -1.8841797722404797e-18 -2.0047038122706046e-04 0.0000000000000000e+00  -1.9952040014029748e-18 -2.0047038122706089e-04 0.0000000000000000e+00  -1.9542442578821105e-18 -2.0047038122706100e-04 0.0000000000000000e+00  -1.7479596236367318e-18 -2.0047038122706146e-04 0.0000000000000000e+00  -1.5091218957956379e-18 -2.0047038122706208e-04 0.0000000000000000e+00  -1.1930648601178706e-18 -2.0047038122706276e-04 0.0000000000000000e+00  -7.9153648690579469e-19 -2.0047038122706330e-04 0.0000000000000000e+00  -3.8041522777910615e-19 -2.0047038122706352e-04 0.0000000000000000e+00  6.6446750068148667e-35 -2.0047038122706360e-04 0.0000000000000000e+00  -7.7582627154270869e-35 -2.4149858888738022e-04 0.0000000000000000e+00  -4.9010756577407731e-19 -2.4149858888738030e-04 0.0000000000000000e+00  -9.1752992477216672e-19 -2.4149858888738041e-04 0.0000000000000000e+00  -1.2662398707243579e-18 -2.4149858888738076e-04 0.0000000000000000e+00  -1.5321162423672202e-18 -2.4149858888738101e-04 0.0000000000000000e+00  -1.7870271606216681e-18 -2.4149858888738106e-04 0.0000000000000000e+00  -1.9838670724897357e-18 -2.4149858888738090e-04 0.0000000000000000e+00  -2.0978144929036985e-18 -2.4149858888738095e-04 0.0000000000000000e+00  -2.1813839332074363e-18 -2.4149858888738125e-04 0.0000000000000000e+00  -2.1377301249473219e-18 -2.4149858888738136e-04 0.0000000000000000e+00  -1.9297528648490149e-18 -2.4149858888738207e-04 0.0000000000000000e+00  -1.6755490957813734e-18 -2.4149858888738274e-04 0.0000000000000000e+00  -1.3253984389890379e-18 -2.4149858888738377e-04 0.0000000000000000e+00  -9.1656277297158226e-19 -2.4149858888738415e-04 0.0000000000000000e+00  -4.4116867984699485e-19 -2.4149858888738472e-04 0.0000000000000000e+00  -4.1580771732430464e-35 -2.4149858888738453e-04 0.0000000000000000e+00  1.6649802421815752e-35 -2.8303256249062489e-04 0.0000000000000000e+00  -5.4293858695759946e-19 -2.8303256249062483e-04 0.0000000000000000e+00  -1.0175012575408777e-18 -2.8303256249062532e-04 0.0000000000000000e+00  -1.3993875260633807e-18 -2.8303256249062538e-04 0.0000000000000000e+00  -1.7118639199339003e-18 -2.8303256249062554e-04 0.0000000000000000e+00  -1.9362979785044163e-18 -2.8303256249062608e-04 0.0000000000000000e+00  -2.1811854017119658e-18 -2.8303256249062576e-04 0.0000000000000000e+00  -2.3325940537037149e-18 -2.8303256249062581e-04 0.0000000000000000e+00  -2.3346184305147342e-18 -2.8303256249062608e-04 0.0000000000000000e+00  -2.2988128219339256e-18 -2.8303256249062646e-04 0.0000000000000000e+00  -2.1211865816876106e-18 -2.8303256249062695e-04 0.0000000000000000e+00  -1.8239753828698740e-18 -2.8303256249062814e-04 0.0000000000000000e+00  -1.4186065743212753e-18 -2.8303256249062895e-04 0.0000000000000000e+00  -9.4532152591213149e-19 -2.8303256249062961e-04 0.0000000000000000e+00  -4.8042458528710275e-19 -2.8303256249062993e-04 0.0000000000000000e+00  -3.0226997592573087e-35 -2.8303256249063004e-04 0.0000000000000000e+00  5.6423728839469790e-35 -3.2515347358194271e-04 0.0000000000000000e+00  -5.0624192524362025e-19 -3.2515347358194288e-04 0.0000000000000000e+00  -9.9857408281422302e-19 -3.2515347358194293e-04 0.0000000000000000e+00  -1.5052908175199294e-18 -3.2515347358194336e-04 0.0000000000000000e+00  -1.8869314137367754e-18 -3.2515347358194358e-04 0.0000000000000000e+00  -2.1689572537314579e-18 -3.2515347358194445e-04 0.0000000000000000e+00  -2.3908608748122174e-18 -3.2515347358194369e-04 0.0000000000000000e+00  -2.4965282853723888e-18 -3.2515347358194396e-04 0.0000000000000000e+00  -2.4875566771253632e-18 -3.2515347358194418e-04 0.0000000000000000e+00  -2.4169151751915778e-18 -3.2515347358194439e-04 0.0000000000000000e+00  -2.2556786272656903e-18 -3.2515347358194532e-04 0.0000000000000000e+00  -1.9141092514650000e-18 -3.2515347358194629e-04 0.0000000000000000e+00  -1.5146227667474347e-18 -3.2515347358194738e-04 0.0000000000000000e+00  -1.0134369530935762e-18 -3.2515347358194851e-04 0.0000000000000000e+00  -5.3018834627410321e-19 -3.2515347358194841e-04 0.0000000000000000e+00  2.8211864419734890e-35 -3.2515347358194846e-04 0.0000000000000000e+00  -5.6410134440337978e-35 -3.6794106408343180e-04 0.0000000000000000e+00  -4.8371022341140927e-19 -3.6794106408343164e-04 0.0000000000000000e+00  -1.0451313434248841e-18 -3.6794106408343197e-04 0.0000000000000000e+00  -1.6166420605788846e-18 -3.6794106408343218e-04 0.0000000000000000e+00  -1.9874298814505150e-18 -3.6794106408343343e-04 0.0000000000000000e+00  -2.3569791418775268e-18 -3.6794106408343349e-04 0.0000000000000000e+00  -2.5809666071216704e-18 -3.6794106408343321e-04 0.0000000000000000e+00  -2.6412290921808319e-18 -3.6794106408343332e-04 0.0000000000000000e+00  -2.5957181792855566e-18 -3.6794106408343354e-04 0.0000000000000000e+00  -2.6286020970864573e-18 -3.6794106408343381e-04 0.0000000000000000e+00  -2.4111430852798571e-18 -3.6794106408343479e-04 0.0000000000000000e+00  -2.0332078871439804e-18 -3.6794106408343598e-04 0.0000000000000000e+00  -1.5842178461403904e-18 -3.6794106408343723e-04 0.0000000000000000e+00  -1.1821319792439418e-18 -3.6794106408343804e-04 0.0000000000000000e+00  -6.1746078529661274e-19 -3.6794106408343836e-04 0.0000000000000000e+00  -8.1285796106967149e-35 -3.6794106408343815e-04 0.0000000000000000e+00  1.2695338988880714e-34 -4.1147345043784835e-04 0.0000000000000000e+00  -6.1260843107620246e-19 -4.1147345043784868e-04 0.0000000000000000e+00  -1.1870552542886927e-18 -4.1147345043784814e-04 0.0000000000000000e+00  -1.6565601373341582e-18 -4.1147345043784944e-04 0.0000000000000000e+00  -2.1006478390550923e-18 -4.1147345043784987e-04 0.0000000000000000e+00  -2.3820518883416575e-18 -4.1147345043784998e-04 0.0000000000000000e+00  -2.5947843255137200e-18 -4.1147345043784992e-04 0.0000000000000000e+00  -2.7261454038217085e-18 -4.1147345043785020e-04 0.0000000000000000e+00  -2.7969478937341431e-18 -4.1147345043785025e-04 0.0000000000000000e+00  -2.6598497364735071e-18 -4.1147345043785030e-04 0.0000000000000000e+00  -2.5187820055257518e-18 -4.1147345043785204e-04 0.0000000000000000e+00  -2.1547147551659268e-18 -4.1147345043785280e-04 0.0000000000000000e+00  -1.7238097052020605e-18 -4.1147345043785410e-04 0.0000000000000000e+00  -1.2689748740505147e-18 -4.1147345043785567e-04 0.0000000000000000e+00  -6.9069003868969772e-19 -4.1147345043785562e-04 0.0000000000000000e+00  1.5058589080682009e-34 -4.1147345043785589e-04 0.0000000000000000e+00  2.6373134315593990e-36 -4.5582693114376213e-04 0.0000000000000000e+00  -6.4885221992775300e-19 -4.5582693114376224e-04 0.0000000000000000e+00  -1.2034563817986191e-18 -4.5582693114376246e-04 0.0000000000000000e+00  -1.6322972239126926e-18 -4.5582693114376311e-04 0.0000000000000000e+00  -2.0556699008442077e-18 -4.5582693114376349e-04 0.0000000000000000e+00  -2.4495615687065932e-18 -4.5582693114376425e-04 0.0000000000000000e+00  -2.6627397882158477e-18 -4.5582693114376392e-04 0.0000000000000000e+00  -2.8511359613699201e-18 -4.5582693114376365e-04 0.0000000000000000e+00  -3.0133074738746861e-18 -4.5582693114376409e-04 0.0000000000000000e+00  -2.7818844362418585e-18 -4.5582693114376468e-04 0.0000000000000000e+00  -2.5098580798231719e-18 -4.5582693114376609e-04 0.0000000000000000e+00  -2.2122773981971889e-18 -4.5582693114376728e-04 0.0000000000000000e+00  -1.6983131999900949e-18 -4.5582693114376842e-04 0.0000000000000000e+00  -1.1993242572344725e-18 -4.5582693114376956e-04 0.0000000000000000e+00  -5.8935302023888668e-19 -4.5582693114377005e-04 0.0000000000000000e+00  1.1083232450610121e-35 -4.5582693114377032e-04 0.0000000000000000e+00  7.0529661049337237e-36 -5.0107579812851122e-04 0.0000000000000000e+00  -6.3504822100787754e-19 -5.0107579812851068e-04 0.0000000000000000e+00  -1.1477470549507830e-18 -5.0107579812851122e-04 0.0000000000000000e+00  -1.6044486382566747e-18 -5.0107579812851165e-04 0.0000000000000000e+00  -1.9219982306690058e-18 -5.0107579812851263e-04 0.0000000000000000e+00  -2.2988128219339260e-18 -5.0107579812851317e-04 0.0000000000000000e+00  -2.5729029061596887e-18 -5.0107579812851252e-04 0.0000000000000000e+00  -2.8756867278738598e-18 -5.0107579812851263e-04 0.0000000000000000e+00  -2.9890393590866120e-18 -5.0107579812851274e-04 0.0000000000000000e+00  -2.8787890532802260e-18 -5.0107579812851371e-04 0.0000000000000000e+00  -2.5643824956295273e-18 -5.0107579812851415e-04 0.0000000000000000e+00  -2.2667206517526285e-18 -5.0107579812851708e-04 0.0000000000000000e+00  -1.7433349009222293e-18 -5.0107579812851762e-04 0.0000000000000000e+00  -9.9316821403170496e-19 -5.0107579812851892e-04 0.0000000000000000e+00  -4.3772627300249873e-19 -5.0107579812851935e-04 0.0000000000000000e+00  4.2317796629602334e-35 -5.0107579812851935e-04 0.0000000000000000e+00  8.4422508081775909e-35 -5.4729215241060064e-04 0.0000000000000000e+00  -5.3037855859605936e-19 -5.4729215241060085e-04 0.0000000000000000e+00  -1.0051913800623188e-18 -5.4729215241060096e-04 0.0000000000000000e+00  -1.4891589153064443e-18 -5.4729215241060205e-04 0.0000000000000000e+00  -1.9286954903568887e-18 -5.4729215241060302e-04 0.0000000000000000e+00  -2.2971237603454392e-18 -5.4729215241060291e-04 0.0000000000000000e+00  -2.6636501250476165e-18 -5.4729215241060302e-04 0.0000000000000000e+00  -2.9668894633560860e-18 -5.4729215241060237e-04 0.0000000000000000e+00  -3.0393006960226583e-18 -5.4729215241060335e-04 0.0000000000000000e+00  -3.0253992909979807e-18 -5.4729215241060400e-04 0.0000000000000000e+00  -2.7440800809307029e-18 -5.4729215241060519e-04 0.0000000000000000e+00  -2.2638703603220541e-18 -5.4729215241060693e-04 0.0000000000000000e+00  -1.6752142550435336e-18 -5.4729215241060877e-04 0.0000000000000000e+00  -1.0049916451511303e-18 -5.4729215241060964e-04 0.0000000000000000e+00  -4.7384254674983337e-19 -5.4729215241061040e-04 0.0000000000000000e+00  9.9045088837786509e-35 -5.4729215241060985e-04 0.0000000000000000e+00  -7.0529661049337154e-35 -5.9454572450772653e-04 0.0000000000000000e+00  -5.9645977211721931e-19 -5.9454572450772707e-04 0.0000000000000000e+00  -1.0535518049881166e-18 -5.9454572450772761e-04 0.0000000000000000e+00  -1.5189621402321321e-18 -5.9454572450772815e-04 0.0000000000000000e+00  -1.8579588213345810e-18 -5.9454572450772967e-04 0.0000000000000000e+00  -2.3368322882884894e-18 -5.9454572450772934e-04 0.0000000000000000e+00  -2.8857127862966114e-18 -5.9454572450772891e-04 0.0000000000000000e+00  -3.1416545545900809e-18 -5.9454572450772967e-04 0.0000000000000000e+00  -3.0722833262183678e-18 -5.9454572450772945e-04 0.0000000000000000e+00  -3.1481650762250278e-18 -5.9454572450772999e-04 0.0000000000000000e+00  -2.8878845598926288e-18 -5.9454572450773205e-04 0.0000000000000000e+00  -2.2871940137475733e-18 -5.9454572450773357e-04 0.0000000000000000e+00  -1.6350116176576327e-18 -5.9454572450773563e-04 0.0000000000000000e+00  -1.0816328147288303e-18 -5.9454572450773628e-04 0.0000000000000000e+00  -5.2619793448500625e-19 -5.9454572450773683e-04 0.0000000000000000e+00  -4.2498871620014451e-36 -5.9454572450773607e-04 0.0000000000000000e+00  -4.1338524421181342e-35 -6.4290370005001091e-04 0.0000000000000000e+00  -6.2447329945405318e-19 -6.4290370005001146e-04 0.0000000000000000e+00  -1.1311434325414206e-18 -6.4290370005001265e-04 0.0000000000000000e+00  -1.6016526512849651e-18 -6.4290370005001276e-04 0.0000000000000000e+00  -2.0226512522159218e-18 -6.4290370005001417e-04 0.0000000000000000e+00  -2.3659980450048715e-18 -6.4290370005001471e-04 0.0000000000000000e+00  -2.6245242127494387e-18 -6.4290370005001406e-04 0.0000000000000000e+00  -3.0436889824576958e-18 -6.4290370005001460e-04 0.0000000000000000e+00  -3.3226902851284131e-18 -6.4290370005001493e-04 0.0000000000000000e+00  -3.1345272606348037e-18 -6.4290370005001471e-04 0.0000000000000000e+00  -2.7453742571775602e-18 -6.4290370005001688e-04 0.0000000000000000e+00  -2.3185537292493863e-18 -6.4290370005001926e-04 0.0000000000000000e+00  -1.8657429110956300e-18 -6.4290370005002089e-04 0.0000000000000000e+00  -1.2523221478252166e-18 -6.4290370005002111e-04 0.0000000000000000e+00  -6.4645813309385128e-19 -6.4290370005002186e-04 0.0000000000000000e+00  2.8715647712944468e-34 -6.4290370005002219e-04 0.0000000000000000e+00  1.4105932209867431e-34 -6.9243055106005464e-04 0.0000000000000000e+00  -6.6157012915902930e-19 -6.9243055106005442e-04 0.0000000000000000e+00  -1.3633169345960451e-18 -6.9243055106005507e-04 0.0000000000000000e+00  -1.7648029041911746e-18 -6.9243055106005616e-04 0.0000000000000000e+00  -2.1480140568291819e-18 -6.9243055106005713e-04 0.0000000000000000e+00  -2.4495830937299605e-18 -6.9243055106005627e-04 0.0000000000000000e+00  -2.6181022533306116e-18 -6.9243055106005713e-04 0.0000000000000000e+00  -2.9173674693384400e-18 -6.9243055106005681e-04 0.0000000000000000e+00  -3.2425943908577542e-18 -6.9243055106005768e-04 0.0000000000000000e+00  -3.1143128701264071e-18 -6.9243055106005865e-04 0.0000000000000000e+00  -2.7723484257477567e-18 -6.9243055106005984e-04 0.0000000000000000e+00  -2.4018455788317681e-18 -6.9243055106006234e-04 0.0000000000000000e+00  -2.0018667556697369e-18 -6.9243055106006385e-04 0.0000000000000000e+00  -1.3917867489151763e-18 -6.9243055106006461e-04 0.0000000000000000e+00  -6.2105543218021153e-19 -6.9243055106006581e-04 0.0000000000000000e+00  -7.0529661049337144e-35 -6.9243055106006581e-04 0.0000000000000000e+00  -6.3404020471144495e-35 -7.4318787336157942e-04 0.0000000000000000e+00  -7.9031486170203286e-19 -7.4318787336157964e-04 0.0000000000000000e+00  -1.3530075553395805e-18 -7.4318787336158029e-04 0.0000000000000000e+00  -1.6005618413026387e-18 -7.4318787336158159e-04 0.0000000000000000e+00  -2.0687426127894992e-18 -7.4318787336