<?xml version="1.0"?>
<VTKFile type="UnstructuredGrid"  version="0.1"  >
<UnstructuredGrid>
<Piece  NumberOfPoints="431" NumberOfCells="800">
<Points>
<DataArray  type="Float64"  NumberOfComponents="3"  format="ascii">-0.25 -1 0  -0.2 -1 0  -0.15 -1 0  -0.1 -1 0  -0.04999999999999999 -1 0  0 -1 0  0.04999999999999999 -1 0  0.09999999999999998 -1 0  0.15 -1 0  0.2 -1 0  0.25 -1 0  -0.25 -0.95 0  -0.2 -0.95 0  -0.15 -0.95 0  -0.1 -0.95 0  -0.04999999999999999 -0.95 0  0 -0.95 0  0.04999999999999999 -0.95 0  0.09999999999999998 -0.95 0  0.15 -0.95 0  0.2 -0.95 0  0.25 -0.95 0  -0.25 -0.9 0  -0.2 -0.9 0  -0.15 -0.9 0  -0.1 -0.9 0  -0.04999999999999999 -0.9 0  0 -0.9 0  0.04999999999999999 -0.9 0  0.09999999999999998 -0.9 0  0.15 -0.9 0  0.2 -0.9 0  0.25 -0.9 0  -0.25 -0.85 0  -0.2 -0.85 0  -0.15 -0.85 0  -0.1 -0.85 0  -0.04999999999999999 -0.85 0  0 -0.85 0  0.04999999999999999 -0.85 0  0.09999999999999998 -0.85 0  0.15 -0.85 0  0.2 -0.85 0  0.25 -0.85 0  -0.25 -0.8 0  -0.2 -0.8 0  -0.15 -0.8 0  -0.1 -0.8 0  -0.04999999999999999 -0.8 0  0 -0.8 0  0.04999999999999999 -0.8 0  0.09999999999999998 -0.8 0  0.15 -0.8 0  0.2 -0.8 0  0.25 -0.8 0  -0.25 -0.75 0  -0.2 -0.75 0  -0.15 -0.75 0  -0.1 -0.75 0  -0.04999999999999999 -0.75 0  0 -0.75 0  0.04999999999999999 -0.75 0  0.09999999999999998 -0.75 0  0.15 -0.75 0  0.2 -0.75 0  0.25 -0.75 0  -0.25 -0.7 0  -0.2 -0.7 0  -0.15 -0.7 0  -0.1 -0.7 0  -0.04999999999999999 -0.7 0  0 -0.7 0  0.04999999999999999 -0.7 0  0.09999999999999998 -0.7 0  0.15 -0.7 0  0.2 -0.7 0  0.25 -0.7 0  -0.25 -0.65 0  -0.2 -0.65 0  -0.15 -0.65 0  -0.1 -0.65 0  -0.04999999999999999 -0.65 0  0 -0.65 0  0.04999999999999999 -0.65 0  0.09999999999999998 -0.65 0  0.15 -0.65 0  0.2 -0.65 0  0.25 -0.65 0  -0.25 -0.6 0  -0.2 -0.6 0  -0.15 -0.6 0  -0.1 -0.6 0  -0.04999999999999999 -0.6 0  0 -0.6 0  0.04999999999999999 -0.6 0  0.09999999999999998 -0.6 0  0.15 -0.6 0  0.2 -0.6 0  0.25 -0.6 0  -0.25 -0.55 0  -0.2 -0.55 0  -0.15 -0.55 0  -0.1 -0.55 0  -0.04999999999999999 -0.55 0  0 -0.55 0  0.04999999999999999 -0.55 0  0.09999999999999998 -0.55 0  0.15 -0.55 0  0.2 -0.55 0  0.25 -0.55 0  -0.25 -0.5 0  -0.2 -0.5 0  -0.15 -0.5 0  -0.1 -0.5 0  -0.04999999999999999 -0.5 0  0 -0.5 0  0.04999999999999999 -0.5 0  0.09999999999999998 -0.5 0  0.15 -0.5 0  0.2 -0.5 0  0.25 -0.5 0  -0.25 -0.45 0  -0.2 -0.45 0  -0.15 -0.45 0  -0.1 -0.45 0  -0.04999999999999999 -0.45 0  0 -0.45 0  0.04999999999999999 -0.45 0  0.09999999999999998 -0.45 0  0.15 -0.45 0  0.2 -0.45 0  0.25 -0.45 0  -0.25 -0.4 0  -0.2 -0.4 0  -0.15 -0.4 0  -0.1 -0.4 0  -0.04999999999999999 -0.4 0  0 -0.4 0  0.04999999999999999 -0.4 0  0.09999999999999998 -0.4 0  0.15 -0.4 0  0.2 -0.4 0  0.25 -0.4 0  -0.25 -0.35 0  -0.2 -0.35 0  -0.15 -0.35 0  -0.1 -0.35 0  -0.04999999999999999 -0.35 0  0 -0.35 0  0.04999999999999999 -0.35 0  0.09999999999999998 -0.35 0  0.15 -0.35 0  0.2 -0.35 0  0.25 -0.35 0  -0.25 -0.3 0  -0.2 -0.3 0  -0.15 -0.3 0  -0.1 -0.3 0  -0.04999999999999999 -0.3 0  0 -0.3 0  0.04999999999999999 -0.3 0  0.09999999999999998 -0.3 0  0.15 -0.3 0  0.2 -0.3 0  0.25 -0.3 0  -0.25 -0.25 0  -0.2 -0.25 0  -0.15 -0.25 0  -0.1 -0.25 0  -0.04999999999999999 -0.25 0  0 -0.25 0  0.04999999999999999 -0.25 0  0.09999999999999998 -0.25 0  0.15 -0.25 0  0.2 -0.25 0  0.25 -0.25 0  -0.25 -0.2 0  -0.2 -0.2 0  -0.15 -0.2 0  -0.1 -0.2 0  -0.04999999999999999 -0.2 0  0 -0.2 0  0.04999999999999999 -0.2 0  0.09999999999999998 -0.2 0  0.15 -0.2 0  0.2 -0.2 0  0.25 -0.2 0  -0.25 -0.15 0  -0.2 -0.15 0  -0.15 -0.15 0  -0.1 -0.15 0  -0.04999999999999999 -0.15 0  0 -0.15 0  0.04999999999999999 -0.15 0  0.09999999999999998 -0.15 0  0.15 -0.15 0  0.2 -0.15 0  0.25 -0.15 0  -0.25 -0.09999999999999998 0  -0.2 -0.09999999999999998 0  -0.15 -0.09999999999999998 0  -0.1 -0.09999999999999998 0  -0.04999999999999999 -0.09999999999999998 0  0 -0.09999999999999998 0  0.04999999999999999 -0.09999999999999998 0  0.09999999999999998 -0.09999999999999998 0  0.15 -0.09999999999999998 0  0.2 -0.09999999999999998 0  0.25 -0.09999999999999998 0  -0.25 -0.05000000000000004 0  -0.2 -0.05000000000000004 0  -0.15 -0.05000000000000004 0  -0.1 -0.05000000000000004 0  -0.04999999999999999 -0.05000000000000004 0  0 -0.05000000000000004 0  0.04999999999999999 -0.05000000000000004 0  0.09999999999999998 -0.05000000000000004 0  0.15 -0.05000000000000004 0  0.2 -0.05000000000000004 0  0.25 -0.05000000000000004 0  -0.25 0 0  -0.2 0 0  -0.15 0 0  -0.1 0 0  -0.04999999999999999 0 0  0 0 0  0.04999999999999999 0 0  0.09999999999999998 0 0  0.15 0 0  0.2 0 0  0.25 0 0  -0.225 -0.975 0  -0.175 -0.975 0  -0.125 -0.975 0  -0.07500000000000001 -0.975 0  -0.02499999999999999 -0.975 0  0.02500000000000002 -0.975 0  0.07500000000000001 -0.975 0  0.125 -0.975 0  0.175 -0.975 0  0.225 -0.975 0  -0.225 -0.925 0  -0.175 -0.925 0  -0.125 -0.925 0  -0.07500000000000001 -0.925 0  -0.02499999999999999 -0.925 0  0.02500000000000002 -0.925 0  0.07500000000000001 -0.925 0  0.125 -0.925 0  0.175 -0.925 0  0.225 -0.925 0  -0.225 -0.875 0  -0.175 -0.875 0  -0.125 -0.875 0  -0.07500000000000001 -0.875 0  -0.02499999999999999 -0.875 0  0.02500000000000002 -0.875 0  0.07500000000000001 -0.875 0  0.125 -0.875 0  0.175 -0.875 0  0.225 -0.875 0  -0.225 -0.825 0  -0.175 -0.825 0  -0.125 -0.825 0  -0.07500000000000001 -0.825 0  -0.02499999999999999 -0.825 0  0.02500000000000002 -0.825 0  0.07500000000000001 -0.825 0  0.125 -0.825 0  0.175 -0.825 0  0.225 -0.825 0  -0.225 -0.775 0  -0.175 -0.775 0  -0.125 -0.775 0  -0.07500000000000001 -0.775 0  -0.02499999999999999 -0.775 0  0.02500000000000002 -0.775 0  0.07500000000000001 -0.775 0  0.125 -0.775 0  0.175 -0.775 0  0.225 -0.775 0  -0.225 -0.725 0  -0.175 -0.725 0  -0.125 -0.725 0  -0.07500000000000001 -0.725 0  -0.02499999999999999 -0.725 0  0.02500000000000002 -0.725 0  0.07500000000000001 -0.725 0  0.125 -0.725 0  0.175 -0.725 0  0.225 -0.725 0  -0.225 -0.675 0  -0.175 -0.675 0  -0.125 -0.675 0  -0.07500000000000001 -0.675 0  -0.02499999999999999 -0.675 0  0.02500000000000002 -0.675 0  0.07500000000000001 -0.675 0  0.125 -0.675 0  0.175 -0.675 0  0.225 -0.675 0  -0.225 -0.625 0  -0.175 -0.625 0  -0.125 -0.625 0  -0.07500000000000001 -0.625 0  -0.02499999999999999 -0.625 0  0.02500000000000002 -0.625 0  0.07500000000000001 -0.625 0  0.125 -0.625 0  0.175 -0.625 0  0.225 -0.625 0  -0.225 -0.575 0  -0.175 -0.575 0  -0.125 -0.575 0  -0.07500000000000001 -0.575 0  -0.02499999999999999 -0.575 0  0.02500000000000002 -0.575 0  0.07500000000000001 -0.575 0  0.125 -0.575 0  0.175 -0.575 0  0.225 -0.575 0  -0.225 -0.525 0  -0.175 -0.525 0  -0.125 -0.525 0  -0.07500000000000001 -0.525 0  -0.02499999999999999 -0.525 0  0.02500000000000002 -0.525 0  0.07500000000000001 -0.525 0  0.125 -0.525 0  0.175 -0.525 0  0.225 -0.525 0  -0.225 -0.475 0  -0.175 -0.475 0  -0.125 -0.475 0  -0.07500000000000001 -0.475 0  -0.02499999999999999 -0.475 0  0.02500000000000002 -0.475 0  0.07500000000000001 -0.475 0  0.125 -0.475 0  0.175 -0.475 0  0.225 -0.475 0  -0.225 -0.425 0  -0.175 -0.425 0  -0.125 -0.425 0  -0.07500000000000001 -0.425 0  -0.02499999999999999 -0.425 0  0.02500000000000002 -0.425 0  0.07500000000000001 -0.425 0  0.125 -0.425 0  0.175 -0.425 0  0.225 -0.425 0  -0.225 -0.375 0  -0.175 -0.375 0  -0.125 -0.375 0  -0.07500000000000001 -0.375 0  -0.02499999999999999 -0.375 0  0.02500000000000002 -0.375 0  0.07500000000000001 -0.375 0  0.125 -0.375 0  0.175 -0.375 0  0.225 -0.375 0  -0.225 -0.325 0  -0.175 -0.325 0  -0.125 -0.325 0  -0.07500000000000001 -0.325 0  -0.02499999999999999 -0.325 0  0.02500000000000002 -0.325 0  0.07500000000000001 -0.325 0  0.125 -0.325 0  0.175 -0.325 0  0.225 -0.325 0  -0.225 -0.275 0  -0.175 -0.275 0  -0.125 -0.275 0  -0.07500000000000001 -0.275 0  -0.02499999999999999 -0.275 0  0.02500000000000002 -0.275 0  0.07500000000000001 -0.275 0  0.125 -0.275 0  0.175 -0.275 0  0.225 -0.275 0  -0.225 -0.225 0  -0.175 -0.225 0  -0.125 -0.225 0  -0.07500000000000001 -0.225 0  -0.02499999999999999 -0.225 0  0.02500000000000002 -0.225 0  0.07500000000000001 -0.225 0  0.125 -0.225 0  0.175 -0.225 0  0.225 -0.225 0  -0.225 -0.175 0  -0.175 -0.175 0  -0.125 -0.175 0  -0.07500000000000001 -0.175 0  -0.02499999999999999 -0.175 0  0.02500000000000002 -0.175 0  0.07500000000000001 -0.175 0  0.125 -0.175 0  0.175 -0.175 0  0.225 -0.175 0  -0.225 -0.125 0  -0.175 -0.125 0  -0.125 -0.125 0  -0.07500000000000001 -0.125 0  -0.02499999999999999 -0.125 0  0.02500000000000002 -0.125 0  0.07500000000000001 -0.125 0  0.125 -0.125 0  0.175 -0.125 0  0.225 -0.125 0  -0.225 -0.07499999999999996 0  -0.175 -0.07499999999999996 0  -0.125 -0.07499999999999996 0  -0.07500000000000001 -0.07499999999999996 0  -0.02499999999999999 -0.07499999999999996 0  0.02500000000000002 -0.07499999999999996 0  0.07500000000000001 -0.07499999999999996 0  0.125 -0.07499999999999996 0  0.175 -0.07499999999999996 0  0.225 -0.07499999999999996 0  -0.225 -0.02500000000000002 0  -0.175 -0.02500000000000002 0  -0.125 -0.02500000000000002 0  -0.07500000000000001 -0.02500000000000002 0  -0.02499999999999999 -0.02500000000000002 0  0.02500000000000002 -0.02500000000000002 0  0.07500000000000001 -0.02500000000000002 0  0.125 -0.02500000000000002 0  0.175 -0.02500000000000002 0  0.225 -0.02500000000000002 0  </DataArray>
</Points>
<Cells>
[...]
<PointData  Vectors="displacement"> 
<DataArray  type="Float64"  Name="displacement"  NumberOfComponents="3" format="ascii">4.9652881378733383e-33 -2.0328790734103189e-18 0.0000000000000000e+00  -7.2222372914521262e-33 1.0164395367051593e-18 0.0000000000000000e+00  1.5262618651076567e-32 -9.1995719005697433e-18 0.0000000000000000e+00  7.2222372914521290e-33 5.0821976835257982e-19 0.0000000000000000e+00  7.1451000191163354e-33 -4.5671728622988100e-18 0.0000000000000000e+00  3.2500067811534567e-32 -3.5575383784680576e-18 0.0000000000000000e+00  -1.4964630833143120e-32 1.3201802576346312e-18 0.0000000000000000e+00  9.0277966143151571e-33 -2.0328790734103185e-18 0.0000000000000000e+00  5.4163435221406886e-33 1.2387856853594129e-18 0.0000000000000000e+00  0.0000000000000000e+00 3.0493186101154789e-18 0.0000000000000000e+00  2.7083389842945470e-33 -1.4230153513872227e-17 0.0000000000000000e+00  -5.4166779685891049e-33 -3.6670426555766120e-02 0.0000000000000000e+00  6.0595316332043697e-17 -3.6670426555766085e-02 0.0000000000000000e+00  9.7762758478186839e-17 -3.6670426555766050e-02 0.0000000000000000e+00  1.4315160448003220e-16 -3.6670426555766078e-02 0.0000000000000000e+00  1.6572362221769212e-16 -3.6670426555766009e-02 0.0000000000000000e+00  1.6706014008883959e-16 -3.6670426555765981e-02 0.0000000000000000e+00  1.7121212259526226e-16 -3.6670426555765995e-02 0.0000000000000000e+00  1.1545984606843546e-16 -3.6670426555765960e-02 0.0000000000000000e+00  8.5565480065607149e-17 -3.6670426555765953e-02 0.0000000000000000e+00  3.7983352059263409e-17 -3.6670426555765967e-02 0.0000000000000000e+00  5.6189989461182866e-35 -3.6670426555765932e-02 0.0000000000000000e+00  8.8072673856800696e-34 -7.3343765803200719e-02 0.0000000000000000e+00  7.0606436678690611e-17 -7.3343765803200650e-02 0.0000000000000000e+00  1.5786972748817058e-16 -7.3343765803200636e-02 0.0000000000000000e+00  2.1948341910356590e-16 -7.3343765803200525e-02 0.0000000000000000e+00  2.5790243298066342e-16 -7.3343765803200553e-02 0.0000000000000000e+00  2.4782169003200132e-16 -7.3343765803200470e-02 0.0000000000000000e+00  1.9609909058704806e-16 -7.3343765803200414e-02 0.0000000000000000e+00  1.7173370909831732e-16 -7.3343765803200373e-02 0.0000000000000000e+00  1.2751586685465678e-16 -7.3343765803200386e-02 0.0000000000000000e+00  5.7618784338905395e-17 -7.3343765803200289e-02 0.0000000000000000e+00  7.3512058145137764e-33 -7.3343765803200400e-02 0.0000000000000000e+00  2.7083389842945493e-32 -1.1002291247625968e-01 0.0000000000000000e+00  7.9030088331645943e-17 -1.1002291247625964e-01 0.0000000000000000e+00  1.8763563211635961e-16 -1.1002291247625971e-01 0.0000000000000000e+00  2.8294484112042845e-16 -1.1002291247625952e-01 0.0000000000000000e+00  2.9408531723281199e-16 -1.1002291247625941e-01 0.0000000000000000e+00  2.8767325420796265e-16 -1.1002291247625934e-01 0.0000000000000000e+00  2.6146335583323438e-16 -1.1002291247625917e-01 0.0000000000000000e+00  2.0300905184284015e-16 -1.1002291247625919e-01 0.0000000000000000e+00  1.5220471789586697e-16 -1.1002291247625913e-01 0.0000000000000000e+00  6.9941765154981917e-17 -1.1002291247625913e-01 0.0000000000000000e+00  -1.8055593228630326e-33 -1.1002291247625914e-01 0.0000000000000000e+00  -4.2623505781498572e-33 -1.4671072550418870e-01 0.0000000000000000e+00  1.2672950173098312e-16 -1.4671072550418859e-01 0.0000000000000000e+00  2.3460746101218017e-16 -1.4671072550418870e-01 0.0000000000000000e+00  2.7562782631746201e-16 -1.4671072550418857e-01 0.0000000000000000e+00  2.9321433558073193e-16 -1.4671072550418837e-01 0.0000000000000000e+00  2.7795197506374159e-16 -1.4671072550418815e-01 0.0000000000000000e+00  2.5900746028302348e-16 -1.4671072550418804e-01 0.0000000000000000e+00  2.0033621693218402e-16 -1.4671072550418796e-01 0.0000000000000000e+00  1.3580762847016009e-16 -1.4671072550418787e-01 0.0000000000000000e+00  7.5821049561765470e-17 -1.4671072550418798e-01 0.0000000000000000e+00  -1.1847684029035892e-33 -1.4671072550418782e-01 0.0000000000000000e+00  2.8888949165808516e-32 -1.8341001038527385e-01 0.0000000000000000e+00  1.5541776922284081e-16 -1.8341001038527391e-01 0.0000000000000000e+00  2.0116047898755051e-16 -1.8341001038527369e-01 0.0000000000000000e+00  2.5347176000487056e-16 -1.8341001038527352e-01 0.0000000000000000e+00  2.8019504885375488e-16 -1.8341001038527352e-01 0.0000000000000000e+00  2.7085632133591218e-16 -1.8341001038527308e-01 0.0000000000000000e+00  2.8812688207506797e-16 -1.8341001038527280e-01 0.0000000000000000e+00  2.2473977876811567e-16 -1.8341001038527288e-01 0.0000000000000000e+00  1.2959831759048797e-16 -1.8341001038527258e-01 0.0000000000000000e+00  5.4284355763784899e-17 -1.8341001038527252e-01 0.0000000000000000e+00  -8.6910728794322210e-33 -1.8341001038527296e-01 0.0000000000000000e+00  2.9008954124853757e-32 -2.2012350189001187e-01 0.0000000000000000e+00  1.4063974643034408e-16 -2.2012350189001134e-01 0.0000000000000000e+00  2.1274068524081385e-16 -2.2012350189001140e-01 0.0000000000000000e+00  2.6947984524044428e-16 -2.2012350189001129e-01 0.0000000000000000e+00  2.6635825631776662e-16 -2.2012350189001101e-01 0.0000000000000000e+00  2.8231404935775072e-16 -2.2012350189001079e-01 0.0000000000000000e+00  2.2438799981382749e-16 -2.2012350189001062e-01 0.0000000000000000e+00  1.9203216106342411e-16 -2.2012350189001037e-01 0.0000000000000000e+00  1.4296272438872158e-16 -2.2012350189001012e-01 0.0000000000000000e+00  3.1009820007443407e-17 -2.2012350189001043e-01 0.0000000000000000e+00  5.1587409224658057e-34 -2.2012350189001029e-01 0.0000000000000000e+00  9.0277966143151664e-34 -2.5685384720033966e-01 0.0000000000000000e+00  1.0448015519838731e-16 -2.5685384720033949e-01 0.0000000000000000e+00  2.5574689769955931e-16 -2.5685384720033921e-01 0.0000000000000000e+00  3.1253518198059054e-16 -2.5685384720033888e-01 0.0000000000000000e+00  3.3900141713170399e-16 -2.5685384720033871e-01 0.0000000000000000e+00  2.8940469918486088e-16 -2.5685384720033849e-01 0.0000000000000000e+00  2.1021304260455058e-16 -2.5685384720033827e-01 0.0000000000000000e+00  1.3346734767420885e-16 -2.5685384720033810e-01 0.0000000000000000e+00  6.5724764545942489e-17 -2.5685384720033810e-01 0.0000000000000000e+00  4.2951660664985409e-17 -2.5685384720033799e-01 0.0000000000000000e+00  -7.2222372914521317e-33 -2.5685384720033833e-01 0.0000000000000000e+00  2.3280962054768749e-32 -2.9360358958887933e-01 0.0000000000000000e+00  8.9050105234181846e-17 -2.9360358958887900e-01 0.0000000000000000e+00  2.3436067357829531e-16 -2.9360358958887889e-01 0.0000000000000000e+00  3.6667500220367943e-16 -2.9360358958887889e-01 0.0000000000000000e+00  3.9092317037343519e-16 -2.9360358958887883e-01 0.0000000000000000e+00  3.1900292791953385e-16 -2.9360358958887800e-01 0.0000000000000000e+00  2.0231509078996417e-16 -2.9360358958887794e-01 0.0000000000000000e+00  1.2642505998725599e-16 -2.9360358958887794e-01 0.0000000000000000e+00  1.1948421679636040e-16 -2.9360358958887783e-01 0.0000000000000000e+00  7.5814867122506432e-17 -2.9360358958887772e-01 0.0000000000000000e+00  6.5970422245790765e-34 -2.9360358958887789e-01 0.0000000000000000e+00  -4.5138983071575875e-33 -3.3037515273881529e-01 0.0000000000000000e+00  1.0831663377821915e-16 -3.3037515273881524e-01 0.0000000000000000e+00  2.2742200857123459e-16 -3.3037515273881496e-01 0.0000000000000000e+00  3.2295638987450365e-16 -3.3037515273881451e-01 0.0000000000000000e+00  2.8019504885375498e-16 -3.3037515273881424e-01 0.0000000000000000e+00  2.4707548347838221e-16 -3.3037515273881396e-01 0.0000000000000000e+00  2.0863457651828140e-16 -3.3037515273881396e-01 0.0000000000000000e+00  1.5782591486361178e-16 -3.3037515273881363e-01 0.0000000000000000e+00  1.4775479741615105e-16 -3.3037515273881357e-01 0.0000000000000000e+00  8.9176295499054169e-17 -3.3037515273881352e-01 0.0000000000000000e+00  -9.2358591144107198e-33 -3.3037515273881385e-01 0.0000000000000000e+00  -2.1619995737349905e-32 -3.6717082580108129e-01 0.0000000000000000e+00  1.0042372069873754e-16 -3.6717082580108135e-01 0.0000000000000000e+00  2.3868467124579104e-16 -3.6717082580108096e-01 0.0000000000000000e+00  2.7714336856410713e-16 -3.6717082580108068e-01 0.0000000000000000e+00  3.0440943579173364e-16 -3.6717082580108062e-01 0.0000000000000000e+00  2.8062143290970098e-16 -3.6717082580108029e-01 0.0000000000000000e+00  2.4918503767714214e-16 -3.6717082580107979e-01 0.0000000000000000e+00  1.7513617779206818e-16 -3.6717082580107979e-01 0.0000000000000000e+00  1.0735561524230518e-16 -3.6717082580107979e-01 0.0000000000000000e+00  7.0336598348240816e-17 -3.6717082580107974e-01 0.0000000000000000e+00  1.0639903152585720e-32 -3.6717082580107990e-01 0.0000000000000000e+00  8.1250169528836567e-33 -4.0399274928098550e-01 0.0000000000000000e+00  1.7946429810755913e-16 -4.0399274928098489e-01 0.0000000000000000e+00  1.7102584987771421e-16 -4.0399274928098478e-01 0.0000000000000000e+00  2.6619766062970772e-16 -4.0399274928098422e-01 0.0000000000000000e+00  2.9749103952373991e-16 -4.0399274928098433e-01 0.0000000000000000e+00  3.2770123414301702e-16 -4.0399274928098367e-01 0.0000000000000000e+00  1.7816176616556646e-16 -4.0399274928098328e-01 0.0000000000000000e+00  1.3270931878411529e-16 -4.0399274928098344e-01 0.0000000000000000e+00  1.4528632162787284e-16 -4.0399274928098355e-01 0.0000000000000000e+00  6.3912570224547167e-17 -4.0399274928098328e-01 0.0000000000000000e+00  2.7083389842945518e-33 -4.0399274928098350e-01 0.0000000000000000e+00  9.0629305792578102e-33 -4.4084290184127989e-01 0.0000000000000000e+00  6.6476412738350553e-17 -4.4084290184127939e-01 0.0000000000000000e+00  2.3365337903795769e-16 -4.4084290184127956e-01 0.0000000000000000e+00  3.1038195756996316e-16 -4.4084290184127889e-01 0.0000000000000000e+00  4.6186890172492163e-16 -4.4084290184127845e-01 0.0000000000000000e+00  4.5855995263797425e-16 -4.4084290184127811e-01 0.0000000000000000e+00  3.8394426755219218e-16 -4.4084290184127783e-01 0.0000000000000000e+00  2.2999810863004683e-16 -4.4084290184127806e-01 0.0000000000000000e+00  1.2045542720995818e-16 -4.4084290184127811e-01 0.0000000000000000e+00  4.6010657042003819e-17 -4.4084290184127789e-01 0.0000000000000000e+00  -4.0130117678839861e-33 -4.4084290184127800e-01 0.0000000000000000e+00  9.0277966143151653e-33 -4.7772308810305120e-01 0.0000000000000000e+00  6.4780029514240824e-17 -4.7772308810305053e-01 0.0000000000000000e+00  2.5384737712903865e-16 -4.7772308810305097e-01 0.0000000000000000e+00  4.6535357505422719e-16 -4.7772308810305009e-01 0.0000000000000000e+00  4.9812453129556428e-16 -4.7772308810305036e-01 0.0000000000000000e+00  5.1922012800082754e-16 -4.7772308810304936e-01 0.0000000000000000e+00  4.5892204521608724e-16 -4.7772308810304931e-01 0.0000000000000000e+00  3.3273162051383430e-16 -4.7772308810304981e-01 0.0000000000000000e+00  1.9735722237853019e-16 -4.7772308810304948e-01 0.0000000000000000e+00  9.4917068555895223e-17 -4.7772308810304953e-01 0.0000000000000000e+00  5.6265037102108757e-33 -4.7772308810304975e-01 0.0000000000000000e+00  -1.4250690157932448e-32 -5.1463492751962758e-01 0.0000000000000000e+00  1.8333653044750338e-16 -5.1463492751962769e-01 0.0000000000000000e+00  4.0818537981164321e-16 -5.1463492751962781e-01 0.0000000000000000e+00  5.2827594134462073e-16 -5.1463492751962714e-01 0.0000000000000000e+00  4.8229126796153733e-16 -5.1463492751962681e-01 0.0000000000000000e+00  3.9214387862230461e-16 -5.1463492751962570e-01 0.0000000000000000e+00  4.2202217234763029e-16 -5.1463492751962603e-01 0.0000000000000000e+00  3.0274165527544879e-16 -5.1463492751962581e-01 0.0000000000000000e+00  1.6708878419349865e-16 -5.1463492751962581e-01 0.0000000000000000e+00  7.8049848043728304e-17 -5.1463492751962636e-01 0.0000000000000000e+00  3.3048184034546620e-33 -5.1463492751962625e-01 0.0000000000000000e+00  0.0000000000000000e+00 -5.5157984439211416e-01 0.0000000000000000e+00  2.8281312869298097e-16 -5.5157984439211394e-01 0.0000000000000000e+00  5.0473566262368282e-16 -5.5157984439211349e-01 0.0000000000000000e+00  5.8408205799740741e-16 -5.5157984439211305e-01 0.0000000000000000e+00  4.7045094622358826e-16 -5.5157984439211272e-01 0.0000000000000000e+00  4.5945500673455997e-16 -5.5157984439211205e-01 0.0000000000000000e+00  4.3452691781659083e-16 -5.5157984439211238e-01 0.0000000000000000e+00  2.5817588114304652e-16 -5.5157984439211194e-01 0.0000000000000000e+00  1.9371509550383049e-16 -5.5157984439211216e-01 0.0000000000000000e+00  1.2196046922951135e-16 -5.5157984439211216e-01 0.0000000000000000e+00  4.2882033917997000e-33 -5.5157984439211227e-01 0.0000000000000000e+00  3.7594178444535383e-32 -5.8855905908809703e-01 0.0000000000000000e+00  3.3990662785702952e-16 -5.8855905908809791e-01 0.0000000000000000e+00  4.3278750704320485e-16 -5.8855905908809691e-01 0.0000000000000000e+00  5.9995552089589425e-16 -5.8855905908809636e-01 0.0000000000000000e+00  6.4656172528146122e-16 -5.8855905908809525e-01 0.0000000000000000e+00  5.8281407936129123e-16 -5.8855905908809536e-01 0.0000000000000000e+00  4.8049927331014127e-16 -5.8855905908809514e-01 0.0000000000000000e+00  3.3819948772471477e-16 -5.8855905908809525e-01 0.0000000000000000e+00  1.7875507701124680e-16 -5.8855905908809625e-01 0.0000000000000000e+00  1.7665850336043708e-17 -5.8855905908809603e-01 0.0000000000000000e+00  -7.7940059924875573e-33 -5.8855905908809569e-01 0.0000000000000000e+00  1.9861152551493367e-32 -6.2557358051768064e-01 0.0000000000000000e+00  2.0687869697495931e-16 -6.2557358051767986e-01 0.0000000000000000e+00  4.6858792129347084e-16 -6.2557358051768042e-01 0.0000000000000000e+00  5.9988373577836799e-16 -6.2557358051767964e-01 0.0000000000000000e+00  6.8589679763526179e-16 -6.2557358051767875e-01 0.0000000000000000e+00  6.6374748086125245e-16 -6.2557358051767831e-01 0.0000000000000000e+00  5.0423243860218114e-16 -6.2557358051767809e-01 0.0000000000000000e+00  3.7043453660144632e-16 -6.2557358051767853e-01 0.0000000000000000e+00  1.7290163407503296e-16 -6.2557358051767853e-01 0.0000000000000000e+00  6.3110160348621238e-17 -6.2557358051767853e-01 0.0000000000000000e+00  1.4324219444516480e-32 -6.2557358051767942e-01 0.0000000000000000e+00  2.1779559332035335e-32 -6.6262419991321042e-01 0.0000000000000000e+00  1.0405198108306647e-16 -6.6262419991321153e-01 0.0000000000000000e+00  2.7673585071975806e-16 -6.6262419991321120e-01 0.0000000000000000e+00  5.4807008247832352e-16 -6.6262419991321042e-01 0.0000000000000000e+00  7.0916159998710240e-16 -6.6262419991320987e-01 0.0000000000000000e+00  6.4319465304006251e-16 -6.6262419991320964e-01 0.0000000000000000e+00  4.2495121627542298e-16 -6.6262419991320887e-01 0.0000000000000000e+00  2.9479698628949928e-16 -6.6262419991320887e-01 0.0000000000000000e+00  2.5123777697424124e-16 -6.6262419991320920e-01 0.0000000000000000e+00  1.0924739339393798e-16 -6.6262419991320931e-01 0.0000000000000000e+00  -7.3109031510570117e-33 -6.6262419991320953e-01 0.0000000000000000e+00  2.8888949165808560e-32 -6.9971148595107358e-01 0.0000000000000000e+00  1.8068235942592637e-16 -6.9971148595107391e-01 0.0000000000000000e+00  1.0540083760255217e-16 -6.9971148595107435e-01 0.0000000000000000e+00  1.8818418331859849e-16 -6.9971148595107413e-01 0.0000000000000000e+00  2.9680613086832882e-16 -6.9971148595107346e-01 0.0000000000000000e+00  2.8927037178443339e-16 -6.9971148595107235e-01 0.0000000000000000e+00  3.0267983672473506e-16 -6.9971148595107169e-01 0.0000000000000000e+00  2.2442671773923901e-16 -6.9971148595107169e-01 0.0000000000000000e+00  2.4906226564778194e-16 -6.9971148595107135e-01 0.0000000000000000e+00  1.7673978436486218e-16 -6.9971148595107235e-01 0.0000000000000000e+00  1.2413220344683366e-33 -6.9971148595107191e-01 0.0000000000000000e+00  -3.6111186457260650e-32 -7.3683578124561067e-01 0.0000000000000000e+00  1.2084978435419475e-16 -7.3683578124561089e-01 0.0000000000000000e+00  -2.1104409696253214e-17 -7.3683578124561100e-01 0.0000000000000000e+00  -1.3594041790134471e-16 -7.3683578124561111e-01 0.0000000000000000e+00  -3.8063317012376494e-16 -7.3683578124561022e-01 0.0000000000000000e+00  -2.5148977311748774e-16 -7.3683578124560911e-01 0.0000000000000000e+00  8.5823360294973107e-17 -7.3683578124560845e-01 0.0000000000000000e+00  2.9227189848789107e-16 -7.3683578124560856e-01 0.0000000000000000e+00  2.7867785669775673e-16 -7.3683578124560878e-01 0.0000000000000000e+00  2.2748194701966047e-16 -7.3683578124560856e-01 0.0000000000000000e+00  4.3333423748712774e-32 -7.3683578124560933e-01 0.0000000000000000e+00  1.9639793950529435e-17 -1.8335024233297657e-02 0.0000000000000000e+00  4.4317233660726562e-17 -1.8335024233297637e-02 0.0000000000000000e+00  6.2806066119507748e-17 -1.8335024233297612e-02 0.0000000000000000e+00  8.5115255760555153e-17 -1.8335024233297612e-02 0.0000000000000000e+00  8.6263753465347983e-17 -1.8335024233297612e-02 0.0000000000000000e+00  8.9135611812083320e-17 -1.8335024233297588e-02 0.0000000000000000e+00  7.2870015991795174e-17 -1.8335024233297588e-02 0.0000000000000000e+00  5.2212271834289612e-17 -1.8335024233297605e-02 0.0000000000000000e+00  3.2406009503257724e-17 -1.8335024233297602e-02 0.0000000000000000e+00  9.1079114502630322e-18 -1.8335024233297588e-02 0.0000000000000000e+00  3.3829912972754686e-17 -5.5006530211249960e-02 0.0000000000000000e+00  9.4751948889235176e-17 -5.5006530211249870e-02 0.0000000000000000e+00  1.7055350800062337e-16 -5.5006530211249828e-02 0.0000000000000000e+00  1.9792629323529133e-16 -5.5006530211249828e-02 0.0000000000000000e+00  2.2529907846995931e-16 -5.5006530211249766e-02 0.0000000000000000e+00  1.9749923689343003e-16 -5.5006530211249675e-02 0.0000000000000000e+00  1.6611169698814266e-16 -5.5006530211249655e-02 0.0000000000000000e+00  1.2212473412390317e-16 -5.5006530211249662e-02 0.0000000000000000e+00  8.5292087901745198e-17 -5.5006530211249703e-02 0.0000000000000000e+00  1.7758715897078984e-17 -5.5006530211249689e-02 0.0000000000000000e+00  4.4502116534630262e-17 -9.1682399737231052e-02 0.0000000000000000e+00  1.2040268029325219e-16 -9.1682399737231024e-02 0.0000000000000000e+00  2.2319347960575379e-16 -9.1682399737230927e-02 0.0000000000000000e+00  2.7172220186494642e-16 -9.1682399737230885e-02 0.0000000000000000e+00  2.8004464893929483e-16 -9.1682399737230774e-02 0.0000000000000000e+00  2.6498363440937058e-16 -9.1682399737230622e-02 0.0000000000000000e+00  1.9581015609449120e-16 -9.1682399737230608e-02 0.0000000000000000e+00  1.8529270005005964e-16 -9.1682399737230608e-02 0.0000000000000000e+00  8.6171516017063107e-17 -9.1682399737230608e-02 0.0000000000000000e+00  4.3320596947004547e-17 -9.1682399737230649e-02 0.0000000000000000e+00  4.4502116534630275e-17 -1.2836551194518819e-01 0.0000000000000000e+00  1.6423671140800764e-16 -1.2836551194518822e-01 0.0000000000000000e+00  2.6109425916144805e-16 -1.2836551194518808e-01 0.0000000000000000e+00  3.0320623644555264e-16 -1.2836551194518797e-01 0.0000000000000000e+00  2.9478384098873161e-16 -1.2836551194518780e-01 0.0000000000000000e+00  2.5988430356302400e-16 -1.2836551194518761e-01 0.0000000000000000e+00  2.4096828251671243e-16 -1.2836551194518750e-01 0.0000000000000000e+00  1.8108150232164957e-16 -1.2836551194518753e-01 0.0000000000000000e+00  1.0800154217394496e-16 -1.2836551194518744e-01 0.0000000000000000e+00  4.0669472974376963e-17 -1.2836551194518758e-01 0.0000000000000000e+00  6.8062060582375641e-17 -1.6505870131552550e-01 0.0000000000000000e+00  2.1473774743135273e-16 -1.6505870131552552e-01 0.0000000000000000e+00  2.4003827051939560e-16 -1.6505870131552541e-01 0.0000000000000000e+00  2.6683788024617425e-16 -1.6505870131552519e-01 0.0000000000000000e+00  2.9478384098873127e-16 -1.6505870131552508e-01 0.0000000000000000e+00  2.8812751143933585e-16 -1.6505870131552489e-01 0.0000000000000000e+00  2.5886249473916415e-16 -1.6505870131552475e-01 0.0000000000000000e+00  1.6423671140800752e-16 -1.6505870131552472e-01 0.0000000000000000e+00  9.9112518411561859e-17 -1.6505870131552469e-01 0.000