<?xml version="1.0"?>
<VTKFile type="UnstructuredGrid"  version="0.1"  >
<UnstructuredGrid>
<Piece  NumberOfPoints="431" NumberOfCells="800">
<Points>
<DataArray  type="Float64"  NumberOfComponents="3"  format="ascii">-0.25 -1 0  -0.2 -1 0  -0.15 -1 0  -0.1 -1 0  -0.04999999999999999 -1 0  0 -1 0  0.04999999999999999 -1 0  0.09999999999999998 -1 0  0.15 -1 0  0.2 -1 0  0.25 -1 0  -0.25 -0.95 0  -0.2 -0.95 0  -0.15 -0.95 0  -0.1 -0.95 0  -0.04999999999999999 -0.95 0  0 -0.95 0  0.04999999999999999 -0.95 0  0.09999999999999998 -0.95 0  0.15 -0.95 0  0.2 -0.95 0  0.25 -0.95 0  -0.25 -0.9 0  -0.2 -0.9 0  -0.15 -0.9 0  -0.1 -0.9 0  -0.04999999999999999 -0.9 0  0 -0.9 0  0.04999999999999999 -0.9 0  0.09999999999999998 -0.9 0  0.15 -0.9 0  0.2 -0.9 0  0.25 -0.9 0  -0.25 -0.85 0  -0.2 -0.85 0  -0.15 -0.85 0  -0.1 -0.85 0  -0.04999999999999999 -0.85 0  0 -0.85 0  0.04999999999999999 -0.85 0  0.09999999999999998 -0.85 0  0.15 -0.85 0  0.2 -0.85 0  0.25 -0.85 0  -0.25 -0.8 0  -0.2 -0.8 0  -0.15 -0.8 0  -0.1 -0.8 0  -0.04999999999999999 -0.8 0  0 -0.8 0  0.04999999999999999 -0.8 0  0.09999999999999998 -0.8 0  0.15 -0.8 0  0.2 -0.8 0  0.25 -0.8 0  -0.25 -0.75 0  -0.2 -0.75 0  -0.15 -0.75 0  -0.1 -0.75 0  -0.04999999999999999 -0.75 0  0 -0.75 0  0.04999999999999999 -0.75 0  0.09999999999999998 -0.75 0  0.15 -0.75 0  0.2 -0.75 0  0.25 -0.75 0  -0.25 -0.7 0  -0.2 -0.7 0  -0.15 -0.7 0  -0.1 -0.7 0  -0.04999999999999999 -0.7 0  0 -0.7 0  0.04999999999999999 -0.7 0  0.09999999999999998 -0.7 0  0.15 -0.7 0  0.2 -0.7 0  0.25 -0.7 0  -0.25 -0.65 0  -0.2 -0.65 0  -0.15 -0.65 0  -0.1 -0.65 0  -0.04999999999999999 -0.65 0  0 -0.65 0  0.04999999999999999 -0.65 0  0.09999999999999998 -0.65 0  0.15 -0.65 0  0.2 -0.65 0  0.25 -0.65 0  -0.25 -0.6 0  -0.2 -0.6 0  -0.15 -0.6 0  -0.1 -0.6 0  -0.04999999999999999 -0.6 0  0 -0.6 0  0.04999999999999999 -0.6 0  0.09999999999999998 -0.6 0  0.15 -0.6 0  0.2 -0.6 0  0.25 -0.6 0  -0.25 -0.55 0  -0.2 -0.55 0  -0.15 -0.55 0  -0.1 -0.55 0  -0.04999999999999999 -0.55 0  0 -0.55 0  0.04999999999999999 -0.55 0  0.09999999999999998 -0.55 0  0.15 -0.55 0  0.2 -0.55 0  0.25 -0.55 0  -0.25 -0.5 0  -0.2 -0.5 0  -0.15 -0.5 0  -0.1 -0.5 0  -0.04999999999999999 -0.5 0  0 -0.5 0  0.04999999999999999 -0.5 0  0.09999999999999998 -0.5 0  0.15 -0.5 0  0.2 -0.5 0  0.25 -0.5 0  -0.25 -0.45 0  -0.2 -0.45 0  -0.15 -0.45 0  -0.1 -0.45 0  -0.04999999999999999 -0.45 0  0 -0.45 0  0.04999999999999999 -0.45 0  0.09999999999999998 -0.45 0  0.15 -0.45 0  0.2 -0.45 0  0.25 -0.45 0  -0.25 -0.4 0  -0.2 -0.4 0  -0.15 -0.4 0  -0.1 -0.4 0  -0.04999999999999999 -0.4 0  0 -0.4 0  0.04999999999999999 -0.4 0  0.09999999999999998 -0.4 0  0.15 -0.4 0  0.2 -0.4 0  0.25 -0.4 0  -0.25 -0.35 0  -0.2 -0.35 0  -0.15 -0.35 0  -0.1 -0.35 0  -0.04999999999999999 -0.35 0  0 -0.35 0  0.04999999999999999 -0.35 0  0.09999999999999998 -0.35 0  0.15 -0.35 0  0.2 -0.35 0  0.25 -0.35 0  -0.25 -0.3 0  -0.2 -0.3 0  -0.15 -0.3 0  -0.1 -0.3 0  -0.04999999999999999 -0.3 0  0 -0.3 0  0.04999999999999999 -0.3 0  0.09999999999999998 -0.3 0  0.15 -0.3 0  0.2 -0.3 0  0.25 -0.3 0  -0.25 -0.25 0  -0.2 -0.25 0  -0.15 -0.25 0  -0.1 -0.25 0  -0.04999999999999999 -0.25 0  0 -0.25 0  0.04999999999999999 -0.25 0  0.09999999999999998 -0.25 0  0.15 -0.25 0  0.2 -0.25 0  0.25 -0.25 0  -0.25 -0.2 0  -0.2 -0.2 0  -0.15 -0.2 0  -0.1 -0.2 0  -0.04999999999999999 -0.2 0  0 -0.2 0  0.04999999999999999 -0.2 0  0.09999999999999998 -0.2 0  0.15 -0.2 0  0.2 -0.2 0  0.25 -0.2 0  -0.25 -0.15 0  -0.2 -0.15 0  -0.15 -0.15 0  -0.1 -0.15 0  -0.04999999999999999 -0.15 0  0 -0.15 0  0.04999999999999999 -0.15 0  0.09999999999999998 -0.15 0  0.15 -0.15 0  0.2 -0.15 0  0.25 -0.15 0  -0.25 -0.09999999999999998 0  -0.2 -0.09999999999999998 0  -0.15 -0.09999999999999998 0  -0.1 -0.09999999999999998 0  -0.04999999999999999 -0.09999999999999998 0  0 -0.09999999999999998 0  0.04999999999999999 -0.09999999999999998 0  0.09999999999999998 -0.09999999999999998 0  0.15 -0.09999999999999998 0  0.2 -0.09999999999999998 0  0.25 -0.09999999999999998 0  -0.25 -0.05000000000000004 0  -0.2 -0.05000000000000004 0  -0.15 -0.05000000000000004 0  -0.1 -0.05000000000000004 0  -0.04999999999999999 -0.05000000000000004 0  0 -0.05000000000000004 0  0.04999999999999999 -0.05000000000000004 0  0.09999999999999998 -0.05000000000000004 0  0.15 -0.05000000000000004 0  0.2 -0.05000000000000004 0  0.25 -0.05000000000000004 0  -0.25 0 0  -0.2 0 0  -0.15 0 0  -0.1 0 0  -0.04999999999999999 0 0  0 0 0  0.04999999999999999 0 0  0.09999999999999998 0 0  0.15 0 0  0.2 0 0  0.25 0 0  -0.225 -0.975 0  -0.175 -0.975 0  -0.125 -0.975 0  -0.07500000000000001 -0.975 0  -0.02499999999999999 -0.975 0  0.02500000000000002 -0.975 0  0.07500000000000001 -0.975 0  0.125 -0.975 0  0.175 -0.975 0  0.225 -0.975 0  -0.225 -0.925 0  -0.175 -0.925 0  -0.125 -0.925 0  -0.07500000000000001 -0.925 0  -0.02499999999999999 -0.925 0  0.02500000000000002 -0.925 0  0.07500000000000001 -0.925 0  0.125 -0.925 0  0.175 -0.925 0  0.225 -0.925 0  -0.225 -0.875 0  -0.175 -0.875 0  -0.125 -0.875 0  -0.07500000000000001 -0.875 0  -0.02499999999999999 -0.875 0  0.02500000000000002 -0.875 0  0.07500000000000001 -0.875 0  0.125 -0.875 0  0.175 -0.875 0  0.225 -0.875 0  -0.225 -0.825 0  -0.175 -0.825 0  -0.125 -0.825 0  -0.07500000000000001 -0.825 0  -0.02499999999999999 -0.825 0  0.02500000000000002 -0.825 0  0.07500000000000001 -0.825 0  0.125 -0.825 0  0.175 -0.825 0  0.225 -0.825 0  -0.225 -0.775 0  -0.175 -0.775 0  -0.125 -0.775 0  -0.07500000000000001 -0.775 0  -0.02499999999999999 -0.775 0  0.02500000000000002 -0.775 0  0.07500000000000001 -0.775 0  0.125 -0.775 0  0.175 -0.775 0  0.225 -0.775 0  -0.225 -0.725 0  -0.175 -0.725 0  -0.125 -0.725 0  -0.07500000000000001 -0.725 0  -0.02499999999999999 -0.725 0  0.02500000000000002 -0.725 0  0.07500000000000001 -0.725 0  0.125 -0.725 0  0.175 -0.725 0  0.225 -0.725 0  -0.225 -0.675 0  -0.175 -0.675 0  -0.125 -0.675 0  -0.07500000000000001 -0.675 0  -0.02499999999999999 -0.675 0  0.02500000000000002 -0.675 0  0.07500000000000001 -0.675 0  0.125 -0.675 0  0.175 -0.675 0  0.225 -0.675 0  -0.225 -0.625 0  -0.175 -0.625 0  -0.125 -0.625 0  -0.07500000000000001 -0.625 0  -0.02499999999999999 -0.625 0  0.02500000000000002 -0.625 0  0.07500000000000001 -0.625 0  0.125 -0.625 0  0.175 -0.625 0  0.225 -0.625 0  -0.225 -0.575 0  -0.175 -0.575 0  -0.125 -0.575 0  -0.07500000000000001 -0.575 0  -0.02499999999999999 -0.575 0  0.02500000000000002 -0.575 0  0.07500000000000001 -0.575 0  0.125 -0.575 0  0.175 -0.575 0  0.225 -0.575 0  -0.225 -0.525 0  -0.175 -0.525 0  -0.125 -0.525 0  -0.07500000000000001 -0.525 0  -0.02499999999999999 -0.525 0  0.02500000000000002 -0.525 0  0.07500000000000001 -0.525 0  0.125 -0.525 0  0.175 -0.525 0  0.225 -0.525 0  -0.225 -0.475 0  -0.175 -0.475 0  -0.125 -0.475 0  -0.07500000000000001 -0.475 0  -0.02499999999999999 -0.475 0  0.02500000000000002 -0.475 0  0.07500000000000001 -0.475 0  0.125 -0.475 0  0.175 -0.475 0  0.225 -0.475 0  -0.225 -0.425 0  -0.175 -0.425 0  -0.125 -0.425 0  -0.07500000000000001 -0.425 0  -0.02499999999999999 -0.425 0  0.02500000000000002 -0.425 0  0.07500000000000001 -0.425 0  0.125 -0.425 0  0.175 -0.425 0  0.225 -0.425 0  -0.225 -0.375 0  -0.175 -0.375 0  -0.125 -0.375 0  -0.07500000000000001 -0.375 0  -0.02499999999999999 -0.375 0  0.02500000000000002 -0.375 0  0.07500000000000001 -0.375 0  0.125 -0.375 0  0.175 -0.375 0  0.225 -0.375 0  -0.225 -0.325 0  -0.175 -0.325 0  -0.125 -0.325 0  -0.07500000000000001 -0.325 0  -0.02499999999999999 -0.325 0  0.02500000000000002 -0.325 0  0.07500000000000001 -0.325 0  0.125 -0.325 0  0.175 -0.325 0  0.225 -0.325 0  -0.225 -0.275 0  -0.175 -0.275 0  -0.125 -0.275 0  -0.07500000000000001 -0.275 0  -0.02499999999999999 -0.275 0  0.02500000000000002 -0.275 0  0.07500000000000001 -0.275 0  0.125 -0.275 0  0.175 -0.275 0  0.225 -0.275 0  -0.225 -0.225 0  -0.175 -0.225 0  -0.125 -0.225 0  -0.07500000000000001 -0.225 0  -0.02499999999999999 -0.225 0  0.02500000000000002 -0.225 0  0.07500000000000001 -0.225 0  0.125 -0.225 0  0.175 -0.225 0  0.225 -0.225 0  -0.225 -0.175 0  -0.175 -0.175 0  -0.125 -0.175 0  -0.07500000000000001 -0.175 0  -0.02499999999999999 -0.175 0  0.02500000000000002 -0.175 0  0.07500000000000001 -0.175 0  0.125 -0.175 0  0.175 -0.175 0  0.225 -0.175 0  -0.225 -0.125 0  -0.175 -0.125 0  -0.125 -0.125 0  -0.07500000000000001 -0.125 0  -0.02499999999999999 -0.125 0  0.02500000000000002 -0.125 0  0.07500000000000001 -0.125 0  0.125 -0.125 0  0.175 -0.125 0  0.225 -0.125 0  -0.225 -0.07499999999999996 0  -0.175 -0.07499999999999996 0  -0.125 -0.07499999999999996 0  -0.07500000000000001 -0.07499999999999996 0  -0.02499999999999999 -0.07499999999999996 0  0.02500000000000002 -0.07499999999999996 0  0.07500000000000001 -0.07499999999999996 0  0.125 -0.07499999999999996 0  0.175 -0.07499999999999996 0  0.225 -0.07499999999999996 0  -0.225 -0.02500000000000002 0  -0.175 -0.02500000000000002 0  -0.125 -0.02500000000000002 0  -0.07500000000000001 -0.02500000000000002 0  -0.02499999999999999 -0.02500000000000002 0  0.02500000000000002 -0.02500000000000002 0  0.07500000000000001 -0.02500000000000002 0  0.125 -0.02500000000000002 0  0.175 -0.02500000000000002 0  0.225 -0.02500000000000002 0  </DataArray>
</Points>
<Cells>
[...]
<PointData  Vectors="displacement"> 
<DataArray  type="Float64"  Name="displacement"  NumberOfComponents="3" format="ascii">-2.2569491535787916e-34 -7.1150767569361167e-18 0.0000000000000000e+00  -9.0277966143151578e-34 -3.0493186101154778e-18 0.0000000000000000e+00  4.9018114429289341e-33 2.3922063315033537e-18 0.0000000000000000e+00  1.2638915260041224e-32 -5.0821976835257982e-18 0.0000000000000000e+00  5.4149624436505548e-33 1.0233699458167244e-18 0.0000000000000000e+00  -1.8055593228630316e-33 -2.7952087259391880e-18 0.0000000000000000e+00  -3.3281183807655989e-34 1.3444993676436902e-18 0.0000000000000000e+00  -5.8680677993048524e-33 -1.7787691892340288e-18 0.0000000000000000e+00  1.0821602003487471e-32 -5.5904174518783761e-18 0.0000000000000000e+00  -9.0277966143151612e-34 3.0493186101154789e-18 0.0000000000000000e+00  -9.0277966143151561e-34 -7.1150767569361136e-18 0.0000000000000000e+00  9.0277966143151749e-34 -3.1701168655131930e-02 0.0000000000000000e+00  5.5194558461117142e-17 -3.1701168655131909e-02 0.0000000000000000e+00  8.3279386851788797e-17 -3.1701168655131895e-02 0.0000000000000000e+00  9.5436113795687312e-17 -3.1701168655131867e-02 0.0000000000000000e+00  1.1662768149806812e-16 -3.1701168655131846e-02 0.0000000000000000e+00  1.3247064488217496e-16 -3.1701168655131819e-02 0.0000000000000000e+00  1.2209029675690234e-16 -3.1701168655131812e-02 0.0000000000000000e+00  8.0861941372678796e-17 -3.1701168655131777e-02 0.0000000000000000e+00  4.9686516507344736e-17 -3.1701168655131756e-02 0.0000000000000000e+00  1.6142924625186936e-17 -3.1701168655131791e-02 0.0000000000000000e+00  1.9747658058772340e-33 -3.1701168655131791e-02 0.0000000000000000e+00  2.7744977528850791e-33 -6.3435887121525647e-02 0.0000000000000000e+00  6.3364750865491584e-17 -6.3435887121525619e-02 0.0000000000000000e+00  1.2705645680833843e-16 -6.3435887121525592e-02 0.0000000000000000e+00  1.5155611824574251e-16 -6.3435887121525522e-02 0.0000000000000000e+00  1.9150779765634376e-16 -6.3435887121525467e-02 0.0000000000000000e+00  2.0072716267323756e-16 -6.3435887121525453e-02 0.0000000000000000e+00  1.7208685576887189e-16 -6.3435887121525383e-02 0.0000000000000000e+00  1.3583175342454169e-16 -6.3435887121525300e-02 0.0000000000000000e+00  8.4516439167026477e-17 -6.3435887121525369e-02 0.0000000000000000e+00  4.6561776752053161e-17 -6.3435887121525314e-02 0.0000000000000000e+00  -5.4166779685890988e-33 -6.3435887121525383e-02 0.0000000000000000e+00  1.8055593228630329e-33 -9.5237498365131804e-02 0.0000000000000000e+00  7.3718860593249163e-17 -9.5237498365131706e-02 0.0000000000000000e+00  1.4653772822675712e-16 -9.5237498365131734e-02 0.0000000000000000e+00  2.1276771022623584e-16 -9.5237498365131637e-02 0.0000000000000000e+00  2.1549436192515482e-16 -9.5237498365131595e-02 0.0000000000000000e+00  2.2490050416227214e-16 -9.5237498365131415e-02 0.0000000000000000e+00  1.8220245171412208e-16 -9.5237498365131373e-02 0.0000000000000000e+00  1.5614685250863202e-16 -9.5237498365131304e-02 0.0000000000000000e+00  1.2107193468989413e-16 -9.5237498365131318e-02 0.0000000000000000e+00  6.7878971424784823e-17 -9.5237498365131359e-02 0.0000000000000000e+00  0.0000000000000000e+00 -9.5237498365131262e-02 0.0000000000000000e+00  1.2787051734449572e-32 -1.2713893293652426e-01 0.0000000000000000e+00  1.1631957837450939e-16 -1.2713893293652445e-01 0.0000000000000000e+00  1.7564863977525092e-16 -1.2713893293652431e-01 0.0000000000000000e+00  2.0559257659673406e-16 -1.2713893293652428e-01 0.0000000000000000e+00  2.3219867474454677e-16 -1.2713893293652409e-01 0.0000000000000000e+00  2.1813216983247337e-16 -1.2713893293652406e-01 0.0000000000000000e+00  1.9760669340457711e-16 -1.2713893293652384e-01 0.0000000000000000e+00  1.4642137101559047e-16 -1.2713893293652387e-01 0.0000000000000000e+00  1.4690192950439476e-16 -1.2713893293652373e-01 0.0000000000000000e+00  7.7724591625957581e-17 -1.2713893293652379e-01 0.0000000000000000e+00  1.9774060531728782e-33 -1.2713893293652373e-01 0.0000000000000000e+00  1.0833355937178193e-32 -1.5917250594346835e-01 0.0000000000000000e+00  1.1924142390814852e-16 -1.5917250594346827e-01 0.0000000000000000e+00  1.5831236460120529e-16 -1.5917250594346824e-01 0.0000000000000000e+00  2.3055824596892365e-16 -1.5917250594346796e-01 0.0000000000000000e+00  2.5943986004977304e-16 -1.5917250594346796e-01 0.0000000000000000e+00  2.5946743330331779e-16 -1.5917250594346766e-01 0.0000000000000000e+00  2.4831907854868105e-16 -1.5917250594346755e-01 0.0000000000000000e+00  2.0549798914775780e-16 -1.5917250594346746e-01 0.0000000000000000e+00  1.3446281496642140e-16 -1.5917250594346741e-01 0.0000000000000000e+00  5.3534728130777960e-17 -1.5917250594346735e-01 0.0000000000000000e+00  -2.4058542243377975e-33 -1.5917250594346724e-01 0.0000000000000000e+00  -5.3884888659902591e-33 -1.9136971781782777e-01 0.0000000000000000e+00  1.2087965924593199e-16 -1.9136971781782763e-01 0.0000000000000000e+00  1.8506710016883800e-16 -1.9136971781782749e-01 0.0000000000000000e+00  2.6417262555699376e-16 -1.9136971781782736e-01 0.0000000000000000e+00  2.9230224232274441e-16 -1.9136971781782722e-01 0.0000000000000000e+00  2.9168652345809809e-16 -1.9136971781782708e-01 0.0000000000000000e+00  2.4567010625333869e-16 -1.9136971781782683e-01 0.0000000000000000e+00  2.2276147532515848e-16 -1.9136971781782669e-01 0.0000000000000000e+00  1.4263920030616859e-16 -1.9136971781782650e-01 0.0000000000000000e+00  4.5465699684770751e-17 -1.9136971781782652e-01 0.0000000000000000e+00  -2.9662760304178408e-33 -1.9136971781782652e-01 0.0000000000000000e+00  5.4166779685890995e-33 -2.2376106010514218e-01 0.0000000000000000e+00  1.0163319362874549e-16 -2.2376106010514191e-01 0.0000000000000000e+00  2.1284515062517481e-16 -2.2376106010514196e-01 0.0000000000000000e+00  2.8671509058707418e-16 -2.2376106010514155e-01 0.0000000000000000e+00  3.7013420033767649e-16 -2.2376106010514135e-01 0.0000000000000000e+00  3.3609615712456811e-16 -2.2376106010514113e-01 0.0000000000000000e+00  2.6433690262919800e-16 -2.2376106010514099e-01 0.0000000000000000e+00  2.0417621500991940e-16 -2.2376106010514077e-01 0.0000000000000000e+00  1.4874551976187000e-16 -2.2376106010514088e-01 0.0000000000000000e+00  8.6361933777879019e-17 -2.2376106010514057e-01 0.0000000000000000e+00  1.6250033905767297e-32 -2.2376106010514085e-01 0.0000000000000000e+00  5.4686859041760375e-33 -2.5637582747422633e-01 0.0000000000000000e+00  7.0945890701184365e-17 -2.5637582747422627e-01 0.0000000000000000e+00  1.9890389270482601e-16 -2.5637582747422594e-01 0.0000000000000000e+00  3.2300262576196784e-16 -2.5637582747422560e-01 0.0000000000000000e+00  3.6445895339908741e-16 -2.5637582747422549e-01 0.0000000000000000e+00  3.4635221316644729e-16 -2.5637582747422527e-01 0.0000000000000000e+00  2.8299255445322613e-16 -2.5637582747422466e-01 0.0000000000000000e+00  2.1078950369889366e-16 -2.5637582747422505e-01 0.0000000000000000e+00  1.7536513040239363e-16 -2.5637582747422494e-01 0.0000000000000000e+00  1.2314880593362919e-16 -2.5637582747422483e-01 0.0000000000000000e+00  -9.6434197986172343e-33 -2.5637582747422477e-01 0.0000000000000000e+00  -3.6111186457260700e-33 -2.8924193710581236e-01 0.0000000000000000e+00  1.0760175091672198e-16 -2.8924193710581220e-01 0.0000000000000000e+00  2.5098103961273339e-16 -2.8924193710581209e-01 0.0000000000000000e+00  2.9056626990003381e-16 -2.8924193710581175e-01 0.0000000000000000e+00  2.5252146378177935e-16 -2.8924193710581142e-01 0.0000000000000000e+00  2.6791451159026270e-16 -2.8924193710581092e-01 0.0000000000000000e+00  2.7237131557412896e-16 -2.8924193710581048e-01 0.0000000000000000e+00  2.8178952299364399e-16 -2.8924193710581070e-01 0.0000000000000000e+00  2.4396363058389893e-16 -2.8924193710581075e-01 0.0000000000000000e+00  1.3971803806561843e-16 -2.8924193710581070e-01 0.0000000000000000e+00  -1.6659105939853472e-32 -2.8924193710581081e-01 0.0000000000000000e+00  -7.2053523650568473e-33 -3.2238575657376278e-01 0.0000000000000000e+00  1.5763764262488180e-16 -3.2238575657376306e-01 0.0000000000000000e+00  2.4906226564778209e-16 -3.2238575657376245e-01 0.0000000000000000e+00  2.7318226824323765e-16 -3.2238575657376201e-01 0.0000000000000000e+00  2.4906226564778189e-16 -3.2238575657376178e-01 0.0000000000000000e+00  2.5230169906790258e-16 -3.2238575657376156e-01 0.0000000000000000e+00  3.1425708434351886e-16 -3.2238575657376117e-01 0.0000000000000000e+00  2.5223747910859664e-16 -3.2238575657376123e-01 0.0000000000000000e+00  1.9783358203136150e-16 -3.2238575657376117e-01 0.0000000000000000e+00  1.2445516730756787e-16 -3.2238575657376095e-01 0.0000000000000000e+00  1.5476222767397415e-32 -3.2238575657376117e-01 0.0000000000000000e+00  -1.1736135598609727e-32 -3.5583194128002771e-01 0.0000000000000000e+00  1.6853849474522729e-16 -3.5583194128002726e-01 0.0000000000000000e+00  1.6327701414230261e-16 -3.5583194128002704e-01 0.0000000000000000e+00  2.8536791997495896e-16 -3.5583194128002676e-01 0.0000000000000000e+00  3.3900141713170335e-16 -3.5583194128002610e-01 0.0000000000000000e+00  3.5338560579078105e-16 -3.5583194128002610e-01 0.0000000000000000e+00  2.7690377430607642e-16 -3.5583194128002554e-01 0.0000000000000000e+00  2.9486584579156306e-16 -3.5583194128002571e-01 0.0000000000000000e+00  2.4906226564778189e-16 -3.5583194128002599e-01 0.0000000000000000e+00  9.6779926499246327e-17 -3.5583194128002560e-01 0.0000000000000000e+00  -1.4444474582904277e-32 -3.5583194128002560e-01 0.0000000000000000e+00  3.2756757206845799e-33 -3.8960328244562276e-01 0.0000000000000000e+00  8.3420826027827970e-17 -3.8960328244562198e-01 0.0000000000000000e+00  2.3210408729557036e-16 -3.8960328244562181e-01 0.0000000000000000e+00  2.7949239923278696e-16 -3.8960328244562109e-01 0.0000000000000000e+00  4.7050691925810845e-16 -3.8960328244562076e-01 0.0000000000000000e+00  5.1671772126579838e-16 -3.8960328244562065e-01 0.0000000000000000e+00  4.4998701061212252e-16 -3.8960328244562054e-01 0.0000000000000000e+00  3.1336580487199713e-16 -3.8960328244562048e-01 0.0000000000000000e+00  1.8712099906089885e-16 -3.8960328244562070e-01 0.0000000000000000e+00  1.1124891565673803e-16 -3.8960328244562048e-01 0.0000000000000000e+00  3.6182471793249810e-32 -3.8960328244562087e-01 0.0000000000000000e+00  1.6250033905767297e-32 -4.2372056659483198e-01 0.0000000000000000e+00  4.2865521595375981e-17 -4.2372056659483170e-01 0.0000000000000000e+00  2.0314681541605694e-16 -4.2372056659483143e-01 0.0000000000000000e+00  4.0074438527560219e-16 -4.2372056659483120e-01 0.0000000000000000e+00  5.2925731450153737e-16 -4.2372056659483098e-01 0.0000000000000000e+00  5.9768587854425000e-16 -4.2372056659483026e-01 0.0000000000000000e+00  5.5001588142869717e-16 -4.2372056659483021e-01 0.0000000000000000e+00  4.0267228278558523e-16 -4.2372056659483009e-01 0.0000000000000000e+00  2.4953415928866314e-16 -4.2372056659483043e-01 0.0000000000000000e+00  1.3378378063593057e-16 -4.2372056659483026e-01 0.0000000000000000e+00  -2.6275825223930576e-32 -4.2372056659483026e-01 0.0000000000000000e+00  -1.0657282790571625e-32 -4.5820244739898081e-01 0.0000000000000000e+00  1.6260941982296174e-16 -4.5820244739898086e-01 0.0000000000000000e+00  3.2516462459571549e-16 -4.5820244739898081e-01 0.0000000000000000e+00  4.2807717887494971e-16 -4.5820244739898058e-01 0.0000000000000000e+00  4.3385911596240195e-16 -4.5820244739897992e-01 0.0000000000000000e+00  4.8318301644917372e-16 -4.5820244739897958e-01 0.0000000000000000e+00  5.6039009770750967e-16 -4.5820244739897970e-01 0.0000000000000000e+00  5.3538183713545525e-16 -4.5820244739897936e-01 0.0000000000000000e+00  3.2470235838319511e-16 -4.5820244739897925e-01 0.0000000000000000e+00  9.2803347007309539e-17 -4.5820244739897931e-01 0.0000000000000000e+00  8.6408910451302382e-33 -4.5820244739897925e-01 0.0000000000000000e+00  2.5277830520082449e-32 -4.9306533066992025e-01 0.0000000000000000e+00  2.3749787962445143e-16 -4.9306533066992075e-01 0.0000000000000000e+00  3.8201849940712110e-16 -4.9306533066992037e-01 0.0000000000000000e+00  4.6883855285802542e-16 -4.9306533066992009e-01 0.0000000000000000e+00  5.1196132383155185e-16 -4.9306533066991975e-01 0.0000000000000000e+00  5.1876956771010524e-16 -4.9306533066991909e-01 0.0000000000000000e+00  5.8614152550189817e-16 -4.9306533066991920e-01 0.0000000000000000e+00  4.8306712033283521e-16 -4.9306533066991876e-01 0.0000000000000000e+00  3.3900141713170316e-16 -4.9306533066991881e-01 0.0000000000000000e+00  1.7757890060230597e-16 -4.9306533066991876e-01 0.0000000000000000e+00  5.4166779685890947e-33 -4.9306533066991881e-01 0.0000000000000000e+00  3.4158190441677664e-32 -5.2832327321230832e-01 0.0000000000000000e+00  2.8287835207808724e-16 -5.2832327321230832e-01 0.0000000000000000e+00  3.8478160184653526e-16 -5.2832327321230810e-01 0.0000000000000000e+00  5.5741734931110570e-16 -5.2832327321230765e-01 0.0000000000000000e+00  6.0430891972027185e-16 -5.2832327321230754e-01 0.0000000000000000e+00  6.1195376989240226e-16 -5.2832327321230677e-01 0.0000000000000000e+00  4.9997266256201712e-16 -5.2832327321230654e-01 0.0000000000000000e+00  3.9173626498119391e-16 -5.2832327321230677e-01 0.0000000000000000e+00  3.2727257345861975e-16 -5.2832327321230665e-01 0.0000000000000000e+00  1.5325151959939037e-16 -5.2832327321230632e-01 0.0000000000000000e+00  1.6545116360187046e-32 -5.2832327321230654e-01 0.0000000000000000e+00  -7.2222372914521331e-33 -5.6398789615831635e-01 0.0000000000000000e+00  1.9355808851146928e-16 -5.6398789615831557e-01 0.0000000000000000e+00  4.9682736559909707e-16 -5.6398789615831579e-01 0.0000000000000000e+00  5.7782121330460388e-16 -5.6398789615831502e-01 0.0000000000000000e+00  5.8619781548129798e-16 -5.6398789615831535e-01 0.0000000000000000e+00  5.6717313682553835e-16 -5.6398789615831457e-01 0.0000000000000000e+00  4.5613417052356591e-16 -5.6398789615831435e-01 0.0000000000000000e+00  3.6138655036894095e-16 -5.6398789615831368e-01 0.0000000000000000e+00  2.2742876481758997e-16 -5.6398789615831357e-01 0.0000000000000000e+00  1.0534389831387959e-16 -5.6398789615831380e-01 0.0000000000000000e+00  2.1146676158206240e-32 -5.6398789615831402e-01 0.0000000000000000e+00  2.4487898316329885e-32 -6.0006831331910460e-01 0.0000000000000000e+00  1.1494583748734113e-16 -6.0006831331910493e-01 0.0000000000000000e+00  2.3522547311179433e-16 -6.0006831331910471e-01 0.0000000000000000e+00  4.4345298578715923e-16 -6.0006831331910415e-01 0.0000000000000000e+00  5.0443687115220338e-16 -6.0006831331910349e-01 0.0000000000000000e+00  4.7650454295808327e-16 -6.0006831331910282e-01 0.0000000000000000e+00  3.4314130708601329e-16 -6.0006831331910249e-01 0.0000000000000000e+00  2.1849700713566851e-16 -6.0006831331910204e-01 0.0000000000000000e+00  1.4254328560755505e-16 -6.0006831331910282e-01 0.0000000000000000e+00  5.8361421041694453e-17 -6.0006831331910226e-01 0.0000000000000000e+00  -1.5153801459743308e-32 -6.0006831331910271e-01 0.0000000000000000e+00  -1.0833355937178210e-32 -6.3657107499483068e-01 0.0000000000000000e+00  9.6503949811439422e-17 -6.3657107499483090e-01 0.0000000000000000e+00  2.3485884620581831e-17 -6.3657107499483034e-01 0.0000000000000000e+00  9.3228488691079907e-17 -6.3657107499483034e-01 0.0000000000000000e+00  2.1058507740273013e-16 -6.3657107499482957e-01 0.0000000000000000e+00  1.2242293272715414e-16 -6.3657107499482868e-01 0.0000000000000000e+00  1.4701592069487142e-16 -6.3657107499482812e-01 0.0000000000000000e+00  1.5155033364371084e-16 -6.3657107499482868e-01 0.0000000000000000e+00  1.6604151043185466e-16 -6.3657107499482801e-01 0.0000000000000000e+00  9.5984138914539526e-17 -6.3657107499482857e-01 0.0000000000000000e+00  -1.5347254244335797e-32 -6.3657107499482890e-01 0.0000000000000000e+00  1.7152813567198808e-32 -6.7350012758962408e-01 0.0000000000000000e+00  -7.2222372914521276e-33 -6.7350012758962363e-01 0.0000000000000000e+00  -1.5901643659441228e-16 -6.7350012758962419e-01 0.0000000000000000e+00  -2.7188083580268928e-16 -6.7350012758962419e-01 0.0000000000000000e+00  -4.8938550444484079e-16 -6.7350012758962297e-01 0.0000000000000000e+00  -3.8743019101883238e-16 -6.7350012758962274e-01 0.0000000000000000e+00  -1.2908550219209155e-16 -6.7350012758962152e-01 0.0000000000000000e+00  1.0875233432107572e-16 -6.7350012758962130e-01 0.0000000000000000e+00  1.9711360595694976e-16 -6.7350012758962174e-01 0.0000000000000000e+00  2.5591719039711814e-16 -6.7350012758962197e-01 0.0000000000000000e+00  -1.4444474582904258e-32 -6.7350012758962208e-01 0.0000000000000000e+00  1.7830594017433383e-17 -1.5848406819314601e-02 0.0000000000000000e+00  3.9526425736523406e-17 -1.5848406819314577e-02 0.0000000000000000e+00  4.3131876732674010e-17 -1.5848406819314584e-02 0.0000000000000000e+00  6.0133315130896563e-17 -1.5848406819314580e-02 0.0000000000000000e+00  6.5076164894911638e-17 -1.5848406819314560e-02 0.0000000000000000e+00  6.7689373820965519e-17 -1.5848406819314560e-02 0.0000000000000000e+00  5.5588248167643554e-17 -1.5848406819314546e-02 0.0000000000000000e+00  3.4808181222859715e-17 -1.5848406819314535e-02 0.0000000000000000e+00  1.7523500954468608e-17 -1.5848406819314528e-02 0.0000000000000000e+00  1.4858828347861161e-18 -1.5848406819314532e-02 0.0000000000000000e+00  2.9353343093166801e-17 -4.7562008788608875e-02 0.0000000000000000e+00  9.0540751160824736e-17 -4.7562008788608771e-02 0.0000000000000000e+00  1.1896633582759534e-16 -4.7562008788608778e-02 0.0000000000000000e+00  1.3896952503754498e-16 -4.7562008788608716e-02 0.0000000000000000e+00  1.6950070856852084e-16 -4.7562008788608688e-02 0.0000000000000000e+00  1.6493692876749401e-16 -4.7562008788608640e-02 0.0000000000000000e+00  1.3020666691321539e-16 -4.7562008788608612e-02 0.0000000000000000e+00  8.6329553432414309e-17 -4.7562008788608577e-02 0.0000000000000000e+00  4.9028294742475880e-17 -4.7562008788608570e-02 0.0000000000000000e+00  1.2581205842697563e-17 -4.7562008788608612e-02 0.0000000000000000e+00  4.1884344973769675e-17 -7.9325872244474502e-02 0.0000000000000000e+00  1.0021907102978396e-16 -7.9325872244474405e-02 0.0000000000000000e+00  1.6634231027221274e-16 -7.9325872244474308e-02 0.0000000000000000e+00  1.8795025486569328e-16 -7.9325872244474224e-02 0.0000000000000000e+00  2.2529907846995901e-16 -7.9325872244474169e-02 0.0000000000000000e+00  2.0532784561210044e-16 -7.9325872244474058e-02 0.0000000000000000e+00  1.6168755028234978e-16 -7.9325872244474044e-02 0.0000000000000000e+00  1.2212473412390300e-16 -7.9325872244474002e-02 0.0000000000000000e+00  8.4355554496745301e-17 -7.9325872244473961e-02 0.0000000000000000e+00  3.3739841917959459e-17 -7.9325872244474030e-02 0.0000000000000000e+00  4.4502116534630305e-17 -1.1117316046467933e-01 0.0000000000000000e+00  1.3265272844492929e-16 -1.1117316046467930e-01 0.0000000000000000e+00  1.8950389777847050e-16 -1.1117316046467923e-01 0.0000000000000000e+00  2.2529907846995951e-16 -1.1117316046467902e-01 0.0000000000000000e+00  2.2108788074154882e-16 -1.1117316046467900e-01 0.0000000000000000e+00  2.0817595958059347e-16 -1.1117316046467884e-01 0.0000000000000000e+00  1.6389361159230344e-16 -1.1117316046467877e-01 0.0000000000000000e+00  1.5581431595118696e-16 -1.1117316046467869e-01 0.0000000000000000e+00  1.0673664461092264e-16 -1.1117316046467869e-01 0.0000000000000000e+00  3.9677974822520717e-17 -1.1117316046467865e-01 0.0000000000000000e+00  6.8062060582375690e-17 -1.4313652238660490e-01 0.0000000000000000e+00  1.6160768488338284e-16 -1.4313652238660485e-01 0.0000000000000000e+00  1.8950389777847020e-16 -1.4313652238660474e-01 0.0000000000000000e+00  2.3339126668886087e-16 -1.4313652238660460e-01 0.0000000000000000e+00  2.5267186370462687e-16 -1.4313652238660446e-01 0.0000000000000000e+00  2.4042116362893988e-16 -1.4313652238660432e-01 0.0000000000000000e+00  1.9321909889845179e-16 -1.4313652238660426e-01 0.0000000000000000e+00  1.5581431595118664e-16 -1.4313652238660429e-01 0.0000000000000000e+00  1.3889564695186660e-16 -1.431365223866041