<?xml version="1.0"?>
<VTKFile type="UnstructuredGrid"  version="0.1"  >
<UnstructuredGrid>
<Piece  NumberOfPoints="1876" NumberOfCells="3600">
<Points>
<DataArray  type="Float64"  NumberOfComponents="3"  format="ascii">-0.75 -3 0  -0.65 -3 0  -0.55 -3 0  -0.45 -3 0  -0.35 -3 0  -0.25 -3 0  -0.15 -3 0  -0.05000000000000004 -3 0  0.05000000000000004 -3 0  0.15 -3 0  0.25 -3 0  0.3500000000000001 -3 0  0.45 -3 0  0.55 -3 0  0.6499999999999999 -3 0  0.75 -3 0  -0.75 -2.95 0  -0.65 -2.95 0  -0.55 -2.95 0  -0.45 -2.95 0  -0.35 -2.95 0  -0.25 -2.95 0  -0.15 -2.95 0  -0.05000000000000004 -2.95 0  0.05000000000000004 -2.95 0  0.15 -2.95 0  0.25 -2.95 0  0.3500000000000001 -2.95 0  0.45 -2.95 0  0.55 -2.95 0  0.6499999999999999 -2.95 0  0.75 -2.95 0  -0.75 -2.9 0  -0.65 -2.9 0  -0.55 -2.9 0  -0.45 -2.9 0  -0.35 -2.9 0  -0.25 -2.9 0  -0.15 -2.9 0  -0.05000000000000004 -2.9 0  0.05000000000000004 -2.9 0  0.15 -2.9 0  0.25 -2.9 0  0.3500000000000001 -2.9 0  0.45 -2.9 0  0.55 -2.9 0  0.6499999999999999 -2.9 0  0.75 -2.9 0  -0.75 -2.85 0  -0.65 -2.85 0  -0.55 -2.85 0  -0.45 -2.85 0  -0.35 -2.85 0  -0.25 -2.85 0  -0.15 -2.85 0  -0.05000000000000004 -2.85 0  0.05000000000000004 -2.85 0  0.15 -2.85 0  0.25 -2.85 0  0.3500000000000001 -2.85 0  0.45 -2.85 0  0.55 -2.85 0  0.6499999999999999 -2.85 0  0.75 -2.85 0  -0.75 -2.8 0  -0.65 -2.8 0  -0.55 -2.8 0  -0.45 -2.8 0  -0.35 -2.8 0  -0.25 -2.8 0  -0.15 -2.8 0  -0.05000000000000004 -2.8 0  0.05000000000000004 -2.8 0  0.15 -2.8 0  0.25 -2.8 0  0.3500000000000001 -2.8 0  0.45 -2.8 0  0.55 -2.8 0  0.6499999999999999 -2.8 0  0.75 -2.8 0  -0.75 -2.75 0  -0.65 -2.75 0  -0.55 -2.75 0  -0.45 -2.75 0  -0.35 -2.75 0  -0.25 -2.75 0  -0.15 -2.75 0  -0.05000000000000004 -2.75 0  0.05000000000000004 -2.75 0  0.15 -2.75 0  0.25 -2.75 0  0.3500000000000001 -2.75 0  0.45 -2.75 0  0.55 -2.75 0  0.6499999999999999 -2.75 0  0.75 -2.75 0  -0.75 -2.7 0  -0.65 -2.7 0  -0.55 -2.7 0  -0.45 -2.7 0  -0.35 -2.7 0  -0.25 -2.7 0  -0.15 -2.7 0  -0.05000000000000004 -2.7 0  0.05000000000000004 -2.7 0  0.15 -2.7 0  0.25 -2.7 0  0.3500000000000001 -2.7 0  0.45 -2.7 0  0.55 -2.7 0  0.6499999999999999 -2.7 0  0.75 -2.7 0  -0.75 -2.65 0  -0.65 -2.65 0  -0.55 -2.65 0  -0.45 -2.65 0  -0.35 -2.65 0  -0.25 -2.65 0  -0.15 -2.65 0  -0.05000000000000004 -2.65 0  0.05000000000000004 -2.65 0  0.15 -2.65 0  0.25 -2.65 0  0.3500000000000001 -2.65 0  0.45 -2.65 0  0.55 -2.65 0  0.6499999999999999 -2.65 0  0.75 -2.65 0  -0.75 -2.6 0  -0.65 -2.6 0  -0.55 -2.6 0  -0.45 -2.6 0  -0.35 -2.6 0  -0.25 -2.6 0  -0.15 -2.6 0  -0.05000000000000004 -2.6 0  0.05000000000000004 -2.6 0  0.15 -2.6 0  0.25 -2.6 0  0.3500000000000001 -2.6 0  0.45 -2.6 0  0.55 -2.6 0  0.6499999999999999 -2.6 0  0.75 -2.6 0  -0.75 -2.55 0  -0.65 -2.55 0  -0.55 -2.55 0  -0.45 -2.55 0  -0.35 -2.55 0  -0.25 -2.55 0  -0.15 -2.55 0  -0.05000000000000004 -2.55 0  0.05000000000000004 -2.55 0  0.15 -2.55 0  0.25 -2.55 0  0.3500000000000001 -2.55 0  0.45 -2.55 0  0.55 -2.55 0  0.6499999999999999 -2.55 0  0.75 -2.55 0  -0.75 -2.5 0  -0.65 -2.5 0  -0.55 -2.5 0  -0.45 -2.5 0  -0.35 -2.5 0  -0.25 -2.5 0  -0.15 -2.5 0  -0.05000000000000004 -2.5 0  0.05000000000000004 -2.5 0  0.15 -2.5 0  0.25 -2.5 0  0.3500000000000001 -2.5 0  0.45 -2.5 0  0.55 -2.5 0  0.6499999999999999 -2.5 0  0.75 -2.5 0  -0.75 -2.45 0  -0.65 -2.45 0  -0.55 -2.45 0  -0.45 -2.45 0  -0.35 -2.45 0  -0.25 -2.45 0  -0.15 -2.45 0  -0.05000000000000004 -2.45 0  0.05000000000000004 -2.45 0  0.15 -2.45 0  0.25 -2.45 0  0.3500000000000001 -2.45 0  0.45 -2.45 0  0.55 -2.45 0  0.6499999999999999 -2.45 0  0.75 -2.45 0  -0.75 -2.4 0  -0.65 -2.4 0  -0.55 -2.4 0  -0.45 -2.4 0  -0.35 -2.4 0  -0.25 -2.4 0  -0.15 -2.4 0  -0.05000000000000004 -2.4 0  0.05000000000000004 -2.4 0  0.15 -2.4 0  0.25 -2.4 0  0.3500000000000001 -2.4 0  0.45 -2.4 0  0.55 -2.4 0  0.6499999999999999 -2.4 0  0.75 -2.4 0  -0.75 -2.35 0  -0.65 -2.35 0  -0.55 -2.35 0  -0.45 -2.35 0  -0.35 -2.35 0  -0.25 -2.35 0  -0.15 -2.35 0  -0.05000000000000004 -2.35 0  0.05000000000000004 -2.35 0  0.15 -2.35 0  0.25 -2.35 0  0.3500000000000001 -2.35 0  0.45 -2.35 0  0.55 -2.35 0  0.6499999999999999 -2.35 0  0.75 -2.35 0  -0.75 -2.3 0  -0.65 -2.3 0  -0.55 -2.3 0  -0.45 -2.3 0  -0.35 -2.3 0  -0.25 -2.3 0  -0.15 -2.3 0  -0.05000000000000004 -2.3 0  0.05000000000000004 -2.3 0  0.15 -2.3 0  0.25 -2.3 0  0.3500000000000001 -2.3 0  0.45 -2.3 0  0.55 -2.3 0  0.6499999999999999 -2.3 0  0.75 -2.3 0  -0.75 -2.25 0  -0.65 -2.25 0  -0.55 -2.25 0  -0.45 -2.25 0  -0.35 -2.25 0  -0.25 -2.25 0  -0.15 -2.25 0  -0.05000000000000004 -2.25 0  0.05000000000000004 -2.25 0  0.15 -2.25 0  0.25 -2.25 0  0.3500000000000001 -2.25 0  0.45 -2.25 0  0.55 -2.25 0  0.6499999999999999 -2.25 0  0.75 -2.25 0  -0.75 -2.2 0  -0.65 -2.2 0  -0.55 -2.2 0  -0.45 -2.2 0  -0.35 -2.2 0  -0.25 -2.2 0  -0.15 -2.2 0  -0.05000000000000004 -2.2 0  0.05000000000000004 -2.2 0  0.15 -2.2 0  0.25 -2.2 0  0.3500000000000001 -2.2 0  0.45 -2.2 0  0.55 -2.2 0  0.6499999999999999 -2.2 0  0.75 -2.2 0  -0.75 -2.15 0  -0.65 -2.15 0  -0.55 -2.15 0  -0.45 -2.15 0  -0.35 -2.15 0  -0.25 -2.15 0  -0.15 -2.15 0  -0.05000000000000004 -2.15 0  0.05000000000000004 -2.15 0  0.15 -2.15 0  0.25 -2.15 0  0.3500000000000001 -2.15 0  0.45 -2.15 0  0.55 -2.15 0  0.6499999999999999 -2.15 0  0.75 -2.15 0  -0.75 -2.1 0  -0.65 -2.1 0  -0.55 -2.1 0  -0.45 -2.1 0  -0.35 -2.1 0  -0.25 -2.1 0  -0.15 -2.1 0  -0.05000000000000004 -2.1 0  0.05000000000000004 -2.1 0  0.15 -2.1 0  0.25 -2.1 0  0.3500000000000001 -2.1 0  0.45 -2.1 0  0.55 -2.1 0  0.6499999999999999 -2.1 0  0.75 -2.1 0  -0.75 -2.05 0  -0.65 -2.05 0  -0.55 -2.05 0  -0.45 -2.05 0  -0.35 -2.05 0  -0.25 -2.05 0  -0.15 -2.05 0  -0.05000000000000004 -2.05 0  0.05000000000000004 -2.05 0  0.15 -2.05 0  0.25 -2.05 0  0.3500000000000001 -2.05 0  0.45 -2.05 0  0.55 -2.05 0  0.6499999999999999 -2.05 0  0.75 -2.05 0  -0.75 -2 0  -0.65 -2 0  -0.55 -2 0  -0.45 -2 0  -0.35 -2 0  -0.25 -2 0  -0.15 -2 0  -0.05000000000000004 -2 0  0.05000000000000004 -2 0  0.15 -2 0  0.25 -2 0  0.3500000000000001 -2 0  0.45 -2 0  0.55 -2 0  0.6499999999999999 -2 0  0.75 -2 0  -0.75 -1.95 0  -0.65 -1.95 0  -0.55 -1.95 0  -0.45 -1.95 0  -0.35 -1.95 0  -0.25 -1.95 0  -0.15 -1.95 0  -0.05000000000000004 -1.95 0  0.05000000000000004 -1.95 0  0.15 -1.95 0  0.25 -1.95 0  0.3500000000000001 -1.95 0  0.45 -1.95 0  0.55 -1.95 0  0.6499999999999999 -1.95 0  0.75 -1.95 0  -0.75 -1.9 0  -0.65 -1.9 0  -0.55 -1.9 0  -0.45 -1.9 0  -0.35 -1.9 0  -0.25 -1.9 0  -0.15 -1.9 0  -0.05000000000000004 -1.9 0  0.05000000000000004 -1.9 0  0.15 -1.9 0  0.25 -1.9 0  0.3500000000000001 -1.9 0  0.45 -1.9 0  0.55 -1.9 0  0.6499999999999999 -1.9 0  0.75 -1.9 0  -0.75 -1.85 0  -0.65 -1.85 0  -0.55 -1.85 0  -0.45 -1.85 0  -0.35 -1.85 0  -0.25 -1.85 0  -0.15 -1.85 0  -0.05000000000000004 -1.85 0  0.05000000000000004 -1.85 0  0.15 -1.85 0  0.25 -1.85 0  0.3500000000000001 -1.85 0  0.45 -1.85 0  0.55 -1.85 0  0.6499999999999999 -1.85 0  0.75 -1.85 0  -0.75 -1.8 0  -0.65 -1.8 0  -0.55 -1.8 0  -0.45 -1.8 0  -0.35 -1.8 0  -0.25 -1.8 0  -0.15 -1.8 0  -0.05000000000000004 -1.8 0  0.05000000000000004 -1.8 0  0.15 -1.8 0  0.25 -1.8 0  0.3500000000000001 -1.8 0  0.45 -1.8 0  0.55 -1.8 0  0.6499999999999999 -1.8 0  0.75 -1.8 0  -0.75 -1.75 0  -0.65 -1.75 0  -0.55 -1.75 0  -0.45 -1.75 0  -0.35 -1.75 0  -0.25 -1.75 0  -0.15 -1.75 0  -0.05000000000000004 -1.75 0  0.05000000000000004 -1.75 0  0.15 -1.75 0  0.25 -1.75 0  0.3500000000000001 -1.75 0  0.45 -1.75 0  0.55 -1.75 0  0.6499999999999999 -1.75 0  0.75 -1.75 0  -0.75 -1.7 0  -0.65 -1.7 0  -0.55 -1.7 0  -0.45 -1.7 0  -0.35 -1.7 0  -0.25 -1.7 0  -0.15 -1.7 0  -0.05000000000000004 -1.7 0  0.05000000000000004 -1.7 0  0.15 -1.7 0  0.25 -1.7 0  0.3500000000000001 -1.7 0  0.45 -1.7 0  0.55 -1.7 0  0.6499999999999999 -1.7 0  0.75 -1.7 0  -0.75 -1.65 0  -0.65 -1.65 0  -0.55 -1.65 0  -0.45 -1.65 0  -0.35 -1.65 0  -0.25 -1.65 0  -0.15 -1.65 0  -0.05000000000000004 -1.65 0  0.05000000000000004 -1.65 0  0.15 -1.65 0  0.25 -1.65 0  0.3500000000000001 -1.65 0  0.45 -1.65 0  0.55 -1.65 0  0.6499999999999999 -1.65 0  0.75 -1.65 0  -0.75 -1.6 0  -0.65 -1.6 0  -0.55 -1.6 0  -0.45 -1.6 0  -0.35 -1.6 0  -0.25 -1.6 0  -0.15 -1.6 0  -0.05000000000000004 -1.6 0  0.05000000000000004 -1.6 0  0.15 -1.6 0  0.25 -1.6 0  0.3500000000000001 -1.6 0  0.45 -1.6 0  0.55 -1.6 0  0.6499999999999999 -1.6 0  0.75 -1.6 0  -0.75 -1.55 0  -0.65 -1.55 0  -0.55 -1.55 0  -0.45 -1.55 0  -0.35 -1.55 0  -0.25 -1.55 0  -0.15 -1.55 0  -0.05000000000000004 -1.55 0  0.05000000000000004 -1.55 0  0.15 -1.55 0  0.25 -1.55 0  0.3500000000000001 -1.55 0  0.45 -1.55 0  0.55 -1.55 0  0.6499999999999999 -1.55 0  0.75 -1.55 0  -0.75 -1.5 0  -0.65 -1.5 0  -0.55 -1.5 0  -0.45 -1.5 0  -0.35 -1.5 0  -0.25 -1.5 0  -0.15 -1.5 0  -0.05000000000000004 -1.5 0  0.05000000000000004 -1.5 0  0.15 -1.5 0  0.25 -1.5 0  0.3500000000000001 -1.5 0  0.45 -1.5 0  0.55 -1.5 0  0.6499999999999999 -1.5 0  0.75 -1.5 0  -0.75 -1.45 0  -0.65 -1.45 0  -0.55 -1.45 0  -0.45 -1.45 0  -0.35 -1.45 0  -0.25 -1.45 0  -0.15 -1.45 0  -0.05000000000000004 -1.45 0  0.05000000000000004 -1.45 0  0.15 -1.45 0  0.25 -1.45 0  0.3500000000000001 -1.45 0  0.45 -1.45 0  0.55 -1.45 0  0.6499999999999999 -1.45 0  0.75 -1.45 0  -0.75 -1.4 0  -0.65 -1.4 0  -0.55 -1.4 0  -0.45 -1.4 0  -0.35 -1.4 0  -0.25 -1.4 0  -0.15 -1.4 0  -0.05000000000000004 -1.4 0  0.05000000000000004 -1.4 0  0.15 -1.4 0  0.25 -1.4 0  0.3500000000000001 -1.4 0  0.45 -1.4 0  0.55 -1.4 0  0.6499999999999999 -1.4 0  0.75 -1.4 0  -0.75 -1.35 0  -0.65 -1.35 0  -0.55 -1.35 0  -0.45 -1.35 0  -0.35 -1.35 0  -0.25 -1.35 0  -0.15 -1.35 0  -0.05000000000000004 -1.35 0  0.05000000000000004 -1.35 0  0.15 -1.35 0  0.25 -1.35 0  0.3500000000000001 -1.35 0  0.45 -1.35 0  0.55 -1.35 0  0.6499999999999999 -1.35 0  0.75 -1.35 0  -0.75 -1.3 0  -0.65 -1.3 0  -0.55 -1.3 0  -0.45 -1.3 0  -0.35 -1.3 0  -0.25 -1.3 0  -0.15 -1.3 0  -0.05000000000000004 -1.3 0  0.05000000000000004 -1.3 0  0.15 -1.3 0  0.25 -1.3 0  0.3500000000000001 -1.3 0  0.45 -1.3 0  0.55 -1.3 0  0.6499999999999999 -1.
[...]
<PointData  Vectors="displacement"> 
<DataArray  type="Float64"  Name="displacement"  NumberOfComponents="3" format="ascii">-1.4105932209867397e-35 -2.1837568171399994e-20 0.0000000000000000e+00  -6.0226936399738166e-36 1.7370792863613644e-20 0.0000000000000000e+00  -4.2317796629602495e-35 -1.4392942658422730e-20 0.0000000000000000e+00  -1.3885527019088318e-34 1.2562805553149151e-21 0.0000000000000000e+00  4.9370762734536236e-35 -1.2904017555827274e-20 0.0000000000000000e+00  -1.4815313461533233e-34 3.9282507508272474e-21 0.0000000000000000e+00  7.7582627154271253e-35 9.9261673506363678e-22 0.0000000000000000e+00  -7.9242038743757565e-36 -8.1899407488960549e-21 0.0000000000000000e+00  -4.9370762734536236e-35 6.9483171454454550e-21 0.0000000000000000e+00  3.5557916195474497e-35 6.9242480135576620e-21 0.0000000000000000e+00  -3.1738347472201848e-35 -1.4889251025954537e-20 0.0000000000000000e+00  5.6858620136315085e-35 -4.6694115862323007e-21 0.0000000000000000e+00  -1.2783501065192417e-35 0.0000000000000000e+00 0.0000000000000000e+00  3.3401973524220913e-36 -6.8242400535624979e-21 0.0000000000000000e+00  0.0000000000000000e+00 -1.9852334701272747e-21 0.0000000000000000e+00  0.0000000000000000e+00 3.9704669402545426e-21 0.0000000000000000e+00  5.6423728839469597e-35 -6.1810910711185738e-05 0.0000000000000000e+00  -3.5398164496833534e-19 -6.1810910711185859e-05 0.0000000000000000e+00  -6.3986873194549252e-19 -6.1810910711185941e-05 0.0000000000000000e+00  -7.1511147646121789e-19 -6.1810910711186280e-05 0.0000000000000000e+00  -6.8438450544623353e-19 -6.1810910711186307e-05 0.0000000000000000e+00  -6.3793026543821048e-19 -6.1810910711186442e-05 0.0000000000000000e+00  -6.1987990977916571e-19 -6.1810910711186388e-05 0.0000000000000000e+00  -6.6696417054767550e-19 -6.1810910711186374e-05 0.0000000000000000e+00  -6.5663287524778212e-19 -6.1810910711186442e-05 0.0000000000000000e+00  -5.4699060279514999e-19 -6.1810910711186632e-05 0.0000000000000000e+00  -3.3115641161115896e-19 -6.1810910711186524e-05 0.0000000000000000e+00  -1.8958661037503412e-19 -6.1810910711186456e-05 0.0000000000000000e+00  -1.0259426840420529e-19 -6.1810910711186429e-05 0.0000000000000000e+00  1.3201610839634301e-21 -6.1810910711186293e-05 0.0000000000000000e+00  8.7580971250914141e-21 -6.1810910711186239e-05 0.0000000000000000e+00  3.5251309069087803e-36 -6.1810910711186293e-05 0.0000000000000000e+00  -1.7103442804464296e-34 -1.2362182652490261e-04 0.0000000000000000e+00  -6.1269068415725858e-19 -1.2362182652490261e-04 0.0000000000000000e+00  -1.0840298113544191e-18 -1.2362182652490307e-04 0.0000000000000000e+00  -1.2801640605604029e-18 -1.2362182652490367e-04 0.0000000000000000e+00  -1.2801394513430309e-18 -1.2362182652490383e-04 0.0000000000000000e+00  -1.2376865923490513e-18 -1.2362182652490399e-04 0.0000000000000000e+00  -1.2194603046676311e-18 -1.2362182652490389e-04 0.0000000000000000e+00  -1.2914874719943416e-18 -1.2362182652490397e-04 0.0000000000000000e+00  -1.2972402551424707e-18 -1.2362182652490413e-04 0.0000000000000000e+00  -1.0981587090223183e-18 -1.2362182652490418e-04 0.0000000000000000e+00  -7.0900701696209113e-19 -1.2362182652490440e-04 0.0000000000000000e+00  -4.2871953488131840e-19 -1.2362182652490408e-04 0.0000000000000000e+00  -2.3833734203827548e-19 -1.2362182652490405e-04 0.0000000000000000e+00  -6.9091279765250365e-20 -1.2362182652490391e-04 0.0000000000000000e+00  -2.2854628883492845e-20 -1.2362182652490364e-04 0.0000000000000000e+00  -2.3299977310941721e-36 -1.2362182652490367e-04 0.0000000000000000e+00  1.6927118651840953e-34 -1.8543275290804496e-04 0.0000000000000000e+00  -8.3175057359943649e-19 -1.8543275290804510e-04 0.0000000000000000e+00  -1.4160994041235500e-18 -1.8543275290804588e-04 0.0000000000000000e+00  -1.7302896598183166e-18 -1.8543275290804653e-04 0.0000000000000000e+00  -1.8221421997893280e-18 -1.8543275290804694e-04 0.0000000000000000e+00  -1.7879664343414831e-18 -1.8543275290804726e-04 0.0000000000000000e+00  -1.7978086664420589e-18 -1.8543275290804699e-04 0.0000000000000000e+00  -1.8690693791935631e-18 -1.8543275290804716e-04 0.0000000000000000e+00  -1.9117963252987459e-18 -1.8543275290804726e-04 0.0000000000000000e+00  -1.5900146052488340e-18 -1.8543275290804805e-04 0.0000000000000000e+00  -1.0950614311739013e-18 -1.8543275290804792e-04 0.0000000000000000e+00  -7.0875814677594856e-19 -1.8543275290804743e-04 0.0000000000000000e+00  -3.9253697205617373e-19 -1.8543275290804754e-04 0.0000000000000000e+00  -1.8840589425277672e-19 -1.8543275290804718e-04 0.0000000000000000e+00  -1.1296375258073565e-19 -1.8543275290804680e-04 0.0000000000000000e+00  2.6448622893501480e-35 -1.8543275290804689e-04 0.0000000000000000e+00  -1.8350193541623255e-34 -2.4724369607104381e-04 0.0000000000000000e+00  -9.5507059589454869e-19 -2.4724369607104381e-04 0.0000000000000000e+00  -1.7478095568178250e-18 -2.4724369607104484e-04 0.0000000000000000e+00  -2.1339851287814634e-18 -2.4724369607104582e-04 0.0000000000000000e+00  -2.2459663257242942e-18 -2.4724369607104641e-04 0.0000000000000000e+00  -2.2992610090044967e-18 -2.4724369607104663e-04 0.0000000000000000e+00  -2.2587402090126857e-18 -2.4724369607104652e-04 0.0000000000000000e+00  -2.3888377446680337e-18 -2.4724369607104647e-04 0.0000000000000000e+00  -2.4903985934587051e-18 -2.4724369607104707e-04 0.0000000000000000e+00  -2.0690456710716364e-18 -2.4724369607104810e-04 0.0000000000000000e+00  -1.4937358580134325e-18 -2.4724369607104761e-04 0.0000000000000000e+00  -1.0482481004217063e-18 -2.4724369607104766e-04 0.0000000000000000e+00  -6.0537352887226860e-19 -2.4724369607104717e-04 0.0000000000000000e+00  -3.5115180279292480e-19 -2.4724369607104674e-04 0.0000000000000000e+00  -1.8320090604010231e-19 -2.4724369607104636e-04 0.0000000000000000e+00  3.8856008404339487e-35 -2.4724369607104679e-04 0.0000000000000000e+00  1.4105932209867490e-35 -3.0905466337657146e-04 0.0000000000000000e+00  -1.1441436250295292e-18 -3.0905466337657184e-04 0.0000000000000000e+00  -2.0624653426069432e-18 -3.0905466337657271e-04 0.0000000000000000e+00  -2.5062724527005956e-18 -3.0905466337657423e-04 0.0000000000000000e+00  -2.6412498269315985e-18 -3.0905466337657482e-04 0.0000000000000000e+00  -2.7902713461829778e-18 -3.0905466337657564e-04 0.0000000000000000e+00  -2.8023620995734677e-18 -3.0905466337657536e-04 0.0000000000000000e+00  -2.8697232445984383e-18 -3.0905466337657498e-04 0.0000000000000000e+00  -2.8908505451248969e-18 -3.0905466337657580e-04 0.0000000000000000e+00  -2.5455862182540007e-18 -3.0905466337657699e-04 0.0000000000000000e+00  -1.9724943622790724e-18 -3.0905466337657699e-04 0.0000000000000000e+00  -1.4208102801337948e-18 -3.0905466337657607e-04 0.0000000000000000e+00  -8.6629100822463022e-19 -3.0905466337657607e-04 0.0000000000000000e+00  -5.0909711856456692e-19 -3.0905466337657558e-04 0.0000000000000000e+00  -2.5254752154785202e-19 -3.0905466337657498e-04 0.0000000000000000e+00  -5.0276490315394392e-35 -3.0905466337657536e-04 0.0000000000000000e+00  -2.4214437463532753e-35 -3.7086566379237551e-04 0.0000000000000000e+00  -1.2953883382905888e-18 -3.7086566379237578e-04 0.0000000000000000e+00  -2.3099749549786157e-18 -3.7086566379237790e-04 0.0000000000000000e+00  -2.8958615153591230e-18 -3.7086566379237936e-04 0.0000000000000000e+00  -3.0617969621432181e-18 -3.7086566379237985e-04 0.0000000000000000e+00  -3.1580635214762758e-18 -3.7086566379237963e-04 0.0000000000000000e+00  -3.3961123693625780e-18 -3.7086566379238044e-04 0.0000000000000000e+00  -3.3729587133231065e-18 -3.7086566379238007e-04 0.0000000000000000e+00  -3.2651815157112365e-18 -3.7086566379238077e-04 0.0000000000000000e+00  -3.0061559644816022e-18 -3.7086566379238299e-04 0.0000000000000000e+00  -2.4982917412121244e-18 -3.7086566379238207e-04 0.0000000000000000e+00  -1.7687083950260784e-18 -3.7086566379238229e-04 0.0000000000000000e+00  -1.1320638757066247e-18 -3.7086566379238147e-04 0.0000000000000000e+00  -6.5521341843377674e-19 -3.7086566379238077e-04 0.0000000000000000e+00  -3.8886684516579903e-19 -3.7086566379238028e-04 0.0000000000000000e+00  -1.1083232450610121e-35 -3.7086566379238077e-04 0.0000000000000000e+00  1.1284745767893969e-34 -4.3267670840249145e-04 0.0000000000000000e+00  -1.3514138094886395e-18 -4.3267670840249200e-04 0.0000000000000000e+00  -2.5233973342215010e-18 -4.3267670840249357e-04 0.0000000000000000e+00  -3.2889997898549895e-18 -4.3267670840249617e-04 0.0000000000000000e+00  -3.5133705266412825e-18 -4.3267670840249693e-04 0.0000000000000000e+00  -3.5788908996405079e-18 -4.3267670840249682e-04 0.0000000000000000e+00  -3.7593665458727866e-18 -4.3267670840249742e-04 0.0000000000000000e+00  -3.8409929965761381e-18 -4.3267670840249709e-04 0.0000000000000000e+00  -3.7263038452932380e-18 -4.3267670840249796e-04 0.0000000000000000e+00  -3.5697156027923859e-18 -4.3267670840249975e-04 0.0000000000000000e+00  -2.9952621322387525e-18 -4.3267670840250035e-04 0.0000000000000000e+00  -2.2562073791261620e-18 -4.3267670840249937e-04 0.0000000000000000e+00  -1.4755556983018518e-18 -4.3267670840249953e-04 0.0000000000000000e+00  -8.8435419751303402e-19 -4.3267670840249769e-04 0.0000000000000000e+00  -4.4011347478493759e-19 -4.3267670840249774e-04 0.0000000000000000e+00  5.6423728839469832e-35 -4.3267670840249796e-04 0.0000000000000000e+00  1.4081377760530369e-34 -4.9448781099057694e-04 0.0000000000000000e+00  -1.5169641592813150e-18 -4.9448781099057780e-04 0.0000000000000000e+00  -2.7107152657222817e-18 -4.9448781099057965e-04 0.0000000000000000e+00  -3.4791630249054985e-18 -4.9448781099058279e-04 0.0000000000000000e+00  -3.9836284265903761e-18 -4.9448781099058344e-04 0.0000000000000000e+00  -4.0506445504830447e-18 -4.9448781099058355e-04 0.0000000000000000e+00  -4.1728982413987206e-18 -4.9448781099058388e-04 0.0000000000000000e+00  -4.2742184122192410e-18 -4.9448781099058420e-04 0.0000000000000000e+00  -4.1803399204824939e-18 -4.9448781099058507e-04 0.0000000000000000e+00  -4.0150174760845721e-18 -4.9448781099058713e-04 0.0000000000000000e+00  -3.5555365900943279e-18 -4.9448781099058735e-04 0.0000000000000000e+00  -2.6785437757196919e-18 -4.9448781099058735e-04 0.0000000000000000e+00  -1.9057842856749189e-18 -4.9448781099058637e-04 0.0000000000000000e+00  -1.1925254636889021e-18 -4.9448781099058550e-04 0.0000000000000000e+00  -5.5735208771242605e-19 -4.9448781099058518e-04 0.0000000000000000e+00  5.2789250380382501e-35 -4.9448781099058529e-04 0.0000000000000000e+00  -9.8741525469071787e-35 -5.5629898870824168e-04 0.0000000000000000e+00  -1.5351402838228710e-18 -5.5629898870824201e-04 0.0000000000000000e+00  -2.8894209041594863e-18 -5.5629898870824407e-04 0.0000000000000000e+00  -3.7671169922167886e-18 -5.5629898870824732e-04 0.0000000000000000e+00  -4.3062127123191196e-18 -5.5629898870824840e-04 0.0000000000000000e+00  -4.5190458205455551e-18 -5.5629898870824949e-04 0.0000000000000000e+00  -4.5068233251445159e-18 -5.5629898870824905e-04 0.0000000000000000e+00  -4.7396103264397063e-18 -5.5629898870824927e-04 0.0000000000000000e+00  -4.8027717955739188e-18 -5.5629898870825046e-04 0.0000000000000000e+00  -4.4983944286445115e-18 -5.5629898870825220e-04 0.0000000000000000e+00  -3.9555625247458245e-18 -5.5629898870825296e-04 0.0000000000000000e+00  -3.1798300927968832e-18 -5.5629898870825361e-04 0.0000000000000000e+00  -2.2734698307508957e-18 -5.5629898870825252e-04 0.0000000000000000e+00  -1.4736016948447771e-18 -5.5629898870825090e-04 0.0000000000000000e+00  -7.0432832002766554e-19 -5.5629898870825133e-04 0.0000000000000000e+00  5.0882698427222131e-35 -5.5629898870825111e-04 0.0000000000000000e+00  -4.7635631713960147e-35 -6.1811026283992978e-04 0.0000000000000000e+00  -1.6596325398798062e-18 -6.1811026283993043e-04 0.0000000000000000e+00  -3.1156513311465077e-18 -6.1811026283993260e-04 0.0000000000000000e+00  -3.9814386904254380e-18 -6.1811026283993618e-04 0.0000000000000000e+00  -4.5874013898171696e-18 -6.1811026283993759e-04 0.0000000000000000e+00  -4.9139333235724298e-18 -6.1811026283993900e-04 0.0000000000000000e+00  -5.0857782285753288e-18 -6.1811026283993846e-04 0.0000000000000000e+00  -5.2613353222183277e-18 -6.1811026283993878e-04 0.0000000000000000e+00  -5.3117826424387848e-18 -6.1811026283994008e-04 0.0000000000000000e+00  -5.0408189258242982e-18 -6.1811026283994247e-04 0.0000000000000000e+00  -4.5118698527962184e-18 -6.1811026283994312e-04 0.0000000000000000e+00  -3.6836390014109143e-18 -6.1811026283994268e-04 0.0000000000000000e+00  -2.6196067645265794e-18 -6.1811026283994301e-04 0.0000000000000000e+00  -1.6514732469780200e-18 -6.1811026283994182e-04 0.0000000000000000e+00  -8.1395360604503338e-19 -6.1811026283994117e-04 0.0000000000000000e+00  -1.0075665864190990e-36 -6.1811026283994160e-04 0.0000000000000000e+00  3.9496610187628715e-34 -6.7992165967408499e-04 0.0000000000000000e+00  -1.7389724576753808e-18 -6.7992165967408510e-04 0.0000000000000000e+00  -3.2831831855766196e-18 -6.7992165967408803e-04 0.0000000000000000e+00  -4.0733456465917678e-18 -6.7992165967409204e-04 0.0000000000000000e+00  -4.6480633029387927e-18 -6.7992165967409302e-04 0.0000000000000000e+00  -5.2273023109520743e-18 -6.7992165967409464e-04 0.0000000000000000e+00  -5.6658227491745614e-18 -6.7992165967409454e-04 0.0000000000000000e+00  -5.8334934694375732e-18 -6.7992165967409432e-04 0.0000000000000000e+00  -5.8744139931360121e-18 -6.7992165967409616e-04 0.0000000000000000e+00  -5.6315102457418625e-18 -6.7992165967409822e-04 0.0000000000000000e+00  -5.0738434854408335e-18 -6.7992165967409963e-04 0.0000000000000000e+00  -4.0045865074340440e-18 -6.7992165967410104e-04 0.0000000000000000e+00  -2.9715836112288453e-18 -6.7992165967409996e-04 0.0000000000000000e+00  -1.9225091250283469e-18 -6.7992165967409876e-04 0.0000000000000000e+00  -9.3550200545611498e-19 -6.7992165967409822e-04 0.0000000000000000e+00  1.4105932209867394e-35 -6.7992165967409790e-04 0.0000000000000000e+00  -3.1112399714894613e-34 -7.4173321148772128e-04 0.0000000000000000e+00  -1.7603765983045841e-18 -7.4173321148772171e-04 0.0000000000000000e+00  -3.2560700101320840e-18 -7.4173321148772496e-04 0.0000000000000000e+00  -4.3343539985017466e-18 -7.4173321148772941e-04 0.0000000000000000e+00  -4.9121909597160526e-18 -7.4173321148773136e-04 0.0000000000000000e+00  -5.5232948796056409e-18 -7.4173321148773158e-04 0.0000000000000000e+00  -5.9954461758372487e-18 -7.4173321148773245e-04 0.0000000000000000e+00  -6.3236131394994437e-18 -7.4173321148773212e-04 0.0000000000000000e+00  -6.5237470112798161e-18 -7.4173321148773396e-04 0.0000000000000000e+00  -6.3015514995035864e-18 -7.4173321148773635e-04 0.0000000000000000e+00  -5.5194307785594612e-18 -7.4173321148773884e-04 0.0000000000000000e+00  -4.4900827214080154e-18 -7.4173321148773971e-04 0.0000000000000000e+00  -3.3162694166012439e-18 -7.4173321148773841e-04 0.0000000000000000e+00  -2.1156736517918767e-18 -7.4173321148773776e-04 0.0000000000000000e+00  -1.2035291035006869e-18 -7.4173321148773613e-04 0.0000000000000000e+00  -1.6598954646337466e-35 -7.4173321148773667e-04 0.0000000000000000e+00  1.5516525430854208e-34 -8.0354495764821941e-04 0.0000000000000000e+00  -1.8221076688340265e-18 -8.0354495764822038e-04 0.0000000000000000e+00  -3.2372037784159751e-18 -8.0354495764822309e-04 0.0000000000000000e+00  -4.2116902146034825e-18 -8.0354495764822830e-04 0.0000000000000000e+00  -5.2167318693180912e-18 -8.0354495764823014e-04 0.0000000000000000e+00  -5.9206878179004427e-18 -8.0354495764823144e-04 0.0000000000000000e+00  -6.3219596475468555e-18 -8.0354495764823133e-04 0.0000000000000000e+00  -6.6989130942213875e-18 -8.0354495764823231e-04 0.0000000000000000e+00  -7.0718616692356377e-18 -8.0354495764823318e-04 0.0000000000000000e+00  -6.7667637593743458e-18 -8.0354495764823784e-04 0.0000000000000000e+00  -5.9804098305951627e-18 -8.0354495764823903e-04 0.0000000000000000e+00  -4.9716775889057261e-18 -8.0354495764824066e-04 0.0000000000000000e+00  -3.7103598266926334e-18 -8.0354495764823968e-04 0.0000000000000000e+00  -2.5629057855280210e-18 -8.0354495764823816e-04 0.0000000000000000e+00  -1.5319684983505887e-18 -8.0354495764823730e-04 0.0000000000000000e+00  6.2735146692501537e-34 -8.0354495764823730e-04 0.0000000000000000e+00  -1.5393677518122483e-34 -8.6535694583187285e-04 0.0000000000000000e+00  -1.7503065657362331e-18 -8.6535694583187502e-04 0.0000000000000000e+00  -3.2134740024848794e-18 -8.6535694583187806e-04 0.0000000000000000e+00  -4.3323743132513789e-18 -8.6535694583188250e-04 0.0000000000000000e+00  -5.2612690934731829e-18 -8.6535694583188456e-04 0.0000000000000000e+00  -6.2071811806149609e-18 -8.6535694583188532e-04 0.0000000000000000e+00  -6.6214279203619389e-18 -8.6535694583188619e-04 0.0000000000000000e+00  -7.0265954472262538e-18 -8.6535694583188565e-04 0.0000000000000000e+00  -7.3651324579835962e-18 -8.6535694583188966e-04 0.0000000000000000e+00  -7.1094508304412508e-18 -8.6535694583189345e-04 0.0000000000000000e+00  -6.4606066383792283e-18 -8.6535694583189475e-04 0.0000000000000000e+00  -5.5070400027630159e-18 -8.6535694583189649e-04 0.0000000000000000e+00  -4.2279501354523315e-18 -8.6535694583189584e-04 0.0000000000000000e+00  -3.0149277467308344e-18 -8.6535694583189421e-04 0.0000000000000000e+00  -1.5981434457894785e-18 -8.6535694583189345e-04 0.0000000000000000e+00  -4.8363196148116773e-35 -8.6535694583189497e-04 0.0000000000000000e+00  -1.9748305093814486e-34 -9.2716923335350962e-04 0.0000000000000000e+00  -1.7503303333200020e-18 -9.2716923335350941e-04 0.0000000000000000e+00  -3.3110958392589772e-18 -9.2716923335351331e-04 0.0000000000000000e+00  -4.4593398914779171e-18 -9.2716923335351927e-04 0.0000000000000000e+00  -5.5529352944924361e-18 -9.2716923335352014e-04 0.0000000000000000e+00  -6.4757018342150821e-18 -9.2716923335352177e-04 0.0000000000000000e+00  -7.1984838168945732e-18 -9.2716923335352285e-04 0.0000000000000000e+00  -7.3755861013508941e-18 -9.2716923335352350e-04 0.0000000000000000e+00  -7.1974541312784599e-18 -9.2716923335352556e-04 0.0000000000000000e+00  -7.2486655902571874e-18 -9.2716923335353033e-04 0.0000000000000000e+00  -6.9925913041442194e-18 -9.2716923335353239e-04 0.0000000000000000e+00  -5.9588170330253356e-18 -9.2716923335353391e-04 0.0000000000000000e+00  -4.8316077569967319e-18 -9.2716923335353434e-04 0.0000000000000000e+00  -3.4451363520507817e-18 -9.2716923335353272e-04 0.0000000000000000e+00  -1.7754940748388641e-18 -9.2716923335353174e-04 0.0000000000000000e+00  2.8211864419734977e-34 -9.2716923335353261e-04 0.0000000000000000e+00  1.4238608537663312e-34 -9.8898188859530963e-04 0.0000000000000000e+00  -1.9338527688138162e-18 -9.8898188859531072e-04 0.0000000000000000e+00  -3.4037808749546473e-18 -9.8898188859531484e-04 0.0000000000000000e+00  -4.5590279030203057e-18 -9.8898188859531983e-04 0.0000000000000000e+00  -5.7575242435199049e-18 -9.8898188859532221e-04 0.0000000000000000e+00  -6.6507489959261901e-18 -9.8898188859532330e-04 0.0000000000000000e+00  -7.6205351484638337e-18 -9.8898188859532438e-04 0.0000000000000000e+00  -7.8217283751778299e-18 -9.8898188859532546e-04 0.0000000000000000e+00  -7.1773078787696328e-18 -9.8898188859532742e-04 0.0000000000000000e+00  -7.3983148637266272e-18 -9.8898188859533240e-04 0.0000000000000000e+00  -7.2463028914035063e-18 -9.8898188859533479e-04 0.0000000000000000e+00  -6.3931321996309842e-18 -9.8898188859533696e-04 0.0000000000000000e+00  -5.4111095431906434e-18 -9.8898188859533652e-04 0.0000000000000000e+00  -3.8277372586100893e-18 -9.8898188859533522e-04 0.0000000000000000e+00  -1.9606402162693918e-18 -9.8898188859533544e-04 0.0000000000000000e+00  -3.7028946404508300e-34 -9.8898188859533609e-04 0.0000000000000000e+00  -5.6423728839469843e-35 -1.0507949925158450e-03 0.0000000000000000e+00  -1.8309115456113468e-18 -1.0507949925158469e-03 0.0000000000000000e+00  -3.3551565322524854e-18 -1.0507949925158500e-03 0.0000000000000000e+00  -4.7617612344125049e-18 -1.0507949925158563e-03 0.0000000000000000e+00  -5.8675154345513761e-18 -1.05079499251