<?xml version="1.0"?>
<VTKFile type="UnstructuredGrid"  version="0.1"  >
<UnstructuredGrid>
<Piece  NumberOfPoints="1876" NumberOfCells="3600">
<Points>
<DataArray  type="Float64"  NumberOfComponents="3"  format="ascii">-0.75 -3 0  -0.65 -3 0  -0.55 -3 0  -0.45 -3 0  -0.35 -3 0  -0.25 -3 0  -0.15 -3 0  -0.05000000000000004 -3 0  0.05000000000000004 -3 0  0.15 -3 0  0.25 -3 0  0.3500000000000001 -3 0  0.45 -3 0  0.55 -3 0  0.6499999999999999 -3 0  0.75 -3 0  -0.75 -2.95 0  -0.65 -2.95 0  -0.55 -2.95 0  -0.45 -2.95 0  -0.35 -2.95 0  -0.25 -2.95 0  -0.15 -2.95 0  -0.05000000000000004 -2.95 0  0.05000000000000004 -2.95 0  0.15 -2.95 0  0.25 -2.95 0  0.3500000000000001 -2.95 0  0.45 -2.95 0  0.55 -2.95 0  0.6499999999999999 -2.95 0  0.75 -2.95 0  -0.75 -2.9 0  -0.65 -2.9 0  -0.55 -2.9 0  -0.45 -2.9 0  -0.35 -2.9 0  -0.25 -2.9 0  -0.15 -2.9 0  -0.05000000000000004 -2.9 0  0.05000000000000004 -2.9 0  0.15 -2.9 0  0.25 -2.9 0  0.3500000000000001 -2.9 0  0.45 -2.9 0  0.55 -2.9 0  0.6499999999999999 -2.9 0  0.75 -2.9 0  -0.75 -2.85 0  -0.65 -2.85 0  -0.55 -2.85 0  -0.45 -2.85 0  -0.35 -2.85 0  -0.25 -2.85 0  -0.15 -2.85 0  -0.05000000000000004 -2.85 0  0.05000000000000004 -2.85 0  0.15 -2.85 0  0.25 -2.85 0  0.3500000000000001 -2.85 0  0.45 -2.85 0  0.55 -2.85 0  0.6499999999999999 -2.85 0  0.75 -2.85 0  -0.75 -2.8 0  -0.65 -2.8 0  -0.55 -2.8 0  -0.45 -2.8 0  -0.35 -2.8 0  -0.25 -2.8 0  -0.15 -2.8 0  -0.05000000000000004 -2.8 0  0.05000000000000004 -2.8 0  0.15 -2.8 0  0.25 -2.8 0  0.3500000000000001 -2.8 0  0.45 -2.8 0  0.55 -2.8 0  0.6499999999999999 -2.8 0  0.75 -2.8 0  -0.75 -2.75 0  -0.65 -2.75 0  -0.55 -2.75 0  -0.45 -2.75 0  -0.35 -2.75 0  -0.25 -2.75 0  -0.15 -2.75 0  -0.05000000000000004 -2.75 0  0.05000000000000004 -2.75 0  0.15 -2.75 0  0.25 -2.75 0  0.3500000000000001 -2.75 0  0.45 -2.75 0  0.55 -2.75 0  0.6499999999999999 -2.75 0  0.75 -2.75 0  -0.75 -2.7 0  -0.65 -2.7 0  -0.55 -2.7 0  -0.45 -2.7 0  -0.35 -2.7 0  -0.25 -2.7 0  -0.15 -2.7 0  -0.05000000000000004 -2.7 0  0.05000000000000004 -2.7 0  0.15 -2.7 0  0.25 -2.7 0  0.3500000000000001 -2.7 0  0.45 -2.7 0  0.55 -2.7 0  0.6499999999999999 -2.7 0  0.75 -2.7 0  -0.75 -2.65 0  -0.65 -2.65 0  -0.55 -2.65 0  -0.45 -2.65 0  -0.35 -2.65 0  -0.25 -2.65 0  -0.15 -2.65 0  -0.05000000000000004 -2.65 0  0.05000000000000004 -2.65 0  0.15 -2.65 0  0.25 -2.65 0  0.3500000000000001 -2.65 0  0.45 -2.65 0  0.55 -2.65 0  0.6499999999999999 -2.65 0  0.75 -2.65 0  -0.75 -2.6 0  -0.65 -2.6 0  -0.55 -2.6 0  -0.45 -2.6 0  -0.35 -2.6 0  -0.25 -2.6 0  -0.15 -2.6 0  -0.05000000000000004 -2.6 0  0.05000000000000004 -2.6 0  0.15 -2.6 0  0.25 -2.6 0  0.3500000000000001 -2.6 0  0.45 -2.6 0  0.55 -2.6 0  0.6499999999999999 -2.6 0  0.75 -2.6 0  -0.75 -2.55 0  -0.65 -2.55 0  -0.55 -2.55 0  -0.45 -2.55 0  -0.35 -2.55 0  -0.25 -2.55 0  -0.15 -2.55 0  -0.05000000000000004 -2.55 0  0.05000000000000004 -2.55 0  0.15 -2.55 0  0.25 -2.55 0  0.3500000000000001 -2.55 0  0.45 -2.55 0  0.55 -2.55 0  0.6499999999999999 -2.55 0  0.75 -2.55 0  -0.75 -2.5 0  -0.65 -2.5 0  -0.55 -2.5 0  -0.45 -2.5 0  -0.35 -2.5 0  -0.25 -2.5 0  -0.15 -2.5 0  -0.05000000000000004 -2.5 0  0.05000000000000004 -2.5 0  0.15 -2.5 0  0.25 -2.5 0  0.3500000000000001 -2.5 0  0.45 -2.5 0  0.55 -2.5 0  0.6499999999999999 -2.5 0  0.75 -2.5 0  -0.75 -2.45 0  -0.65 -2.45 0  -0.55 -2.45 0  -0.45 -2.45 0  -0.35 -2.45 0  -0.25 -2.45 0  -0.15 -2.45 0  -0.05000000000000004 -2.45 0  0.05000000000000004 -2.45 0  0.15 -2.45 0  0.25 -2.45 0  0.3500000000000001 -2.45 0  0.45 -2.45 0  0.55 -2.45 0  0.6499999999999999 -2.45 0  0.75 -2.45 0  -0.75 -2.4 0  -0.65 -2.4 0  -0.55 -2.4 0  -0.45 -2.4 0  -0.35 -2.4 0  -0.25 -2.4 0  -0.15 -2.4 0  -0.05000000000000004 -2.4 0  0.05000000000000004 -2.4 0  0.15 -2.4 0  0.25 -2.4 0  0.3500000000000001 -2.4 0  0.45 -2.4 0  0.55 -2.4 0  0.6499999999999999 -2.4 0  0.75 -2.4 0  -0.75 -2.35 0  -0.65 -2.35 0  -0.55 -2.35 0  -0.45 -2.35 0  -0.35 -2.35 0  -0.25 -2.35 0  -0.15 -2.35 0  -0.05000000000000004 -2.35 0  0.05000000000000004 -2.35 0  0.15 -2.35 0  0.25 -2.35 0  0.3500000000000001 -2.35 0  0.45 -2.35 0  0.55 -2.35 0  0.6499999999999999 -2.35 0  0.75 -2.35 0  -0.75 -2.3 0  -0.65 -2.3 0  -0.55 -2.3 0  -0.45 -2.3 0  -0.35 -2.3 0  -0.25 -2.3 0  -0.15 -2.3 0  -0.05000000000000004 -2.3 0  0.05000000000000004 -2.3 0  0.15 -2.3 0  0.25 -2.3 0  0.3500000000000001 -2.3 0  0.45 -2.3 0  0.55 -2.3 0  0.6499999999999999 -2.3 0  0.75 -2.3 0  -0.75 -2.25 0  -0.65 -2.25 0  -0.55 -2.25 0  -0.45 -2.25 0  -0.35 -2.25 0  -0.25 -2.25 0  -0.15 -2.25 0  -0.05000000000000004 -2.25 0  0.05000000000000004 -2.25 0  0.15 -2.25 0  0.25 -2.25 0  0.3500000000000001 -2.25 0  0.45 -2.25 0  0.55 -2.25 0  0.6499999999999999 -2.25 0  0.75 -2.25 0  -0.75 -2.2 0  -0.65 -2.2 0  -0.55 -2.2 0  -0.45 -2.2 0  -0.35 -2.2 0  -0.25 -2.2 0  -0.15 -2.2 0  -0.05000000000000004 -2.2 0  0.05000000000000004 -2.2 0  0.15 -2.2 0  0.25 -2.2 0  0.3500000000000001 -2.2 0  0.45 -2.2 0  0.55 -2.2 0  0.6499999999999999 -2.2 0  0.75 -2.2 0  -0.75 -2.15 0  -0.65 -2.15 0  -0.55 -2.15 0  -0.45 -2.15 0  -0.35 -2.15 0  -0.25 -2.15 0  -0.15 -2.15 0  -0.05000000000000004 -2.15 0  0.05000000000000004 -2.15 0  0.15 -2.15 0  0.25 -2.15 0  0.3500000000000001 -2.15 0  0.45 -2.15 0  0.55 -2.15 0  0.6499999999999999 -2.15 0  0.75 -2.15 0  -0.75 -2.1 0  -0.65 -2.1 0  -0.55 -2.1 0  -0.45 -2.1 0  -0.35 -2.1 0  -0.25 -2.1 0  -0.15 -2.1 0  -0.05000000000000004 -2.1 0  0.05000000000000004 -2.1 0  0.15 -2.1 0  0.25 -2.1 0  0.3500000000000001 -2.1 0  0.45 -2.1 0  0.55 -2.1 0  0.6499999999999999 -2.1 0  0.75 -2.1 0  -0.75 -2.05 0  -0.65 -2.05 0  -0.55 -2.05 0  -0.45 -2.05 0  -0.35 -2.05 0  -0.25 -2.05 0  -0.15 -2.05 0  -0.05000000000000004 -2.05 0  0.05000000000000004 -2.05 0  0.15 -2.05 0  0.25 -2.05 0  0.3500000000000001 -2.05 0  0.45 -2.05 0  0.55 -2.05 0  0.6499999999999999 -2.05 0  0.75 -2.05 0  -0.75 -2 0  -0.65 -2 0  -0.55 -2 0  -0.45 -2 0  -0.35 -2 0  -0.25 -2 0  -0.15 -2 0  -0.05000000000000004 -2 0  0.05000000000000004 -2 0  0.15 -2 0  0.25 -2 0  0.3500000000000001 -2 0  0.45 -2 0  0.55 -2 0  0.6499999999999999 -2 0  0.75 -2 0  -0.75 -1.95 0  -0.65 -1.95 0  -0.55 -1.95 0  -0.45 -1.95 0  -0.35 -1.95 0  -0.25 -1.95 0  -0.15 -1.95 0  -0.05000000000000004 -1.95 0  0.05000000000000004 -1.95 0  0.15 -1.95 0  0.25 -1.95 0  0.3500000000000001 -1.95 0  0.45 -1.95 0  0.55 -1.95 0  0.6499999999999999 -1.95 0  0.75 -1.95 0  -0.75 -1.9 0  -0.65 -1.9 0  -0.55 -1.9 0  -0.45 -1.9 0  -0.35 -1.9 0  -0.25 -1.9 0  -0.15 -1.9 0  -0.05000000000000004 -1.9 0  0.05000000000000004 -1.9 0  0.15 -1.9 0  0.25 -1.9 0  0.3500000000000001 -1.9 0  0.45 -1.9 0  0.55 -1.9 0  0.6499999999999999 -1.9 0  0.75 -1.9 0  -0.75 -1.85 0  -0.65 -1.85 0  -0.55 -1.85 0  -0.45 -1.85 0  -0.35 -1.85 0  -0.25 -1.85 0  -0.15 -1.85 0  -0.05000000000000004 -1.85 0  0.05000000000000004 -1.85 0  0.15 -1.85 0  0.25 -1.85 0  0.3500000000000001 -1.85 0  0.45 -1.85 0  0.55 -1.85 0  0.6499999999999999 -1.85 0  0.75 -1.85 0  -0.75 -1.8 0  -0.65 -1.8 0  -0.55 -1.8 0  -0.45 -1.8 0  -0.35 -1.8 0  -0.25 -1.8 0  -0.15 -1.8 0  -0.05000000000000004 -1.8 0  0.05000000000000004 -1.8 0  0.15 -1.8 0  0.25 -1.8 0  0.3500000000000001 -1.8 0  0.45 -1.8 0  0.55 -1.8 0  0.6499999999999999 -1.8 0  0.75 -1.8 0  -0.75 -1.75 0  -0.65 -1.75 0  -0.55 -1.75 0  -0.45 -1.75 0  -0.35 -1.75 0  -0.25 -1.75 0  -0.15 -1.75 0  -0.05000000000000004 -1.75 0  0.05000000000000004 -1.75 0  0.15 -1.75 0  0.25 -1.75 0  0.3500000000000001 -1.75 0  0.45 -1.75 0  0.55 -1.75 0  0.6499999999999999 -1.75 0  0.75 -1.75 0  -0.75 -1.7 0  -0.65 -1.7 0  -0.55 -1.7 0  -0.45 -1.7 0  -0.35 -1.7 0  -0.25 -1.7 0  -0.15 -1.7 0  -0.05000000000000004 -1.7 0  0.05000000000000004 -1.7 0  0.15 -1.7 0  0.25 -1.7 0  0.3500000000000001 -1.7 0  0.45 -1.7 0  0.55 -1.7 0  0.6499999999999999 -1.7 0  0.75 -1.7 0  -0.75 -1.65 0  -0.65 -1.65 0  -0.55 -1.65 0  -0.45 -1.65 0  -0.35 -1.65 0  -0.25 -1.65 0  -0.15 -1.65 0  -0.05000000000000004 -1.65 0  0.05000000000000004 -1.65 0  0.15 -1.65 0  0.25 -1.65 0  0.3500000000000001 -1.65 0  0.45 -1.65 0  0.55 -1.65 0  0.6499999999999999 -1.65 0  0.75 -1.65 0  -0.75 -1.6 0  -0.65 -1.6 0  -0.55 -1.6 0  -0.45 -1.6 0  -0.35 -1.6 0  -0.25 -1.6 0  -0.15 -1.6 0  -0.05000000000000004 -1.6 0  0.05000000000000004 -1.6 0  0.15 -1.6 0  0.25 -1.6 0  0.3500000000000001 -1.6 0  0.45 -1.6 0  0.55 -1.6 0  0.6499999999999999 -1.6 0  0.75 -1.6 0  -0.75 -1.55 0  -0.65 -1.55 0  -0.55 -1.55 0  -0.45 -1.55 0  -0.35 -1.55 0  -0.25 -1.55 0  -0.15 -1.55 0  -0.05000000000000004 -1.55 0  0.05000000000000004 -1.55 0  0.15 -1.55 0  0.25 -1.55 0  0.3500000000000001 -1.55 0  0.45 -1.55 0  0.55 -1.55 0  0.6499999999999999 -1.55 0  0.75 -1.55 0  -0.75 -1.5 0  -0.65 -1.5 0  -0.55 -1.5 0  -0.45 -1.5 0  -0.35 -1.5 0  -0.25 -1.5 0  -0.15 -1.5 0  -0.05000000000000004 -1.5 0  0.05000000000000004 -1.5 0  0.15 -1.5 0  0.25 -1.5 0  0.3500000000000001 -1.5 0  0.45 -1.5 0  0.55 -1.5 0  0.6499999999999999 -1.5 0  0.75 -1.5 0  -0.75 -1.45 0  -0.65 -1.45 0  -0.55 -1.45 0  -0.45 -1.45 0  -0.35 -1.45 0  -0.25 -1.45 0  -0.15 -1.45 0  -0.05000000000000004 -1.45 0  0.05000000000000004 -1.45 0  0.15 -1.45 0  0.25 -1.45 0  0.3500000000000001 -1.45 0  0.45 -1.45 0  0.55 -1.45 0  0.6499999999999999 -1.45 0  0.75 -1.45 0  -0.75 -1.4 0  -0.65 -1.4 0  -0.55 -1.4 0  -0.45 -1.4 0  -0.35 -1.4 0  -0.25 -1.4 0  -0.15 -1.4 0  -0.05000000000000004 -1.4 0  0.05000000000000004 -1.4 0  0.15 -1.4 0  0.25 -1.4 0  0.3500000000000001 -1.4 0  0.45 -1.4 0  0.55 -1.4 0  0.6499999999999999 -1.4 0  0.75 -1.4 0  -0.75 -1.35 0  -0.65 -1.35 0  -0.55 -1.35 0  -0.45 -1.35 0  -0.35 -1.35 0  -0.25 -1.35 0  -0.15 -1.35 0  -0.05000000000000004 -1.35 0  0.05000000000000004 -1.35 0  0.15 -1.35 0  0.25 -1.35 0  0.3500000000000001 -1.35 0  0.45 -1.35 0  0.55 -1.35 0  0.6499999999999999 -1.35 0  0.75 -1.35 0  -0.75 -1.3 0  -0.65 -1.3 0  -0.55 -1.3 0  -0.45 -1.3 0  -0.35 -1.3 0  -0.25 -1.3 0  -0.15 -1.3 0  -0.05000000000000004 -1.3 0  0.05000000000000004 -1.3 0  0.15 -1.3 0  0.25 -1.3 0  0.3500000000000001 -1.3 0  0.45 -1.3 0  0.55 -1.3 0  0.6499999999999999 -1.
[...]
<PointData  Vectors="displacement"> 
<DataArray  type="Float64"  Name="displacement"  NumberOfComponents="3" format="ascii">1.2711137632955785e-30 -3.2526065174565227e-16 0.0000000000000000e+00  -6.8411091902513303e-31 3.3135928896588348e-16 0.0000000000000000e+00  3.2355623065705674e-30 -3.5778671692021770e-16 0.0000000000000000e+00  -4.6944542394439035e-30 -3.4813054132151861e-17 0.0000000000000000e+00  6.0089014264881955e-30 -1.3010426069826095e-16 0.0000000000000000e+00  7.4256513900400885e-30 -1.9639271060054566e-16 0.0000000000000000e+00  -2.7733391199176294e-30 -2.4394548880923939e-16 0.0000000000000000e+00  5.8355982970570687e-30 -2.3984599331191968e-16 0.0000000000000000e+00  5.0844550531823188e-30 -6.5052130349130476e-17 0.0000000000000000e+00  -6.9324850111775677e-30 4.9741417903031969e-17 0.0000000000000000e+00  1.1555579666323446e-29 4.8789097761847829e-17 0.0000000000000000e+00  1.6738099160228786e-31 1.8475010738971414e-16 0.0000000000000000e+00  3.6977854932235047e-30 -1.6263032587282619e-17 0.0000000000000000e+00  9.1928813118258398e-31 2.3378109344218757e-17 0.0000000000000000e+00  -4.6222318665293853e-31 0.0000000000000000e+00 0.0000000000000000e+00  4.6222318665293774e-31 1.9515639104739129e-16 0.0000000000000000e+00  -4.6222318665293494e-31 -1.4912280701752538e+00 0.0000000000000000e+00  6.5623448343613279e-15 -1.4912280701752580e+00 0.0000000000000000e+00  1.5185983312597358e-14 -1.4912280701752578e+00 0.0000000000000000e+00  2.3950955996411894e-14 -1.4912280701752554e+00 0.0000000000000000e+00  3.1429089231594969e-14 -1.4912280701752541e+00 0.0000000000000000e+00  4.2346969208458104e-14 -1.4912280701752525e+00 0.0000000000000000e+00  5.0592530296746666e-14 -1.4912280701752425e+00 0.0000000000000000e+00  5.3733021119912084e-14 -1.4912280701752334e+00 0.0000000000000000e+00  5.3344024666673215e-14 -1.4912280701752236e+00 0.0000000000000000e+00  4.8371630485905416e-14 -1.4912280701752167e+00 0.0000000000000000e+00  4.3144000622754868e-14 -1.4912280701752116e+00 0.0000000000000000e+00  3.7670019579470010e-14 -1.4912280701752052e+00 0.0000000000000000e+00  3.0180671308977117e-14 -1.4912280701752019e+00 0.0000000000000000e+00  2.1724149354252103e-14 -1.4912280701751990e+00 0.0000000000000000e+00  1.1608954999702949e-14 -1.4912280701751941e+00 0.0000000000000000e+00  8.6663073244628338e-31 -1.4912280701751932e+00 0.0000000000000000e+00  8.6666847497425683e-31 -2.9824561403505263e+00 0.0000000000000000e+00  1.2788068297201506e-14 -2.9824561403505281e+00 0.0000000000000000e+00  2.8634863045071772e-14 -2.9824561403505334e+00 0.0000000000000000e+00  4.4220603076668248e-14 -2.9824561403505241e+00 0.0000000000000000e+00  6.0696662128026613e-14 -2.9824561403505259e+00 0.0000000000000000e+00  7.7571704845710148e-14 -2.9824561403505201e+00 0.0000000000000000e+00  9.1891321749460101e-14 -2.9824561403504988e+00 0.0000000000000000e+00  9.8482335455082525e-14 -2.9824561403504819e+00 0.0000000000000000e+00  9.7447373096304559e-14 -2.9824561403504584e+00 0.0000000000000000e+00  9.0026295655489808e-14 -2.9824561403504424e+00 0.0000000000000000e+00  7.9858553229137387e-14 -2.9824561403504384e+00 0.0000000000000000e+00  6.9714794588172187e-14 -2.9824561403504224e+00 0.0000000000000000e+00  5.7015737758480417e-14 -2.9824561403504144e+00 0.0000000000000000e+00  3.9866409722328365e-14 -2.9824561403504082e+00 0.0000000000000000e+00  2.0083101086417641e-14 -2.9824561403503997e+00 0.0000000000000000e+00  1.5517492694777160e-30 -2.9824561403503966e+00 0.0000000000000000e+00  0.0000000000000000e+00 -4.4736842105257875e+00 0.0000000000000000e+00  1.9807269385791305e-14 -4.4736842105257910e+00 0.0000000000000000e+00  3.9843032783919115e-14 -4.4736842105257946e+00 0.0000000000000000e+00  6.2430647859184052e-14 -4.4736842105257857e+00 0.0000000000000000e+00  8.5973297102600516e-14 -4.4736842105257884e+00 0.0000000000000000e+00  1.0788958852994303e-13 -4.4736842105257777e+00 0.0000000000000000e+00  1.2602468484661175e-13 -4.4736842105257448e+00 0.0000000000000000e+00  1.3549998054210557e-13 -4.4736842105257182e+00 0.0000000000000000e+00  1.3417535343730454e-13 -4.4736842105256844e+00 0.0000000000000000e+00  1.2478551217092861e-13 -4.4736842105256578e+00 0.0000000000000000e+00  1.1153297647873407e-13 -4.4736842105256418e+00 0.0000000000000000e+00  9.7009377456825475e-14 -4.4736842105256311e+00 0.0000000000000000e+00  7.8941295367377954e-14 -4.4736842105256089e+00 0.0000000000000000e+00  5.4236289188962842e-14 -4.4736842105255974e+00 0.0000000000000000e+00  2.7285239557773846e-14 -4.4736842105255858e+00 0.0000000000000000e+00  -2.3111159332646837e-30 -4.4736842105255832e+00 0.0000000000000000e+00  2.7655491733879533e-30 -5.9649122807010686e+00 0.0000000000000000e+00  2.5159064787446646e-14 -5.9649122807010659e+00 0.0000000000000000e+00  5.1198532533894205e-14 -5.9649122807010730e+00 0.0000000000000000e+00  7.7860081213193913e-14 -5.9649122807010695e+00 0.0000000000000000e+00  1.0572837017704930e-13 -5.9649122807010562e+00 0.0000000000000000e+00  1.3213277557472574e-13 -5.9649122807010464e+00 0.0000000000000000e+00  1.5461918306924180e-13 -5.9649122807010055e+00 0.0000000000000000e+00  1.6659079797503781e-13 -5.9649122807009620e+00 0.0000000000000000e+00  1.6331066586256390e-13 -5.9649122807009141e+00 0.0000000000000000e+00  1.5353235313389542e-13 -5.9649122807008883e+00 0.0000000000000000e+00  1.4044719630188674e-13 -5.9649122807008608e+00 0.0000000000000000e+00  1.1968157553108989e-13 -5.9649122807008448e+00 0.0000000000000000e+00  9.4640317535223066e-14 -5.9649122807008208e+00 0.0000000000000000e+00  6.6183269440226542e-14 -5.9649122807008039e+00 0.0000000000000000e+00  3.3338730232459905e-14 -5.9649122807007871e+00 0.0000000000000000e+00  -1.7486519620620759e-30 -5.9649122807007791e+00 0.0000000000000000e+00  -4.6222318665293792e-31 -7.4561403508763293e+00 0.0000000000000000e+00  2.9416431455889944e-14 -7.4561403508763382e+00 0.0000000000000000e+00  5.9901499166428867e-14 -7.4561403508763346e+00 0.0000000000000000e+00  9.1263967973761829e-14 -7.4561403508763267e+00 0.0000000000000000e+00  1.2148382651612643e-13 -7.4561403508763222e+00 0.0000000000000000e+00  1.5376959925287295e-13 -7.4561403508762982e+00 0.0000000000000000e+00  1.7952314171994752e-13 -7.4561403508762609e+00 0.0000000000000000e+00  1.9040561456787937e-13 -7.4561403508762023e+00 0.0000000000000000e+00  1.8768967019012813e-13 -7.4561403508761401e+00 0.0000000000000000e+00  1.7784192031451651e-13 -7.4561403508761019e+00 0.0000000000000000e+00  1.6192140783274751e-13 -7.4561403508760744e+00 0.0000000000000000e+00  1.3804670433744245e-13 -7.4561403508760353e+00 0.0000000000000000e+00  1.0798473829674879e-13 -7.4561403508760202e+00 0.0000000000000000e+00  7.5399063139655262e-14 -7.4561403508759803e+00 0.0000000000000000e+00  3.9317429730795769e-14 -7.4561403508759785e+00 0.0000000000000000e+00  -1.4033709836952966e-30 -7.4561403508759705e+00 0.0000000000000000e+00  -1.5112496267533012e-30 -8.9473684210515962e+00 0.0000000000000000e+00  3.1242908838437867e-14 -8.9473684210515980e+00 0.0000000000000000e+00  6.6361480965719626e-14 -8.9473684210516105e+00 0.0000000000000000e+00  1.0272516828381298e-13 -8.9473684210515838e+00 0.0000000000000000e+00  1.3577254427210620e-13 -8.9473684210515803e+00 0.0000000000000000e+00  1.7230244035062971e-13 -8.9473684210515625e+00 0.0000000000000000e+00  1.9969486695482598e-13 -8.9473684210515074e+00 0.0000000000000000e+00  2.0825137827987799e-13 -8.9473684210514328e+00 0.0000000000000000e+00  2.0514925276762308e-13 -8.9473684210513635e+00 0.0000000000000000e+00  1.9780756378646755e-13 -8.9473684210513191e+00 0.0000000000000000e+00  1.7863059061928388e-13 -8.9473684210512747e+00 0.0000000000000000e+00  1.5119226895507691e-13 -8.9473684210512321e+00 0.0000000000000000e+00  1.1965584999164584e-13 -8.9473684210512072e+00 0.0000000000000000e+00  8.3435014228415720e-14 -8.9473684210511752e+00 0.0000000000000000e+00  4.4498006168509688e-14 -8.9473684210511628e+00 0.0000000000000000e+00  2.6412753523025021e-31 -8.9473684210511433e+00 0.0000000000000000e+00  1.8488927466117478e-30 -1.0438596491226878e+01 0.0000000000000000e+00  3.2535314102769243e-14 -1.0438596491226875e+01 0.0000000000000000e+00  7.3983151720243295e-14 -1.0438596491226901e+01 0.0000000000000000e+00  1.1240188847356179e-13 -1.0438596491226868e+01 0.0000000000000000e+00  1.4931075089990968e-13 -1.0438596491226861e+01 0.0000000000000000e+00  1.8617060408827540e-13 -1.0438596491226843e+01 0.0000000000000000e+00  2.1197234854103068e-13 -1.0438596491226766e+01 0.0000000000000000e+00  2.2267269591589235e-13 -1.0438596491226679e+01 0.0000000000000000e+00  2.2034746981050052e-13 -1.0438596491226598e+01 0.0000000000000000e+00  2.1088821442412583e-13 -1.0438596491226539e+01 0.0000000000000000e+00  1.9149928166627400e-13 -1.0438596491226498e+01 0.0000000000000000e+00  1.6306352243616470e-13 -1.0438596491226447e+01 0.0000000000000000e+00  1.2987969811811370e-13 -1.0438596491226411e+01 0.0000000000000000e+00  9.1345329160358406e-14 -1.0438596491226381e+01 0.0000000000000000e+00  4.6472872018200558e-14 -1.0438596491226349e+01 0.0000000000000000e+00  -3.6977854932234949e-30 -1.0438596491226342e+01 0.0000000000000000e+00  -4.6144711674554247e-30 -1.1929824561402139e+01 0.0000000000000000e+00  3.8624882777685361e-14 -1.1929824561402159e+01 0.0000000000000000e+00  7.8937366429687673e-14 -1.1929824561402164e+01 0.0000000000000000e+00  1.2063717390849099e-13 -1.1929824561402134e+01 0.0000000000000000e+00  1.6097996516719346e-13 -1.1929824561402130e+01 0.0000000000000000e+00  1.9677908581496041e-13 -1.1929824561402111e+01 0.0000000000000000e+00  2.2065205923321845e-13 -1.1929824561402006e+01 0.0000000000000000e+00  2.3253439868017415e-13 -1.1929824561401912e+01 0.0000000000000000e+00  2.3098920695634788e-13 -1.1929824561401823e+01 0.0000000000000000e+00  2.1816228802854525e-13 -1.1929824561401762e+01 0.0000000000000000e+00  2.0054255439496794e-13 -1.1929824561401697e+01 0.0000000000000000e+00  1.7168721998374959e-13 -1.1929824561401654e+01 0.0000000000000000e+00  1.3868282563191879e-13 -1.1929824561401608e+01 0.0000000000000000e+00  9.5938876317999619e-14 -1.1929824561401562e+01 0.0000000000000000e+00  4.7461049685232761e-14 -1.1929824561401540e+01 0.0000000000000000e+00  6.8606083002782201e-32 -1.1929824561401528e+01 0.0000000000000000e+00  9.2444637330586985e-30 -1.3421052631577423e+01 0.0000000000000000e+00  4.1025792655609907e-14 -1.3421052631577426e+01 0.0000000000000000e+00  8.3533303910540633e-14 -1.3421052631577446e+01 0.0000000000000000e+00  1.2816146478570808e-13 -1.3421052631577425e+01 0.0000000000000000e+00  1.6951945208946982e-13 -1.3421052631577405e+01 0.0000000000000000e+00  2.0101744070329347e-13 -1.3421052631577378e+01 0.0000000000000000e+00  2.2597139079503508e-13 -1.3421052631577268e+01 0.0000000000000000e+00  2.4096168242817644e-13 -1.3421052631577163e+01 0.0000000000000000e+00  2.3563907706911810e-13 -1.3421052631577055e+01 0.0000000000000000e+00  2.2390819639964824e-13 -1.3421052631576986e+01 0.0000000000000000e+00  2.0996875567369697e-13 -1.3421052631576913e+01 0.0000000000000000e+00  1.7993454925122426e-13 -1.3421052631576876e+01 0.0000000000000000e+00  1.4184274665080934e-13 -1.3421052631576840e+01 0.0000000000000000e+00  9.8363626999649576e-14 -1.3421052631576767e+01 0.0000000000000000e+00  4.7497986731419824e-14 -1.3421052631576746e+01 0.0000000000000000e+00  -9.6048516203894517e-31 -1.3421052631576703e+01 0.0000000000000000e+00  1.5055756203452848e-30 -1.4912280701752701e+01 0.0000000000000000e+00  4.2486592832522399e-14 -1.4912280701752692e+01 0.0000000000000000e+00  8.8570187250611043e-14 -1.4912280701752715e+01 0.0000000000000000e+00  1.3212178600850570e-13 -1.4912280701752685e+01 0.0000000000000000e+00  1.7228724195985283e-13 -1.4912280701752666e+01 0.0000000000000000e+00  2.0385363867575721e-13 -1.4912280701752632e+01 0.0000000000000000e+00  2.2763680670575016e-13 -1.4912280701752524e+01 0.0000000000000000e+00  2.4441588952230916e-13 -1.4912280701752408e+01 0.0000000000000000e+00  2.4318029715597393e-13 -1.4912280701752278e+01 0.0000000000000000e+00  2.2900313393488602e-13 -1.4912280701752225e+01 0.0000000000000000e+00  2.1254963714289338e-13 -1.4912280701752127e+01 0.0000000000000000e+00  1.8397415214097165e-13 -1.4912280701752049e+01 0.0000000000000000e+00  1.4369741769151503e-13 -1.4912280701752019e+01 0.0000000000000000e+00  9.7943175297394705e-14 -1.4912280701751932e+01 0.0000000000000000e+00  4.8883826824729011e-14 -1.4912280701751925e+01 0.0000000000000000e+00  -1.4196855018625946e-29 -1.4912280701751911e+01 0.0000000000000000e+00  -2.3111159332646746e-30 -1.6403508771927950e+01 0.0000000000000000e+00  4.4050997857913973e-14 -1.6403508771927967e+01 0.0000000000000000e+00  9.0153287844122247e-14 -1.6403508771927992e+01 0.0000000000000000e+00  1.3370835033729617e-13 -1.6403508771927946e+01 0.0000000000000000e+00  1.7147408856293273e-13 -1.6403508771927928e+01 0.0000000000000000e+00  2.0784015357984727e-13 -1.6403508771927893e+01 0.0000000000000000e+00  2.3030509052600732e-13 -1.6403508771927779e+01 0.0000000000000000e+00  2.4548749610387816e-13 -1.6403508771927651e+01 0.0000000000000000e+00  2.4670736662439928e-13 -1.6403508771927505e+01 0.0000000000000000e+00  2.3298284572260908e-13 -1.6403508771927431e+01 0.0000000000000000e+00  2.0944604827710282e-13 -1.6403508771927346e+01 0.0000000000000000e+00  1.8328125312132362e-13 -1.6403508771927264e+01 0.0000000000000000e+00  1.4648175990178317e-13 -1.6403508771927203e+01 0.0000000000000000e+00  9.9023061568234132e-14 -1.6403508771927140e+01 0.0000000000000000e+00  5.2737740804107890e-14 -1.6403508771927118e+01 0.0000000000000000e+00  4.6222318665293478e-30 -1.6403508771927086e+01 0.0000000000000000e+00  1.3036818704167266e-29 -1.7894736842103239e+01 0.0000000000000000e+00  4.5085547741838245e-14 -1.7894736842103242e+01 0.0000000000000000e+00  9.2656460214767621e-14 -1.7894736842103267e+01 0.0000000000000000e+00  1.3325564039257723e-13 -1.7894736842103217e+01 0.0000000000000000e+00  1.7197145820034156e-13 -1.7894736842103214e+01 0.0000000000000000e+00  2.0588905314802260e-13 -1.7894736842103139e+01 0.0000000000000000e+00  2.3193608142811422e-13 -1.7894736842103036e+01 0.0000000000000000e+00  2.4546596400177120e-13 -1.7894736842102894e+01 0.0000000000000000e+00  2.4548063835574989e-13 -1.7894736842102756e+01 0.0000000000000000e+00  2.3442038725782601e-13 -1.7894736842102663e+01 0.0000000000000000e+00  2.0723915758327727e-13 -1.7894736842102578e+01 0.0000000000000000e+00  1.8250696257462989e-13 -1.7894736842102475e+01 0.0000000000000000e+00  1.4923411734484220e-13 -1.7894736842102422e+01 0.0000000000000000e+00  1.0194239166172245e-13 -1.7894736842102350e+01 0.0000000000000000e+00  5.3216800410417610e-14 -1.7894736842102308e+01 0.0000000000000000e+00  -8.6862689537018124e-30 -1.7894736842102290e+01 0.0000000000000000e+00  -1.8951150652770415e-29 -1.9385964912278503e+01 0.0000000000000000e+00  5.0981499170404649e-14 -1.9385964912278524e+01 0.0000000000000000e+00  9.5248097323487693e-14 -1.9385964912278538e+01 0.0000000000000000e+00  1.3639241049115858e-13 -1.9385964912278485e+01 0.0000000000000000e+00  1.7145555743352672e-13 -1.9385964912278485e+01 0.0000000000000000e+00  2.0452755404910795e-13 -1.9385964912278435e+01 0.0000000000000000e+00  2.3265117509557172e-13 -1.9385964912278290e+01 0.0000000000000000e+00  2.4270851695981837e-13 -1.9385964912278144e+01 0.0000000000000000e+00  2.4236974758015609e-13 -1.9385964912277984e+01 0.0000000000000000e+00  2.2972004779582800e-13 -1.9385964912277867e+01 0.0000000000000000e+00  2.0650972100627720e-13 -1.9385964912277789e+01 0.0000000000000000e+00  1.7859643486403396e-13 -1.9385964912277700e+01 0.0000000000000000e+00  1.4885949233786960e-13 -1.9385964912277611e+01 0.0000000000000000e+00  1.0436917491955016e-13 -1.9385964912277547e+01 0.0000000000000000e+00  4.9716246158336156e-14 -1.9385964912277515e+01 0.0000000000000000e+00  -7.8147269109969640e-30 -1.9385964912277476e+01 0.0000000000000000e+00  1.8346478709696050e-29 -2.0877192982453796e+01 0.0000000000000000e+00  5.3989799929576421e-14 -2.0877192982453781e+01 0.0000000000000000e+00  1.0128700830388943e-13 -2.0877192982453813e+01 0.0000000000000000e+00  1.3768241289122001e-13 -2.0877192982453774e+01 0.0000000000000000e+00  1.7202716265804264e-13 -2.0877192982453732e+01 0.0000000000000000e+00  2.0117135395634038e-13 -2.0877192982453693e+01 0.0000000000000000e+00  2.2720260802177720e-13 -2.0877192982453547e+01 0.0000000000000000e+00  2.4116113892758106e-13 -2.0877192982453369e+01 0.0000000000000000e+00  2.4032286761316411e-13 -2.0877192982453213e+01 0.0000000000000000e+00  2.2340618120658781e-13 -2.0877192982453135e+01 0.0000000000000000e+00  2.0784625469465420e-13 -2.0877192982453018e+01 0.0000000000000000e+00  1.7998638490327945e-13 -2.0877192982452915e+01 0.0000000000000000e+00  1.4326291553973388e-13 -2.0877192982452847e+01 0.0000000000000000e+00  1.0316568627765436e-13 -2.0877192982452755e+01 0.0000000000000000e+00  4.9529720258149498e-14 -2.0877192982452701e+01 0.0000000000000000e+00  1.2678121691051923e-29 -2.0877192982452687e+01 0.0000000000000000e+00  -4.1600086798764414e-30 -2.2368421052629074e+01 0.0000000000000000e+00  5.9406241417000013e-14 -2.2368421052629056e+01 0.0000000000000000e+00  1.1085699990019860e-13 -2.2368421052629099e+01 0.0000000000000000e+00  1.4259966072395788e-13 -2.2368421052629024e+01 0.0000000000000000e+00  1.7267563244906790e-13 -2.2368421052628989e+01 0.0000000000000000e+00  2.0066549061033407e-13 -2.2368421052628968e+01 0.0000000000000000e+00  2.2477880438923974e-13 -2.2368421052628822e+01 0.0000000000000000e+00  2.3426927090695408e-13 -2.2368421052628644e+01 0.0000000000000000e+00  2.3476884708478127e-13 -2.2368421052628459e+01 0.0000000000000000e+00  2.2468397689090512e-13 -2.2368421052628346e+01 0.0000000000000000e+00  2.0584796993459556e-13 -2.2368421052628221e+01 0.0000000000000000e+00  1.7954081938415281e-13 -2.2368421052628115e+01 0.0000000000000000e+00  1.4072635281707716e-13 -2.2368421052628044e+01 0.0000000000000000e+00  9.6660682365810433e-14 -2.2368421052627923e+01 0.0000000000000000e+00  5.0579983642754734e-14 -2.2368421052627902e+01 0.0000000000000000e+00  -9.2444637330587573e-30 -2.2368421052627895e+01 0.0000000000000000e+00  -5.6086360470358946e-30 -2.3859649122804370e+01 0.0000000000000000e+00  5.8220563787444941e-14 -2.3859649122804363e+01 0.0000000000000000e+00  1.1553286356369028e-13 -2.3859649122804338e+01 0.0000000000000000e+00  1.5495182869108644e-13 -2.3859649122804299e+01 0.0000000000000000e+00  1.7287574625477977e-13 -2.3859649122804264e+01 0.0000000000000000e+00  2.0172864352381128e-13 -2.3859649122804214e+01 0.0000000000000000e+00  2.2361540366403687e-13 -2.3859649122804058e+01 0.0000000000000000e+00  2.2531191643110108e-13 -2.3859649122803855e+01 0.0000000000000000e+00  2.2364477217034616e-13 -2.3859649122803717e+01 0.0000000000000000e+00  2.2698555475306551e-13 -2.3859649122803567e+01 0.0000000000000000e+00  2.0756578443615882e-13 -2.3859649122803482e+01 0.0000000000000000e+00  1.7691435734533419e-13 -2.3859649122803340e+01 0.0000000000000000e+00  1.3783726611130299e-13 -2.3859649122803258e+01 0.0000000000000000e+00  9.5847989699515193e-14 -2.3859649122803166e+01 0.0000000000000000e+00  5.2846685482906076e-14 -2.3859649122803127e+01 0.0000000000000000e+00  4.7301566308936607e-30 -2.3859649122803084e+01 0.0000000000000000e+00  1.2017802852976360e-29 -2.5350877192979652e+01 0.0000000000000000e+00  5.7648248987282255e-14 -2.5350877192979638e+01 0.0000000000000000e+00  1.2029593365409402e-13 -2.5350877192979656e+01 0.0000000000000000e+00  1.6020821381483229e-13 -2.5350877192979553e+01 0.0000000000000000e+00  1.8209547841629030e-13 -2.5350877192979517e+01 0.0000000000000000e+00  2.0130498991596330e-13 -2.5350877192979492e+01 0.0000000000000000e+00  2.1453195073646217e-13 -2.5350877192979308e+01 0.0000000000000000e+00  2.1712566361593763e-13 -2.5350877192979109e+01 0.000