<?xml version="1.0"?>
<VTKFile type="UnstructuredGrid"  version="0.1"  >
<UnstructuredGrid>
<Piece  NumberOfPoints="1876" NumberOfCells="3600">
<Points>
<DataArray  type="Float64"  NumberOfComponents="3"  format="ascii">-0.75 -3 0  -0.65 -3 0  -0.55 -3 0  -0.45 -3 0  -0.35 -3 0  -0.25 -3 0  -0.15 -3 0  -0.05000000000000004 -3 0  0.05000000000000004 -3 0  0.15 -3 0  0.25 -3 0  0.3500000000000001 -3 0  0.45 -3 0  0.55 -3 0  0.6499999999999999 -3 0  0.75 -3 0  -0.75 -2.95 0  -0.65 -2.95 0  -0.55 -2.95 0  -0.45 -2.95 0  -0.35 -2.95 0  -0.25 -2.95 0  -0.15 -2.95 0  -0.05000000000000004 -2.95 0  0.05000000000000004 -2.95 0  0.15 -2.95 0  0.25 -2.95 0  0.3500000000000001 -2.95 0  0.45 -2.95 0  0.55 -2.95 0  0.6499999999999999 -2.95 0  0.75 -2.95 0  -0.75 -2.9 0  -0.65 -2.9 0  -0.55 -2.9 0  -0.45 -2.9 0  -0.35 -2.9 0  -0.25 -2.9 0  -0.15 -2.9 0  -0.05000000000000004 -2.9 0  0.05000000000000004 -2.9 0  0.15 -2.9 0  0.25 -2.9 0  0.3500000000000001 -2.9 0  0.45 -2.9 0  0.55 -2.9 0  0.6499999999999999 -2.9 0  0.75 -2.9 0  -0.75 -2.85 0  -0.65 -2.85 0  -0.55 -2.85 0  -0.45 -2.85 0  -0.35 -2.85 0  -0.25 -2.85 0  -0.15 -2.85 0  -0.05000000000000004 -2.85 0  0.05000000000000004 -2.85 0  0.15 -2.85 0  0.25 -2.85 0  0.3500000000000001 -2.85 0  0.45 -2.85 0  0.55 -2.85 0  0.6499999999999999 -2.85 0  0.75 -2.85 0  -0.75 -2.8 0  -0.65 -2.8 0  -0.55 -2.8 0  -0.45 -2.8 0  -0.35 -2.8 0  -0.25 -2.8 0  -0.15 -2.8 0  -0.05000000000000004 -2.8 0  0.05000000000000004 -2.8 0  0.15 -2.8 0  0.25 -2.8 0  0.3500000000000001 -2.8 0  0.45 -2.8 0  0.55 -2.8 0  0.6499999999999999 -2.8 0  0.75 -2.8 0  -0.75 -2.75 0  -0.65 -2.75 0  -0.55 -2.75 0  -0.45 -2.75 0  -0.35 -2.75 0  -0.25 -2.75 0  -0.15 -2.75 0  -0.05000000000000004 -2.75 0  0.05000000000000004 -2.75 0  0.15 -2.75 0  0.25 -2.75 0  0.3500000000000001 -2.75 0  0.45 -2.75 0  0.55 -2.75 0  0.6499999999999999 -2.75 0  0.75 -2.75 0  -0.75 -2.7 0  -0.65 -2.7 0  -0.55 -2.7 0  -0.45 -2.7 0  -0.35 -2.7 0  -0.25 -2.7 0  -0.15 -2.7 0  -0.05000000000000004 -2.7 0  0.05000000000000004 -2.7 0  0.15 -2.7 0  0.25 -2.7 0  0.3500000000000001 -2.7 0  0.45 -2.7 0  0.55 -2.7 0  0.6499999999999999 -2.7 0  0.75 -2.7 0  -0.75 -2.65 0  -0.65 -2.65 0  -0.55 -2.65 0  -0.45 -2.65 0  -0.35 -2.65 0  -0.25 -2.65 0  -0.15 -2.65 0  -0.05000000000000004 -2.65 0  0.05000000000000004 -2.65 0  0.15 -2.65 0  0.25 -2.65 0  0.3500000000000001 -2.65 0  0.45 -2.65 0  0.55 -2.65 0  0.6499999999999999 -2.65 0  0.75 -2.65 0  -0.75 -2.6 0  -0.65 -2.6 0  -0.55 -2.6 0  -0.45 -2.6 0  -0.35 -2.6 0  -0.25 -2.6 0  -0.15 -2.6 0  -0.05000000000000004 -2.6 0  0.05000000000000004 -2.6 0  0.15 -2.6 0  0.25 -2.6 0  0.3500000000000001 -2.6 0  0.45 -2.6 0  0.55 -2.6 0  0.6499999999999999 -2.6 0  0.75 -2.6 0  -0.75 -2.55 0  -0.65 -2.55 0  -0.55 -2.55 0  -0.45 -2.55 0  -0.35 -2.55 0  -0.25 -2.55 0  -0.15 -2.55 0  -0.05000000000000004 -2.55 0  0.05000000000000004 -2.55 0  0.15 -2.55 0  0.25 -2.55 0  0.3500000000000001 -2.55 0  0.45 -2.55 0  0.55 -2.55 0  0.6499999999999999 -2.55 0  0.75 -2.55 0  -0.75 -2.5 0  -0.65 -2.5 0  -0.55 -2.5 0  -0.45 -2.5 0  -0.35 -2.5 0  -0.25 -2.5 0  -0.15 -2.5 0  -0.05000000000000004 -2.5 0  0.05000000000000004 -2.5 0  0.15 -2.5 0  0.25 -2.5 0  0.3500000000000001 -2.5 0  0.45 -2.5 0  0.55 -2.5 0  0.6499999999999999 -2.5 0  0.75 -2.5 0  -0.75 -2.45 0  -0.65 -2.45 0  -0.55 -2.45 0  -0.45 -2.45 0  -0.35 -2.45 0  -0.25 -2.45 0  -0.15 -2.45 0  -0.05000000000000004 -2.45 0  0.05000000000000004 -2.45 0  0.15 -2.45 0  0.25 -2.45 0  0.3500000000000001 -2.45 0  0.45 -2.45 0  0.55 -2.45 0  0.6499999999999999 -2.45 0  0.75 -2.45 0  -0.75 -2.4 0  -0.65 -2.4 0  -0.55 -2.4 0  -0.45 -2.4 0  -0.35 -2.4 0  -0.25 -2.4 0  -0.15 -2.4 0  -0.05000000000000004 -2.4 0  0.05000000000000004 -2.4 0  0.15 -2.4 0  0.25 -2.4 0  0.3500000000000001 -2.4 0  0.45 -2.4 0  0.55 -2.4 0  0.6499999999999999 -2.4 0  0.75 -2.4 0  -0.75 -2.35 0  -0.65 -2.35 0  -0.55 -2.35 0  -0.45 -2.35 0  -0.35 -2.35 0  -0.25 -2.35 0  -0.15 -2.35 0  -0.05000000000000004 -2.35 0  0.05000000000000004 -2.35 0  0.15 -2.35 0  0.25 -2.35 0  0.3500000000000001 -2.35 0  0.45 -2.35 0  0.55 -2.35 0  0.6499999999999999 -2.35 0  0.75 -2.35 0  -0.75 -2.3 0  -0.65 -2.3 0  -0.55 -2.3 0  -0.45 -2.3 0  -0.35 -2.3 0  -0.25 -2.3 0  -0.15 -2.3 0  -0.05000000000000004 -2.3 0  0.05000000000000004 -2.3 0  0.15 -2.3 0  0.25 -2.3 0  0.3500000000000001 -2.3 0  0.45 -2.3 0  0.55 -2.3 0  0.6499999999999999 -2.3 0  0.75 -2.3 0  -0.75 -2.25 0  -0.65 -2.25 0  -0.55 -2.25 0  -0.45 -2.25 0  -0.35 -2.25 0  -0.25 -2.25 0  -0.15 -2.25 0  -0.05000000000000004 -2.25 0  0.05000000000000004 -2.25 0  0.15 -2.25 0  0.25 -2.25 0  0.3500000000000001 -2.25 0  0.45 -2.25 0  0.55 -2.25 0  0.6499999999999999 -2.25 0  0.75 -2.25 0  -0.75 -2.2 0  -0.65 -2.2 0  -0.55 -2.2 0  -0.45 -2.2 0  -0.35 -2.2 0  -0.25 -2.2 0  -0.15 -2.2 0  -0.05000000000000004 -2.2 0  0.05000000000000004 -2.2 0  0.15 -2.2 0  0.25 -2.2 0  0.3500000000000001 -2.2 0  0.45 -2.2 0  0.55 -2.2 0  0.6499999999999999 -2.2 0  0.75 -2.2 0  -0.75 -2.15 0  -0.65 -2.15 0  -0.55 -2.15 0  -0.45 -2.15 0  -0.35 -2.15 0  -0.25 -2.15 0  -0.15 -2.15 0  -0.05000000000000004 -2.15 0  0.05000000000000004 -2.15 0  0.15 -2.15 0  0.25 -2.15 0  0.3500000000000001 -2.15 0  0.45 -2.15 0  0.55 -2.15 0  0.6499999999999999 -2.15 0  0.75 -2.15 0  -0.75 -2.1 0  -0.65 -2.1 0  -0.55 -2.1 0  -0.45 -2.1 0  -0.35 -2.1 0  -0.25 -2.1 0  -0.15 -2.1 0  -0.05000000000000004 -2.1 0  0.05000000000000004 -2.1 0  0.15 -2.1 0  0.25 -2.1 0  0.3500000000000001 -2.1 0  0.45 -2.1 0  0.55 -2.1 0  0.6499999999999999 -2.1 0  0.75 -2.1 0  -0.75 -2.05 0  -0.65 -2.05 0  -0.55 -2.05 0  -0.45 -2.05 0  -0.35 -2.05 0  -0.25 -2.05 0  -0.15 -2.05 0  -0.05000000000000004 -2.05 0  0.05000000000000004 -2.05 0  0.15 -2.05 0  0.25 -2.05 0  0.3500000000000001 -2.05 0  0.45 -2.05 0  0.55 -2.05 0  0.6499999999999999 -2.05 0  0.75 -2.05 0  -0.75 -2 0  -0.65 -2 0  -0.55 -2 0  -0.45 -2 0  -0.35 -2 0  -0.25 -2 0  -0.15 -2 0  -0.05000000000000004 -2 0  0.05000000000000004 -2 0  0.15 -2 0  0.25 -2 0  0.3500000000000001 -2 0  0.45 -2 0  0.55 -2 0  0.6499999999999999 -2 0  0.75 -2 0  -0.75 -1.95 0  -0.65 -1.95 0  -0.55 -1.95 0  -0.45 -1.95 0  -0.35 -1.95 0  -0.25 -1.95 0  -0.15 -1.95 0  -0.05000000000000004 -1.95 0  0.05000000000000004 -1.95 0  0.15 -1.95 0  0.25 -1.95 0  0.3500000000000001 -1.95 0  0.45 -1.95 0  0.55 -1.95 0  0.6499999999999999 -1.95 0  0.75 -1.95 0  -0.75 -1.9 0  -0.65 -1.9 0  -0.55 -1.9 0  -0.45 -1.9 0  -0.35 -1.9 0  -0.25 -1.9 0  -0.15 -1.9 0  -0.05000000000000004 -1.9 0  0.05000000000000004 -1.9 0  0.15 -1.9 0  0.25 -1.9 0  0.3500000000000001 -1.9 0  0.45 -1.9 0  0.55 -1.9 0  0.6499999999999999 -1.9 0  0.75 -1.9 0  -0.75 -1.85 0  -0.65 -1.85 0  -0.55 -1.85 0  -0.45 -1.85 0  -0.35 -1.85 0  -0.25 -1.85 0  -0.15 -1.85 0  -0.05000000000000004 -1.85 0  0.05000000000000004 -1.85 0  0.15 -1.85 0  0.25 -1.85 0  0.3500000000000001 -1.85 0  0.45 -1.85 0  0.55 -1.85 0  0.6499999999999999 -1.85 0  0.75 -1.85 0  -0.75 -1.8 0  -0.65 -1.8 0  -0.55 -1.8 0  -0.45 -1.8 0  -0.35 -1.8 0  -0.25 -1.8 0  -0.15 -1.8 0  -0.05000000000000004 -1.8 0  0.05000000000000004 -1.8 0  0.15 -1.8 0  0.25 -1.8 0  0.3500000000000001 -1.8 0  0.45 -1.8 0  0.55 -1.8 0  0.6499999999999999 -1.8 0  0.75 -1.8 0  -0.75 -1.75 0  -0.65 -1.75 0  -0.55 -1.75 0  -0.45 -1.75 0  -0.35 -1.75 0  -0.25 -1.75 0  -0.15 -1.75 0  -0.05000000000000004 -1.75 0  0.05000000000000004 -1.75 0  0.15 -1.75 0  0.25 -1.75 0  0.3500000000000001 -1.75 0  0.45 -1.75 0  0.55 -1.75 0  0.6499999999999999 -1.75 0  0.75 -1.75 0  -0.75 -1.7 0  -0.65 -1.7 0  -0.55 -1.7 0  -0.45 -1.7 0  -0.35 -1.7 0  -0.25 -1.7 0  -0.15 -1.7 0  -0.05000000000000004 -1.7 0  0.05000000000000004 -1.7 0  0.15 -1.7 0  0.25 -1.7 0  0.3500000000000001 -1.7 0  0.45 -1.7 0  0.55 -1.7 0  0.6499999999999999 -1.7 0  0.75 -1.7 0  -0.75 -1.65 0  -0.65 -1.65 0  -0.55 -1.65 0  -0.45 -1.65 0  -0.35 -1.65 0  -0.25 -1.65 0  -0.15 -1.65 0  -0.05000000000000004 -1.65 0  0.05000000000000004 -1.65 0  0.15 -1.65 0  0.25 -1.65 0  0.3500000000000001 -1.65 0  0.45 -1.65 0  0.55 -1.65 0  0.6499999999999999 -1.65 0  0.75 -1.65 0  -0.75 -1.6 0  -0.65 -1.6 0  -0.55 -1.6 0  -0.45 -1.6 0  -0.35 -1.6 0  -0.25 -1.6 0  -0.15 -1.6 0  -0.05000000000000004 -1.6 0  0.05000000000000004 -1.6 0  0.15 -1.6 0  0.25 -1.6 0  0.3500000000000001 -1.6 0  0.45 -1.6 0  0.55 -1.6 0  0.6499999999999999 -1.6 0  0.75 -1.6 0  -0.75 -1.55 0  -0.65 -1.55 0  -0.55 -1.55 0  -0.45 -1.55 0  -0.35 -1.55 0  -0.25 -1.55 0  -0.15 -1.55 0  -0.05000000000000004 -1.55 0  0.05000000000000004 -1.55 0  0.15 -1.55 0  0.25 -1.55 0  0.3500000000000001 -1.55 0  0.45 -1.55 0  0.55 -1.55 0  0.6499999999999999 -1.55 0  0.75 -1.55 0  -0.75 -1.5 0  -0.65 -1.5 0  -0.55 -1.5 0  -0.45 -1.5 0  -0.35 -1.5 0  -0.25 -1.5 0  -0.15 -1.5 0  -0.05000000000000004 -1.5 0  0.05000000000000004 -1.5 0  0.15 -1.5 0  0.25 -1.5 0  0.3500000000000001 -1.5 0  0.45 -1.5 0  0.55 -1.5 0  0.6499999999999999 -1.5 0  0.75 -1.5 0  -0.75 -1.45 0  -0.65 -1.45 0  -0.55 -1.45 0  -0.45 -1.45 0  -0.35 -1.45 0  -0.25 -1.45 0  -0.15 -1.45 0  -0.05000000000000004 -1.45 0  0.05000000000000004 -1.45 0  0.15 -1.45 0  0.25 -1.45 0  0.3500000000000001 -1.45 0  0.45 -1.45 0  0.55 -1.45 0  0.6499999999999999 -1.45 0  0.75 -1.45 0  -0.75 -1.4 0  -0.65 -1.4 0  -0.55 -1.4 0  -0.45 -1.4 0  -0.35 -1.4 0  -0.25 -1.4 0  -0.15 -1.4 0  -0.05000000000000004 -1.4 0  0.05000000000000004 -1.4 0  0.15 -1.4 0  0.25 -1.4 0  0.3500000000000001 -1.4 0  0.45 -1.4 0  0.55 -1.4 0  0.6499999999999999 -1.4 0  0.75 -1.4 0  -0.75 -1.35 0  -0.65 -1.35 0  -0.55 -1.35 0  -0.45 -1.35 0  -0.35 -1.35 0  -0.25 -1.35 0  -0.15 -1.35 0  -0.05000000000000004 -1.35 0  0.05000000000000004 -1.35 0  0.15 -1.35 0  0.25 -1.35 0  0.3500000000000001 -1.35 0  0.45 -1.35 0  0.55 -1.35 0  0.6499999999999999 -1.35 0  0.75 -1.35 0  -0.75 -1.3 0  -0.65 -1.3 0  -0.55 -1.3 0  -0.45 -1.3 0  -0.35 -1.3 0  -0.25 -1.3 0  -0.15 -1.3 0  -0.05000000000000004 -1.3 0  0.05000000000000004 -1.3 0  0.15 -1.3 0  0.25 -1.3 0  0.3500000000000001 -1.3 0  0.45 -1.3 0  0.55 -1.3 0  0.6499999999999999 -1.
[...]
<PointData  Vectors="displacement"> 
<DataArray  type="Float64"  Name="displacement"  NumberOfComponents="3" format="ascii">7.7582627154271061e-35 -4.7645603283054526e-20 0.0000000000000000e+00  -5.8441883140538888e-35 1.7370792863613645e-21 0.0000000000000000e+00  2.8211864419734994e-34 -2.3822801641527278e-20 0.0000000000000000e+00  -8.0227489443621400e-35 -1.3462364469300572e-20 0.0000000000000000e+00  -5.6423728839469982e-35 -1.5881867761018183e-20 0.0000000000000000e+00  7.9494998019710821e-34 7.9320801274807696e-23 0.0000000000000000e+00  -1.6927118651841000e-34 1.9852334701272736e-21 0.0000000000000000e+00  9.7344863023848738e-34 1.5388235447312737e-20 0.0000000000000000e+00  7.3350847491310980e-34 -1.9852334701272727e-20 0.0000000000000000e+00  1.1677976360847897e-34 2.9854040288316210e-20 0.0000000000000000e+00  5.6423728839469950e-35 -2.1837568171399988e-20 0.0000000000000000e+00  7.6286735033056251e-34 1.4654417862978574e-20 0.0000000000000000e+00  -5.0781355955522983e-34 -7.9409338805090913e-21 0.0000000000000000e+00  4.5288010013746868e-34 2.8165499857430671e-20 0.0000000000000000e+00  -1.4105932209867510e-34 0.0000000000000000e+00 0.0000000000000000e+00  1.1284745767893988e-34 1.5881867761018170e-20 0.0000000000000000e+00  -8.4635593259204401e-35 -1.4912280701752541e-04 0.0000000000000000e+00  7.0096374640390278e-19 -1.4912280701752582e-04 0.0000000000000000e+00  1.4994082459839728e-18 -1.4912280701752584e-04 0.0000000000000000e+00  2.4690049755159053e-18 -1.4912280701752579e-04 0.0000000000000000e+00  3.2827138975088697e-18 -1.4912280701752541e-04 0.0000000000000000e+00  4.3239078274039128e-18 -1.4912280701752514e-04 0.0000000000000000e+00  5.1589652988683358e-18 -1.4912280701752427e-04 0.0000000000000000e+00  5.3801657259300198e-18 -1.4912280701752340e-04 0.0000000000000000e+00  5.5296552923214368e-18 -1.4912280701752240e-04 0.0000000000000000e+00  4.9596858579711682e-18 -1.4912280701752172e-04 0.0000000000000000e+00  4.2654209837503299e-18 -1.4912280701752113e-04 0.0000000000000000e+00  3.8562065194577113e-18 -1.4912280701752064e-04 0.0000000000000000e+00  3.1193502446639008e-18 -1.4912280701751991e-04 0.0000000000000000e+00  2.1155757474494987e-18 -1.4912280701751977e-04 0.0000000000000000e+00  1.1190901832130498e-18 -1.4912280701751945e-04 0.0000000000000000e+00  -2.5037856882408922e-34 -1.4912280701751953e-04 0.0000000000000000e+00  4.2317796629602382e-35 -2.9824561403505288e-04 0.0000000000000000e+00  1.3570349051239453e-18 -2.9824561403505304e-04 0.0000000000000000e+00  2.8790124587201463e-18 -2.9824561403505348e-04 0.0000000000000000e+00  4.6140409261612714e-18 -2.9824561403505256e-04 0.0000000000000000e+00  6.3444663882879695e-18 -2.9824561403505250e-04 0.0000000000000000e+00  7.9189269940656608e-18 -2.9824561403505218e-04 0.0000000000000000e+00  9.3524600446386461e-18 -2.9824561403505028e-04 0.0000000000000000e+00  1.0013291697431999e-17 -2.9824561403504816e-04 0.0000000000000000e+00  1.0000262539741573e-17 -2.9824561403504610e-04 0.0000000000000000e+00  9.2056668985930733e-18 -2.9824561403504399e-04 0.0000000000000000e+00  8.0589752689974872e-18 -2.9824561403504345e-04 0.0000000000000000e+00  7.1192915722435634e-18 -2.9824561403504226e-04 0.0000000000000000e+00  5.7996007691576939e-18 -2.9824561403504090e-04 0.0000000000000000e+00  3.8492635737116500e-18 -2.9824561403504063e-04 0.0000000000000000e+00  1.9837710111704512e-18 -2.9824561403503971e-04 0.0000000000000000e+00  7.6575060567851844e-35 -2.9824561403503955e-04 0.0000000000000000e+00  -3.3854237303681906e-34 -4.4736842105257900e-04 0.0000000000000000e+00  2.1277340160518001e-18 -4.4736842105257938e-04 0.0000000000000000e+00  4.0496002592042171e-18 -4.4736842105258013e-04 0.0000000000000000e+00  6.4792804959235591e-18 -4.4736842105257889e-04 0.0000000000000000e+00  9.0051169895430872e-18 -4.4736842105257845e-04 0.0000000000000000e+00  1.1004139275968897e-17 -4.4736842105257791e-04 0.0000000000000000e+00  1.2850997595159847e-17 -4.4736842105257482e-04 0.0000000000000000e+00  1.3891911944905196e-17 -4.4736842105257173e-04 0.0000000000000000e+00  1.3720938293739140e-17 -4.4736842105256853e-04 0.0000000000000000e+00  1.2700359472952333e-17 -4.4736842105256582e-04 0.0000000000000000e+00  1.1394333200276965e-17 -4.4736842105256458e-04 0.0000000000000000e+00  9.8814932730759579e-18 -4.4736842105256300e-04 0.0000000000000000e+00  7.9844220005492695e-18 -4.4736842105256089e-04 0.0000000000000000e+00  5.3109314344838153e-18 -4.4736842105255953e-04 0.0000000000000000e+00  2.6049812353754039e-18 -4.4736842105255899e-04 0.0000000000000000e+00  -2.8211864419734909e-34 -4.4736842105255823e-04 0.0000000000000000e+00  1.9304854367776017e-34 -5.9649122807010750e-04 0.0000000000000000e+00  2.6465805842260442e-18 -5.9649122807010674e-04 0.0000000000000000e+00  5.2439299265765566e-18 -5.9649122807010760e-04 0.0000000000000000e+00  8.1946951093167059e-18 -5.9649122807010739e-04 0.0000000000000000e+00  1.1119526798416791e-17 -5.9649122807010609e-04 0.0000000000000000e+00  1.3438478762262207e-17 -5.9649122807010511e-04 0.0000000000000000e+00  1.5697763290277392e-17 -5.9649122807010099e-04 0.0000000000000000e+00  1.7172286997543121e-17 -5.9649122807009644e-04 0.0000000000000000e+00  1.6758271141314664e-17 -5.9649122807009167e-04 0.0000000000000000e+00  1.5564126661306902e-17 -5.9649122807008917e-04 0.0000000000000000e+00  1.4365856614461374e-17 -5.9649122807008625e-04 0.0000000000000000e+00  1.2278525021749280e-17 -5.9649122807008484e-04 0.0000000000000000e+00  9.7457976184671277e-18 -5.9649122807008137e-04 0.0000000000000000e+00  6.5150330741778748e-18 -5.9649122807007985e-04 0.0000000000000000e+00  3.2229080886500692e-18 -5.9649122807007833e-04 0.0000000000000000e+00  1.0825830674235841e-34 -5.9649122807007768e-04 0.0000000000000000e+00  8.4635593259204936e-35 -7.4561403508763388e-04 0.0000000000000000e+00  3.0145415682899785e-18 -7.4561403508763432e-04 0.0000000000000000e+00  6.1833504219387568e-18 -7.4561403508763464e-04 0.0000000000000000e+00  9.5292287749998013e-18 -7.4561403508763334e-04 0.0000000000000000e+00  1.2672714689830829e-17 -7.4561403508763236e-04 0.0000000000000000e+00  1.5663794101946280e-17 -7.4561403508763117e-04 0.0000000000000000e+00  1.8319550761052525e-17 -7.4561403508762586e-04 0.0000000000000000e+00  1.9579984683810382e-17 -7.4561403508762066e-04 0.0000000000000000e+00  1.9254195693479993e-17 -7.4561403508761437e-04 0.0000000000000000e+00  1.8273787492918798e-17 -7.4561403508761046e-04 0.0000000000000000e+00  1.6569625448310383e-17 -7.4561403508760678e-04 0.0000000000000000e+00  1.4101928230110919e-17 -7.4561403508760385e-04 0.0000000000000000e+00  1.1007719157024471e-17 -7.4561403508760179e-04 0.0000000000000000e+00  7.5260472268882462e-18 -7.4561403508759800e-04 0.0000000000000000e+00  3.8927860975493182e-18 -7.4561403508759713e-04 0.0000000000000000e+00  6.4248113112130823e-35 -7.4561403508759637e-04 0.0000000000000000e+00  -8.6029440851438579e-34 -8.9473684210516038e-04 0.0000000000000000e+00  3.1832482418935668e-18 -8.9473684210516135e-04 0.0000000000000000e+00  6.9042594276327171e-18 -8.9473684210516081e-04 0.0000000000000000e+00  1.0647452938374153e-17 -8.9473684210515973e-04 0.0000000000000000e+00  1.4089836276713721e-17 -8.9473684210515853e-04 0.0000000000000000e+00  1.7585320621593884e-17 -8.9473684210515604e-04 0.0000000000000000e+00  2.0408635840431717e-17 -8.9473684210515203e-04 0.0000000000000000e+00  2.1455062105389715e-17 -8.9473684210514325e-04 0.0000000000000000e+00  2.1119310012028218e-17 -8.9473684210513685e-04 0.0000000000000000e+00  2.0299811193372327e-17 -8.9473684210513089e-04 0.0000000000000000e+00  1.8184039753692533e-17 -8.9473684210512818e-04 0.0000000000000000e+00  1.5512245434205073e-17 -8.9473684210512297e-04 0.0000000000000000e+00  1.2255766974849453e-17 -8.9473684210512102e-04 0.0000000000000000e+00  8.5799513001453240e-18 -8.9473684210511690e-04 0.0000000000000000e+00  4.4842109504844286e-18 -8.9473684210511592e-04 0.0000000000000000e+00  -3.0630024227140605e-34 -8.9473684210511365e-04 0.0000000000000000e+00  3.3854237303681906e-34 -1.0438596491226884e-03 0.0000000000000000e+00  3.4203499073008565e-18 -1.0438596491226886e-03 0.0000000000000000e+00  7.6148831685134252e-18 -1.0438596491226897e-03 0.0000000000000000e+00  1.1717020707302114e-17 -1.0438596491226867e-03 0.0000000000000000e+00  1.5339675989106051e-17 -1.0438596491226860e-03 0.0000000000000000e+00  1.8906256100319351e-17 -1.0438596491226847e-03 0.0000000000000000e+00  2.1694322965163585e-17 -1.0438596491226765e-03 0.0000000000000000e+00  2.2881425642594551e-17 -1.0438596491226682e-03 0.0000000000000000e+00  2.2754512405113161e-17 -1.0438596491226602e-03 0.0000000000000000e+00  2.1672106756199537e-17 -1.0438596491226548e-03 0.0000000000000000e+00  1.9490159523478262e-17 -1.0438596491226504e-03 0.0000000000000000e+00  1.6802775441543946e-17 -1.0438596491226439e-03 0.0000000000000000e+00  1.3463251706754150e-17 -1.0438596491226407e-03 0.0000000000000000e+00  9.3121535333143810e-18 -1.0438596491226379e-03 0.0000000000000000e+00  4.5650813272055102e-18 -1.0438596491226353e-03 0.0000000000000000e+00  -4.5138983071575866e-34 -1.0438596491226340e-03 0.0000000000000000e+00  -2.2685840799034704e-34 -1.1929824561402150e-03 0.0000000000000000e+00  4.0645265608955302e-18 -1.1929824561402154e-03 0.0000000000000000e+00  8.1903186646281940e-18 -1.1929824561402172e-03 0.0000000000000000e+00  1.2377724865937245e-17 -1.1929824561402130e-03 0.0000000000000000e+00  1.6621007961709687e-17 -1.1929824561402139e-03 0.0000000000000000e+00  1.9962894425387250e-17 -1.1929824561402098e-03 0.0000000000000000e+00  2.2497075014063638e-17 -1.1929824561402020e-03 0.0000000000000000e+00  2.3903697335919074e-17 -1.1929824561401920e-03 0.0000000000000000e+00  2.3829613475719875e-17 -1.1929824561401822e-03 0.0000000000000000e+00  2.2344303953024150e-17 -1.1929824561401775e-03 0.0000000000000000e+00  2.0507719268145253e-17 -1.1929824561401695e-03 0.0000000000000000e+00  1.7679866611812423e-17 -1.1929824561401647e-03 0.0000000000000000e+00  1.4639386063710252e-17 -1.1929824561401603e-03 0.0000000000000000e+00  9.7273223340187256e-18 -1.1929824561401560e-03 0.0000000000000000e+00  4.4170382705010504e-18 -1.1929824561401541e-03 0.0000000000000000e+00  5.7890511887095693e-35 -1.1929824561401519e-03 0.0000000000000000e+00  5.6423728839469597e-35 -1.3421052631577435e-03 0.0000000000000000e+00  4.2983199637969620e-18 -1.3421052631577425e-03 0.0000000000000000e+00  8.6329810811192913e-18 -1.3421052631577453e-03 0.0000000000000000e+00  1.3070235103694481e-17 -1.3421052631577446e-03 0.0000000000000000e+00  1.7601308366208018e-17 -1.3421052631577409e-03 0.0000000000000000e+00  2.0472867406359562e-17 -1.3421052631577388e-03 0.0000000000000000e+00  2.2910358248059915e-17 -1.3421052631577273e-03 0.0000000000000000e+00  2.4799540491856408e-17 -1.3421052631577158e-03 0.0000000000000000e+00  2.4407628675091686e-17 -1.3421052631577054e-03 0.0000000000000000e+00  2.2783921434196162e-17 -1.3421052631576980e-03 0.0000000000000000e+00  2.1486292317875761e-17 -1.3421052631576926e-03 0.0000000000000000e+00  1.8624307066628882e-17 -1.3421052631576852e-03 0.0000000000000000e+00  1.5173110437504652e-17 -1.3421052631576813e-03 0.0000000000000000e+00  9.9215051863392994e-18 -1.3421052631576752e-03 0.0000000000000000e+00  4.3948739006979304e-18 -1.3421052631576724e-03 0.0000000000000000e+00  -8.1046716641933484e-34 -1.3421052631576713e-03 0.0000000000000000e+00  -2.2571757069873040e-34 -1.4912280701752708e-03 0.0000000000000000e+00  4.4126302037437944e-18 -1.4912280701752712e-03 0.0000000000000000e+00  9.2968405792305061e-18 -1.4912280701752734e-03 0.0000000000000000e+00  1.3843680258569022e-17 -1.4912280701752702e-03 0.0000000000000000e+00  1.7802529146541483e-17 -1.4912280701752678e-03 0.0000000000000000e+00  2.0925310165505849e-17 -1.4912280701752630e-03 0.0000000000000000e+00  2.3264460707851613e-17 -1.4912280701752550e-03 0.0000000000000000e+00  2.5176045410420559e-17 -1.4912280701752391e-03 0.0000000000000000e+00  2.4923971512415816e-17 -1.4912280701752287e-03 0.0000000000000000e+00  2.3382517130102943e-17 -1.4912280701752214e-03 0.0000000000000000e+00  2.1915083461185159e-17 -1.4912280701752142e-03 0.0000000000000000e+00  1.8978502700711434e-17 -1.4912280701752016e-03 0.0000000000000000e+00  1.5025793283099509e-17 -1.4912280701752010e-03 0.0000000000000000e+00  9.9157538865268672e-18 -1.4912280701751943e-03 0.0000000000000000e+00  4.7312866805398200e-18 -1.4912280701751895e-03 0.0000000000000000e+00  -3.2242130765411986e-35 -1.4912280701751906e-03 0.0000000000000000e+00  3.3854237303681760e-34 -1.6403508771927963e-03 0.0000000000000000e+00  4.1842880839092253e-18 -1.6403508771927981e-03 0.0000000000000000e+00  9.6218310254720176e-18 -1.6403508771927998e-03 0.0000000000000000e+00  1.4165975301138494e-17 -1.6403508771927965e-03 0.0000000000000000e+00  1.7937624644279594e-17 -1.6403508771927939e-03 0.0000000000000000e+00  2.1240721817440780e-17 -1.6403508771927892e-03 0.0000000000000000e+00  2.3861709579013230e-17 -1.6403508771927783e-03 0.0000000000000000e+00  2.5268228220599268e-17 -1.6403508771927647e-03 0.0000000000000000e+00  2.5103243797721292e-17 -1.6403508771927503e-03 0.0000000000000000e+00  2.4224613061491413e-17 -1.6403508771927421e-03 0.0000000000000000e+00  2.1339342812490109e-17 -1.6403508771927337e-03 0.0000000000000000e+00  1.8996793207961462e-17 -1.6403508771927219e-03 0.0000000000000000e+00  1.5178012547552379e-17 -1.6403508771927204e-03 0.0000000000000000e+00  1.0141235589828887e-17 -1.6403508771927131e-03 0.0000000000000000e+00  5.1818484605019947e-18 -1.6403508771927096e-03 0.0000000000000000e+00  -1.1284745767893916e-33 -1.6403508771927076e-03 0.0000000000000000e+00  1.6863168350236804e-34 -1.7894736842103253e-03 0.0000000000000000e+00  4.3735001429209445e-18 -1.7894736842103264e-03 0.0000000000000000e+00  9.5964967512744134e-18 -1.7894736842103290e-03 0.0000000000000000e+00  1.3876782771218661e-17 -1.7894736842103251e-03 0.0000000000000000e+00  1.8198345174661444e-17 -1.7894736842103212e-03 0.0000000000000000e+00  2.1055419672066003e-17 -1.7894736842103155e-03 0.0000000000000000e+00  2.3933644165697297e-17 -1.7894736842103038e-03 0.0000000000000000e+00  2.5461230112378267e-17 -1.7894736842102913e-03 0.0000000000000000e+00  2.5167129411065731e-17 -1.7894736842102759e-03 0.0000000000000000e+00  2.4282495166339008e-17 -1.7894736842102672e-03 0.0000000000000000e+00  2.1041308329915785e-17 -1.7894736842102577e-03 0.0000000000000000e+00  1.8896226408746006e-17 -1.7894736842102440e-03 0.0000000000000000e+00  1.5663585029206860e-17 -1.7894736842102399e-03 0.0000000000000000e+00  1.0457503828467202e-17 -1.7894736842102340e-03 0.0000000000000000e+00  5.2440997694057805e-18 -1.7894736842102288e-03 0.0000000000000000e+00  3.4354309201454945e-34 -1.7894736842102269e-03 0.0000000000000000e+00  1.6927118651840953e-34 -1.9385964912278517e-03 0.0000000000000000e+00  5.3175529426100478e-18 -1.9385964912278530e-03 0.0000000000000000e+00  9.3300642385428341e-18 -1.9385964912278532e-03 0.0000000000000000e+00  1.4055642008523773e-17 -1.9385964912278502e-03 0.0000000000000000e+00  1.8071022996935631e-17 -1.9385964912278478e-03 0.0000000000000000e+00  2.1079224617256980e-17 -1.9385964912278430e-03 0.0000000000000000e+00  2.3900807711673161e-17 -1.9385964912278289e-03 0.0000000000000000e+00  2.5338288877834949e-17 -1.9385964912278131e-03 0.0000000000000000e+00  2.5431996601105786e-17 -1.9385964912277992e-03 0.0000000000000000e+00  2.3850899694577531e-17 -1.9385964912277873e-03 0.0000000000000000e+00  2.1373236340387109e-17 -1.9385964912277767e-03 0.0000000000000000e+00  1.8596237396798149e-17 -1.9385964912277667e-03 0.0000000000000000e+00  1.5749102381828869e-17 -1.9385964912277587e-03 0.0000000000000000e+00  1.0623505637988126e-17 -1.9385964912277528e-03 0.0000000000000000e+00  4.7390439448426422e-18 -1.9385964912277487e-03 0.0000000000000000e+00  -7.0010065688226391e-35 -1.9385964912277472e-03 0.0000000000000000e+00  -1.2406358511204756e-34 -2.0877192982453802e-03 0.0000000000000000e+00  5.3084262475667640e-18 -2.0877192982453798e-03 0.0000000000000000e+00  1.0086414040802114e-17 -2.0877192982453811e-03 0.0000000000000000e+00  1.4460873261088929e-17 -2.0877192982453794e-03 0.0000000000000000e+00  1.8336042139677844e-17 -2.0877192982453759e-03 0.0000000000000000e+00  2.0823552358750754e-17 -2.0877192982453681e-03 0.0000000000000000e+00  2.3641358857410776e-17 -2.0877192982453547e-03 0.0000000000000000e+00  2.5429262876013359e-17 -2.0877192982453403e-03 0.0000000000000000e+00  2.4992618515218071e-17 -2.0877192982453230e-03 0.0000000000000000e+00  2.3269739570088135e-17 -2.0877192982453117e-03 0.0000000000000000e+00  2.1810721281852518e-17 -2.0877192982453013e-03 0.0000000000000000e+00  1.8757410959756351e-17 -2.0877192982452887e-03 0.0000000000000000e+00  1.5015328782267583e-17 -2.0877192982452835e-03 0.0000000000000000e+00  1.0515333421772545e-17 -2.0877192982452727e-03 0.0000000000000000e+00  4.9591628296682128e-18 -2.0877192982452701e-03 0.0000000000000000e+00  -2.9420944323437708e-34 -2.0877192982452649e-03 0.0000000000000000e+00  9.5920339027098934e-34 -2.2368421052629092e-03 0.0000000000000000e+00  6.0176834574864334e-18 -2.2368421052629071e-03 0.0000000000000000e+00  1.1056867832407106e-17 -2.2368421052629092e-03 0.0000000000000000e+00  1.5102564978183779e-17 -2.2368421052629032e-03 0.0000000000000000e+00  1.8278544772455766e-17 -2.2368421052629001e-03 0.0000000000000000e+00  2.0844490760071410e-17 -2.2368421052628975e-03 0.0000000000000000e+00  2.3279901126807517e-17 -2.2368421052628810e-03 0.0000000000000000e+00  2.4603610811165006e-17 -2.2368421052628659e-03 0.0000000000000000e+00  2.4739798451708175e-17 -2.2368421052628464e-03 0.0000000000000000e+00  2.3525933799108211e-17 -2.2368421052628346e-03 0.0000000000000000e+00  2.1606393708143139e-17 -2.2368421052628234e-03 0.0000000000000000e+00  1.8636322748607227e-17 -2.2368421052628073e-03 0.0000000000000000e+00  1.4866583697407889e-17 -2.2368421052628043e-03 0.0000000000000000e+00  1.0117204225871893e-17 -2.2368421052627921e-03 0.0000000000000000e+00  5.1557693450896732e-18 -2.2368421052627882e-03 0.0000000000000000e+00  -6.2066101723416943e-34 -2.2368421052627865e-03 0.0000000000000000e+00  -1.1800902520214326e-34 -2.3859649122804356e-03 0.0000000000000000e+00  6.0416462062728688e-18 -2.3859649122804374e-03 0.0000000000000000e+00  1.1944097408748012e-17 -2.3859649122804330e-03 0.0000000000000000e+00  1.5640838159157942e-17 -2.3859649122804283e-03 0.0000000000000000e+00  1.8184180166794673e-17 -2.3859649122804278e-03 0.0000000000000000e+00  2.1146666841086360e-17 -2.3859649122804209e-03 0.0000000000000000e+00  2.3108727184213373e-17 -2.3859649122804066e-03 0.0000000000000000e+00  2.3758007191930290e-17 -2.3859649122803884e-03 0.0000000000000000e+00  2.3658296628199840e-17 -2.3859649122803693e-03 0.0000000000000000e+00  2.4221667265193697e-17 -2.3859649122803558e-03 0.0000000000000000e+00  2.1706919329332222e-17 -2.3859649122803437e-03 0.0000000000000000e+00  1.8672457918400322e-17 -2.3859649122803337e-03 0.0000000000000000e+00  1.4337756746679154e-17 -2.3859649122803237e-03 0.0000000000000000e+00  9.8574589756029821e-18 -2.3859649122803138e-03 0.0000000000000000e+00  5.3726752675463628e-18 -2.3859649122803103e-03 0.0000000000000000e+00  6.2166227118194062e-34 -2.3859649122803047e-03 0.0000000000000000e+00  4.5138983071575875e-34 -2.5350877192979676e-03 0.0000000000000000e+00  5.8261213906210910e-18 -2.5350877192979642e-03 0.0000000000000000e+00  1.2681528663782841e-17 -2.5350877192979655e-03 0.0000000000000000e+00  1.6754175865042030e-17 -2.5350877192979568e-03 0.0000000000000000e+00  1.8886493782097807e-17 -2.5350877192979533e-03 0.0000000000000000e+00  2.1208431941829737e-17 -2.5350877192979477e-03 0.0000000000000000e+00  2.2355367975504320e-17 -2.5350877192979308e-03 0.0000000000000000e+00  2.2920908839696869e-17 -2.5350877192979130e-03 0.0000