<?xml version="1.0"?>
<VTKFile type="UnstructuredGrid"  version="0.1"  >
<UnstructuredGrid>
<Piece  NumberOfPoints="1411" NumberOfCells="2700">
<Points>
<DataArray  type="Float64"  NumberOfComponents="3"  format="ascii">-0.75 -4.5 0  -0.65 -4.5 0  -0.55 -4.5 0  -0.45 -4.5 0  -0.35 -4.5 0  -0.25 -4.5 0  -0.15 -4.5 0  -0.05000000000000004 -4.5 0  0.05000000000000004 -4.5 0  0.15 -4.5 0  0.25 -4.5 0  0.3500000000000001 -4.5 0  0.45 -4.5 0  0.55 -4.5 0  0.6499999999999999 -4.5 0  0.75 -4.5 0  -0.75 -4.4 0  -0.65 -4.4 0  -0.55 -4.4 0  -0.45 -4.4 0  -0.35 -4.4 0  -0.25 -4.4 0  -0.15 -4.4 0  -0.05000000000000004 -4.4 0  0.05000000000000004 -4.4 0  0.15 -4.4 0  0.25 -4.4 0  0.3500000000000001 -4.4 0  0.45 -4.4 0  0.55 -4.4 0  0.6499999999999999 -4.4 0  0.75 -4.4 0  -0.75 -4.3 0  -0.65 -4.3 0  -0.55 -4.3 0  -0.45 -4.3 0  -0.35 -4.3 0  -0.25 -4.3 0  -0.15 -4.3 0  -0.05000000000000004 -4.3 0  0.05000000000000004 -4.3 0  0.15 -4.3 0  0.25 -4.3 0  0.3500000000000001 -4.3 0  0.45 -4.3 0  0.55 -4.3 0  0.6499999999999999 -4.3 0  0.75 -4.3 0  -0.75 -4.2 0  -0.65 -4.2 0  -0.55 -4.2 0  -0.45 -4.2 0  -0.35 -4.2 0  -0.25 -4.2 0  -0.15 -4.2 0  -0.05000000000000004 -4.2 0  0.05000000000000004 -4.2 0  0.15 -4.2 0  0.25 -4.2 0  0.3500000000000001 -4.2 0  0.45 -4.2 0  0.55 -4.2 0  0.6499999999999999 -4.2 0  0.75 -4.2 0  -0.75 -4.1 0  -0.65 -4.1 0  -0.55 -4.1 0  -0.45 -4.1 0  -0.35 -4.1 0  -0.25 -4.1 0  -0.15 -4.1 0  -0.05000000000000004 -4.1 0  0.05000000000000004 -4.1 0  0.15 -4.1 0  0.25 -4.1 0  0.3500000000000001 -4.1 0  0.45 -4.1 0  0.55 -4.1 0  0.6499999999999999 -4.1 0  0.75 -4.1 0  -0.75 -4 0  -0.65 -4 0  -0.55 -4 0  -0.45 -4 0  -0.35 -4 0  -0.25 -4 0  -0.15 -4 0  -0.05000000000000004 -4 0  0.05000000000000004 -4 0  0.15 -4 0  0.25 -4 0  0.3500000000000001 -4 0  0.45 -4 0  0.55 -4 0  0.6499999999999999 -4 0  0.75 -4 0  -0.75 -3.9 0  -0.65 -3.9 0  -0.55 -3.9 0  -0.45 -3.9 0  -0.35 -3.9 0  -0.25 -3.9 0  -0.15 -3.9 0  -0.05000000000000004 -3.9 0  0.05000000000000004 -3.9 0  0.15 -3.9 0  0.25 -3.9 0  0.3500000000000001 -3.9 0  0.45 -3.9 0  0.55 -3.9 0  0.6499999999999999 -3.9 0  0.75 -3.9 0  -0.75 -3.8 0  -0.65 -3.8 0  -0.55 -3.8 0  -0.45 -3.8 0  -0.35 -3.8 0  -0.25 -3.8 0  -0.15 -3.8 0  -0.05000000000000004 -3.8 0  0.05000000000000004 -3.8 0  0.15 -3.8 0  0.25 -3.8 0  0.3500000000000001 -3.8 0  0.45 -3.8 0  0.55 -3.8 0  0.6499999999999999 -3.8 0  0.75 -3.8 0  -0.75 -3.7 0  -0.65 -3.7 0  -0.55 -3.7 0  -0.45 -3.7 0  -0.35 -3.7 0  -0.25 -3.7 0  -0.15 -3.7 0  -0.05000000000000004 -3.7 0  0.05000000000000004 -3.7 0  0.15 -3.7 0  0.25 -3.7 0  0.3500000000000001 -3.7 0  0.45 -3.7 0  0.55 -3.7 0  0.6499999999999999 -3.7 0  0.75 -3.7 0  -0.75 -3.6 0  -0.65 -3.6 0  -0.55 -3.6 0  -0.45 -3.6 0  -0.35 -3.6 0  -0.25 -3.6 0  -0.15 -3.6 0  -0.05000000000000004 -3.6 0  0.05000000000000004 -3.6 0  0.15 -3.6 0  0.25 -3.6 0  0.3500000000000001 -3.6 0  0.45 -3.6 0  0.55 -3.6 0  0.6499999999999999 -3.6 0  0.75 -3.6 0  -0.75 -3.5 0  -0.65 -3.5 0  -0.55 -3.5 0  -0.45 -3.5 0  -0.35 -3.5 0  -0.25 -3.5 0  -0.15 -3.5 0  -0.05000000000000004 -3.5 0  0.05000000000000004 -3.5 0  0.15 -3.5 0  0.25 -3.5 0  0.3500000000000001 -3.5 0  0.45 -3.5 0  0.55 -3.5 0  0.6499999999999999 -3.5 0  0.75 -3.5 0  -0.75 -3.4 0  -0.65 -3.4 0  -0.55 -3.4 0  -0.45 -3.4 0  -0.35 -3.4 0  -0.25 -3.4 0  -0.15 -3.4 0  -0.05000000000000004 -3.4 0  0.05000000000000004 -3.4 0  0.15 -3.4 0  0.25 -3.4 0  0.3500000000000001 -3.4 0  0.45 -3.4 0  0.55 -3.4 0  0.6499999999999999 -3.4 0  0.75 -3.4 0  -0.75 -3.3 0  -0.65 -3.3 0  -0.55 -3.3 0  -0.45 -3.3 0  -0.35 -3.3 0  -0.25 -3.3 0  -0.15 -3.3 0  -0.05000000000000004 -3.3 0  0.05000000000000004 -3.3 0  0.15 -3.3 0  0.25 -3.3 0  0.3500000000000001 -3.3 0  0.45 -3.3 0  0.55 -3.3 0  0.6499999999999999 -3.3 0  0.75 -3.3 0  -0.75 -3.2 0  -0.65 -3.2 0  -0.55 -3.2 0  -0.45 -3.2 0  -0.35 -3.2 0  -0.25 -3.2 0  -0.15 -3.2 0  -0.05000000000000004 -3.2 0  0.05000000000000004 -3.2 0  0.15 -3.2 0  0.25 -3.2 0  0.3500000000000001 -3.2 0  0.45 -3.2 0  0.55 -3.2 0  0.6499999999999999 -3.2 0  0.75 -3.2 0  -0.75 -3.1 0  -0.65 -3.1 0  -0.55 -3.1 0  -0.45 -3.1 0  -0.35 -3.1 0  -0.25 -3.1 0  -0.15 -3.1 0  -0.05000000000000004 -3.1 0  0.05000000000000004 -3.1 0  0.15 -3.1 0  0.25 -3.1 0  0.3500000000000001 -3.1 0  0.45 -3.1 0  0.55 -3.1 0  0.6499999999999999 -3.1 0  0.75 -3.1 0  -0.75 -3 0  -0.65 -3 0  -0.55 -3 0  -0.45 -3 0  -0.35 -3 0  -0.25 -3 0  -0.15 -3 0  -0.05000000000000004 -3 0  0.05000000000000004 -3 0  0.15 -3 0  0.25 -3 0  0.3500000000000001 -3 0  0.45 -3 0  0.55 -3 0  0.6499999999999999 -3 0  0.75 -3 0  -0.75 -2.9 0  -0.65 -2.9 0  -0.55 -2.9 0  -0.45 -2.9 0  -0.35 -2.9 0  -0.25 -2.9 0  -0.15 -2.9 0  -0.05000000000000004 -2.9 0  0.05000000000000004 -2.9 0  0.15 -2.9 0  0.25 -2.9 0  0.3500000000000001 -2.9 0  0.45 -2.9 0  0.55 -2.9 0  0.6499999999999999 -2.9 0  0.75 -2.9 0  -0.75 -2.8 0  -0.65 -2.8 0  -0.55 -2.8 0  -0.45 -2.8 0  -0.35 -2.8 0  -0.25 -2.8 0  -0.15 -2.8 0  -0.05000000000000004 -2.8 0  0.05000000000000004 -2.8 0  0.15 -2.8 0  0.25 -2.8 0  0.3500000000000001 -2.8 0  0.45 -2.8 0  0.55 -2.8 0  0.6499999999999999 -2.8 0  0.75 -2.8 0  -0.75 -2.7 0  -0.65 -2.7 0  -0.55 -2.7 0  -0.45 -2.7 0  -0.35 -2.7 0  -0.25 -2.7 0  -0.15 -2.7 0  -0.05000000000000004 -2.7 0  0.05000000000000004 -2.7 0  0.15 -2.7 0  0.25 -2.7 0  0.3500000000000001 -2.7 0  0.45 -2.7 0  0.55 -2.7 0  0.6499999999999999 -2.7 0  0.75 -2.7 0  -0.75 -2.6 0  -0.65 -2.6 0  -0.55 -2.6 0  -0.45 -2.6 0  -0.35 -2.6 0  -0.25 -2.6 0  -0.15 -2.6 0  -0.05000000000000004 -2.6 0  0.05000000000000004 -2.6 0  0.15 -2.6 0  0.25 -2.6 0  0.3500000000000001 -2.6 0  0.45 -2.6 0  0.55 -2.6 0  0.6499999999999999 -2.6 0  0.75 -2.6 0  -0.75 -2.5 0  -0.65 -2.5 0  -0.55 -2.5 0  -0.45 -2.5 0  -0.35 -2.5 0  -0.25 -2.5 0  -0.15 -2.5 0  -0.05000000000000004 -2.5 0  0.05000000000000004 -2.5 0  0.15 -2.5 0  0.25 -2.5 0  0.3500000000000001 -2.5 0  0.45 -2.5 0  0.55 -2.5 0  0.6499999999999999 -2.5 0  0.75 -2.5 0  -0.75 -2.4 0  -0.65 -2.4 0  -0.55 -2.4 0  -0.45 -2.4 0  -0.35 -2.4 0  -0.25 -2.4 0  -0.15 -2.4 0  -0.05000000000000004 -2.4 0  0.05000000000000004 -2.4 0  0.15 -2.4 0  0.25 -2.4 0  0.3500000000000001 -2.4 0  0.45 -2.4 0  0.55 -2.4 0  0.6499999999999999 -2.4 0  0.75 -2.4 0  -0.75 -2.3 0  -0.65 -2.3 0  -0.55 -2.3 0  -0.45 -2.3 0  -0.35 -2.3 0  -0.25 -2.3 0  -0.15 -2.3 0  -0.05000000000000004 -2.3 0  0.05000000000000004 -2.3 0  0.15 -2.3 0  0.25 -2.3 0  0.3500000000000001 -2.3 0  0.45 -2.3 0  0.55 -2.3 0  0.6499999999999999 -2.3 0  0.75 -2.3 0  -0.75 -2.2 0  -0.65 -2.2 0  -0.55 -2.2 0  -0.45 -2.2 0  -0.35 -2.2 0  -0.25 -2.2 0  -0.15 -2.2 0  -0.05000000000000004 -2.2 0  0.05000000000000004 -2.2 0  0.15 -2.2 0  0.25 -2.2 0  0.3500000000000001 -2.2 0  0.45 -2.2 0  0.55 -2.2 0  0.6499999999999999 -2.2 0  0.75 -2.2 0  -0.75 -2.1 0  -0.65 -2.1 0  -0.55 -2.1 0  -0.45 -2.1 0  -0.35 -2.1 0  -0.25 -2.1 0  -0.15 -2.1 0  -0.05000000000000004 -2.1 0  0.05000000000000004 -2.1 0  0.15 -2.1 0  0.25 -2.1 0  0.3500000000000001 -2.1 0  0.45 -2.1 0  0.55 -2.1 0  0.6499999999999999 -2.1 0  0.75 -2.1 0  -0.75 -2 0  -0.65 -2 0  -0.55 -2 0  -0.45 -2 0  -0.35 -2 0  -0.25 -2 0  -0.15 -2 0  -0.05000000000000004 -2 0  0.05000000000000004 -2 0  0.15 -2 0  0.25 -2 0  0.3500000000000001 -2 0  0.45 -2 0  0.55 -2 0  0.6499999999999999 -2 0  0.75 -2 0  -0.75 -1.9 0  -0.65 -1.9 0  -0.55 -1.9 0  -0.45 -1.9 0  -0.35 -1.9 0  -0.25 -1.9 0  -0.15 -1.9 0  -0.05000000000000004 -1.9 0  0.05000000000000004 -1.9 0  0.15 -1.9 0  0.25 -1.9 0  0.3500000000000001 -1.9 0  0.45 -1.9 0  0.55 -1.9 0  0.6499999999999999 -1.9 0  0.75 -1.9 0  -0.75 -1.8 0  -0.65 -1.8 0  -0.55 -1.8 0  -0.45 -1.8 0  -0.35 -1.8 0  -0.25 -1.8 0  -0.15 -1.8 0  -0.05000000000000004 -1.8 0  0.05000000000000004 -1.8 0  0.15 -1.8 0  0.25 -1.8 0  0.3500000000000001 -1.8 0  0.45 -1.8 0  0.55 -1.8 0  0.6499999999999999 -1.8 0  0.75 -1.8 0  -0.75 -1.7 0  -0.65 -1.7 0  -0.55 -1.7 0  -0.45 -1.7 0  -0.35 -1.7 0  -0.25 -1.7 0  -0.15 -1.7 0  -0.05000000000000004 -1.7 0  0.05000000000000004 -1.7 0  0.15 -1.7 0  0.25 -1.7 0  0.3500000000000001 -1.7 0  0.45 -1.7 0  0.55 -1.7 0  0.6499999999999999 -1.7 0  0.75 -1.7 0  -0.75 -1.6 0  -0.65 -1.6 0  -0.55 -1.6 0  -0.45 -1.6 0  -0.35 -1.6 0  -0.25 -1.6 0  -0.15 -1.6 0  -0.05000000000000004 -1.6 0  0.05000000000000004 -1.6 0  0.15 -1.6 0  0.25 -1.6 0  0.3500000000000001 -1.6 0  0.45 -1.6 0  0.55 -1.6 0  0.6499999999999999 -1.6 0  0.75 -1.6 0  -0.75 -1.5 0  -0.65 -1.5 0  -0.55 -1.5 0  -0.45 -1.5 0  -0.35 -1.5 0  -0.25 -1.5 0  -0.15 -1.5 0  -0.05000000000000004 -1.5 0  0.05000000000000004 -1.5 0  0.15 -1.5 0  0.25 -1.5 0  0.3500000000000001 -1.5 0  0.45 -1.5 0  0.55 -1.5 0  0.6499999999999999 -1.5 0  0.75 -1.5 0  -0.75 -1.4 0  -0.65 -1.4 0  -0.55 -1.4 0  -0.45 -1.4 0  -0.35 -1.4 0  -0.25 -1.4 0  -0.15 -1.4 0  -0.05000000000000004 -1.4 0  0.05000000000000004 -1.4 0  0.15 -1.4 0  0.25 -1.4 0  0.3500000000000001 -1.4 0  0.45 -1.4 0  0.55 -1.4 0  0.6499999999999999 -1.4 0  0.75 -1.4 0  -0.75 -1.3 0  -0.65 -1.3 0  -0.55 -1.3 0  -0.45 -1.3 0  -0.35 -1.3 0  -0.25 -1.3 0  -0.15 -1.3 0  -0.05000000000000004 -1.3 0  0.05000000000000004 -1.3 0  0.15 -1.3 0  0.25 -1.3 0  0.3500000000000001 -1.3 0  0.45 -1.3 0  0.55 -1.3 0  0.6499999999999999 -1.3 0  0.75 -1.3 0  -0.75 -1.2 0  -0.65 -1.2 0  -0.55 -1.2 0  -0.45 -1.2 0  -0.35 -1.2 0  -0.25 -1.2 0  -0.15 -1.2 0  -0.05000000000000004 -1.2 0  0.05000000000000004 -1.2 0  0.15 -1.2 0  0.25 -1.2 0  0.3500000000000001 -1.2 0  0.45 -1.2 0  0.55 -1.2 0  0.6499999999999999 -1.2 0  0.75 -1.2 0  -0.75 -1.1 0  -0.65 -1.1 0  -0.55 -1.1 0  -0.45 -1.1 0  -0.35 -1.1 0  -0.25 -1.1 0  -0.15 -1.1 0  -0.05000000000000004 -1.1 0  0.05000000000000004 -1.1 0  0.15 -1.1 0  0.25 -1.1 0  0.3500000000000001 -1.1 0  0.45 -1.1 0  0.55 -1.1 0  0.6499999999999999 -1.1 0  0.75 -1.1 0  -0.75 -1 0  -0.65 -1 0  -0.55 -1 0  -0.45 -1 0  -0.35 -1 0  -0.25 -1 0  -0.15 -1 0  -0.05000000000000004 -1 0  0.05000000000000004 -1 0  0.15 -1 0  0.25 -1 0  0.3500000000000001 -1 0  0.45 -1 0  0.55 -1 0  0.6499999999999999 -1 0  0.75 -1 0  -0.75 -0.8999999999999999 0  -0.65 -0.899999
[...]
<PointData  Vectors="displacement"> 
<DataArray  type="Float64"  Name="displacement"  NumberOfComponents="3" format="ascii">-1.0579449157400570e-35 -7.9409338805090882e-21 0.0000000000000000e+00  -3.9361052601002206e-36 2.9317073281678008e-21 0.0000000000000000e+00  -1.4105932209867498e-35 -4.9630836753181830e-22 0.0000000000000000e+00  -7.8513752989535626e-35 -8.8443702057818557e-21 0.0000000000000000e+00  -2.8211864419734991e-35 9.9261673506363637e-21 0.0000000000000000e+00  1.3781950264365073e-35 -2.0911427017457937e-21 0.0000000000000000e+00  1.4105932209867501e-35 1.0918784085700004e-20 0.0000000000000000e+00  -6.2852497427470778e-35 -2.0546390933993008e-20 0.0000000000000000e+00  -7.0529661049337478e-36 2.0844951436336364e-20 0.0000000000000000e+00  -1.3908852761733604e-35 -3.9804752527159502e-21 0.0000000000000000e+00  -6.3476694944403696e-35 1.4889251025954538e-21 0.0000000000000000e+00  3.8233412937975852e-35 -1.9416126175121736e-21 0.0000000000000000e+00  1.7632415262334369e-35 3.4741585727227275e-21 0.0000000000000000e+00  -1.5869173736100927e-35 -9.9261673506363607e-21 0.0000000000000000e+00  -7.0529661049337544e-36 -9.9261673506363735e-22 0.0000000000000000e+00  3.1738347472201843e-35 -5.9557004103818143e-21 0.0000000000000000e+00  2.8211864419734799e-35 -6.0952991641030990e-05 0.0000000000000000e+00  -1.7991610809496373e-19 -6.0952991641031098e-05 0.0000000000000000e+00  -3.3893980975826154e-19 -6.0952991641031071e-05 0.0000000000000000e+00  -4.9172213533353295e-19 -6.0952991641031044e-05 0.0000000000000000e+00  -5.8744624228875225e-19 -6.0952991641031112e-05 0.0000000000000000e+00  -7.0174305171932485e-19 -6.0952991641031058e-05 0.0000000000000000e+00  -7.8720577460668642e-19 -6.0952991641031078e-05 0.0000000000000000e+00  -8.0996709130608114e-19 -6.0952991641031017e-05 0.0000000000000000e+00  -8.1308257176593445e-19 -6.0952991641031119e-05 0.0000000000000000e+00  -8.2208014708666544e-19 -6.0952991641031064e-05 0.0000000000000000e+00  -8.1647477712795206e-19 -6.0952991641031112e-05 0.0000000000000000e+00  -7.0119647342756279e-19 -6.0952991641031268e-05 0.0000000000000000e+00  -5.4906225643389607e-19 -6.0952991641031410e-05 0.0000000000000000e+00  -4.1415158724271530e-19 -6.0952991641031539e-05 0.0000000000000000e+00  -2.1444458402234503e-19 -6.0952991641031701e-05 0.0000000000000000e+00  -5.1125346959502288e-35 -6.0952991641031688e-05 0.0000000000000000e+00  -2.8211864419734922e-35 -1.2193907637259033e-04 0.0000000000000000e+00  -3.1823814601361130e-19 -1.2193907637259041e-04 0.0000000000000000e+00  -5.6847479087592607e-19 -1.2193907637259049e-04 0.0000000000000000e+00  -8.2487616031652459e-19 -1.2193907637259053e-04 0.0000000000000000e+00  -1.1029291615031349e-18 -1.2193907637259050e-04 0.0000000000000000e+00  -1.2835033422736930e-18 -1.2193907637259045e-04 0.0000000000000000e+00  -1.4400127032080573e-18 -1.2193907637259045e-04 0.0000000000000000e+00  -1.5259615788507899e-18 -1.2193907637259042e-04 0.0000000000000000e+00  -1.5843397700029507e-18 -1.2193907637259039e-04 0.0000000000000000e+00  -1.6146373122464762e-18 -1.2193907637259060e-04 0.0000000000000000e+00  -1.4416770445588977e-18 -1.2193907637259064e-04 0.0000000000000000e+00  -1.2092001038486780e-18 -1.2193907637259102e-04 0.0000000000000000e+00  -9.9638749114274110e-19 -1.2193907637259129e-04 0.0000000000000000e+00  -7.0940586716550041e-19 -1.2193907637259161e-04 0.0000000000000000e+00  -3.5006196061497240e-19 -1.2193907637259187e-04 0.0000000000000000e+00  2.4148143714743805e-35 -1.2193907637259190e-04 0.0000000000000000e+00  7.5598980437258419e-35 -1.8299126514587834e-04 0.0000000000000000e+00  -4.3940069014691906e-19 -1.8299126514587861e-04 0.0000000000000000e+00  -8.1561650216480058e-19 -1.8299126514587867e-04 0.0000000000000000e+00  -1.1648982727238858e-18 -1.8299126514587839e-04 0.0000000000000000e+00  -1.5019996670383069e-18 -1.8299126514587869e-04 0.0000000000000000e+00  -1.7990809442957908e-18 -1.8299126514587864e-04 0.0000000000000000e+00  -1.9789796641944587e-18 -1.8299126514587861e-04 0.0000000000000000e+00  -2.0937634666166018e-18 -1.8299126514587864e-04 0.0000000000000000e+00  -2.1533213687607097e-18 -1.8299126514587877e-04 0.0000000000000000e+00  -2.1365316413955009e-18 -1.8299126514587888e-04 0.0000000000000000e+00  -1.8931012172004822e-18 -1.8299126514587918e-04 0.0000000000000000e+00  -1.6717664686865167e-18 -1.8299126514587964e-04 0.0000000000000000e+00  -1.3102895272705650e-18 -1.8299126514588007e-04 0.0000000000000000e+00  -8.8052891934932292e-19 -1.8299126514588078e-04 0.0000000000000000e+00  -4.5201246727362150e-19 -1.8299126514588100e-04 0.0000000000000000e+00  -3.1738347472201779e-35 -1.8299126514588116e-04 0.0000000000000000e+00  -7.0529661049336994e-35 -2.4414240483730065e-04 0.0000000000000000e+00  -4.7803215724447947e-19 -2.4414240483730060e-04 0.0000000000000000e+00  -1.0128110683095076e-18 -2.4414240483730065e-04 0.0000000000000000e+00  -1.4848066448639598e-18 -2.4414240483730071e-04 0.0000000000000000e+00  -1.8987979518414974e-18 -2.4414240483730082e-04 0.0000000000000000e+00  -2.1391949777461586e-18 -2.4414240483730114e-04 0.0000000000000000e+00  -2.3980398167143582e-18 -2.4414240483730082e-04 0.0000000000000000e+00  -2.5842937956795324e-18 -2.4414240483730092e-04 0.0000000000000000e+00  -2.4728522611011630e-18 -2.4414240483730130e-04 0.0000000000000000e+00  -2.3629971622965194e-18 -2.4414240483730103e-04 0.0000000000000000e+00  -2.2650345166616090e-18 -2.4414240483730168e-04 0.0000000000000000e+00  -1.8922985770455863e-18 -2.4414240483730233e-04 0.0000000000000000e+00  -1.4285813814806679e-18 -2.4414240483730331e-04 0.0000000000000000e+00  -9.7226607687414899e-19 -2.4414240483730385e-04 0.0000000000000000e+00  -4.9391702393847799e-19 -2.4414240483730423e-04 0.0000000000000000e+00  4.9370762734535883e-35 -2.4414240483730445e-04 0.0000000000000000e+00  3.5264830518896480e-35 -3.0542509672019903e-04 0.0000000000000000e+00  -5.7386393311093957e-19 -3.0542509672019924e-04 0.0000000000000000e+00  -1.1686194865360285e-18 -3.0542509672019908e-04 0.0000000000000000e+00  -1.7611863590721983e-18 -3.0542509672019941e-04 0.0000000000000000e+00  -2.1923714471989015e-18 -3.0542509672019957e-04 0.0000000000000000e+00  -2.4457611801324930e-18 -3.0542509672019979e-04 0.0000000000000000e+00  -2.6604303513945524e-18 -3.0542509672019951e-04 0.0000000000000000e+00  -2.8284413757872196e-18 -3.0542509672019968e-04 0.0000000000000000e+00  -2.9322109176174084e-18 -3.0542509672020000e-04 0.0000000000000000e+00  -2.7709055359166799e-18 -3.0542509672020011e-04 0.0000000000000000e+00  -2.5226376209918477e-18 -3.0542509672020082e-04 0.0000000000000000e+00  -2.1260434372546739e-18 -3.0542509672020168e-04 0.0000000000000000e+00  -1.6122156961781020e-18 -3.0542509672020266e-04 0.0000000000000000e+00  -1.0755099664705574e-18 -3.0542509672020325e-04 0.0000000000000000e+00  -4.9223341358679130e-19 -3.0542509672020401e-04 0.0000000000000000e+00  4.5364355042052769e-35 -3.0542509672020401e-04 0.0000000000000000e+00  -2.1158898314801148e-35 -3.6687161554614081e-04 0.0000000000000000e+00  -7.3520033469360392e-19 -3.6687161554614065e-04 0.0000000000000000e+00  -1.3967483673313625e-18 -3.6687161554614092e-04 0.0000000000000000e+00  -1.9288882699719399e-18 -3.6687161554614092e-04 0.0000000000000000e+00  -2.3988938790108898e-18 -3.6687161554614141e-04 0.0000000000000000e+00  -2.6822298025209928e-18 -3.6687161554614173e-04 0.0000000000000000e+00  -2.8774732943525279e-18 -3.6687161554614162e-04 0.0000000000000000e+00  -3.0470671056346799e-18 -3.6687161554614141e-04 0.0000000000000000e+00  -3.2192786004384965e-18 -3.6687161554614146e-04 0.0000000000000000e+00  -3.1438187866687789e-18 -3.6687161554614217e-04 0.0000000000000000e+00  -2.8004641137152433e-18 -3.6687161554614287e-04 0.0000000000000000e+00  -2.3930835718414813e-18 -3.6687161554614385e-04 0.0000000000000000e+00  -1.8117547582075546e-18 -3.6687161554614515e-04 0.0000000000000000e+00  -1.1749121705550926e-18 -3.6687161554614623e-04 0.0000000000000000e+00  -5.4106009790126721e-19 -3.6687161554614650e-04 0.0000000000000000e+00  -4.2651817774304704e-35 -3.6687161554614639e-04 0.0000000000000000e+00  -1.1198093311815736e-42 -4.2851382943657291e-04 0.0000000000000000e+00  -8.4452586122557782e-19 -4.2851382943657264e-04 0.0000000000000000e+00  -1.5889319061966621e-18 -4.2851382943657400e-04 0.0000000000000000e+00  -2.1315957246734882e-18 -4.2851382943657356e-04 0.0000000000000000e+00  -2.5487939370303451e-18 -4.2851382943657476e-04 0.0000000000000000e+00  -2.9191206903066226e-18 -4.2851382943657443e-04 0.0000000000000000e+00  -3.1046537456551960e-18 -4.2851382943657432e-04 0.0000000000000000e+00  -3.2565107426073592e-18 -4.2851382943657427e-04 0.0000000000000000e+00  -3.3103018104025529e-18 -4.2851382943657449e-04 0.0000000000000000e+00  -3.2450040105357725e-18 -4.2851382943657470e-04 0.0000000000000000e+00  -2.9585624385146014e-18 -4.2851382943657579e-04 0.0000000000000000e+00  -2.4697775245938264e-18 -4.2851382943657709e-04 0.0000000000000000e+00  -1.8602037266529613e-18 -4.2851382943657855e-04 0.0000000000000000e+00  -1.1700650991266717e-18 -4.2851382943657974e-04 0.0000000000000000e+00  -5.6249752990517280e-19 -4.2851382943658061e-04 0.0000000000000000e+00  8.3628026672785516e-35 -4.2851382943658029e-04 0.0000000000000000e+00  -2.8211864419734895e-35 -4.9038312078368356e-04 0.0000000000000000e+00  -7.6702346410433620e-19 -4.9038312078368400e-04 0.0000000000000000e+00  -1.5706304687681007e-18 -4.9038312078368345e-04 0.0000000000000000e+00  -2.2999076522356330e-18 -4.9038312078368497e-04 0.0000000000000000e+00  -2.8179811704406393e-18 -4.9038312078368541e-04 0.0000000000000000e+00  -3.0752420628616962e-18 -4.9038312078368541e-04 0.0000000000000000e+00  -3.2689375305009566e-18 -4.9038312078368562e-04 0.0000000000000000e+00  -3.4133609326071345e-18 -4.9038312078368497e-04 0.0000000000000000e+00  -3.4051566955618943e-18 -4.9038312078368541e-04 0.0000000000000000e+00  -3.2642170861048397e-18 -4.9038312078368551e-04 0.0000000000000000e+00  -3.1449032912470566e-18 -4.9038312078368681e-04 0.0000000000000000e+00  -2.5867252459062189e-18 -4.9038312078368844e-04 0.0000000000000000e+00  -1.9072404594759715e-18 -4.9038312078369018e-04 0.0000000000000000e+00  -1.2296368364202063e-18 -4.9038312078369169e-04 0.0000000000000000e+00  -6.4627983998819067e-19 -4.9038312078369180e-04 0.0000000000000000e+00  -1.8337711872827679e-34 -4.9038312078369180e-04 0.0000000000000000e+00  -5.5051093596753343e-35 -5.5251030835676708e-04 0.0000000000000000e+00  -8.2293116916576261e-19 -5.5251030835676686e-04 0.0000000000000000e+00  -1.6446754148307514e-18 -5.5251030835676783e-04 0.0000000000000000e+00  -2.4360476286325658e-18 -5.5251030835676783e-04 0.0000000000000000e+00  -2.9049562835787979e-18 -5.5251030835676903e-04 0.0000000000000000e+00  -3.3744086981537204e-18 -5.5251030835676946e-04 0.0000000000000000e+00  -3.5912904471502524e-18 -5.5251030835676892e-04 0.0000000000000000e+00  -3.6531880489812399e-18 -5.5251030835676892e-04 0.0000000000000000e+00  -3.5627587218703169e-18 -5.5251030835676816e-04 0.0000000000000000e+00  -3.5107145116749888e-18 -5.5251030835676903e-04 0.0000000000000000e+00  -3.2603186255399767e-18 -5.5251030835677087e-04 0.0000000000000000e+00  -2.7565485124145184e-18 -5.5251030835677304e-04 0.0000000000000000e+00  -1.9865502344670282e-18 -5.5251030835677488e-04 0.0000000000000000e+00  -1.3962205355849599e-18 -5.5251030835677564e-04 0.0000000000000000e+00  -7.7155576822334706e-19 -5.5251030835677640e-04 0.0000000000000000e+00  9.2816134428094658e-35 -5.5251030835677618e-04 0.0000000000000000e+00  2.8211864419734922e-35 -6.1492557080743485e-04 0.0000000000000000e+00  -9.5272544962824930e-19 -6.1492557080743517e-04 0.0000000000000000e+00  -1.7767780813873038e-18 -6.1492557080743463e-04 0.0000000000000000e+00  -2.4223473310825114e-18 -6.1492557080743669e-04 0.0000000000000000e+00  -3.0749804805060165e-18 -6.1492557080743799e-04 0.0000000000000000e+00  -3.4002921103274962e-18 -6.1492557080743777e-04 0.0000000000000000e+00  -3.6188933754311102e-18 -6.1492557080743756e-04 0.0000000000000000e+00  -3.7632292191541328e-18 -6.1492557080743788e-04 0.0000000000000000e+00  -3.8615038255625386e-18 -6.1492557080743680e-04 0.0000000000000000e+00  -3.6661081778159973e-18 -6.1492557080743691e-04 0.0000000000000000e+00  -3.2863316520765121e-18 -6.1492557080744005e-04 0.0000000000000000e+00  -2.7257759215992268e-18 -6.1492557080744146e-04 0.0000000000000000e+00  -2.0962892604360455e-18 -6.1492557080744330e-04 0.0000000000000000e+00  -1.5508640245160836e-18 -6.1492557080744515e-04 0.0000000000000000e+00  -8.9358066919290526e-19 -6.1492557080744536e-04 0.0000000000000000e+00  -1.1452757636446122e-34 -6.1492557080744525e-04 0.0000000000000000e+00  2.6629123708697744e-34 -6.7765837176352452e-04 0.0000000000000000e+00  -9.4764247924053414e-19 -6.7765837176352376e-04 0.0000000000000000e+00  -1.8597623752759877e-18 -6.7765837176352462e-04 0.0000000000000000e+00  -2.4890736361543465e-18 -6.7765837176352484e-04 0.0000000000000000e+00  -2.9630320656798488e-18 -6.7765837176352647e-04 0.0000000000000000e+00  -3.4427297827382949e-18 -6.7765837176352777e-04 0.0000000000000000e+00  -3.6425867477625279e-18 -6.7765837176352679e-04 0.0000000000000000e+00  -3.8443041754016214e-18 -6.7765837176352625e-04 0.0000000000000000e+00  -4.0034475534509875e-18 -6.7765837176352690e-04 0.0000000000000000e+00  -3.6213480457210367e-18 -6.7765837176352798e-04 0.0000000000000000e+00  -3.1832303174750307e-18 -6.7765837176352907e-04 0.0000000000000000e+00  -2.6222248598892848e-18 -6.7765837176353156e-04 0.0000000000000000e+00  -1.9859832985121871e-18 -6.7765837176353351e-04 0.0000000000000000e+00  -1.4338269593086543e-18 -6.7765837176353427e-04 0.0000000000000000e+00  -6.9076733151690401e-19 -6.7765837176353568e-04 0.0000000000000000e+00  4.0806446749973632e-35 -6.7765837176353568e-04 0.0000000000000000e+00  -4.2317796629602340e-35 -7.4073738669761847e-04 0.0000000000000000e+00  -9.9106649207614956e-19 -7.4073738669761782e-04 0.0000000000000000e+00  -1.7678432177723981e-18 -7.4073738669761858e-04 0.0000000000000000e+00  -2.2807642512016859e-18 -7.4073738669762032e-04 0.0000000000000000e+00  -2.7925857714959502e-18 -7.4073738669762151e-04 0.0000000000000000e+00  -3.2869138512001645e-18 -7.4073738669762194e-04 0.0000000000000000e+00  -3.6657076122222560e-18 -7.4073738669762183e-04 0.0000000000000000e+00  -3.8320761507206512e-18 -7.4073738669762097e-04 0.0000000000000000e+00  -3.8528571235528093e-18 -7.4073738669762162e-04 0.0000000000000000e+00  -3.7402909366694921e-18 -7.4073738669762205e-04 0.0000000000000000e+00  -3.1911375794151397e-18 -7.4073738669762335e-04 0.0000000000000000e+00  -2.6720954329900603e-18 -7.4073738669762639e-04 0.0000000000000000e+00  -2.0045205665265977e-18 -7.4073738669762801e-04 0.0000000000000000e+00  -1.1080244020489772e-18 -7.4073738669762986e-04 0.0000000000000000e+00  -4.7369272153412565e-19 -7.4073738669763061e-04 0.0000000000000000e+00  2.1158898314801167e-35 -7.4073738669763040e-04 0.0000000000000000e+00  1.8455608501707404e-34 -8.0419043175170468e-04 0.0000000000000000e+00  -7.9772722767541375e-19 -8.0419043175170501e-04 0.0000000000000000e+00  -1.5072586202270848e-18 -8.0419043175170577e-04 0.0000000000000000e+00  -2.3042995680450447e-18 -8.0419043175170674e-04 0.0000000000000000e+00  -2.9584432474179131e-18 -8.0419043175170794e-04 0.0000000000000000e+00  -3.4017700392174402e-18 -8.0419043175171000e-04 0.0000000000000000e+00  -3.6984114806958673e-18 -8.0419043175170880e-04 0.0000000000000000e+00  -3.9303506469105538e-18 -8.0419043175170761e-04 0.0000000000000000e+00  -3.8891503886971639e-18 -8.0419043175170826e-04 0.0000000000000000e+00  -3.7959813929511810e-18 -8.0419043175170945e-04 0.0000000000000000e+00  -3.3711798791917509e-18 -8.0419043175171151e-04 0.0000000000000000e+00  -2.6413228421747722e-18 -8.0419043175171357e-04 0.0000000000000000e+00  -1.9240442506326090e-18 -8.0419043175171585e-04 0.0000000000000000e+00  -1.1411722357230800e-18 -8.0419043175171726e-04 0.0000000000000000e+00  -5.1356195809807055e-19 -8.0419043175171824e-04 0.0000000000000000e+00  3.4604695860071441e-35 -8.0419043175171759e-04 0.0000000000000000e+00  -3.5264830524668577e-35 -8.6804439469462507e-04 0.0000000000000000e+00  -8.3670894948987187e-19 -8.6804439469462583e-04 0.0000000000000000e+00  -1.6081539582587957e-18 -8.6804439469462529e-04 0.0000000000000000e+00  -2.1495715268769769e-18 -8.6804439469462713e-04 0.0000000000000000e+00  -2.6073660061593806e-18 -8.6804439469462930e-04 0.0000000000000000e+00  -3.2503135723474431e-18 -8.6804439469462963e-04 0.0000000000000000e+00  -3.8452715879901670e-18 -8.6804439469462898e-04 0.0000000000000000e+00  -4.1280665222678237e-18 -8.6804439469462887e-04 0.0000000000000000e+00  -4.0007478852785958e-18 -8.6804439469462876e-04 0.0000000000000000e+00  -3.9168792291868126e-18 -8.6804439469463028e-04 0.0000000000000000e+00  -3.4806843292552373e-18 -8.6804439469463277e-04 0.0000000000000000e+00  -2.7038755010457160e-18 -8.6804439469463646e-04 0.0000000000000000e+00  -1.9187739645238340e-18 -8.6804439469463732e-04 0.0000000000000000e+00  -1.2466594102416991e-18 -8.6804439469463917e-04 0.0000000000000000e+00  -5.8962456497521949e-19 -8.6804439469464003e-04 0.0000000000000000e+00  -8.9499640164711597e-35 -8.6804439469463938e-04 0.0000000000000000e+00  2.2871946002665771e-34 -9.3232516818369257e-04 0.0000000000000000e+00  -8.4009207455585411e-19 -9.3232516818369344e-04 0.0000000000000000e+00  -1.4862290441403119e-18 -9.3232516818369420e-04 0.0000000000000000e+00  -2.0982367583008157e-18 -9.3232516818369474e-04 0.0000000000000000e+00  -2.6805407409325021e-18 -9.3232516818369734e-04 0.0000000000000000e+00  -3.1804632900643283e-18 -9.3232516818369778e-04 0.0000000000000000e+00  -3.6212272388063764e-18 -9.3232516818369680e-04 0.0000000000000000e+00  -4.0807727977901193e-18 -9.3232516818369669e-04 0.0000000000000000e+00  -4.2404248642032438e-18 -9.3232516818369832e-04 0.0000000000000000e+00  -3.9348045474163515e-18 -9.3232516818369854e-04 0.0000000000000000e+00  -3.4290995896544324e-18 -9.3232516818370125e-04 0.0000000000000000e+00  -2.8351690510412260e-18 -9.3232516818370461e-04 0.0000000000000000e+00  -2.2216644874866210e-18 -9.3232516818370602e-04 0.0000000000000000e+00  -1.5138846079766452e-18 -9.3232516818370689e-04 0.0000000000000000e+00  -8.1138137745991349e-19 -9.3232516818370862e-04 0.0000000000000000e+00  8.8665859604881161e-35 -9.3232516818370819e-04 0.0000000000000000e+00  -5.6423728839469726e-35 -9.9705758549614287e-04 0.0000000000000000e+00  -7.7568728474368231e-19 -9.9705758549614352e-04 0.0000000000000000e+00  -1.6137749240520091e-18 -9.9705758549614417e-04 0.0000000000000000e+00  -2.0861576260534041e-18 -9.9705758549614590e-04 0.0000000000000000e+00  -2.5544528242816879e-18 -9.9705758549614677e-04 0.0000000000000000e+00  -3.0575036876864109e-18 -9.9705758549614850e-04 0.0000000000000000e+00  -3.5383098440356528e-18 -9.9705758549614699e-04 0.0000000000000000e+00  -3.9606104740620815e-18 -9.9705758549614677e-04 0.0000000000000000e+00  -4.3469521776475057e-18 -9.9705758549614764e-04 0.0000000000000000e+00  -4.0510954578486156e-18 -9.9705758549614959e-04 0.0000000000000000e+00  -3.4525126937025273e-18 -9.9705758549615197e-04 0.0000000000000000e+00  -3.0301764897497858e-18 -9.9705758549615566e-04 0.0000000000000000e+00  -2.4700109078816210e-18 -9.9705758549615653e-04 0.0000000000000000e+00  -1.8241865155684357e-18 -9.9705758549615783e-04 0.0000000000000000e+00  -8.9373071682608871e-19 -9.9705758549615978e-04 0.0000000000000000e+00  -5.6423728839469715e-35 -9.9705758549616000e-04 0.0000000000000000e+00  -8.4717257141258925e-35 -1.0622653588899325e-03 0.0000000000000000e+00  -7.5045571044644527e-19 -1.0622653588899316e-03 0.0000000000000000e+00  -1.4417456442059045e-18 -1.0622653588899336e-03 0.0000000000000000e+00  -1.9777849042471847e-18 -1.0622653588899351e-03 0.0000000000000000e+00  -2.4887298996356665e-18 -1.0622