<?xml version="1.0"?>
<VTKFile type="UnstructuredGrid"  version="0.1"  >
<UnstructuredGrid>
<Piece  NumberOfPoints="431" NumberOfCells="800">
<Points>
<DataArray  type="Float64"  NumberOfComponents="3"  format="ascii">-0.75 -3 0  -0.6 -3 0  -0.45 -3 0  -0.3 -3 0  -0.15 -3 0  0 -3 0  0.15 -3 0  0.3 -3 0  0.45 -3 0  0.6000000000000001 -3 0  0.75 -3 0  -0.75 -2.85 0  -0.6 -2.85 0  -0.45 -2.85 0  -0.3 -2.85 0  -0.15 -2.85 0  0 -2.85 0  0.15 -2.85 0  0.3 -2.85 0  0.45 -2.85 0  0.6000000000000001 -2.85 0  0.75 -2.85 0  -0.75 -2.7 0  -0.6 -2.7 0  -0.45 -2.7 0  -0.3 -2.7 0  -0.15 -2.7 0  0 -2.7 0  0.15 -2.7 0  0.3 -2.7 0  0.45 -2.7 0  0.6000000000000001 -2.7 0  0.75 -2.7 0  -0.75 -2.55 0  -0.6 -2.55 0  -0.45 -2.55 0  -0.3 -2.55 0  -0.15 -2.55 0  0 -2.55 0  0.15 -2.55 0  0.3 -2.55 0  0.45 -2.55 0  0.6000000000000001 -2.55 0  0.75 -2.55 0  -0.75 -2.4 0  -0.6 -2.4 0  -0.45 -2.4 0  -0.3 -2.4 0  -0.15 -2.4 0  0 -2.4 0  0.15 -2.4 0  0.3 -2.4 0  0.45 -2.4 0  0.6000000000000001 -2.4 0  0.75 -2.4 0  -0.75 -2.25 0  -0.6 -2.25 0  -0.45 -2.25 0  -0.3 -2.25 0  -0.15 -2.25 0  0 -2.25 0  0.15 -2.25 0  0.3 -2.25 0  0.45 -2.25 0  0.6000000000000001 -2.25 0  0.75 -2.25 0  -0.75 -2.1 0  -0.6 -2.1 0  -0.45 -2.1 0  -0.3 -2.1 0  -0.15 -2.1 0  0 -2.1 0  0.15 -2.1 0  0.3 -2.1 0  0.45 -2.1 0  0.6000000000000001 -2.1 0  0.75 -2.1 0  -0.75 -1.95 0  -0.6 -1.95 0  -0.45 -1.95 0  -0.3 -1.95 0  -0.15 -1.95 0  0 -1.95 0  0.15 -1.95 0  0.3 -1.95 0  0.45 -1.95 0  0.6000000000000001 -1.95 0  0.75 -1.95 0  -0.75 -1.8 0  -0.6 -1.8 0  -0.45 -1.8 0  -0.3 -1.8 0  -0.15 -1.8 0  0 -1.8 0  0.15 -1.8 0  0.3 -1.8 0  0.45 -1.8 0  0.6000000000000001 -1.8 0  0.75 -1.8 0  -0.75 -1.65 0  -0.6 -1.65 0  -0.45 -1.65 0  -0.3 -1.65 0  -0.15 -1.65 0  0 -1.65 0  0.15 -1.65 0  0.3 -1.65 0  0.45 -1.65 0  0.6000000000000001 -1.65 0  0.75 -1.65 0  -0.75 -1.5 0  -0.6 -1.5 0  -0.45 -1.5 0  -0.3 -1.5 0  -0.15 -1.5 0  0 -1.5 0  0.15 -1.5 0  0.3 -1.5 0  0.45 -1.5 0  0.6000000000000001 -1.5 0  0.75 -1.5 0  -0.75 -1.35 0  -0.6 -1.35 0  -0.45 -1.35 0  -0.3 -1.35 0  -0.15 -1.35 0  0 -1.35 0  0.15 -1.35 0  0.3 -1.35 0  0.45 -1.35 0  0.6000000000000001 -1.35 0  0.75 -1.35 0  -0.75 -1.2 0  -0.6 -1.2 0  -0.45 -1.2 0  -0.3 -1.2 0  -0.15 -1.2 0  0 -1.2 0  0.15 -1.2 0  0.3 -1.2 0  0.45 -1.2 0  0.6000000000000001 -1.2 0  0.75 -1.2 0  -0.75 -1.05 0  -0.6 -1.05 0  -0.45 -1.05 0  -0.3 -1.05 0  -0.15 -1.05 0  0 -1.05 0  0.15 -1.05 0  0.3 -1.05 0  0.45 -1.05 0  0.6000000000000001 -1.05 0  0.75 -1.05 0  -0.75 -0.8999999999999999 0  -0.6 -0.8999999999999999 0  -0.45 -0.8999999999999999 0  -0.3 -0.8999999999999999 0  -0.15 -0.8999999999999999 0  0 -0.8999999999999999 0  0.15 -0.8999999999999999 0  0.3 -0.8999999999999999 0  0.45 -0.8999999999999999 0  0.6000000000000001 -0.8999999999999999 0  0.75 -0.8999999999999999 0  -0.75 -0.75 0  -0.6 -0.75 0  -0.45 -0.75 0  -0.3 -0.75 0  -0.15 -0.75 0  0 -0.75 0  0.15 -0.75 0  0.3 -0.75 0  0.45 -0.75 0  0.6000000000000001 -0.75 0  0.75 -0.75 0  -0.75 -0.6000000000000001 0  -0.6 -0.6000000000000001 0  -0.45 -0.6000000000000001 0  -0.3 -0.6000000000000001 0  -0.15 -0.6000000000000001 0  0 -0.6000000000000001 0  0.15 -0.6000000000000001 0  0.3 -0.6000000000000001 0  0.45 -0.6000000000000001 0  0.6000000000000001 -0.6000000000000001 0  0.75 -0.6000000000000001 0  -0.75 -0.4500000000000002 0  -0.6 -0.4500000000000002 0  -0.45 -0.4500000000000002 0  -0.3 -0.4500000000000002 0  -0.15 -0.4500000000000002 0  0 -0.4500000000000002 0  0.15 -0.4500000000000002 0  0.3 -0.4500000000000002 0  0.45 -0.4500000000000002 0  0.6000000000000001 -0.4500000000000002 0  0.75 -0.4500000000000002 0  -0.75 -0.2999999999999998 0  -0.6 -0.2999999999999998 0  -0.45 -0.2999999999999998 0  -0.3 -0.2999999999999998 0  -0.15 -0.2999999999999998 0  0 -0.2999999999999998 0  0.15 -0.2999999999999998 0  0.3 -0.2999999999999998 0  0.45 -0.2999999999999998 0  0.6000000000000001 -0.2999999999999998 0  0.75 -0.2999999999999998 0  -0.75 -0.1499999999999999 0  -0.6 -0.1499999999999999 0  -0.45 -0.1499999999999999 0  -0.3 -0.1499999999999999 0  -0.15 -0.1499999999999999 0  0 -0.1499999999999999 0  0.15 -0.1499999999999999 0  0.3 -0.1499999999999999 0  0.45 -0.1499999999999999 0  0.6000000000000001 -0.1499999999999999 0  0.75 -0.1499999999999999 0  -0.75 0 0  -0.6 0 0  -0.45 0 0  -0.3 0 0  -0.15 0 0  0 0 0  0.15 0 0  0.3 0 0  0.45 0 0  0.6000000000000001 0 0  0.75 0 0  -0.675 -2.925 0  -0.525 -2.925 0  -0.375 -2.925 0  -0.225 -2.925 0  -0.07499999999999996 -2.925 0  0.07499999999999996 -2.925 0  0.225 -2.925 0  0.375 -2.925 0  0.5249999999999999 -2.925 0  0.675 -2.925 0  -0.675 -2.775 0  -0.525 -2.775 0  -0.375 -2.775 0  -0.225 -2.775 0  -0.07499999999999996 -2.775 0  0.07499999999999996 -2.775 0  0.225 -2.775 0  0.375 -2.775 0  0.5249999999999999 -2.775 0  0.675 -2.775 0  -0.675 -2.625 0  -0.525 -2.625 0  -0.375 -2.625 0  -0.225 -2.625 0  -0.07499999999999996 -2.625 0  0.07499999999999996 -2.625 0  0.225 -2.625 0  0.375 -2.625 0  0.5249999999999999 -2.625 0  0.675 -2.625 0  -0.675 -2.475 0  -0.525 -2.475 0  -0.375 -2.475 0  -0.225 -2.475 0  -0.07499999999999996 -2.475 0  0.07499999999999996 -2.475 0  0.225 -2.475 0  0.375 -2.475 0  0.5249999999999999 -2.475 0  0.675 -2.475 0  -0.675 -2.325 0  -0.525 -2.325 0  -0.375 -2.325 0  -0.225 -2.325 0  -0.07499999999999996 -2.325 0  0.07499999999999996 -2.325 0  0.225 -2.325 0  0.375 -2.325 0  0.5249999999999999 -2.325 0  0.675 -2.325 0  -0.675 -2.175 0  -0.525 -2.175 0  -0.375 -2.175 0  -0.225 -2.175 0  -0.07499999999999996 -2.175 0  0.07499999999999996 -2.175 0  0.225 -2.175 0  0.375 -2.175 0  0.5249999999999999 -2.175 0  0.675 -2.175 0  -0.675 -2.025 0  -0.525 -2.025 0  -0.375 -2.025 0  -0.225 -2.025 0  -0.07499999999999996 -2.025 0  0.07499999999999996 -2.025 0  0.225 -2.025 0  0.375 -2.025 0  0.5249999999999999 -2.025 0  0.675 -2.025 0  -0.675 -1.875 0  -0.525 -1.875 0  -0.375 -1.875 0  -0.225 -1.875 0  -0.07499999999999996 -1.875 0  0.07499999999999996 -1.875 0  0.225 -1.875 0  0.375 -1.875 0  0.5249999999999999 -1.875 0  0.675 -1.875 0  -0.675 -1.725 0  -0.525 -1.725 0  -0.375 -1.725 0  -0.225 -1.725 0  -0.07499999999999996 -1.725 0  0.07499999999999996 -1.725 0  0.225 -1.725 0  0.375 -1.725 0  0.5249999999999999 -1.725 0  0.675 -1.725 0  -0.675 -1.575 0  -0.525 -1.575 0  -0.375 -1.575 0  -0.225 -1.575 0  -0.07499999999999996 -1.575 0  0.07499999999999996 -1.575 0  0.225 -1.575 0  0.375 -1.575 0  0.5249999999999999 -1.575 0  0.675 -1.575 0  -0.675 -1.425 0  -0.525 -1.425 0  -0.375 -1.425 0  -0.225 -1.425 0  -0.07499999999999996 -1.425 0  0.07499999999999996 -1.425 0  0.225 -1.425 0  0.375 -1.425 0  0.5249999999999999 -1.425 0  0.675 -1.425 0  -0.675 -1.275 0  -0.525 -1.275 0  -0.375 -1.275 0  -0.225 -1.275 0  -0.07499999999999996 -1.275 0  0.07499999999999996 -1.275 0  0.225 -1.275 0  0.375 -1.275 0  0.5249999999999999 -1.275 0  0.675 -1.275 0  -0.675 -1.125 0  -0.525 -1.125 0  -0.375 -1.125 0  -0.225 -1.125 0  -0.07499999999999996 -1.125 0  0.07499999999999996 -1.125 0  0.225 -1.125 0  0.375 -1.125 0  0.5249999999999999 -1.125 0  0.675 -1.125 0  -0.675 -0.9750000000000001 0  -0.525 -0.9750000000000001 0  -0.375 -0.9750000000000001 0  -0.225 -0.9750000000000001 0  -0.07499999999999996 -0.9750000000000001 0  0.07499999999999996 -0.9750000000000001 0  0.225 -0.9750000000000001 0  0.375 -0.9750000000000001 0  0.5249999999999999 -0.9750000000000001 0  0.675 -0.9750000000000001 0  -0.675 -0.8250000000000002 0  -0.525 -0.8250000000000002 0  -0.375 -0.8250000000000002 0  -0.225 -0.8250000000000002 0  -0.07499999999999996 -0.8250000000000002 0  0.07499999999999996 -0.8250000000000002 0  0.225 -0.8250000000000002 0  0.375 -0.8250000000000002 0  0.5249999999999999 -0.8250000000000002 0  0.675 -0.8250000000000002 0  -0.675 -0.6749999999999998 0  -0.525 -0.6749999999999998 0  -0.375 -0.6749999999999998 0  -0.225 -0.6749999999999998 0  -0.07499999999999996 -0.6749999999999998 0  0.07499999999999996 -0.6749999999999998 0  0.225 -0.6749999999999998 0  0.375 -0.6749999999999998 0  0.5249999999999999 -0.6749999999999998 0  0.675 -0.6749999999999998 0  -0.675 -0.5249999999999999 0  -0.525 -0.5249999999999999 0  -0.375 -0.5249999999999999 0  -0.225 -0.5249999999999999 0  -0.07499999999999996 -0.5249999999999999 0  0.07499999999999996 -0.5249999999999999 0  0.225 -0.5249999999999999 0  0.375 -0.5249999999999999 0  0.5249999999999999 -0.5249999999999999 0  0.675 -0.5249999999999999 0  -0.675 -0.375 0  -0.525 -0.375 0  -0.375 -0.375 0  -0.225 -0.375 0  -0.07499999999999996 -0.375 0  0.07499999999999996 -0.375 0  0.225 -0.375 0  0.375 -0.375 0  0.5249999999999999 -0.375 0  0.675 -0.375 0  -0.675 -0.2250000000000001 0  -0.525 -0.2250000000000001 0  -0.375 -0.2250000000000001 0  -0.225 -0.2250000000000001 0  -0.07499999999999996 -0.2250000000000001 0  0.07499999999999996 -0.2250000000000001 0  0.225 -0.2250000000000001 0  0.375 -0.2250000000000001 0  0.5249999999999999 -0.2250000000000001 0  0.675 -0.2250000000000001 0  -0.675 -0.07500000000000018 0  -0.525 -0.07500000000000018 0  -0.375 -0.07500000000000018 0  -0.225 -0.07500000000000018 0  -0.07499999999999996 -0.07500000000000018 0  0.07499999999999996 -0.07500000000000018 0  0.225 -0.07500000000000018 0  0.375 -0.07500000000000018 0  0.5249999999999999 -0.07500000000000018 0  0.675 -0.07500000000000018 0  </DataArray>
</Points>
<Cells>
[...]
<PointData  Vectors="displacement"> 
<DataArray  type="Float64"  Name="displacement"  NumberOfComponents="3" format="ascii">1.9721522630525281e-29 0.0000000000000000e+00 0.0000000000000000e+00  9.8607613152626378e-30 -4.1633363423443331e-15 0.0000000000000000e+00  -7.8886090522101102e-29 -5.4932910072598833e-15 0.0000000000000000e+00  -7.8886090522101102e-29 -9.7144514654701103e-15 0.0000000000000000e+00  1.8486978372067194e-28 -9.5570465469749835e-16 0.0000000000000000e+00  -3.1554436208840441e-28 -6.9388939039072213e-15 0.0000000000000000e+00  1.5563439880593235e-28 -5.9206473635812520e-15 0.0000000000000000e+00  3.9443045261050551e-29 -3.2381504884900365e-15 0.0000000000000000e+00  -2.0934874801324833e-28 -1.2200888447703533e-14 0.0000000000000000e+00  -5.2590727014734034e-29 6.4763009769800690e-15 0.0000000000000000e+00  -1.0518145402946820e-28 -1.4802973661668749e-14 0.0000000000000000e+00  2.6295363507367079e-29 -4.9619295558265222e+01 0.0000000000000000e+00  6.7412026634438461e-13 -4.9619295558264298e+01 0.0000000000000000e+00  -3.5454048029377880e-13 -4.9619295558264440e+01 0.0000000000000000e+00  1.0108838500192467e-12 -4.9619295558264923e+01 0.0000000000000000e+00  -2.4419840645612090e-13 -4.9619295558263453e+01 0.0000000000000000e+00  -1.5977677986331560e-12 -4.9619295558264952e+01 0.0000000000000000e+00  -6.0394462135150362e-13 -4.9619295558264078e+01 0.0000000000000000e+00  1.6724230511037336e-13 -4.9619295558263282e+01 0.0000000000000000e+00  -1.1707304907522228e-12 -4.9619295558264447e+01 0.0000000000000000e+00  -5.1435730251831038e-13 -4.9619295558264263e+01 0.0000000000000000e+00  -1.7038794267598746e-28 -4.9619295558263701e+01 0.0000000000000000e+00  2.0955998564072368e-28 -9.9238591126267025e+01 0.0000000000000000e+00  9.5801363824063498e-13 -9.9238591126265419e+01 0.0000000000000000e+00  -2.5420988109521232e-14 -9.9238591126266869e+01 0.0000000000000000e+00  4.3194889912969024e-13 -9.9238591126265433e+01 0.0000000000000000e+00  -9.4300663404639605e-13 -9.9238591126266826e+01 0.0000000000000000e+00  -6.1279492798166185e-13 -9.9238591126266698e+01 0.0000000000000000e+00  -4.7872168785346277e-13 -9.9238591126267266e+01 0.0000000000000000e+00  -2.0136012661590558e-12 -9.9238591126266130e+01 0.0000000000000000e+00  -2.5114358633477280e-13 -9.9238591126264410e+01 0.0000000000000000e+00  -1.5709160642804114e-12 -9.9238591126266854e+01 0.0000000000000000e+00  -1.2114649615894115e-28 -9.9238591126265504e+01 0.0000000000000000e+00  6.5738408768417658e-29 -1.4885788672792802e+02 0.0000000000000000e+00  5.2676373293032816e-13 -1.4885788672792972e+02 0.0000000000000000e+00  -7.2017173956817129e-13 -1.4885788672792600e+02 0.0000000000000000e+00  8.4047616869238986e-13 -1.4885788672792796e+02 0.0000000000000000e+00  -5.6891417836594557e-13 -1.4885788672792847e+02 0.0000000000000000e+00  -3.3126725744961388e-13 -1.4885788672792850e+02 0.0000000000000000e+00  -1.4697072553286537e-12 -1.4885788672792478e+02 0.0000000000000000e+00  1.2143137315110775e-13 -1.4885788672792697e+02 0.0000000000000000e+00  -1.8016638128454218e-12 -1.4885788672792805e+02 0.0000000000000000e+00  -8.8846887040761484e-14 -1.4885788672792538e+02 0.0000000000000000e+00  -1.4462449929051891e-28 -1.4885788672792722e+02 0.0000000000000000e+00  -1.5518744860534949e-28 -1.9847718243621168e+02 0.0000000000000000e+00  9.5612778462205207e-13 -1.9847718243621171e+02 0.0000000000000000e+00  5.9163654219943281e-12 -1.9847718243621006e+02 0.0000000000000000e+00  -1.8939990832537546e-13 -1.9847718243620920e+02 0.0000000000000000e+00  -8.8934629961582360e-13 -1.9847718243621387e+02 0.0000000000000000e+00  -1.7992991290910650e-12 -1.9847718243621085e+02 0.0000000000000000e+00  -1.2170239055770850e-12 -1.9847718243621165e+02 0.0000000000000000e+00  -2.9488732456747505e-12 -1.9847718243621011e+02 0.0000000000000000e+00  -6.4942571561229416e-13 -1.9847718243620761e+02 0.0000000000000000e+00  8.9040675912226864e-13 -1.9847718243620668e+02 0.0000000000000000e+00  6.0867786319507777e-28 -1.9847718243620778e+02 0.0000000000000000e+00  -4.9303806576313199e-29 -2.4809647847941824e+02 0.0000000000000000e+00  2.6475313654154143e-12 -2.4809647847941602e+02 0.0000000000000000e+00  -1.3280514380436867e-12 -2.4809647847941434e+02 0.0000000000000000e+00  7.5128006643357848e-13 -2.4809647847941878e+02 0.0000000000000000e+00  -2.5367426484863611e-12 -2.4809647847941201e+02 0.0000000000000000e+00  8.4955200396690338e-15 -2.4809647847941201e+02 0.0000000000000000e+00  -8.1975703484466828e-13 -2.4809647847941315e+02 0.0000000000000000e+00  -1.3221960306519384e-12 -2.4809647847941281e+02 0.0000000000000000e+00  -2.1349716182218315e-12 -2.4809647847941457e+02 0.0000000000000000e+00  -1.6396023890447769e-12 -2.4809647847941270e+02 0.0000000000000000e+00  6.8188714284739522e-28 -2.4809647847941685e+02 0.0000000000000000e+00  -2.3591877355146498e-28 -2.9771577557381755e+02 0.0000000000000000e+00  3.5332212945465716e-13 -2.9771577557382307e+02 0.0000000000000000e+00  1.8629203824821666e-12 -2.9771577557382352e+02 0.0000000000000000e+00  -7.9823336965011998e-13 -2.9771577557382045e+02 0.0000000000000000e+00  -1.4341243950249584e-12 -2.9771577557382051e+02 0.0000000000000000e+00  -3.1767129750130453e-12 -2.9771577557382074e+02 0.0000000000000000e+00  -1.5380895210441881e-12 -2.9771577557381801e+02 0.0000000000000000e+00  -1.2051945002126553e-12 -2.9771577557381414e+02 0.0000000000000000e+00  2.1172577221244574e-12 -2.9771577557381153e+02 0.0000000000000000e+00  -3.6004314051522304e-12 -2.9771577557381329e+02 0.0000000000000000e+00  4.2260405636839959e-28 -2.9771577557380857e+02 0.0000000000000000e+00  -8.9404235925048035e-28 -3.4733507596720335e+02 0.0000000000000000e+00  6.3486008613080316e-13 -3.4733507596720597e+02 0.0000000000000000e+00  1.4026251449129461e-13 -3.4733507596721023e+02 0.0000000000000000e+00  -2.6041221840556382e-12 -3.4733507596720733e+02 0.0000000000000000e+00  -1.2107180822321255e-12 -3.4733507596721154e+02 0.0000000000000000e+00  2.9715111181323101e-13 -3.4733507596720790e+02 0.0000000000000000e+00  1.7842150530593164e-12 -3.4733507596720540e+02 0.0000000000000000e+00  -2.3990141758089030e-12 -3.4733507596720426e+02 0.0000000000000000e+00  1.9457969178730586e-12 -3.4733507596720005e+02 0.0000000000000000e+00  2.1565438810468719e-12 -3.4733507596720034e+02 0.0000000000000000e+00  -2.6295363507367084e-29 -3.4733507596719977e+02 0.0000000000000000e+00  1.4346261487869038e-28 -3.9695438671379014e+02 0.0000000000000000e+00  -1.2367663762375708e-12 -3.9695438671378940e+02 0.0000000000000000e+00  5.2248250572517253e-13 -3.9695438671379708e+02 0.0000000000000000e+00  1.6431173973150257e-12 -3.9695438671379731e+02 0.0000000000000000e+00  3.4231612444063076e-13 -3.9695438671379736e+02 0.0000000000000000e+00  -2.8466288242957734e-13 -3.9695438671379389e+02 0.0000000000000000e+00  3.5014203776162442e-13 -3.9695438671379384e+02 0.0000000000000000e+00  7.7568123592658487e-12 -3.9695438671378588e+02 0.0000000000000000e+00  9.6343972391909024e-13 -3.9695438671378645e+02 0.0000000000000000e+00  1.4766590060720909e-12 -3.9695438671378793e+02 0.0000000000000000e+00  3.0648698869280103e-28 -3.9695438671378224e+02 0.0000000000000000e+00  9.4663308626521381e-28 -4.4657372995176235e+02 0.0000000000000000e+00  -8.7023503118412453e-13 -4.4657372995175456e+02 0.0000000000000000e+00  -8.1178467247282780e-12 -4.4657372995175052e+02 0.0000000000000000e+00  -2.7864119185908460e-13 -4.4657372995175928e+02 0.0000000000000000e+00  3.6393609019477599e-13 -4.4657372995175371e+02 0.0000000000000000e+00  4.2084504410765910e-12 -4.4657372995175496e+02 0.0000000000000000e+00  9.4207311713862752e-12 -4.4657372995174796e+02 0.0000000000000000e+00  6.4913947176820726e-12 -4.4657372995175280e+02 0.0000000000000000e+00  1.9833895905742231e-12 -4.4657372995175155e+02 0.0000000000000000e+00  7.1190974101543389e-13 -4.4657372995174683e+02 0.0000000000000000e+00  1.2680322753845561e-28 -4.4657372995176058e+02 0.0000000000000000e+00  -4.7392870840378383e-28 -4.9619317515721463e+02 0.0000000000000000e+00  -4.3925772667661128e-12 -4.9619317515721917e+02 0.0000000000000000e+00  -2.0178634703868862e-13 -4.9619317515721735e+02 0.0000000000000000e+00  -2.4207483523665585e-12 -4.9619317515721758e+02 0.0000000000000000e+00  1.8304904338509526e-12 -4.9619317515721229e+02 0.0000000000000000e+00  1.4201770812827835e-12 -4.9619317515720820e+02 0.0000000000000000e+00  1.0831227118537691e-12 -4.9619317515721110e+02 0.0000000000000000e+00  5.5386951031876663e-12 -4.9619317515721366e+02 0.0000000000000000e+00  3.6348427051302083e-12 -4.9619317515720957e+02 0.0000000000000000e+00  2.5031663332140954e-12 -4.9619317515721383e+02 0.0000000000000000e+00  2.0284994705683194e-28 -4.9619317515720184e+02 0.0000000000000000e+00  1.7749370367472757e-28 -5.4581294036659324e+02 0.0000000000000000e+00  -5.3228561915538821e-13 -5.4581294036658892e+02 0.0000000000000000e+00  1.3163735061794493e-12 -5.4581294036658073e+02 0.0000000000000000e+00  1.6146560488565810e-12 -5.4581294036657482e+02 0.0000000000000000e+00  -3.8915938357461188e-12 -5.4581294036658221e+02 0.0000000000000000e+00  2.3578846706191882e-13 -5.4581294036657516e+02 0.0000000000000000e+00  -2.3478418985915599e-12 -5.4581294036657562e+02 0.0000000000000000e+00  1.5116187244883745e-12 -5.4581294036658119e+02 0.0000000000000000e+00  6.2986166897076063e-12 -5.4581294036658426e+02 0.0000000000000000e+00  1.3755068221681412e-12 -5.4581294036657573e+02 0.0000000000000000e+00  8.4145163223574616e-28 -5.4581294036658312e+02 0.0000000000000000e+00  -1.1876006260820846e-28 -5.9543370984219996e+02 0.0000000000000000e+00  -3.3968938304742882e-13 -5.9543370984220542e+02 0.0000000000000000e+00  1.9346491230310766e-12 -5.9543370984220712e+02 0.0000000000000000e+00  -6.8551055999002300e-12 -5.9543370984220860e+02 0.0000000000000000e+00  2.9495548001489862e-12 -5.9543370984220633e+02 0.0000000000000000e+00  -1.0809982877072542e-13 -5.9543370984220678e+02 0.0000000000000000e+00  6.2362746809660158e-12 -5.9543370984220689e+02 0.0000000000000000e+00  -7.8598672803921555e-12 -5.9543370984220496e+02 0.0000000000000000e+00  2.0876779431346350e-12 -5.9543370984219484e+02 0.0000000000000000e+00  6.6163831805378215e-12 -5.9543370984220655e+02 0.0000000000000000e+00  4.4776954097505920e-29 -5.9543370984219746e+02 0.0000000000000000e+00  1.2095867213388851e-27 -6.4505763100013871e+02 0.0000000000000000e+00  2.9511641054309299e-12 -6.4505763100012337e+02 0.0000000000000000e+00  -7.2951619861877274e-12 -6.4505763100013610e+02 0.0000000000000000e+00  -6.6291151879160149e-14 -6.4505763100013917e+02 0.0000000000000000e+00  -3.2141682421162361e-12 -6.4505763100012859e+02 0.0000000000000000e+00  -2.7379023555354797e-13 -6.4505763100013382e+02 0.0000000000000000e+00  -5.7538667452955401e-12 -6.4505763100012780e+02 0.0000000000000000e+00  3.5220838481303481e-12 -6.4505763100012678e+02 0.0000000000000000e+00  2.5350599297146713e-12 -6.4505763100012814e+02 0.0000000000000000e+00  -2.6715473824264582e-12 -6.4505763100012621e+02 0.0000000000000000e+00  -6.2687735736508326e-28 -6.4505763100012109e+02 0.0000000000000000e+00  -9.4444122626668117e-28 -6.9469144306242811e+02 0.0000000000000000e+00  -5.5062459395990301e-12 -6.9469144306243413e+02 0.0000000000000000e+00  -2.6376358220057016e-12 -6.9469144306242458e+02 0.0000000000000000e+00  -3.0881182124264643e-12 -6.9469144306241833e+02 0.0000000000000000e+00  -6.0761112088211937e-12 -6.9469144306243231e+02 0.0000000000000000e+00  -6.2736020236367555e-13 -6.9469144306243118e+02 0.0000000000000000e+00  1.4773643265332477e-12 -6.9469144306242833e+02 0.0000000000000000e+00  7.4281572101249923e-13 -6.9469144306242072e+02 0.0000000000000000e+00  -8.5113714972506019e-12 -6.9469144306241787e+02 0.0000000000000000e+00  8.6332296264109110e-12 -6.9469144306241481e+02 0.0000000000000000e+00  1.4838097979157114e-28 -6.9469144306240969e+02 0.0000000000000000e+00  -2.7938823726577481e-28 -7.4435629568646061e+02 0.0000000000000000e+00  1.2423626185842095e-12 -7.4435629568644481e+02 0.0000000000000000e+00  -1.5067003256855084e-12 -7.4435629568644947e+02 0.0000000000000000e+00  -1.0267874798115390e-11 -7.4435629568645129e+02 0.0000000000000000e+00  -5.4194047490390419e-12 -7.4435629568643458e+02 0.0000000000000000e+00  -9.2327512566641949e-13 -7.4435629568643094e+02 0.0000000000000000e+00  -2.4685617505684847e-12 -7.4435629568643367e+02 0.0000000000000000e+00  -3.2254523686611101e-12 -7.4435629568644299e+02 0.0000000000000000e+00  8.1867603655696204e-12 -7.4435629568643981e+02 0.0000000000000000e+00  5.3094531012755179e-13 -7.4435629568643753e+02 0.0000000000000000e+00  -2.0773337170819975e-27 -7.4435629568645425e+02 0.0000000000000000e+00  4.2522083971543783e-28 -7.9411856270622661e+02 0.0000000000000000e+00  -2.0037194697454273e-13 -7.9411856270623957e+02 0.0000000000000000e+00  -1.5639855545503475e-11 -7.9411856270623400e+02 0.0000000000000000e+00  3.3537971876117575e-12 -7.9411856270623196e+02 0.0000000000000000e+00  -2.4021145676299419e-12 -7.9411856270623048e+02 0.0000000000000000e+00  -1.0769220233306913e-11 -7.9411856270622775e+02 0.0000000000000000e+00  -2.6101825101330715e-12 -7.9411856270622707e+02 0.0000000000000000e+00  2.4449965694837096e-12 -7.9411856270620967e+02 0.0000000000000000e+00  -7.0490096677577263e-13 -7.9411856270622707e+02 0.0000000000000000e+00  -1.9907071456504635e-12 -7.9411856270620433e+02 0.0000000000000000e+00  2.8894124977148062e-27 -7.9411856270622889e+02 0.0000000000000000e+00  0.0000000000000000e+00 -8.4418654469921887e+02 0.0000000000000000e+00  1.8675612546911813e-12 -8.4418654469921330e+02 0.0000000000000000e+00  -5.2191347033412197e-12 -8.4418654469921046e+02 0.0000000000000000e+00  -3.6287761270472878e-12 -8.4418654469921955e+02 0.0000000000000000e+00  -8.2975634719226567e-12 -8.4418654469920534e+02 0.0000000000000000e+00  -4.3970619377956845e-12 -8.4418654469921057e+02 0.0000000000000000e+00  -4.4864745346268719e-12 -8.4418654469920648e+02 0.0000000000000000e+00  8.0241602064603029e-13 -8.4418654469920830e+02 0.0000000000000000e+00  4.1210807639072985e-12 -8.4418654469919625e+02 0.0000000000000000e+00  1.6987415798649521e-14 -8.4418654469920898e+02 0.0000000000000000e+00  1.0350867328225945e-26 -8.4418654469920079e+02 0.0000000000000000e+00  -1.2194474826541475e-27 -8.9521395003133273e+02 0.0000000000000000e+00  -1.4431094700068280e-11 -8.9521395003134091e+02 0.0000000000000000e+00  -6.7454293152932591e-12 -8.9521395003134353e+02 0.0000000000000000e+00  -1.4637054627521129e-11 -8.9521395003132648e+02 0.0000000000000000e+00  -7.8066093010592169e-12 -8.9521395003134080e+02 0.0000000000000000e+00  -9.9014938994452258e-12 -8.9521395003133114e+02 0.0000000000000000e+00  -8.0072696082148890e-13 -8.9521395003132386e+02 0.0000000000000000e+00  4.3420097889574691e-12 -8.9521395003132659e+02 0.0000000000000000e+00  -9.6010664586532555e-12 -8.9521395003132830e+02 0.0000000000000000e+00  -1.6328871261658700e-12 -8.9521395003134649e+02 0.0000000000000000e+00  -1.0904083421612085e-27 -8.9521395003131897e+02 0.0000000000000000e+00  -1.2621774483536198e-27 -9.4925230747358319e+02 0.0000000000000000e+00  -1.2832762411058987e-11 -9.4925230747358034e+02 0.0000000000000000e+00  2.7141186423478743e-12 -9.4925230747357864e+02 0.0000000000000000e+00  -2.4476861590954609e-11 -9.4925230747357239e+02 0.0000000000000000e+00  -1.6083627566347567e-11 -9.4925230747356250e+02 0.0000000000000000e+00  -1.5064226114429711e-11 -9.4925230747355420e+02 0.0000000000000000e+00  -1.4881743094103200e-12 -9.4925230747356056e+02 0.0000000000000000e+00  -9.0801280998451061e-12 -9.4925230747356875e+02 0.0000000000000000e+00  7.4949214614369459e-13 -9.4925230747357614e+02 0.0000000000000000e+00  1.8598361433708616e-12 -9.4925230747356852e+02 0.0000000000000000e+00  -9.3222713028119890e-28 -9.4925230747358466e+02 0.0000000000000000e+00  7.3627017820627691e-28 -1.0127399166064775e+03 0.0000000000000000e+00  -5.9240047981134061e-13 -1.0127399166064927e+03 0.0000000000000000e+00  -2.7387417571734464e-11 -1.0127399166064869e+03 0.0000000000000000e+00  -1.9824630714143603e-11 -1.0127399166064691e+03 0.0000000000000000e+00  -2.4299333075336000e-11 -1.0127399166064552e+03 0.0000000000000000e+00  -1.5463211957032000e-11 -1.0127399166064528e+03 0.0000000000000000e+00  -1.2604875917793641e-11 -1.0127399166064445e+03 0.0000000000000000e+00  -4.0215679448691285e-12 -1.0127399166064599e+03 0.0000000000000000e+00  -1.4903874161882944e-11 -1.0127399166064548e+03 0.0000000000000000e+00  -8.9748672691417843e-12 -1.0127399166064624e+03 0.0000000000000000e+00  2.5243548967072374e-27 -1.0127399166064455e+03 0.0000000000000000e+00  1.6509785863396208e-14 -2.4809647770011217e+01 0.0000000000000000e+00  1.5520205005604579e-12 -2.4809647770011548e+01 0.0000000000000000e+00  7.5433398630592052e-13 -2.4809647770013807e+01 0.0000000000000000e+00  -1.4101395000013500e-12 -2.4809647770011821e+01 0.0000000000000000e+00  7.5275753074415321e-13 -2.4809647770011352e+01 0.0000000000000000e+00  -2.9400896226970581e-12 -2.4809647770014806e+01 0.0000000000000000e+00  1.8050416182242002e-13 -2.4809647770012610e+01 0.0000000000000000e+00  4.4219578507588442e-13 -2.4809647770009498e+01 0.0000000000000000e+00  3.0366526238529124e-13 -2.4809647770013211e+01 0.0000000000000000e+00  1.2639158288755582e-12 -2.4809647770011512e+01 0.0000000000000000e+00  6.0650080456973642e-13 -7.4428943301620379e+01 0.0000000000000000e+00  6.3606578433197199e-13 -7.4428943301620478e+01 0.0000000000000000e+00  -5.3955925153677621e-13 -7.4428943301621075e+01 0.0000000000000000e+00  2.2393902269067013e-12 -7.4428943301620123e+01 0.0000000000000000e+00  -3.7484014669770336e-12 -7.4428943301620862e+01 0.0000000000000000e+00  -2.0705037945151098e-12 -7.4428943301621004e+01 0.0000000000000000e+00  2.2920301538858998e-12 -7.4428943301618119e+01 0.0000000000000000e+00  -2.0134772069543094e-12 -7.4428943301619924e+01 0.0000000000000000e+00  2.2810635024319018e-13 -7.4428943301618972e+01 0.0000000000000000e+00  -1.2870696608906679e-12 -7.4428943301621544e+01 0.0000000000000000e+00  2.1105760964605425e-12 -1.2404823879571057e+02 0.0000000000000000e+00  -1.3904802885825491e-12 -1.2404823879571039e+02 0.0000000000000000e+00  1.9125840135775140e-12 -1.2404823879570883e+02 0.0000000000000000e+00  3.9459948379068846e-15 -1.2404823879570965e+02 0.0000000000000000e+00  -1.0264785760943538e-12 -1.2404823879570941e+02 0.0000000000000000e+00  -2.4126633198798920e-12 -1.2404823879570776e+02 0.0000000000000000e+00  1.6230644151919267e-12 -1.2404823879571019e+02 0.0000000000000000e+00  -4.1673275525198045e-13 -1.2404823879570547e+02 0.0000000000000000e+00  -3.4040486113214464e-12 -1.2404823879570857e+02 0.0000000000000000e+00  1.3525138809359544e-12 -1.2404823879570797e+02 0.0000000000000000e+00  1.5270318010567248e-13 -1.7366753416851938e+02 0.0000000000000000e+00  6.0053383362101344e-12 -1.7366753416851301e+02 0.0000000000000000e+00  2.7197295605918808e-12 -1.7366753416850915e+02 0.0000000000000000e+00  1.1887850176135479e-12 -1.7366753416850912e+02 0.0000000000000000e+00  -3.3119287391078542e-12 -1.7366753416851094e+02 0.0000000000000000e+00  -2.6319963489598842e-12 -1.7366753416851100e+02 0.0000000000000000e+00  2.0178638675359110e-13 -1.7366753416850815e+02 0.0000000000000000e+00  -1.4388246707647371e-12 -1.7366753416851640e+02 0.0000000000000000e+00  -1.1010518059815521e-12 -1.7366753416851037e+02 0.0000000000000000e+00  -1.3906896759623744e-12 -1.7366753416851301e+02 0.0000000000000000e+00  5.1428249585589001e-12 -2.2328682915955983e+02 0.0000000000000000e+00  7.0756835181204859e-12 -2.2328682915955991e+02 0.0000000000000000e+00  2.3161567870846986e-12 -2.2328682915956074e+02 0.0000000000000000e+00  -3.3865019689950513e-12 -2.2328682915956824e+02 0.0000000000000000e+00  -1.2107183205215466e-12 -2.2328682915956782e+02 0.0000000000000000e+00  7.5450562003516652e-13 -2.2328682915956043e+02 0.0000000000000000e+00  -4.4612338114870044e-12 -2.2328682915956423e+02 0.0000000000