<?xml version="1.0"?>
<VTKFile type="UnstructuredGrid"  version="0.1"  >
<UnstructuredGrid>
<Piece  NumberOfPoints="431" NumberOfCells="800">
<Points>
<DataArray  type="Float64"  NumberOfComponents="3"  format="ascii">-0.75 -3 0  -0.6 -3 0  -0.45 -3 0  -0.3 -3 0  -0.15 -3 0  0 -3 0  0.15 -3 0  0.3 -3 0  0.45 -3 0  0.6000000000000001 -3 0  0.75 -3 0  -0.75 -2.85 0  -0.6 -2.85 0  -0.45 -2.85 0  -0.3 -2.85 0  -0.15 -2.85 0  0 -2.85 0  0.15 -2.85 0  0.3 -2.85 0  0.45 -2.85 0  0.6000000000000001 -2.85 0  0.75 -2.85 0  -0.75 -2.7 0  -0.6 -2.7 0  -0.45 -2.7 0  -0.3 -2.7 0  -0.15 -2.7 0  0 -2.7 0  0.15 -2.7 0  0.3 -2.7 0  0.45 -2.7 0  0.6000000000000001 -2.7 0  0.75 -2.7 0  -0.75 -2.55 0  -0.6 -2.55 0  -0.45 -2.55 0  -0.3 -2.55 0  -0.15 -2.55 0  0 -2.55 0  0.15 -2.55 0  0.3 -2.55 0  0.45 -2.55 0  0.6000000000000001 -2.55 0  0.75 -2.55 0  -0.75 -2.4 0  -0.6 -2.4 0  -0.45 -2.4 0  -0.3 -2.4 0  -0.15 -2.4 0  0 -2.4 0  0.15 -2.4 0  0.3 -2.4 0  0.45 -2.4 0  0.6000000000000001 -2.4 0  0.75 -2.4 0  -0.75 -2.25 0  -0.6 -2.25 0  -0.45 -2.25 0  -0.3 -2.25 0  -0.15 -2.25 0  0 -2.25 0  0.15 -2.25 0  0.3 -2.25 0  0.45 -2.25 0  0.6000000000000001 -2.25 0  0.75 -2.25 0  -0.75 -2.1 0  -0.6 -2.1 0  -0.45 -2.1 0  -0.3 -2.1 0  -0.15 -2.1 0  0 -2.1 0  0.15 -2.1 0  0.3 -2.1 0  0.45 -2.1 0  0.6000000000000001 -2.1 0  0.75 -2.1 0  -0.75 -1.95 0  -0.6 -1.95 0  -0.45 -1.95 0  -0.3 -1.95 0  -0.15 -1.95 0  0 -1.95 0  0.15 -1.95 0  0.3 -1.95 0  0.45 -1.95 0  0.6000000000000001 -1.95 0  0.75 -1.95 0  -0.75 -1.8 0  -0.6 -1.8 0  -0.45 -1.8 0  -0.3 -1.8 0  -0.15 -1.8 0  0 -1.8 0  0.15 -1.8 0  0.3 -1.8 0  0.45 -1.8 0  0.6000000000000001 -1.8 0  0.75 -1.8 0  -0.75 -1.65 0  -0.6 -1.65 0  -0.45 -1.65 0  -0.3 -1.65 0  -0.15 -1.65 0  0 -1.65 0  0.15 -1.65 0  0.3 -1.65 0  0.45 -1.65 0  0.6000000000000001 -1.65 0  0.75 -1.65 0  -0.75 -1.5 0  -0.6 -1.5 0  -0.45 -1.5 0  -0.3 -1.5 0  -0.15 -1.5 0  0 -1.5 0  0.15 -1.5 0  0.3 -1.5 0  0.45 -1.5 0  0.6000000000000001 -1.5 0  0.75 -1.5 0  -0.75 -1.35 0  -0.6 -1.35 0  -0.45 -1.35 0  -0.3 -1.35 0  -0.15 -1.35 0  0 -1.35 0  0.15 -1.35 0  0.3 -1.35 0  0.45 -1.35 0  0.6000000000000001 -1.35 0  0.75 -1.35 0  -0.75 -1.2 0  -0.6 -1.2 0  -0.45 -1.2 0  -0.3 -1.2 0  -0.15 -1.2 0  0 -1.2 0  0.15 -1.2 0  0.3 -1.2 0  0.45 -1.2 0  0.6000000000000001 -1.2 0  0.75 -1.2 0  -0.75 -1.05 0  -0.6 -1.05 0  -0.45 -1.05 0  -0.3 -1.05 0  -0.15 -1.05 0  0 -1.05 0  0.15 -1.05 0  0.3 -1.05 0  0.45 -1.05 0  0.6000000000000001 -1.05 0  0.75 -1.05 0  -0.75 -0.8999999999999999 0  -0.6 -0.8999999999999999 0  -0.45 -0.8999999999999999 0  -0.3 -0.8999999999999999 0  -0.15 -0.8999999999999999 0  0 -0.8999999999999999 0  0.15 -0.8999999999999999 0  0.3 -0.8999999999999999 0  0.45 -0.8999999999999999 0  0.6000000000000001 -0.8999999999999999 0  0.75 -0.8999999999999999 0  -0.75 -0.75 0  -0.6 -0.75 0  -0.45 -0.75 0  -0.3 -0.75 0  -0.15 -0.75 0  0 -0.75 0  0.15 -0.75 0  0.3 -0.75 0  0.45 -0.75 0  0.6000000000000001 -0.75 0  0.75 -0.75 0  -0.75 -0.6000000000000001 0  -0.6 -0.6000000000000001 0  -0.45 -0.6000000000000001 0  -0.3 -0.6000000000000001 0  -0.15 -0.6000000000000001 0  0 -0.6000000000000001 0  0.15 -0.6000000000000001 0  0.3 -0.6000000000000001 0  0.45 -0.6000000000000001 0  0.6000000000000001 -0.6000000000000001 0  0.75 -0.6000000000000001 0  -0.75 -0.4500000000000002 0  -0.6 -0.4500000000000002 0  -0.45 -0.4500000000000002 0  -0.3 -0.4500000000000002 0  -0.15 -0.4500000000000002 0  0 -0.4500000000000002 0  0.15 -0.4500000000000002 0  0.3 -0.4500000000000002 0  0.45 -0.4500000000000002 0  0.6000000000000001 -0.4500000000000002 0  0.75 -0.4500000000000002 0  -0.75 -0.2999999999999998 0  -0.6 -0.2999999999999998 0  -0.45 -0.2999999999999998 0  -0.3 -0.2999999999999998 0  -0.15 -0.2999999999999998 0  0 -0.2999999999999998 0  0.15 -0.2999999999999998 0  0.3 -0.2999999999999998 0  0.45 -0.2999999999999998 0  0.6000000000000001 -0.2999999999999998 0  0.75 -0.2999999999999998 0  -0.75 -0.1499999999999999 0  -0.6 -0.1499999999999999 0  -0.45 -0.1499999999999999 0  -0.3 -0.1499999999999999 0  -0.15 -0.1499999999999999 0  0 -0.1499999999999999 0  0.15 -0.1499999999999999 0  0.3 -0.1499999999999999 0  0.45 -0.1499999999999999 0  0.6000000000000001 -0.1499999999999999 0  0.75 -0.1499999999999999 0  -0.75 0 0  -0.6 0 0  -0.45 0 0  -0.3 0 0  -0.15 0 0  0 0 0  0.15 0 0  0.3 0 0  0.45 0 0  0.6000000000000001 0 0  0.75 0 0  -0.675 -2.925 0  -0.525 -2.925 0  -0.375 -2.925 0  -0.225 -2.925 0  -0.07499999999999996 -2.925 0  0.07499999999999996 -2.925 0  0.225 -2.925 0  0.375 -2.925 0  0.5249999999999999 -2.925 0  0.675 -2.925 0  -0.675 -2.775 0  -0.525 -2.775 0  -0.375 -2.775 0  -0.225 -2.775 0  -0.07499999999999996 -2.775 0  0.07499999999999996 -2.775 0  0.225 -2.775 0  0.375 -2.775 0  0.5249999999999999 -2.775 0  0.675 -2.775 0  -0.675 -2.625 0  -0.525 -2.625 0  -0.375 -2.625 0  -0.225 -2.625 0  -0.07499999999999996 -2.625 0  0.07499999999999996 -2.625 0  0.225 -2.625 0  0.375 -2.625 0  0.5249999999999999 -2.625 0  0.675 -2.625 0  -0.675 -2.475 0  -0.525 -2.475 0  -0.375 -2.475 0  -0.225 -2.475 0  -0.07499999999999996 -2.475 0  0.07499999999999996 -2.475 0  0.225 -2.475 0  0.375 -2.475 0  0.5249999999999999 -2.475 0  0.675 -2.475 0  -0.675 -2.325 0  -0.525 -2.325 0  -0.375 -2.325 0  -0.225 -2.325 0  -0.07499999999999996 -2.325 0  0.07499999999999996 -2.325 0  0.225 -2.325 0  0.375 -2.325 0  0.5249999999999999 -2.325 0  0.675 -2.325 0  -0.675 -2.175 0  -0.525 -2.175 0  -0.375 -2.175 0  -0.225 -2.175 0  -0.07499999999999996 -2.175 0  0.07499999999999996 -2.175 0  0.225 -2.175 0  0.375 -2.175 0  0.5249999999999999 -2.175 0  0.675 -2.175 0  -0.675 -2.025 0  -0.525 -2.025 0  -0.375 -2.025 0  -0.225 -2.025 0  -0.07499999999999996 -2.025 0  0.07499999999999996 -2.025 0  0.225 -2.025 0  0.375 -2.025 0  0.5249999999999999 -2.025 0  0.675 -2.025 0  -0.675 -1.875 0  -0.525 -1.875 0  -0.375 -1.875 0  -0.225 -1.875 0  -0.07499999999999996 -1.875 0  0.07499999999999996 -1.875 0  0.225 -1.875 0  0.375 -1.875 0  0.5249999999999999 -1.875 0  0.675 -1.875 0  -0.675 -1.725 0  -0.525 -1.725 0  -0.375 -1.725 0  -0.225 -1.725 0  -0.07499999999999996 -1.725 0  0.07499999999999996 -1.725 0  0.225 -1.725 0  0.375 -1.725 0  0.5249999999999999 -1.725 0  0.675 -1.725 0  -0.675 -1.575 0  -0.525 -1.575 0  -0.375 -1.575 0  -0.225 -1.575 0  -0.07499999999999996 -1.575 0  0.07499999999999996 -1.575 0  0.225 -1.575 0  0.375 -1.575 0  0.5249999999999999 -1.575 0  0.675 -1.575 0  -0.675 -1.425 0  -0.525 -1.425 0  -0.375 -1.425 0  -0.225 -1.425 0  -0.07499999999999996 -1.425 0  0.07499999999999996 -1.425 0  0.225 -1.425 0  0.375 -1.425 0  0.5249999999999999 -1.425 0  0.675 -1.425 0  -0.675 -1.275 0  -0.525 -1.275 0  -0.375 -1.275 0  -0.225 -1.275 0  -0.07499999999999996 -1.275 0  0.07499999999999996 -1.275 0  0.225 -1.275 0  0.375 -1.275 0  0.5249999999999999 -1.275 0  0.675 -1.275 0  -0.675 -1.125 0  -0.525 -1.125 0  -0.375 -1.125 0  -0.225 -1.125 0  -0.07499999999999996 -1.125 0  0.07499999999999996 -1.125 0  0.225 -1.125 0  0.375 -1.125 0  0.5249999999999999 -1.125 0  0.675 -1.125 0  -0.675 -0.9750000000000001 0  -0.525 -0.9750000000000001 0  -0.375 -0.9750000000000001 0  -0.225 -0.9750000000000001 0  -0.07499999999999996 -0.9750000000000001 0  0.07499999999999996 -0.9750000000000001 0  0.225 -0.9750000000000001 0  0.375 -0.9750000000000001 0  0.5249999999999999 -0.9750000000000001 0  0.675 -0.9750000000000001 0  -0.675 -0.8250000000000002 0  -0.525 -0.8250000000000002 0  -0.375 -0.8250000000000002 0  -0.225 -0.8250000000000002 0  -0.07499999999999996 -0.8250000000000002 0  0.07499999999999996 -0.8250000000000002 0  0.225 -0.8250000000000002 0  0.375 -0.8250000000000002 0  0.5249999999999999 -0.8250000000000002 0  0.675 -0.8250000000000002 0  -0.675 -0.6749999999999998 0  -0.525 -0.6749999999999998 0  -0.375 -0.6749999999999998 0  -0.225 -0.6749999999999998 0  -0.07499999999999996 -0.6749999999999998 0  0.07499999999999996 -0.6749999999999998 0  0.225 -0.6749999999999998 0  0.375 -0.6749999999999998 0  0.5249999999999999 -0.6749999999999998 0  0.675 -0.6749999999999998 0  -0.675 -0.5249999999999999 0  -0.525 -0.5249999999999999 0  -0.375 -0.5249999999999999 0  -0.225 -0.5249999999999999 0  -0.07499999999999996 -0.5249999999999999 0  0.07499999999999996 -0.5249999999999999 0  0.225 -0.5249999999999999 0  0.375 -0.5249999999999999 0  0.5249999999999999 -0.5249999999999999 0  0.675 -0.5249999999999999 0  -0.675 -0.375 0  -0.525 -0.375 0  -0.375 -0.375 0  -0.225 -0.375 0  -0.07499999999999996 -0.375 0  0.07499999999999996 -0.375 0  0.225 -0.375 0  0.375 -0.375 0  0.5249999999999999 -0.375 0  0.675 -0.375 0  -0.675 -0.2250000000000001 0  -0.525 -0.2250000000000001 0  -0.375 -0.2250000000000001 0  -0.225 -0.2250000000000001 0  -0.07499999999999996 -0.2250000000000001 0  0.07499999999999996 -0.2250000000000001 0  0.225 -0.2250000000000001 0  0.375 -0.2250000000000001 0  0.5249999999999999 -0.2250000000000001 0  0.675 -0.2250000000000001 0  -0.675 -0.07500000000000018 0  -0.525 -0.07500000000000018 0  -0.375 -0.07500000000000018 0  -0.225 -0.07500000000000018 0  -0.07499999999999996 -0.07500000000000018 0  0.07499999999999996 -0.07500000000000018 0  0.225 -0.07500000000000018 0  0.375 -0.07500000000000018 0  0.5249999999999999 -0.07500000000000018 0  0.675 -0.07500000000000018 0  </DataArray>
</Points>
<Cells>
[...]
<PointData  Vectors="displacement"> 
<DataArray  type="Float64"  Name="displacement"  NumberOfComponents="3" format="ascii">-3.9443045261050484e-29 -3.7007434154171848e-15 0.0000000000000000e+00  7.8886090522101102e-29 -3.2381504884900365e-15 0.0000000000000000e+00  0.0000000000000000e+00 -2.7502595108715603e-15 0.0000000000000000e+00  1.3147681753683518e-28 -4.6259292692714814e-15 0.0000000000000000e+00  -5.7215672390807063e-29 1.8124525750265602e-15 0.0000000000000000e+00  -9.7292844977258027e-28 -4.1633363423443331e-15 0.0000000000000000e+00  -8.9723940295816172e-28 -7.3563117403141381e-15 0.0000000000000000e+00  3.4183972559577145e-28 1.8503717077085924e-15 0.0000000000000000e+00  -4.2038143956455073e-28 -8.2688485688227747e-15 0.0000000000000000e+00  2.6295363507367018e-28 -9.2518585385429561e-16 0.0000000000000000e+00  -2.1036290805893641e-28 -9.2518585385429675e-15 0.0000000000000000e+00  2.6295363507367081e-28 -4.9619295558269307e+01 0.0000000000000000e+00  1.6660045392926290e-12 -4.9619295558266472e+01 0.0000000000000000e+00  -8.9766632244595026e-13 -4.9619295558267041e+01 0.0000000000000000e+00  2.7274748238586400e-12 -4.9619295558268476e+01 0.0000000000000000e+00  -1.3074300361046326e-12 -4.9619295558264412e+01 0.0000000000000000e+00  -4.3899988705491760e-12 -4.9619295558268497e+01 0.0000000000000000e+00  -1.6656802086142556e-12 -4.9619295558266884e+01 0.0000000000000000e+00  2.3756687965974363e-14 -4.9619295558264007e+01 0.0000000000000000e+00  -3.0709439664021774e-12 -4.9619295558267289e+01 0.0000000000000000e+00  -1.2779800670262624e-12 -4.9619295558266600e+01 0.0000000000000000e+00  -5.7858335748740022e-29 -4.9619295558265598e+01 0.0000000000000000e+00  5.6444754622155390e-29 -9.9238591126274230e+01 0.0000000000000000e+00  2.3610887304670770e-12 -9.9238591126269895e+01 0.0000000000000000e+00  -1.0078214530468021e-13 -9.9238591126274230e+01 0.0000000000000000e+00  5.7157784462521135e-13 -9.9238591126270634e+01 0.0000000000000000e+00  -2.6233119604978259e-12 -9.9238591126273406e+01 0.0000000000000000e+00  -2.7020581538470450e-12 -9.9238591126273889e+01 0.0000000000000000e+00  -1.9485677418630235e-12 -9.9238591126275409e+01 0.0000000000000000e+00  -5.7119467763207787e-12 -9.9238591126273519e+01 0.0000000000000000e+00  -9.7390834815232963e-13 -9.9238591126267693e+01 0.0000000000000000e+00  -4.1587786923822056e-12 -9.9238591126274784e+01 0.0000000000000000e+00  -9.9546733277889629e-29 -9.9238591126271530e+01 0.0000000000000000e+00  5.2590727014734124e-29 -1.4885788672793760e+02 0.0000000000000000e+00  1.4462518791459638e-12 -1.4885788672794234e+02 0.0000000000000000e+00  -2.7716385603456651e-12 -1.4885788672793277e+02 0.0000000000000000e+00  1.5154244745796062e-12 -1.4885788672793825e+02 0.0000000000000000e+00  -2.5525055985656138e-12 -1.4885788672794010e+02 0.0000000000000000e+00  -1.1115565669752270e-12 -1.4885788672793899e+02 0.0000000000000000e+00  -5.0005179125524712e-12 -1.4885788672793106e+02 0.0000000000000000e+00  -1.0381996496956005e-12 -1.4885788672793683e+02 0.0000000000000000e+00  -5.1023119179782372e-12 -1.4885788672793936e+02 0.0000000000000000e+00  -3.2949608637126406e-13 -1.4885788672793282e+02 0.0000000000000000e+00  -7.8886090522101225e-29 -1.4885788672793797e+02 0.0000000000000000e+00  7.4489975330567745e-28 -1.9847718243622555e+02 0.0000000000000000e+00  2.0480370297821494e-12 -1.9847718243622654e+02 0.0000000000000000e+00  1.5241223167113392e-11 -1.9847718243622197e+02 0.0000000000000000e+00  -1.1585824356479110e-12 -1.9847718243621981e+02 0.0000000000000000e+00  -3.1261119232634213e-12 -1.9847718243623257e+02 0.0000000000000000e+00  -6.5327766833833584e-12 -1.9847718243622541e+02 0.0000000000000000e+00  -4.3530449798111561e-12 -1.9847718243622720e+02 0.0000000000000000e+00  -8.9862486825197710e-12 -1.9847718243622313e+02 0.0000000000000000e+00  -3.1914464375408922e-12 -1.9847718243621762e+02 0.0000000000000000e+00  1.7756489141596571e-12 -1.9847718243621480e+02 0.0000000000000000e+00  1.4873300242393647e-27 -1.9847718243621739e+02 0.0000000000000000e+00  6.5738408768417600e-28 -2.4809647847943293e+02 0.0000000000000000e+00  6.1000927647858806e-12 -2.4809647847942793e+02 0.0000000000000000e+00  -3.5652674776444940e-12 -2.4809647847942259e+02 0.0000000000000000e+00  6.2207449720341278e-13 -2.4809647847943472e+02 0.0000000000000000e+00  -7.6534678769673732e-12 -2.4809647847941733e+02 0.0000000000000000e+00  -8.1558207198976821e-13 -2.4809647847941969e+02 0.0000000000000000e+00  -3.6123359447550840e-12 -2.4809647847942165e+02 0.0000000000000000e+00  -4.3922311677405515e-12 -2.4809647847942242e+02 0.0000000000000000e+00  -6.7118733267790313e-12 -2.4809647847942733e+02 0.0000000000000000e+00  -4.3594489872925148e-12 -2.4809647847942225e+02 0.0000000000000000e+00  2.7380253632498110e-27 -2.4809647847943199e+02 0.0000000000000000e+00  2.5215333531573291e-28 -2.9771577557383114e+02 0.0000000000000000e+00  2.7962198667979358e-13 -2.9771577557384552e+02 0.0000000000000000e+00  3.5708976770596288e-12 -2.9771577557384649e+02 0.0000000000000000e+00  -1.3104756182709624e-12 -2.9771577557383944e+02 0.0000000000000000e+00  -3.8627672147405917e-12 -2.9771577557384052e+02 0.0000000000000000e+00  -9.0587498807255199e-12 -2.9771577557384290e+02 0.0000000000000000e+00  -6.0081017629653121e-12 -2.9771577557383722e+02 0.0000000000000000e+00  -5.3596541333004178e-12 -2.9771577557382858e+02 0.0000000000000000e+00  3.5751167852995566e-12 -2.9771577557382227e+02 0.0000000000000000e+00  -1.0054299432313028e-11 -2.9771577557382432e+02 0.0000000000000000e+00  1.4838097979157141e-27 -2.9771577557381437e+02 0.0000000000000000e+00  -8.4145163223574616e-28 -3.4733507596721955e+02 0.0000000000000000e+00  2.1262710406445406e-12 -3.4733507596722308e+02 0.0000000000000000e+00  -1.9571985611682623e-13 -3.4733507596723558e+02 0.0000000000000000e+00  -9.0914149174281934e-12 -3.4733507596722745e+02 0.0000000000000000e+00  -4.3960597033428364e-12 -3.4733507596724030e+02 0.0000000000000000e+00  -9.1627002997951794e-13 -3.4733507596723280e+02 0.0000000000000000e+00  2.9311345109099731e-12 -3.4733507596722899e+02 0.0000000000000000e+00  -6.9218295716837893e-12 -3.4733507596722308e+02 0.0000000000000000e+00  4.2663399088179640e-12 -3.4733507596721239e+02 0.0000000000000000e+00  4.3104194535079137e-12 -3.4733507596721444e+02 0.0000000000000000e+00  -1.5777218104420250e-28 -3.4733507596721159e+02 0.0000000000000000e+00  -2.0952581530399307e-27 -3.9695438671380612e+02 0.0000000000000000e+00  -4.9018050181042715e-12 -3.9695438671380668e+02 0.0000000000000000e+00  7.4949214614369398e-13 -3.9695438671382590e+02 0.0000000000000000e+00  4.6464909733283480e-12 -3.9695438671382698e+02 0.0000000000000000e+00  -4.4115427517344579e-13 -3.9695438671382749e+02 0.0000000000000000e+00  -2.6160158562515572e-12 -3.9695438671382135e+02 0.0000000000000000e+00  -1.7228039161545362e-12 -3.9695438671382203e+02 0.0000000000000000e+00  1.7181644689555431e-11 -3.9695438671380106e+02 0.0000000000000000e+00  1.1598210795192423e-12 -3.9695438671380367e+02 0.0000000000000000e+00  4.1253694660353060e-12 -3.9695438671380657e+02 0.0000000000000000e+00  1.8151101011682010e-27 -3.9695438671379225e+02 0.0000000000000000e+00  3.4709879829724505e-27 -4.4657372995179145e+02 0.0000000000000000e+00  -2.2981723488165039e-12 -4.4657372995177241e+02 0.0000000000000000e+00  -2.1012354633262977e-11 -4.4657372995176121e+02 0.0000000000000000e+00  -1.9469454367594133e-12 -4.4657372995178406e+02 0.0000000000000000e+00  -1.5890674829296635e-12 -4.4657372995177155e+02 0.0000000000000000e+00  1.0354987181776470e-11 -4.4657372995177582e+02 0.0000000000000000e+00  2.2249731709725787e-11 -4.4657372995176297e+02 0.0000000000000000e+00  1.5319547400624653e-11 -4.4657372995177224e+02 0.0000000000000000e+00  5.1100176476459122e-12 -4.4657372995176871e+02 0.0000000000000000e+00  2.0225780059312776e-13 -4.4657372995175501e+02 0.0000000000000000e+00  -3.7835535734135380e-28 -4.4657372995178952e+02 0.0000000000000000e+00  -1.6861123576506707e-27 -4.9619317515724077e+02 0.0000000000000000e+00  -1.1277266970574082e-11 -4.9619317515725385e+02 0.0000000000000000e+00  -6.9183890413264774e-13 -4.9619317515725083e+02 0.0000000000000000e+00  -5.9628125543304088e-12 -4.9619317515724885e+02 0.0000000000000000e+00  4.6122593608842885e-12 -4.9619317515723770e+02 0.0000000000000000e+00  1.7395710174893652e-12 -4.9619317515723111e+02 0.0000000000000000e+00  1.6328870996655346e-12 -4.9619317515723691e+02 0.0000000000000000e+00  1.2692940154969830e-11 -4.9619317515724629e+02 0.0000000000000000e+00  8.8475376847804995e-12 -4.9619317515723338e+02 0.0000000000000000e+00  6.0277620461038764e-12 -4.9619317515724367e+02 0.0000000000000000e+00  1.7730587964967529e-27 -4.9619317515721099e+02 0.0000000000000000e+00  1.6368863783335984e-27 -5.4581294036662962e+02 0.0000000000000000e+00  -2.1923315062809442e-12 -5.4581294036662109e+02 0.0000000000000000e+00  4.7815454114660648e-12 -5.4581294036659619e+02 0.0000000000000000e+00  4.8939236416348641e-12 -5.4581294036658653e+02 0.0000000000000000e+00  -1.0074904041431617e-11 -5.4581294036660620e+02 0.0000000000000000e+00  -8.3125008950705467e-13 -5.4581294036659119e+02 0.0000000000000000e+00  -8.4781568931136989e-12 -5.4581294036659096e+02 0.0000000000000000e+00  4.4660555548494541e-12 -5.4581294036660449e+02 0.0000000000000000e+00  1.6070841210581172e-11 -5.4581294036661484e+02 0.0000000000000000e+00  3.9686573935927501e-12 -5.4581294036659312e+02 0.0000000000000000e+00  2.1036290805893654e-28 -5.4581294036661018e+02 0.0000000000000000e+00  -6.2256407676046562e-28 -5.9543370984222383e+02 0.0000000000000000e+00  5.1796148292919390e-13 -5.9543370984223986e+02 0.0000000000000000e+00  5.7948264460406994e-12 -5.9543370984224191e+02 0.0000000000000000e+00  -1.8450613899373385e-11 -5.9543370984224964e+02 0.0000000000000000e+00  9.1904571450679986e-12 -5.9543370984224646e+02 0.0000000000000000e+00  -4.3239931508290212e-13 -5.9543370984224782e+02 0.0000000000000000e+00  1.8070867308947870e-11 -5.9543370984224771e+02 0.0000000000000000e+00  -2.0371540593940615e-11 -5.9543370984224100e+02 0.0000000000000000e+00  4.4649733441841739e-12 -5.9543370984221917e+02 0.0000000000000000e+00  1.7663273698846228e-11 -5.9543370984224509e+02 0.0000000000000000e+00  4.9934044222876567e-28 -5.9543370984222793e+02 0.0000000000000000e+00  4.2072581611787308e-28 -6.4505763100018805e+02 0.0000000000000000e+00  9.0916373375290675e-12 -6.4505763100014758e+02 0.0000000000000000e+00  -1.7110176022616386e-11 -6.4505763100018476e+02 0.0000000000000000e+00  3.3031619480230890e-12 -6.4505763100018987e+02 0.0000000000000000e+00  -7.9417340870226330e-12 -6.4505763100016566e+02 0.0000000000000000e+00  8.6730027402270590e-13 -6.4505763100017816e+02 0.0000000000000000e+00  -1.3970467167765401e-11 -6.4505763100016486e+02 0.0000000000000000e+00  1.2114049665607726e-11 -6.4505763100016236e+02 0.0000000000000000e+00  1.2491873226447951e-11 -6.4505763100016611e+02 0.0000000000000000e+00  -5.3149248264253163e-12 -6.4505763100016020e+02 0.0000000000000000e+00  -1.1006047655524933e-27 -6.4505763100014713e+02 0.0000000000000000e+00  -3.1025771748221192e-27 -6.9469144306247119e+02 0.0000000000000000e+00  -1.0496807533550420e-11 -6.9469144306248654e+02 0.0000000000000000e+00  -4.8428723289285029e-12 -6.9469144306246096e+02 0.0000000000000000e+00  -5.8377665111969018e-12 -6.9469144306244743e+02 0.0000000000000000e+00  -1.3037289765702703e-11 -6.9469144306248722e+02 0.0000000000000000e+00  -4.5205406101125653e-12 -6.9469144306248143e+02 0.0000000000000000e+00  4.9437655024478442e-12 -6.9469144306247722e+02 0.0000000000000000e+00  4.9953045942381678e-12 -6.9469144306246073e+02 0.0000000000000000e+00  -2.2041548928137309e-11 -6.9469144306245164e+02 0.0000000000000000e+00  2.1574828639903185e-11 -6.9469144306244459e+02 0.0000000000000000e+00  2.1787586906104042e-28 -6.9469144306242754e+02 0.0000000000000000e+00  -1.8406754455156929e-27 -7.4435629568650961e+02 0.0000000000000000e+00  3.0172309687635003e-12 -7.4435629568647255e+02 0.0000000000000000e+00  -1.1952117446110158e-12 -7.4435629568648324e+02 0.0000000000000000e+00  -2.4917371057757897e-11 -7.4435629568649142e+02 0.0000000000000000e+00  -1.0521716667017286e-11 -7.4435629568645368e+02 0.0000000000000000e+00  1.3305027000304932e-12 -7.4435629568644788e+02 0.0000000000000000e+00  -3.8211133593286820e-12 -7.4435629568644674e+02 0.0000000000000000e+00  -7.9464966382193238e-12 -7.4435629568646777e+02 0.0000000000000000e+00  2.0899300229006956e-11 -7.4435629568646493e+02 0.0000000000000000e+00  2.9057469701757600e-13 -7.4435629568645822e+02 0.0000000000000000e+00  -8.9404235925047995e-27 -7.4435629568649972e+02 0.0000000000000000e+00  5.3489495155788874e-29 -7.9411856270627470e+02 0.0000000000000000e+00  1.0739936357835478e-12 -7.9411856270630176e+02 0.0000000000000000e+00  -4.1664173185221113e-11 -7.9411856270628914e+02 0.0000000000000000e+00  1.0775526056651881e-11 -7.9411856270628437e+02 0.0000000000000000e+00  -4.8034455784254292e-12 -7.9411856270628073e+02 0.0000000000000000e+00  -2.4145645060780713e-11 -7.9411856270627345e+02 0.0000000000000000e+00  -9.7681523963186512e-13 -7.9411856270628050e+02 0.0000000000000000e+00  6.6223767493064204e-12 -7.9411856270623764e+02 0.0000000000000000e+00  8.9948065856307810e-13 -7.9411856270627413e+02 0.0000000000000000e+00  -4.0403810776437589e-12 -7.9411856270621433e+02 0.0000000000000000e+00  5.9958197766183085e-27 -7.9411856270627425e+02 0.0000000000000000e+00  2.5243548967072374e-27 -8.4418654469927594e+02 0.0000000000000000e+00  7.7315147769530429e-12 -8.4418654469926389e+02 0.0000000000000000e+00  -1.1913736308572361e-11 -8.4418654469925696e+02 0.0000000000000000e+00  -8.7013605921135760e-12 -8.4418654469927776e+02 0.0000000000000000e+00  -1.8726212361632349e-11 -8.4418654469924161e+02 0.0000000000000000e+00  -2.7596281727895280e-12 -8.4418654469926173e+02 0.0000000000000000e+00  -7.7026328313172529e-12 -8.4418654469925218e+02 0.0000000000000000e+00  7.8851224319033691e-12 -8.4418654469925377e+02 0.0000000000000000e+00  1.7198823512407776e-11 -8.4418654469922194e+02 0.0000000000000000e+00  -2.4860854656238607e-13 -8.4418654469925548e+02 0.0000000000000000e+00  7.3560252249222383e-27 -8.4418654469922956e+02 0.0000000000000000e+00  -3.6287601640166543e-27 -8.9521395003137843e+02 0.0000000000000000e+00  -3.6608798812050026e-11 -8.9521395003139992e+02 0.0000000000000000e+00  -1.4874536438851812e-11 -8.9521395003140685e+02 0.0000000000000000e+00  -3.5100577421796071e-11 -8.9521395003136183e+02 0.0000000000000000e+00  -1.4738510820981981e-11 -8.9521395003140196e+02 0.0000000000000000e+00  -2.0037204094560364e-11 -8.9521395003137752e+02 0.0000000000000000e+00  7.0393820267578212e-12 -8.9521395003136422e+02 0.0000000000000000e+00  1.6899156148536860e-11 -8.9521395003136433e+02 0.0000000000000000e+00  -1.9421935902473653e-11 -8.9521395003137377e+02 0.0000000000000000e+00  -7.6851756223625676e-13 -8.9521395003140924e+02 0.0000000000000000e+00  1.0802816190917210e-27 -8.9521395003134205e+02 0.0000000000000000e+00  8.4145163223574652e-28 -9.4925230747363901e+02 0.0000000000000000e+00  -3.2498443945652222e-11 -9.4925230747363162e+02 0.0000000000000000e+00  1.0473993463846152e-11 -9.4925230747362912e+02 0.0000000000000000e+00  -5.8638074508132504e-11 -9.4925230747361104e+02 0.0000000000000000e+00  -3.8666905311458766e-11 -9.4925230747358967e+02 0.0000000000000000e+00  -3.1064532375501908e-11 -9.4925230747357000e+02 0.0000000000000000e+00  1.9782268665042775e-12 -9.4925230747358546e+02 0.0000000000000000e+00  -1.5794473335295766e-11 -9.4925230747360729e+02 0.0000000000000000e+00  7.7831876714922295e-12 -9.4925230747362343e+02 0.0000000000000000e+00  4.3831569669091335e-12 -9.4925230747360240e+02 0.0000000000000000e+00  1.6262038869087339e-27 -9.4925230747364390e+02 0.0000000000000000e+00  -1.0518145402946815e-27 -1.0127399166065344e+03 0.0000000000000000e+00  2.8435223030944177e-12 -1.0127399166065752e+03 0.0000000000000000e+00  -6.5799409636701412e-11 -1.0127399166065560e+03 0.0000000000000000e+00  -4.2198142520105643e-11 -1.0127399166065173e+03 0.0000000000000000e+00  -5.1798927965955191e-11 -1.0127399166064860e+03 0.0000000000000000e+00  -3.6703887722185842e-11 -1.0127399166064826e+03 0.0000000000000000e+00  -2.5013712374669096e-11 -1.0127399166064589e+03 0.0000000000000000e+00  -6.4571654326067762e-12 -1.0127399166064952e+03 0.0000000000000000e+00  -3.3078812391599583e-11 -1.0127399166064882e+03 0.0000000000000000e+00  -3.3618727229293469e-11 -1.0127399166065013e+03 0.0000000000000000e+00  5.0487097934144748e-27 -1.0127399166064461e+03 0.0000000000000000e+00  1.4491923146758938e-13 -2.4809647770010020e+01 0.0000000000000000e+00  4.4936865788192820e-12 -2.4809647770010884e+01 0.0000000000000000e+00  2.3402482814443877e-12 -2.4809647770016930e+01 0.0000000000000000e+00  -4.8231657912287653e-12 -2.4809647770010141e+01 0.0000000000000000e+00  2.3757185315841657e-12 -2.4809647770009477e+01 0.0000000000000000e+00  -6.0275778404194108e-12 -2.4809647770020209e+01 0.0000000000000000e+00  -4.0199616825080383e-13 -2.4809647770013875e+01 0.0000000000000000e+00  -3.3105566797125063e-13 -2.4809647770004478e+01 0.0000000000000000e+00  1.0901891475865367e-12 -2.4809647770015143e+01 0.0000000000000000e+00  3.4615517693587483e-12 -2.4809647770010510e+01 0.0000000000000000e+00  1.6304061365039260e-12 -7.4428943301624940e+01 0.0000000000000000e+00  1.7765975355479213e-12 -7.4428943301625367e+01 0.0000000000000000e+00  -8.2469218934076377e-13 -7.4428943301627029e+01 0.0000000000000000e+00  5.3626925610057623e-12 -7.4428943301624770e+01 0.0000000000000000e+00  -1.0001586126047561e-11 -7.4428943301625779e+01 0.0000000000000000e+00  -6.3628511736105191e-12 -7.4428943301627314e+01 0.0000000000000000e+00  6.2597646499429240e-12 -7.4428943301621416e+01 0.0000000000000000e+00  -7.0362035728860889e-12 -7.4428943301625551e+01 0.0000000000000000e+00  8.1372553788676435e-13 -7.4428943301622112e+01 0.0000000000000000e+00  -2.9940730670719356e-12 -7.4428943301629189e+01 0.0000000000000000e+00  5.8654382215589503e-12 -1.2404823879572106e+02 0.0000000000000000e+00  -4.0075509694869099e-12 -1.2404823879572088e+02 0.0000000000000000e+00  4.6147669318429926e-12 -1.2404823879571819e+02 0.0000000000000000e+00  -5.6427590639905574e-13 -1.2404823879571960e+02 0.0000000000000000e+00  -3.3163153996894489e-12 -1.2404823879571981e+02 0.0000000000000000e+00  -6.2685379711061166e-12 -1.2404823879571443e+02 0.0000000000000000e+00  1.1054384665631507e-12 -1.2404823879572203e+02 0.0000000000000000e+00  -1.3116115138983399e-12 -1.2404823879571089e+02 0.0000000000000000e+00  -8.4443216195796194e-12 -1.2404823879571710e+02 0.0000000000000000e+00  3.2449425772455352e-12 -1.2404823879571616e+02 0.0000000000000000e+00  4.9083165033965387e-14 -1.7366753416854107e+02 0.0000000000000000e+00  1.5221712218151328e-11 -1.7366753416852512e+02 0.0000000000000000e+00  6.8300305255508995e-12 -1.7366753416851424e+02 0.0000000000000000e+00  1.9301306559039159e-12 -1.7366753416851532e+02 0.0000000000000000e+00  -8.4969615465588255e-12 -1.7366753416851819e+02 0.0000000000000000e+00  -8.8566677142500096e-12 -1.7366753416852075e+02 0.0000000000000000e+00  -1.9125840135775156e-12 -1.7366753416851407e+02 0.0000000000000000e+00  -4.9042865302285835e-12 -1.7366753416853345e+02 0.0000000000000000e+00  -3.5005551441166486e-12 -1.7366753416852063e+02 0.0000000000000000e+00  -4.0084584777739037e-12 -1.7366753416852734e+02 0.0000000000000000e+00  1.3154288229102933e-11 -2.2328682915956833e+02 0.0000000000000000e+00  1.8283601304107991e-11 -2.2328682915956733e+02 0.0000000000000000e+00  5.0446596688397794e-12 -2.2328682915957162e+02 0.0000000000000000e+00  -9.1110940279828008e-12 -2.2328682915959078e+02 0.0000000000000000e+00  -2.5442631373278892e-12 -2.2328682915959126e+02 0.0000000000000000e+00  -1.8511707654351172e-12 -2.2328682915957103e+02 0.0000000000000000e+00  -1.2637969135589044e-11 -2.2328682915958052e+02 0.00000000