<?xml version="1.0"?>
<VTKFile type="UnstructuredGrid"  version="0.1"  >
<UnstructuredGrid>
<Piece  NumberOfPoints="1876" NumberOfCells="3600">
<Points>
<DataArray  type="Float64"  NumberOfComponents="3"  format="ascii">-0.75 -3 0  -0.65 -3 0  -0.55 -3 0  -0.45 -3 0  -0.35 -3 0  -0.25 -3 0  -0.15 -3 0  -0.05000000000000004 -3 0  0.05000000000000004 -3 0  0.15 -3 0  0.25 -3 0  0.3500000000000001 -3 0  0.45 -3 0  0.55 -3 0  0.6499999999999999 -3 0  0.75 -3 0  -0.75 -2.95 0  -0.65 -2.95 0  -0.55 -2.95 0  -0.45 -2.95 0  -0.35 -2.95 0  -0.25 -2.95 0  -0.15 -2.95 0  -0.05000000000000004 -2.95 0  0.05000000000000004 -2.95 0  0.15 -2.95 0  0.25 -2.95 0  0.3500000000000001 -2.95 0  0.45 -2.95 0  0.55 -2.95 0  0.6499999999999999 -2.95 0  0.75 -2.95 0  -0.75 -2.9 0  -0.65 -2.9 0  -0.55 -2.9 0  -0.45 -2.9 0  -0.35 -2.9 0  -0.25 -2.9 0  -0.15 -2.9 0  -0.05000000000000004 -2.9 0  0.05000000000000004 -2.9 0  0.15 -2.9 0  0.25 -2.9 0  0.3500000000000001 -2.9 0  0.45 -2.9 0  0.55 -2.9 0  0.6499999999999999 -2.9 0  0.75 -2.9 0  -0.75 -2.85 0  -0.65 -2.85 0  -0.55 -2.85 0  -0.45 -2.85 0  -0.35 -2.85 0  -0.25 -2.85 0  -0.15 -2.85 0  -0.05000000000000004 -2.85 0  0.05000000000000004 -2.85 0  0.15 -2.85 0  0.25 -2.85 0  0.3500000000000001 -2.85 0  0.45 -2.85 0  0.55 -2.85 0  0.6499999999999999 -2.85 0  0.75 -2.85 0  -0.75 -2.8 0  -0.65 -2.8 0  -0.55 -2.8 0  -0.45 -2.8 0  -0.35 -2.8 0  -0.25 -2.8 0  -0.15 -2.8 0  -0.05000000000000004 -2.8 0  0.05000000000000004 -2.8 0  0.15 -2.8 0  0.25 -2.8 0  0.3500000000000001 -2.8 0  0.45 -2.8 0  0.55 -2.8 0  0.6499999999999999 -2.8 0  0.75 -2.8 0  -0.75 -2.75 0  -0.65 -2.75 0  -0.55 -2.75 0  -0.45 -2.75 0  -0.35 -2.75 0  -0.25 -2.75 0  -0.15 -2.75 0  -0.05000000000000004 -2.75 0  0.05000000000000004 -2.75 0  0.15 -2.75 0  0.25 -2.75 0  0.3500000000000001 -2.75 0  0.45 -2.75 0  0.55 -2.75 0  0.6499999999999999 -2.75 0  0.75 -2.75 0  -0.75 -2.7 0  -0.65 -2.7 0  -0.55 -2.7 0  -0.45 -2.7 0  -0.35 -2.7 0  -0.25 -2.7 0  -0.15 -2.7 0  -0.05000000000000004 -2.7 0  0.05000000000000004 -2.7 0  0.15 -2.7 0  0.25 -2.7 0  0.3500000000000001 -2.7 0  0.45 -2.7 0  0.55 -2.7 0  0.6499999999999999 -2.7 0  0.75 -2.7 0  -0.75 -2.65 0  -0.65 -2.65 0  -0.55 -2.65 0  -0.45 -2.65 0  -0.35 -2.65 0  -0.25 -2.65 0  -0.15 -2.65 0  -0.05000000000000004 -2.65 0  0.05000000000000004 -2.65 0  0.15 -2.65 0  0.25 -2.65 0  0.3500000000000001 -2.65 0  0.45 -2.65 0  0.55 -2.65 0  0.6499999999999999 -2.65 0  0.75 -2.65 0  -0.75 -2.6 0  -0.65 -2.6 0  -0.55 -2.6 0  -0.45 -2.6 0  -0.35 -2.6 0  -0.25 -2.6 0  -0.15 -2.6 0  -0.05000000000000004 -2.6 0  0.05000000000000004 -2.6 0  0.15 -2.6 0  0.25 -2.6 0  0.3500000000000001 -2.6 0  0.45 -2.6 0  0.55 -2.6 0  0.6499999999999999 -2.6 0  0.75 -2.6 0  -0.75 -2.55 0  -0.65 -2.55 0  -0.55 -2.55 0  -0.45 -2.55 0  -0.35 -2.55 0  -0.25 -2.55 0  -0.15 -2.55 0  -0.05000000000000004 -2.55 0  0.05000000000000004 -2.55 0  0.15 -2.55 0  0.25 -2.55 0  0.3500000000000001 -2.55 0  0.45 -2.55 0  0.55 -2.55 0  0.6499999999999999 -2.55 0  0.75 -2.55 0  -0.75 -2.5 0  -0.65 -2.5 0  -0.55 -2.5 0  -0.45 -2.5 0  -0.35 -2.5 0  -0.25 -2.5 0  -0.15 -2.5 0  -0.05000000000000004 -2.5 0  0.05000000000000004 -2.5 0  0.15 -2.5 0  0.25 -2.5 0  0.3500000000000001 -2.5 0  0.45 -2.5 0  0.55 -2.5 0  0.6499999999999999 -2.5 0  0.75 -2.5 0  -0.75 -2.45 0  -0.65 -2.45 0  -0.55 -2.45 0  -0.45 -2.45 0  -0.35 -2.45 0  -0.25 -2.45 0  -0.15 -2.45 0  -0.05000000000000004 -2.45 0  0.05000000000000004 -2.45 0  0.15 -2.45 0  0.25 -2.45 0  0.3500000000000001 -2.45 0  0.45 -2.45 0  0.55 -2.45 0  0.6499999999999999 -2.45 0  0.75 -2.45 0  -0.75 -2.4 0  -0.65 -2.4 0  -0.55 -2.4 0  -0.45 -2.4 0  -0.35 -2.4 0  -0.25 -2.4 0  -0.15 -2.4 0  -0.05000000000000004 -2.4 0  0.05000000000000004 -2.4 0  0.15 -2.4 0  0.25 -2.4 0  0.3500000000000001 -2.4 0  0.45 -2.4 0  0.55 -2.4 0  0.6499999999999999 -2.4 0  0.75 -2.4 0  -0.75 -2.35 0  -0.65 -2.35 0  -0.55 -2.35 0  -0.45 -2.35 0  -0.35 -2.35 0  -0.25 -2.35 0  -0.15 -2.35 0  -0.05000000000000004 -2.35 0  0.05000000000000004 -2.35 0  0.15 -2.35 0  0.25 -2.35 0  0.3500000000000001 -2.35 0  0.45 -2.35 0  0.55 -2.35 0  0.6499999999999999 -2.35 0  0.75 -2.35 0  -0.75 -2.3 0  -0.65 -2.3 0  -0.55 -2.3 0  -0.45 -2.3 0  -0.35 -2.3 0  -0.25 -2.3 0  -0.15 -2.3 0  -0.05000000000000004 -2.3 0  0.05000000000000004 -2.3 0  0.15 -2.3 0  0.25 -2.3 0  0.3500000000000001 -2.3 0  0.45 -2.3 0  0.55 -2.3 0  0.6499999999999999 -2.3 0  0.75 -2.3 0  -0.75 -2.25 0  -0.65 -2.25 0  -0.55 -2.25 0  -0.45 -2.25 0  -0.35 -2.25 0  -0.25 -2.25 0  -0.15 -2.25 0  -0.05000000000000004 -2.25 0  0.05000000000000004 -2.25 0  0.15 -2.25 0  0.25 -2.25 0  0.3500000000000001 -2.25 0  0.45 -2.25 0  0.55 -2.25 0  0.6499999999999999 -2.25 0  0.75 -2.25 0  -0.75 -2.2 0  -0.65 -2.2 0  -0.55 -2.2 0  -0.45 -2.2 0  -0.35 -2.2 0  -0.25 -2.2 0  -0.15 -2.2 0  -0.05000000000000004 -2.2 0  0.05000000000000004 -2.2 0  0.15 -2.2 0  0.25 -2.2 0  0.3500000000000001 -2.2 0  0.45 -2.2 0  0.55 -2.2 0  0.6499999999999999 -2.2 0  0.75 -2.2 0  -0.75 -2.15 0  -0.65 -2.15 0  -0.55 -2.15 0  -0.45 -2.15 0  -0.35 -2.15 0  -0.25 -2.15 0  -0.15 -2.15 0  -0.05000000000000004 -2.15 0  0.05000000000000004 -2.15 0  0.15 -2.15 0  0.25 -2.15 0  0.3500000000000001 -2.15 0  0.45 -2.15 0  0.55 -2.15 0  0.6499999999999999 -2.15 0  0.75 -2.15 0  -0.75 -2.1 0  -0.65 -2.1 0  -0.55 -2.1 0  -0.45 -2.1 0  -0.35 -2.1 0  -0.25 -2.1 0  -0.15 -2.1 0  -0.05000000000000004 -2.1 0  0.05000000000000004 -2.1 0  0.15 -2.1 0  0.25 -2.1 0  0.3500000000000001 -2.1 0  0.45 -2.1 0  0.55 -2.1 0  0.6499999999999999 -2.1 0  0.75 -2.1 0  -0.75 -2.05 0  -0.65 -2.05 0  -0.55 -2.05 0  -0.45 -2.05 0  -0.35 -2.05 0  -0.25 -2.05 0  -0.15 -2.05 0  -0.05000000000000004 -2.05 0  0.05000000000000004 -2.05 0  0.15 -2.05 0  0.25 -2.05 0  0.3500000000000001 -2.05 0  0.45 -2.05 0  0.55 -2.05 0  0.6499999999999999 -2.05 0  0.75 -2.05 0  -0.75 -2 0  -0.65 -2 0  -0.55 -2 0  -0.45 -2 0  -0.35 -2 0  -0.25 -2 0  -0.15 -2 0  -0.05000000000000004 -2 0  0.05000000000000004 -2 0  0.15 -2 0  0.25 -2 0  0.3500000000000001 -2 0  0.45 -2 0  0.55 -2 0  0.6499999999999999 -2 0  0.75 -2 0  -0.75 -1.95 0  -0.65 -1.95 0  -0.55 -1.95 0  -0.45 -1.95 0  -0.35 -1.95 0  -0.25 -1.95 0  -0.15 -1.95 0  -0.05000000000000004 -1.95 0  0.05000000000000004 -1.95 0  0.15 -1.95 0  0.25 -1.95 0  0.3500000000000001 -1.95 0  0.45 -1.95 0  0.55 -1.95 0  0.6499999999999999 -1.95 0  0.75 -1.95 0  -0.75 -1.9 0  -0.65 -1.9 0  -0.55 -1.9 0  -0.45 -1.9 0  -0.35 -1.9 0  -0.25 -1.9 0  -0.15 -1.9 0  -0.05000000000000004 -1.9 0  0.05000000000000004 -1.9 0  0.15 -1.9 0  0.25 -1.9 0  0.3500000000000001 -1.9 0  0.45 -1.9 0  0.55 -1.9 0  0.6499999999999999 -1.9 0  0.75 -1.9 0  -0.75 -1.85 0  -0.65 -1.85 0  -0.55 -1.85 0  -0.45 -1.85 0  -0.35 -1.85 0  -0.25 -1.85 0  -0.15 -1.85 0  -0.05000000000000004 -1.85 0  0.05000000000000004 -1.85 0  0.15 -1.85 0  0.25 -1.85 0  0.3500000000000001 -1.85 0  0.45 -1.85 0  0.55 -1.85 0  0.6499999999999999 -1.85 0  0.75 -1.85 0  -0.75 -1.8 0  -0.65 -1.8 0  -0.55 -1.8 0  -0.45 -1.8 0  -0.35 -1.8 0  -0.25 -1.8 0  -0.15 -1.8 0  -0.05000000000000004 -1.8 0  0.05000000000000004 -1.8 0  0.15 -1.8 0  0.25 -1.8 0  0.3500000000000001 -1.8 0  0.45 -1.8 0  0.55 -1.8 0  0.6499999999999999 -1.8 0  0.75 -1.8 0  -0.75 -1.75 0  -0.65 -1.75 0  -0.55 -1.75 0  -0.45 -1.75 0  -0.35 -1.75 0  -0.25 -1.75 0  -0.15 -1.75 0  -0.05000000000000004 -1.75 0  0.05000000000000004 -1.75 0  0.15 -1.75 0  0.25 -1.75 0  0.3500000000000001 -1.75 0  0.45 -1.75 0  0.55 -1.75 0  0.6499999999999999 -1.75 0  0.75 -1.75 0  -0.75 -1.7 0  -0.65 -1.7 0  -0.55 -1.7 0  -0.45 -1.7 0  -0.35 -1.7 0  -0.25 -1.7 0  -0.15 -1.7 0  -0.05000000000000004 -1.7 0  0.05000000000000004 -1.7 0  0.15 -1.7 0  0.25 -1.7 0  0.3500000000000001 -1.7 0  0.45 -1.7 0  0.55 -1.7 0  0.6499999999999999 -1.7 0  0.75 -1.7 0  -0.75 -1.65 0  -0.65 -1.65 0  -0.55 -1.65 0  -0.45 -1.65 0  -0.35 -1.65 0  -0.25 -1.65 0  -0.15 -1.65 0  -0.05000000000000004 -1.65 0  0.05000000000000004 -1.65 0  0.15 -1.65 0  0.25 -1.65 0  0.3500000000000001 -1.65 0  0.45 -1.65 0  0.55 -1.65 0  0.6499999999999999 -1.65 0  0.75 -1.65 0  -0.75 -1.6 0  -0.65 -1.6 0  -0.55 -1.6 0  -0.45 -1.6 0  -0.35 -1.6 0  -0.25 -1.6 0  -0.15 -1.6 0  -0.05000000000000004 -1.6 0  0.05000000000000004 -1.6 0  0.15 -1.6 0  0.25 -1.6 0  0.3500000000000001 -1.6 0  0.45 -1.6 0  0.55 -1.6 0  0.6499999999999999 -1.6 0  0.75 -1.6 0  -0.75 -1.55 0  -0.65 -1.55 0  -0.55 -1.55 0  -0.45 -1.55 0  -0.35 -1.55 0  -0.25 -1.55 0  -0.15 -1.55 0  -0.05000000000000004 -1.55 0  0.05000000000000004 -1.55 0  0.15 -1.55 0  0.25 -1.55 0  0.3500000000000001 -1.55 0  0.45 -1.55 0  0.55 -1.55 0  0.6499999999999999 -1.55 0  0.75 -1.55 0  -0.75 -1.5 0  -0.65 -1.5 0  -0.55 -1.5 0  -0.45 -1.5 0  -0.35 -1.5 0  -0.25 -1.5 0  -0.15 -1.5 0  -0.05000000000000004 -1.5 0  0.05000000000000004 -1.5 0  0.15 -1.5 0  0.25 -1.5 0  0.3500000000000001 -1.5 0  0.45 -1.5 0  0.55 -1.5 0  0.6499999999999999 -1.5 0  0.75 -1.5 0  -0.75 -1.45 0  -0.65 -1.45 0  -0.55 -1.45 0  -0.45 -1.45 0  -0.35 -1.45 0  -0.25 -1.45 0  -0.15 -1.45 0  -0.05000000000000004 -1.45 0  0.05000000000000004 -1.45 0  0.15 -1.45 0  0.25 -1.45 0  0.3500000000000001 -1.45 0  0.45 -1.45 0  0.55 -1.45 0  0.6499999999999999 -1.45 0  0.75 -1.45 0  -0.75 -1.4 0  -0.65 -1.4 0  -0.55 -1.4 0  -0.45 -1.4 0  -0.35 -1.4 0  -0.25 -1.4 0  -0.15 -1.4 0  -0.05000000000000004 -1.4 0  0.05000000000000004 -1.4 0  0.15 -1.4 0  0.25 -1.4 0  0.3500000000000001 -1.4 0  0.45 -1.4 0  0.55 -1.4 0  0.6499999999999999 -1.4 0  0.75 -1.4 0  -0.75 -1.35 0  -0.65 -1.35 0  -0.55 -1.35 0  -0.45 -1.35 0  -0.35 -1.35 0  -0.25 -1.35 0  -0.15 -1.35 0  -0.05000000000000004 -1.35 0  0.05000000000000004 -1.35 0  0.15 -1.35 0  0.25 -1.35 0  0.3500000000000001 -1.35 0  0.45 -1.35 0  0.55 -1.35 0  0.6499999999999999 -1.35 0  0.75 -1.35 0  -0.75 -1.3 0  -0.65 -1.3 0  -0.55 -1.3 0  -0.45 -1.3 0  -0.35 -1.3 0  -0.25 -1.3 0  -0.15 -1.3 0  -0.05000000000000004 -1.3 0  0.05000000000000004 -1.3 0  0.15 -1.3 0  0.25 -1.3 0  0.3500000000000001 -1.3 0  0.45 -1.3 0  0.55 -1.3 0  0.6499999999999999 -1.
[...]
<PointData  Vectors="displacement"> 
<DataArray  type="Float64"  Name="displacement"  NumberOfComponents="3" format="ascii">5.6423728839469587e-35 -3.1763735522036353e-20 0.0000000000000000e+00  -2.5407634229301896e-35 3.2260043889568196e-21 0.0000000000000000e+00  1.9748305093814499e-34 -6.7497937984327287e-20 0.0000000000000000e+00  4.4081038155835929e-36 9.9261673506363652e-21 0.0000000000000000e+00  5.0781355955522983e-34 -2.9778502051909093e-20 0.0000000000000000e+00  1.1415591337288928e-34 -2.6839441065692721e-23 0.0000000000000000e+00  6.2066101723417003e-34 -1.5881867761018189e-20 0.0000000000000000e+00  2.5384040462616441e-34 -5.2068515667444023e-21 0.0000000000000000e+00  5.0781355955522983e-34 0.0000000000000000e+00 0.0000000000000000e+00  -5.0968716233273198e-34 1.2035214768166822e-20 0.0000000000000000e+00  4.5138983071575960e-34 -1.7867101231145446e-20 0.0000000000000000e+00  -3.6347893883537672e-34 2.4019905796217094e-20 0.0000000000000000e+00  2.2569491535787993e-34 -3.9704669402545456e-21 0.0000000000000000e+00  -1.1286831129416096e-34 -3.8463898483715900e-21 0.0000000000000000e+00  -1.4105932209867510e-34 2.3822801641527296e-20 0.0000000000000000e+00  2.8211864419734970e-35 -2.3822801641527257e-20 0.0000000000000000e+00  -2.2569491535787839e-34 -1.4912280701752536e-04 0.0000000000000000e+00  6.6330754012858249e-19 -1.4912280701752576e-04 0.0000000000000000e+00  1.4563691242345269e-18 -1.4912280701752574e-04 0.0000000000000000e+00  2.4457242514745568e-18 -1.4912280701752579e-04 0.0000000000000000e+00  3.2759414140506259e-18 -1.4912280701752536e-04 0.0000000000000000e+00  4.2982307234482246e-18 -1.4912280701752503e-04 0.0000000000000000e+00  5.1465391760730035e-18 -1.4912280701752411e-04 0.0000000000000000e+00  5.3397772201321629e-18 -1.4912280701752319e-04 0.0000000000000000e+00  5.4854806902897942e-18 -1.4912280701752232e-04 0.0000000000000000e+00  4.8984468285062709e-18 -1.4912280701752159e-04 0.0000000000000000e+00  4.2027048547896091e-18 -1.4912280701752107e-04 0.0000000000000000e+00  3.8090620000840531e-18 -1.4912280701752064e-04 0.0000000000000000e+00  3.0793112078472639e-18 -1.4912280701751999e-04 0.0000000000000000e+00  2.0830672367006567e-18 -1.4912280701751964e-04 0.0000000000000000e+00  1.0795571060886754e-18 -1.4912280701751958e-04 0.0000000000000000e+00  3.5035935501284194e-36 -1.4912280701751947e-04 0.0000000000000000e+00  1.1990042378387341e-34 -2.9824561403505283e-04 0.0000000000000000e+00  1.3162331874865886e-18 -2.9824561403505315e-04 0.0000000000000000e+00  2.8026275943373759e-18 -2.9824561403505348e-04 0.0000000000000000e+00  4.5539807168552483e-18 -2.9824561403505256e-04 0.0000000000000000e+00  6.3311754673186146e-18 -2.9824561403505250e-04 0.0000000000000000e+00  7.8763206061127035e-18 -2.9824561403505212e-04 0.0000000000000000e+00  9.3122474058298415e-18 -2.9824561403504985e-04 0.0000000000000000e+00  9.9431755344506974e-18 -2.9824561403504779e-04 0.0000000000000000e+00  9.8859962203017708e-18 -2.9824561403504589e-04 0.0000000000000000e+00  9.0712179883300744e-18 -2.9824561403504394e-04 0.0000000000000000e+00  7.9301634585048314e-18 -2.9824561403504329e-04 0.0000000000000000e+00  7.0471974803727395e-18 -2.9824561403504220e-04 0.0000000000000000e+00  5.7376876295927975e-18 -2.9824561403504090e-04 0.0000000000000000e+00  3.7677386543622605e-18 -2.9824561403504041e-04 0.0000000000000000e+00  1.9098651221629723e-18 -2.9824561403503971e-04 0.0000000000000000e+00  -6.4484261530822828e-35 -2.9824561403503965e-04 0.0000000000000000e+00  -3.9496610187628894e-34 -4.4736842105257905e-04 0.0000000000000000e+00  2.0914658225963725e-18 -4.4736842105257916e-04 0.0000000000000000e+00  3.9518497569920656e-18 -4.4736842105257992e-04 0.0000000000000000e+00  6.4187620586149985e-18 -4.4736842105257894e-04 0.0000000000000000e+00  8.9803169838072318e-18 -4.4736842105257835e-04 0.0000000000000000e+00  1.0977094473820218e-17 -4.4736842105257769e-04 0.0000000000000000e+00  1.2794975361305052e-17 -4.4736842105257482e-04 0.0000000000000000e+00  1.3806394083324050e-17 -4.4736842105257124e-04 0.0000000000000000e+00  1.3559631826570245e-17 -4.4736842105256788e-04 0.0000000000000000e+00  1.2510532728778751e-17 -4.4736842105256582e-04 0.0000000000000000e+00  1.1271267830961079e-17 -4.4736842105256441e-04 0.0000000000000000e+00  9.7716213607659955e-18 -4.4736842105256284e-04 0.0000000000000000e+00  7.9110002971461495e-18 -4.4736842105256062e-04 0.0000000000000000e+00  5.2148059786560574e-18 -4.4736842105255943e-04 0.0000000000000000e+00  2.5281137762460528e-18 -4.4736842105255883e-04 0.0000000000000000e+00  -6.7708474607363786e-34 -4.4736842105255823e-04 0.0000000000000000e+00  1.9821416496521835e-34 -5.9649122807010674e-04 0.0000000000000000e+00  2.5782992529796898e-18 -5.9649122807010685e-04 0.0000000000000000e+00  5.1439791657439294e-18 -5.9649122807010760e-04 0.0000000000000000e+00  8.0865539715104693e-18 -5.9649122807010739e-04 0.0000000000000000e+00  1.0998216279546274e-17 -5.9649122807010598e-04 0.0000000000000000e+00  1.3340818895237345e-17 -5.9649122807010468e-04 0.0000000000000000e+00  1.5634765874747470e-17 -5.9649122807010077e-04 0.0000000000000000e+00  1.7063394879613209e-17 -5.9649122807009579e-04 0.0000000000000000e+00  1.6569081946941439e-17 -5.9649122807009145e-04 0.0000000000000000e+00  1.5343708287271629e-17 -5.9649122807008906e-04 0.0000000000000000e+00  1.4213313826808304e-17 -5.9649122807008646e-04 0.0000000000000000e+00  1.2131332917513019e-17 -5.9649122807008419e-04 0.0000000000000000e+00  9.6237868165021525e-18 -5.9649122807008137e-04 0.0000000000000000e+00  6.3773207111378332e-18 -5.9649122807007952e-04 0.0000000000000000e+00  3.0912207529755672e-18 -5.9649122807007833e-04 0.0000000000000000e+00  6.8145349181943641e-34 -5.9649122807007768e-04 0.0000000000000000e+00  1.9748305093814486e-34 -7.4561403508763269e-04 0.0000000000000000e+00  2.9985934927004328e-18 -7.4561403508763421e-04 0.0000000000000000e+00  6.1175725605386049e-18 -7.4561403508763421e-04 0.0000000000000000e+00  9.4090571042898088e-18 -7.4561403508763323e-04 0.0000000000000000e+00  1.2552401911087867e-17 -7.4561403508763226e-04 0.0000000000000000e+00  1.5537118093401992e-17 -7.4561403508763096e-04 0.0000000000000000e+00  1.8182805347088350e-17 -7.4561403508762597e-04 0.0000000000000000e+00  1.9415738882295764e-17 -7.4561403508762011e-04 0.0000000000000000e+00  1.9021094014198450e-17 -7.4561403508761361e-04 0.0000000000000000e+00  1.8034108596407565e-17 -7.4561403508760938e-04 0.0000000000000000e+00  1.6389390218633326e-17 -7.4561403508760689e-04 0.0000000000000000e+00  1.3925723651566295e-17 -7.4561403508760363e-04 0.0000000000000000e+00  1.0864392042597906e-17 -7.4561403508760179e-04 0.0000000000000000e+00  7.3673258157803855e-18 -7.4561403508759800e-04 0.0000000000000000e+00  3.8075936222972469e-18 -7.4561403508759713e-04 0.0000000000000000e+00  -8.5109464419380158e-34 -7.4561403508759637e-04 0.0000000000000000e+00  1.4183612125250412e-34 -8.9473684210515951e-04 0.0000000000000000e+00  3.1632886342892084e-18 -8.9473684210516016e-04 0.0000000000000000e+00  6.7690346328342210e-18 -8.9473684210516016e-04 0.0000000000000000e+00  1.0515202973451255e-17 -8.9473684210515875e-04 0.0000000000000000e+00  1.3921695933950061e-17 -8.9473684210515810e-04 0.0000000000000000e+00  1.7382548946025780e-17 -8.9473684210515571e-04 0.0000000000000000e+00  2.0249428054217003e-17 -8.9473684210515159e-04 0.0000000000000000e+00  2.1236867177274826e-17 -8.9473684210514249e-04 0.0000000000000000e+00  2.0900414311824540e-17 -8.9473684210513609e-04 0.0000000000000000e+00  2.0118594702557122e-17 -8.9473684210513121e-04 0.0000000000000000e+00  1.7990856298073307e-17 -8.9473684210512774e-04 0.0000000000000000e+00  1.5319994522549554e-17 -8.9473684210512308e-04 0.0000000000000000e+00  1.2056864882408410e-17 -8.9473684210512070e-04 0.0000000000000000e+00  8.4443355751985088e-18 -8.9473684210511690e-04 0.0000000000000000e+00  4.3892268417217428e-18 -8.9473684210511560e-04 0.0000000000000000e+00  2.4584624708626041e-34 -8.9473684210511376e-04 0.0000000000000000e+00  1.1284745767893969e-34 -1.0438596491226877e-03 0.0000000000000000e+00  3.4528618794718732e-18 -1.0438596491226882e-03 0.0000000000000000e+00  7.5915364326962071e-18 -1.0438596491226888e-03 0.0000000000000000e+00  1.1644438307737486e-17 -1.0438596491226869e-03 0.0000000000000000e+00  1.5210291713163630e-17 -1.0438596491226860e-03 0.0000000000000000e+00  1.8750101370994050e-17 -1.0438596491226845e-03 0.0000000000000000e+00  2.1484901406202285e-17 -1.0438596491226756e-03 0.0000000000000000e+00  2.2720152661039766e-17 -1.0438596491226680e-03 0.0000000000000000e+00  2.2543170648880084e-17 -1.0438596491226595e-03 0.0000000000000000e+00  2.1448671943890019e-17 -1.0438596491226548e-03 0.0000000000000000e+00  1.9210619129396562e-17 -1.0438596491226504e-03 0.0000000000000000e+00  1.6554934399641363e-17 -1.0438596491226439e-03 0.0000000000000000e+00  1.3306941986995042e-17 -1.0438596491226407e-03 0.0000000000000000e+00  9.0958712577019156e-18 -1.0438596491226376e-03 0.0000000000000000e+00  4.4040317548293781e-18 -1.0438596491226355e-03 0.0000000000000000e+00  -2.8211864419734917e-34 -1.0438596491226331e-03 0.0000000000000000e+00  2.2445884202352088e-34 -1.1929824561402139e-03 0.0000000000000000e+00  4.0375973018060420e-18 -1.1929824561402143e-03 0.0000000000000000e+00  8.1318665430360949e-18 -1.1929824561402163e-03 0.0000000000000000e+00  1.2343549911529184e-17 -1.1929824561402137e-03 0.0000000000000000e+00  1.6490337472849650e-17 -1.1929824561402128e-03 0.0000000000000000e+00  1.9779383508414698e-17 -1.1929824561402104e-03 0.0000000000000000e+00  2.2146734446788234e-17 -1.1929824561402018e-03 0.0000000000000000e+00  2.3710695444139908e-17 -1.1929824561401896e-03 0.0000000000000000e+00  2.3618313573238536e-17 -1.1929824561401822e-03 0.0000000000000000e+00  2.2060449660412350e-17 -1.1929824561401775e-03 0.0000000000000000e+00  2.0252289780628765e-17 -1.1929824561401690e-03 0.0000000000000000e+00  1.7429227512411220e-17 -1.1929824561401651e-03 0.0000000000000000e+00  1.4479342875624115e-17 -1.1929824561401603e-03 0.0000000000000000e+00  9.4799359871128748e-18 -1.1929824561401562e-03 0.0000000000000000e+00  4.2545340772764071e-18 -1.1929824561401541e-03 0.0000000000000000e+00  -8.8481447036026331e-34 -1.1929824561401517e-03 0.0000000000000000e+00  2.2569491535787839e-34 -1.3421052631577420e-03 0.0000000000000000e+00  4.3134851442598702e-18 -1.3421052631577425e-03 0.0000000000000000e+00  8.5014009988795367e-18 -1.3421052631577446e-03 0.0000000000000000e+00  1.3109314775838646e-17 -1.3421052631577422e-03 0.0000000000000000e+00  1.7397995774521405e-17 -1.3421052631577409e-03 0.0000000000000000e+00  2.0262349698964233e-17 -1.3421052631577375e-03 0.0000000000000000e+00  2.2635445293136460e-17 -1.3421052631577269e-03 0.0000000000000000e+00  2.4621760320124600e-17 -1.3421052631577169e-03 0.0000000000000000e+00  2.4246479904920859e-17 -1.3421052631577054e-03 0.0000000000000000e+00  2.2502227616406973e-17 -1.3421052631576978e-03 0.0000000000000000e+00  2.1189655169032264e-17 -1.3421052631576913e-03 0.0000000000000000e+00  1.8323915017167137e-17 -1.3421052631576841e-03 0.0000000000000000e+00  1.5013814645806670e-17 -1.3421052631576811e-03 0.0000000000000000e+00  9.7220382241266363e-18 -1.3421052631576750e-03 0.0000000000000000e+00  4.2326115143530675e-18 -1.3421052631576726e-03 0.0000000000000000e+00  -2.5151267499755273e-34 -1.3421052631576711e-03 0.0000000000000000e+00  -2.3979822686554755e-34 -1.4912280701752704e-03 0.0000000000000000e+00  4.4247196015622706e-18 -1.4912280701752699e-03 0.0000000000000000e+00  9.2161219500020851e-18 -1.4912280701752730e-03 0.0000000000000000e+00  1.3715781180527499e-17 -1.4912280701752699e-03 0.0000000000000000e+00  1.7529556133746926e-17 -1.4912280701752665e-03 0.0000000000000000e+00  2.0603890672581757e-17 -1.4912280701752632e-03 0.0000000000000000e+00  2.3164533415147867e-17 -1.4912280701752537e-03 0.0000000000000000e+00  2.5094845684550445e-17 -1.4912280701752389e-03 0.0000000000000000e+00  2.4694710981403529e-17 -1.4912280701752279e-03 0.0000000000000000e+00  2.3124179967565872e-17 -1.4912280701752216e-03 0.0000000000000000e+00  2.1555820394899517e-17 -1.4912280701752129e-03 0.0000000000000000e+00  1.8650272883424295e-17 -1.4912280701752021e-03 0.0000000000000000e+00  1.4964390382349210e-17 -1.4912280701751997e-03 0.0000000000000000e+00  9.9077842856928846e-18 -1.4912280701751940e-03 0.0000000000000000e+00  4.6228623722566761e-18 -1.4912280701751899e-03 0.0000000000000000e+00  2.6196731246896736e-34 -1.4912280701751895e-03 0.0000000000000000e+00  1.1284745767893919e-34 -1.6403508771927952e-03 0.0000000000000000e+00  4.1990082839153505e-18 -1.6403508771927983e-03 0.0000000000000000e+00  9.5186334969614659e-18 -1.6403508771927989e-03 0.0000000000000000e+00  1.3985234623094701e-17 -1.6403508771927965e-03 0.0000000000000000e+00  1.7766948794962740e-17 -1.6403508771927933e-03 0.0000000000000000e+00  2.0973372893419809e-17 -1.6403508771927874e-03 0.0000000000000000e+00  2.3618470198590806e-17 -1.6403508771927785e-03 0.0000000000000000e+00  2.5187873347368229e-17 -1.6403508771927631e-03 0.0000000000000000e+00  2.5082243939987660e-17 -1.6403508771927506e-03 0.0000000000000000e+00  2.4057559236565125e-17 -1.6403508771927419e-03 0.0000000000000000e+00  2.1041521301058054e-17 -1.6403508771927341e-03 0.0000000000000000e+00  1.8702408999488929e-17 -1.6403508771927219e-03 0.0000000000000000e+00  1.5032666998333270e-17 -1.6403508771927196e-03 0.0000000000000000e+00  1.0189298317742771e-17 -1.6403508771927124e-03 0.0000000000000000e+00  5.1083731802059213e-18 -1.6403508771927098e-03 0.0000000000000000e+00  -5.0781355955522615e-34 -1.6403508771927076e-03 0.0000000000000000e+00  7.3975799877136929e-38 -1.7894736842103249e-03 0.0000000000000000e+00  4.3371637149373490e-18 -1.7894736842103247e-03 0.0000000000000000e+00  9.5601654412176630e-18 -1.7894736842103275e-03 0.0000000000000000e+00  1.3661161670154705e-17 -1.7894736842103229e-03 0.0000000000000000e+00  1.8143319588188009e-17 -1.7894736842103199e-03 0.0000000000000000e+00  2.0780753825492588e-17 -1.7894736842103145e-03 0.0000000000000000e+00  2.3796702159086455e-17 -1.7894736842103023e-03 0.0000000000000000e+00  2.5440202668915942e-17 -1.7894736842102904e-03 0.0000000000000000e+00  2.5070133210572177e-17 -1.7894736842102746e-03 0.0000000000000000e+00  2.4126251743987636e-17 -1.7894736842102670e-03 0.0000000000000000e+00  2.0758714726215685e-17 -1.7894736842102572e-03 0.0000000000000000e+00  1.8632737991923209e-17 -1.7894736842102442e-03 0.0000000000000000e+00  1.5551540866698807e-17 -1.7894736842102401e-03 0.0000000000000000e+00  1.0383928310961828e-17 -1.7894736842102325e-03 0.0000000000000000e+00  5.2646932805223396e-18 -1.7894736842102297e-03 0.0000000000000000e+00  -3.0987311425945760e-34 -1.7894736842102273e-03 0.0000000000000000e+00  0.0000000000000000e+00 -1.9385964912278500e-03 0.0000000000000000e+00  5.1688094065673095e-18 -1.9385964912278523e-03 0.0000000000000000e+00  9.2498773141055145e-18 -1.9385964912278519e-03 0.0000000000000000e+00  1.3977390559783325e-17 -1.9385964912278510e-03 0.0000000000000000e+00  1.8047565118339101e-17 -1.9385964912278454e-03 0.0000000000000000e+00  2.0814412033688428e-17 -1.9385964912278419e-03 0.0000000000000000e+00  2.3704529349333501e-17 -1.9385964912278289e-03 0.0000000000000000e+00  2.5346475055590894e-17 -1.9385964912278124e-03 0.0000000000000000e+00  2.5426958596349244e-17 -1.9385964912277990e-03 0.0000000000000000e+00  2.3585759802566315e-17 -1.9385964912277862e-03 0.0000000000000000e+00  2.1227463003749447e-17 -1.9385964912277767e-03 0.0000000000000000e+00  1.8377379046454113e-17 -1.9385964912277660e-03 0.0000000000000000e+00  1.5522583508836030e-17 -1.9385964912277585e-03 0.0000000000000000e+00  1.0472370888102683e-17 -1.9385964912277517e-03 0.0000000000000000e+00  4.6302393644763583e-18 -1.9385964912277472e-03 0.0000000000000000e+00  -4.0136962288306036e-34 -1.9385964912277485e-03 0.0000000000000000e+00  1.4351305176164532e-35 -2.0877192982453794e-03 0.0000000000000000e+00  5.2065518200514991e-18 -2.0877192982453794e-03 0.0000000000000000e+00  9.9148150825470948e-18 -2.0877192982453807e-03 0.0000000000000000e+00  1.4316685077347282e-17 -2.0877192982453794e-03 0.0000000000000000e+00  1.8177775835996078e-17 -2.0877192982453733e-03 0.0000000000000000e+00  2.0618159294931294e-17 -2.0877192982453668e-03 0.0000000000000000e+00  2.3529943915628004e-17 -2.0877192982453547e-03 0.0000000000000000e+00  2.5385783548009160e-17 -2.0877192982453382e-03 0.0000000000000000e+00  2.4884477377411858e-17 -2.0877192982453217e-03 0.0000000000000000e+00  2.3210017582402908e-17 -2.0877192982453117e-03 0.0000000000000000e+00  2.1690768611994844e-17 -2.0877192982453000e-03 0.0000000000000000e+00  1.8468620966501836e-17 -2.0877192982452883e-03 0.0000000000000000e+00  1.4647712912836023e-17 -2.0877192982452831e-03 0.0000000000000000e+00  1.0199300607891551e-17 -2.0877192982452723e-03 0.0000000000000000e+00  4.8810767318809893e-18 -2.0877192982452701e-03 0.0000000000000000e+00  -4.8363196148116777e-34 -2.0877192982452649e-03 0.0000000000000000e+00  9.5920339027098934e-34 -2.2368421052629079e-03 0.0000000000000000e+00  5.9492179286481655e-18 -2.2368421052629062e-03 0.0000000000000000e+00  1.0871210458973383e-17 -2.2368421052629092e-03 0.0000000000000000e+00  1.5070741461030384e-17 -2.2368421052629023e-03 0.0000000000000000e+00  1.8248317548702095e-17 -2.2368421052629001e-03 0.0000000000000000e+00  2.0634671028404040e-17 -2.2368421052628962e-03 0.0000000000000000e+00  2.3080023653455522e-17 -2.2368421052628810e-03 0.0000000000000000e+00  2.4561555924240357e-17 -2.2368421052628663e-03 0.0000000000000000e+00  2.4794305014442866e-17 -2.2368421052628455e-03 0.0000000000000000e+00  2.3607585286458956e-17 -2.2368421052628329e-03 0.0000000000000000e+00  2.1550282958499870e-17 -2.2368421052628221e-03 0.0000000000000000e+00  1.8248817004801575e-17 -2.2368421052628082e-03 0.0000000000000000e+00  1.4630625261041705e-17 -2.2368421052628043e-03 0.0000000000000000e+00  9.7807651304747323e-18 -2.2368421052627917e-03 0.0000000000000000e+00  5.0218225464741559e-18 -2.2368421052627874e-03 0.0000000000000000e+00  4.5138983071575960e-34 -2.2368421052627861e-03 0.0000000000000000e+00  -7.9734809390809508e-34 -2.3859649122804335e-03 0.0000000000000000e+00  6.0197740343204134e-18 -2.3859649122804356e-03 0.0000000000000000e+00  1.1746757644454982e-17 -2.3859649122804335e-03 0.0000000000000000e+00  1.5652739925035783e-17 -2.3859649122804283e-03 0.0000000000000000e+00  1.8126926307553572e-17 -2.3859649122804261e-03 0.0000000000000000e+00  2.0947834264605959e-17 -2.3859649122804209e-03 0.0000000000000000e+00  2.3130602612954967e-17 -2.3859649122804040e-03 0.0000000000000000e+00  2.3672395457833701e-17 -2.3859649122803888e-03 0.0000000000000000e+00  2.3611323754460240e-17 -2.3859649122803680e-03 0.0000000000000000e+00  2.4294738075541943e-17 -2.3859649122803558e-03 0.0000000000000000e+00  2.1616925231537784e-17 -2.3859649122803454e-03 0.0000000000000000e+00  1.8358332833770755e-17 -2.3859649122803311e-03 0.0000000000000000e+00  1.4069532038740506e-17 -2.3859649122803259e-03 0.0000000000000000e+00  9.5435932866570701e-18 -2.3859649122803151e-03 0.0000000000000000e+00  5.0984736663507022e-18 -2.3859649122803090e-03 0.0000000000000000e+00  -6.9578827155424399e-34 -2.3859649122803064e-03 0.0000000000000000e+00  1.3541694921472762e-33 -2.5350877192979676e-03 0.0000000000000000e+00  5.8392713973681881e-18 -2.5350877192979629e-03 0.0000000000000000e+00  1.2438902929158742e-17 -2.5350877192979642e-03 0.0000000000000000e+00  1.6519002836580838e-17 -2.5350877192979546e-03 0.0000000000000000e+00  1.8796815026783509e-17 -2.5350877192979512e-03 0.0000000000000000e+00  2.0937896631779383e-17 -2.5350877192979451e-03 0.0000000000000000e+00  2.2266117044249786e-17 -2.5350877192979299e-03 0.0000000000000000e+00  2.2931214412597666e-17 -2.5350877192979121e-03 0.0000