<?xml version="1.0"?>
<VTKFile type="UnstructuredGrid"  version="0.1"  >
<UnstructuredGrid>
<Piece  NumberOfPoints="431" NumberOfCells="800">
<Points>
<DataArray  type="Float64"  NumberOfComponents="3"  format="ascii">-0.25 -1 0  -0.2 -1 0  -0.15 -1 0  -0.1 -1 0  -0.04999999999999999 -1 0  0 -1 0  0.04999999999999999 -1 0  0.09999999999999998 -1 0  0.15 -1 0  0.2 -1 0  0.25 -1 0  -0.25 -0.95 0  -0.2 -0.95 0  -0.15 -0.95 0  -0.1 -0.95 0  -0.04999999999999999 -0.95 0  0 -0.95 0  0.04999999999999999 -0.95 0  0.09999999999999998 -0.95 0  0.15 -0.95 0  0.2 -0.95 0  0.25 -0.95 0  -0.25 -0.9 0  -0.2 -0.9 0  -0.15 -0.9 0  -0.1 -0.9 0  -0.04999999999999999 -0.9 0  0 -0.9 0  0.04999999999999999 -0.9 0  0.09999999999999998 -0.9 0  0.15 -0.9 0  0.2 -0.9 0  0.25 -0.9 0  -0.25 -0.85 0  -0.2 -0.85 0  -0.15 -0.85 0  -0.1 -0.85 0  -0.04999999999999999 -0.85 0  0 -0.85 0  0.04999999999999999 -0.85 0  0.09999999999999998 -0.85 0  0.15 -0.85 0  0.2 -0.85 0  0.25 -0.85 0  -0.25 -0.8 0  -0.2 -0.8 0  -0.15 -0.8 0  -0.1 -0.8 0  -0.04999999999999999 -0.8 0  0 -0.8 0  0.04999999999999999 -0.8 0  0.09999999999999998 -0.8 0  0.15 -0.8 0  0.2 -0.8 0  0.25 -0.8 0  -0.25 -0.75 0  -0.2 -0.75 0  -0.15 -0.75 0  -0.1 -0.75 0  -0.04999999999999999 -0.75 0  0 -0.75 0  0.04999999999999999 -0.75 0  0.09999999999999998 -0.75 0  0.15 -0.75 0  0.2 -0.75 0  0.25 -0.75 0  -0.25 -0.7 0  -0.2 -0.7 0  -0.15 -0.7 0  -0.1 -0.7 0  -0.04999999999999999 -0.7 0  0 -0.7 0  0.04999999999999999 -0.7 0  0.09999999999999998 -0.7 0  0.15 -0.7 0  0.2 -0.7 0  0.25 -0.7 0  -0.25 -0.65 0  -0.2 -0.65 0  -0.15 -0.65 0  -0.1 -0.65 0  -0.04999999999999999 -0.65 0  0 -0.65 0  0.04999999999999999 -0.65 0  0.09999999999999998 -0.65 0  0.15 -0.65 0  0.2 -0.65 0  0.25 -0.65 0  -0.25 -0.6 0  -0.2 -0.6 0  -0.15 -0.6 0  -0.1 -0.6 0  -0.04999999999999999 -0.6 0  0 -0.6 0  0.04999999999999999 -0.6 0  0.09999999999999998 -0.6 0  0.15 -0.6 0  0.2 -0.6 0  0.25 -0.6 0  -0.25 -0.55 0  -0.2 -0.55 0  -0.15 -0.55 0  -0.1 -0.55 0  -0.04999999999999999 -0.55 0  0 -0.55 0  0.04999999999999999 -0.55 0  0.09999999999999998 -0.55 0  0.15 -0.55 0  0.2 -0.55 0  0.25 -0.55 0  -0.25 -0.5 0  -0.2 -0.5 0  -0.15 -0.5 0  -0.1 -0.5 0  -0.04999999999999999 -0.5 0  0 -0.5 0  0.04999999999999999 -0.5 0  0.09999999999999998 -0.5 0  0.15 -0.5 0  0.2 -0.5 0  0.25 -0.5 0  -0.25 -0.45 0  -0.2 -0.45 0  -0.15 -0.45 0  -0.1 -0.45 0  -0.04999999999999999 -0.45 0  0 -0.45 0  0.04999999999999999 -0.45 0  0.09999999999999998 -0.45 0  0.15 -0.45 0  0.2 -0.45 0  0.25 -0.45 0  -0.25 -0.4 0  -0.2 -0.4 0  -0.15 -0.4 0  -0.1 -0.4 0  -0.04999999999999999 -0.4 0  0 -0.4 0  0.04999999999999999 -0.4 0  0.09999999999999998 -0.4 0  0.15 -0.4 0  0.2 -0.4 0  0.25 -0.4 0  -0.25 -0.35 0  -0.2 -0.35 0  -0.15 -0.35 0  -0.1 -0.35 0  -0.04999999999999999 -0.35 0  0 -0.35 0  0.04999999999999999 -0.35 0  0.09999999999999998 -0.35 0  0.15 -0.35 0  0.2 -0.35 0  0.25 -0.35 0  -0.25 -0.3 0  -0.2 -0.3 0  -0.15 -0.3 0  -0.1 -0.3 0  -0.04999999999999999 -0.3 0  0 -0.3 0  0.04999999999999999 -0.3 0  0.09999999999999998 -0.3 0  0.15 -0.3 0  0.2 -0.3 0  0.25 -0.3 0  -0.25 -0.25 0  -0.2 -0.25 0  -0.15 -0.25 0  -0.1 -0.25 0  -0.04999999999999999 -0.25 0  0 -0.25 0  0.04999999999999999 -0.25 0  0.09999999999999998 -0.25 0  0.15 -0.25 0  0.2 -0.25 0  0.25 -0.25 0  -0.25 -0.2 0  -0.2 -0.2 0  -0.15 -0.2 0  -0.1 -0.2 0  -0.04999999999999999 -0.2 0  0 -0.2 0  0.04999999999999999 -0.2 0  0.09999999999999998 -0.2 0  0.15 -0.2 0  0.2 -0.2 0  0.25 -0.2 0  -0.25 -0.15 0  -0.2 -0.15 0  -0.15 -0.15 0  -0.1 -0.15 0  -0.04999999999999999 -0.15 0  0 -0.15 0  0.04999999999999999 -0.15 0  0.09999999999999998 -0.15 0  0.15 -0.15 0  0.2 -0.15 0  0.25 -0.15 0  -0.25 -0.09999999999999998 0  -0.2 -0.09999999999999998 0  -0.15 -0.09999999999999998 0  -0.1 -0.09999999999999998 0  -0.04999999999999999 -0.09999999999999998 0  0 -0.09999999999999998 0  0.04999999999999999 -0.09999999999999998 0  0.09999999999999998 -0.09999999999999998 0  0.15 -0.09999999999999998 0  0.2 -0.09999999999999998 0  0.25 -0.09999999999999998 0  -0.25 -0.05000000000000004 0  -0.2 -0.05000000000000004 0  -0.15 -0.05000000000000004 0  -0.1 -0.05000000000000004 0  -0.04999999999999999 -0.05000000000000004 0  0 -0.05000000000000004 0  0.04999999999999999 -0.05000000000000004 0  0.09999999999999998 -0.05000000000000004 0  0.15 -0.05000000000000004 0  0.2 -0.05000000000000004 0  0.25 -0.05000000000000004 0  -0.25 0 0  -0.2 0 0  -0.15 0 0  -0.1 0 0  -0.04999999999999999 0 0  0 0 0  0.04999999999999999 0 0  0.09999999999999998 0 0  0.15 0 0  0.2 0 0  0.25 0 0  -0.225 -0.975 0  -0.175 -0.975 0  -0.125 -0.975 0  -0.07500000000000001 -0.975 0  -0.02499999999999999 -0.975 0  0.02500000000000002 -0.975 0  0.07500000000000001 -0.975 0  0.125 -0.975 0  0.175 -0.975 0  0.225 -0.975 0  -0.225 -0.925 0  -0.175 -0.925 0  -0.125 -0.925 0  -0.07500000000000001 -0.925 0  -0.02499999999999999 -0.925 0  0.02500000000000002 -0.925 0  0.07500000000000001 -0.925 0  0.125 -0.925 0  0.175 -0.925 0  0.225 -0.925 0  -0.225 -0.875 0  -0.175 -0.875 0  -0.125 -0.875 0  -0.07500000000000001 -0.875 0  -0.02499999999999999 -0.875 0  0.02500000000000002 -0.875 0  0.07500000000000001 -0.875 0  0.125 -0.875 0  0.175 -0.875 0  0.225 -0.875 0  -0.225 -0.825 0  -0.175 -0.825 0  -0.125 -0.825 0  -0.07500000000000001 -0.825 0  -0.02499999999999999 -0.825 0  0.02500000000000002 -0.825 0  0.07500000000000001 -0.825 0  0.125 -0.825 0  0.175 -0.825 0  0.225 -0.825 0  -0.225 -0.775 0  -0.175 -0.775 0  -0.125 -0.775 0  -0.07500000000000001 -0.775 0  -0.02499999999999999 -0.775 0  0.02500000000000002 -0.775 0  0.07500000000000001 -0.775 0  0.125 -0.775 0  0.175 -0.775 0  0.225 -0.775 0  -0.225 -0.725 0  -0.175 -0.725 0  -0.125 -0.725 0  -0.07500000000000001 -0.725 0  -0.02499999999999999 -0.725 0  0.02500000000000002 -0.725 0  0.07500000000000001 -0.725 0  0.125 -0.725 0  0.175 -0.725 0  0.225 -0.725 0  -0.225 -0.675 0  -0.175 -0.675 0  -0.125 -0.675 0  -0.07500000000000001 -0.675 0  -0.02499999999999999 -0.675 0  0.02500000000000002 -0.675 0  0.07500000000000001 -0.675 0  0.125 -0.675 0  0.175 -0.675 0  0.225 -0.675 0  -0.225 -0.625 0  -0.175 -0.625 0  -0.125 -0.625 0  -0.07500000000000001 -0.625 0  -0.02499999999999999 -0.625 0  0.02500000000000002 -0.625 0  0.07500000000000001 -0.625 0  0.125 -0.625 0  0.175 -0.625 0  0.225 -0.625 0  -0.225 -0.575 0  -0.175 -0.575 0  -0.125 -0.575 0  -0.07500000000000001 -0.575 0  -0.02499999999999999 -0.575 0  0.02500000000000002 -0.575 0  0.07500000000000001 -0.575 0  0.125 -0.575 0  0.175 -0.575 0  0.225 -0.575 0  -0.225 -0.525 0  -0.175 -0.525 0  -0.125 -0.525 0  -0.07500000000000001 -0.525 0  -0.02499999999999999 -0.525 0  0.02500000000000002 -0.525 0  0.07500000000000001 -0.525 0  0.125 -0.525 0  0.175 -0.525 0  0.225 -0.525 0  -0.225 -0.475 0  -0.175 -0.475 0  -0.125 -0.475 0  -0.07500000000000001 -0.475 0  -0.02499999999999999 -0.475 0  0.02500000000000002 -0.475 0  0.07500000000000001 -0.475 0  0.125 -0.475 0  0.175 -0.475 0  0.225 -0.475 0  -0.225 -0.425 0  -0.175 -0.425 0  -0.125 -0.425 0  -0.07500000000000001 -0.425 0  -0.02499999999999999 -0.425 0  0.02500000000000002 -0.425 0  0.07500000000000001 -0.425 0  0.125 -0.425 0  0.175 -0.425 0  0.225 -0.425 0  -0.225 -0.375 0  -0.175 -0.375 0  -0.125 -0.375 0  -0.07500000000000001 -0.375 0  -0.02499999999999999 -0.375 0  0.02500000000000002 -0.375 0  0.07500000000000001 -0.375 0  0.125 -0.375 0  0.175 -0.375 0  0.225 -0.375 0  -0.225 -0.325 0  -0.175 -0.325 0  -0.125 -0.325 0  -0.07500000000000001 -0.325 0  -0.02499999999999999 -0.325 0  0.02500000000000002 -0.325 0  0.07500000000000001 -0.325 0  0.125 -0.325 0  0.175 -0.325 0  0.225 -0.325 0  -0.225 -0.275 0  -0.175 -0.275 0  -0.125 -0.275 0  -0.07500000000000001 -0.275 0  -0.02499999999999999 -0.275 0  0.02500000000000002 -0.275 0  0.07500000000000001 -0.275 0  0.125 -0.275 0  0.175 -0.275 0  0.225 -0.275 0  -0.225 -0.225 0  -0.175 -0.225 0  -0.125 -0.225 0  -0.07500000000000001 -0.225 0  -0.02499999999999999 -0.225 0  0.02500000000000002 -0.225 0  0.07500000000000001 -0.225 0  0.125 -0.225 0  0.175 -0.225 0  0.225 -0.225 0  -0.225 -0.175 0  -0.175 -0.175 0  -0.125 -0.175 0  -0.07500000000000001 -0.175 0  -0.02499999999999999 -0.175 0  0.02500000000000002 -0.175 0  0.07500000000000001 -0.175 0  0.125 -0.175 0  0.175 -0.175 0  0.225 -0.175 0  -0.225 -0.125 0  -0.175 -0.125 0  -0.125 -0.125 0  -0.07500000000000001 -0.125 0  -0.02499999999999999 -0.125 0  0.02500000000000002 -0.125 0  0.07500000000000001 -0.125 0  0.125 -0.125 0  0.175 -0.125 0  0.225 -0.125 0  -0.225 -0.07499999999999996 0  -0.175 -0.07499999999999996 0  -0.125 -0.07499999999999996 0  -0.07500000000000001 -0.07499999999999996 0  -0.02499999999999999 -0.07499999999999996 0  0.02500000000000002 -0.07499999999999996 0  0.07500000000000001 -0.07499999999999996 0  0.125 -0.07499999999999996 0  0.175 -0.07499999999999996 0  0.225 -0.07499999999999996 0  -0.225 -0.02500000000000002 0  -0.175 -0.02500000000000002 0  -0.125 -0.02500000000000002 0  -0.07500000000000001 -0.02500000000000002 0  -0.02499999999999999 -0.02500000000000002 0  0.02500000000000002 -0.02500000000000002 0  0.07500000000000001 -0.02500000000000002 0  0.125 -0.02500000000000002 0  0.175 -0.02500000000000002 0  0.225 -0.02500000000000002 0  </DataArray>
</Points>
<Cells>
[...]
<PointData  Vectors="displacement"> 
<DataArray  type="Float64"  Name="displacement"  NumberOfComponents="3" format="ascii">-6.3194576300206122e-33 -1.2197274440461913e-17 0.0000000000000000e+00  2.1666711874356379e-32 -1.0164395367051593e-18 0.0000000000000000e+00  1.6221822041347553e-34 -4.1630345868568738e-18 0.0000000000000000e+00  1.8055593228630322e-32 -3.5575383784680583e-18 0.0000000000000000e+00  2.1862760019335993e-32 2.5927660777972920e-18 0.0000000000000000e+00  5.4166779685890947e-33 -6.6068569885835349e-18 0.0000000000000000e+00  3.8033340126045864e-32 1.0023443790672560e-17 0.0000000000000000e+00  -5.8680677993048524e-33 -8.1315162936412740e-18 0.0000000000000000e+00  3.6299249381251827e-33 3.4304834363799125e-18 0.0000000000000000e+00  -2.7083389842945484e-33 -6.0986372202309578e-18 0.0000000000000000e+00  1.6362881363446222e-33 -3.0493186101154774e-18 0.0000000000000000e+00  3.6111186457260700e-33 -3.6563711693808058e-02 0.0000000000000000e+00  7.0387899284822492e-17 -3.6563711693808038e-02 0.0000000000000000e+00  1.0138360138478649e-16 -3.6563711693808003e-02 0.0000000000000000e+00  1.3471576264413862e-16 -3.6563711693807996e-02 0.0000000000000000e+00  1.5057412223916689e-16 -3.6563711693807968e-02 0.0000000000000000e+00  1.5938238673481143e-16 -3.6563711693807933e-02 0.0000000000000000e+00  1.3177888031557683e-16 -3.6563711693807954e-02 0.0000000000000000e+00  7.1165310677378502e-17 -3.6563711693807913e-02 0.0000000000000000e+00  3.8571083894059541e-17 -3.6563711693807913e-02 0.0000000000000000e+00  1.2344589419260608e-17 -3.6563711693807892e-02 0.0000000000000000e+00  -3.1596250363770341e-33 -3.6563711693807920e-02 0.0000000000000000e+00  2.6421802157040207e-33 -7.3130994011894893e-02 0.0000000000000000e+00  8.3279386851788970e-17 -7.3130994011894837e-02 0.0000000000000000e+00  1.8847879268153687e-16 -7.3130994011894809e-02 0.0000000000000000e+00  2.5441321276130878e-16 -7.3130994011894740e-02 0.0000000000000000e+00  2.7365053991826821e-16 -7.3130994011894643e-02 0.0000000000000000e+00  2.5569267188866636e-16 -7.3130994011894573e-02 0.0000000000000000e+00  2.0528444400454362e-16 -7.3130994011894532e-02 0.0000000000000000e+00  1.4921763909921802e-16 -7.3130994011894504e-02 0.0000000000000000e+00  8.9323579096965369e-17 -7.3130994011894518e-02 0.0000000000000000e+00  4.4673563751931908e-17 -7.3130994011894518e-02 0.0000000000000000e+00  -7.0932687683904852e-34 -7.3130994011894629e-02 0.0000000000000000e+00  3.2500067811534594e-32 -1.0970539556445327e-01 0.0000000000000000e+00  9.1462427109229091e-17 -1.0970539556445323e-01 0.0000000000000000e+00  1.9475935741313835e-16 -1.0970539556445325e-01 0.0000000000000000e+00  2.9233771261611051e-16 -1.0970539556445308e-01 0.0000000000000000e+00  3.2559110532495457e-16 -1.0970539556445295e-01 0.0000000000000000e+00  3.1461343303174448e-16 -1.0970539556445280e-01 0.0000000000000000e+00  2.4952169039995381e-16 -1.0970539556445282e-01 0.0000000000000000e+00  1.6560611602237826e-16 -1.0970539556445275e-01 0.0000000000000000e+00  1.1761273655589719e-16 -1.0970539556445270e-01 0.0000000000000000e+00  4.7143974094352668e-17 -1.0970539556445279e-01 0.0000000000000000e+00  -2.7083389842945490e-33 -1.0970539556445283e-01 0.0000000000000000e+00  -1.2787051734449572e-32 -1.4629042106922821e-01 0.0000000000000000e+00  1.3578160899748183e-16 -1.4629042106922796e-01 0.0000000000000000e+00  2.1762733803373543e-16 -1.4629042106922799e-01 0.0000000000000000e+00  2.6542927244389078e-16 -1.4629042106922779e-01 0.0000000000000000e+00  3.0787201204890837e-16 -1.4629042106922754e-01 0.0000000000000000e+00  3.0393649854685141e-16 -1.4629042106922729e-01 0.0000000000000000e+00  2.6073705935002157e-16 -1.4629042106922743e-01 0.0000000000000000e+00  2.0411295864488790e-16 -1.4629042106922741e-01 0.0000000000000000e+00  1.4529903642800098e-16 -1.4629042106922724e-01 0.0000000000000000e+00  6.8639760616448327e-17 -1.4629042106922721e-01 0.0000000000000000e+00  1.0557729152782567e-32 -1.4629042106922729e-01 0.0000000000000000e+00  9.0277966143151612e-33 -1.8288950974376603e-01 0.0000000000000000e+00  1.3342676998727338e-16 -1.8288950974376614e-01 0.0000000000000000e+00  2.1055841766799920e-16 -1.8288950974376575e-01 0.0000000000000000e+00  3.1151839292031281e-16 -1.8288950974376567e-01 0.0000000000000000e+00  3.1478703019372464e-16 -1.8288950974376553e-01 0.0000000000000000e+00  3.1490674930224367e-16 -1.8288950974376528e-01 0.0000000000000000e+00  3.2173245144714049e-16 -1.8288950974376514e-01 0.0000000000000000e+00  2.4279246902991250e-16 -1.8288950974376517e-01 0.0000000000000000e+00  1.4092854272859924e-16 -1.8288950974376481e-01 0.0000000000000000e+00  5.7820335164760993e-17 -1.8288950974376503e-01 0.0000000000000000e+00  3.8587749815389896e-33 -1.8288950974376483e-01 0.0000000000000000e+00  3.5642064630033026e-33 -2.1950601410149551e-01 0.0000000000000000e+00  1.4541793896501006e-16 -2.1950601410149531e-01 0.0000000000000000e+00  2.3003667591079858e-16 -2.1950601410149520e-01 0.0000000000000000e+00  3.3601608813971763e-16 -2.1950601410149487e-01 0.0000000000000000e+00  3.5975660593568544e-16 -2.1950601410149481e-01 0.0000000000000000e+00  3.5871135320354429e-16 -2.1950601410149437e-01 0.0000000000000000e+00  2.9388553560350620e-16 -2.1950601410149428e-01 0.0000000000000000e+00  2.4415397480039399e-16 -2.1950601410149403e-01 0.0000000000000000e+00  1.5998697313959618e-16 -2.1950601410149409e-01 0.0000000000000000e+00  2.6437177207861656e-17 -2.1950601410149415e-01 0.0000000000000000e+00  -1.7410750613322109e-33 -2.1950601410149403e-01 0.0000000000000000e+00  1.3541694921472749e-32 -2.5614317928236685e-01 0.0000000000000000e+00  1.2767570533791031e-16 -2.5614317928236668e-01 0.0000000000000000e+00  2.7564882098401140e-16 -2.5614317928236652e-01 0.0000000000000000e+00  3.4922238365718770e-16 -2.5614317928236602e-01 0.0000000000000000e+00  4.0472618167764620e-16 -2.5614317928236574e-01 0.0000000000000000e+00  3.9847833952074834e-16 -2.5614317928236563e-01 0.0000000000000000e+00  3.0405035318056989e-16 -2.5614317928236535e-01 0.0000000000000000e+00  2.0103994088477206e-16 -2.5614317928236519e-01 0.0000000000000000e+00  1.0031674588591233e-16 -2.5614317928236513e-01 0.0000000000000000e+00  5.9531556713374548e-17 -2.5614317928236524e-01 0.0000000000000000e+00  1.1736135598609714e-32 -2.5614317928236541e-01 0.0000000000000000e+00  -9.1009634482169045e-33 -2.9280412304548559e-01 0.0000000000000000e+00  9.8554817864005704e-17 -2.9280412304548514e-01 0.0000000000000000e+00  2.7414145211926007e-16 -2.9280412304548492e-01 0.0000000000000000e+00  4.0169938331039869e-16 -2.9280412304548470e-01 0.0000000000000000e+00  4.6445477758311538e-16 -2.9280412304548442e-01 0.0000000000000000e+00  4.3693996430049284e-16 -2.9280412304548420e-01 0.0000000000000000e+00  3.4158564582634525e-16 -2.9280412304548353e-01 0.0000000000000000e+00  2.1942558189083355e-16 -2.9280412304548376e-01 0.0000000000000000e+00  1.2644990678884261e-16 -2.9280412304548370e-01 0.0000000000000000e+00  8.5855517402074860e-17 -2.9280412304548359e-01 0.0000000000000000e+00  -1.9490368047691130e-32 -2.9280412304548387e-01 0.0000000000000000e+00  7.2222372914521399e-33 -3.2949181654708976e-01 0.0000000000000000e+00  1.6749375019019853e-16 -3.2949181654708964e-01 0.0000000000000000e+00  2.8698169831781715e-16 -3.2949181654708937e-01 0.0000000000000000e+00  3.5164217864320986e-16 -3.2949181654708898e-01 0.0000000000000000e+00  3.5629740780168848e-16 -3.2949181654708859e-01 0.0000000000000000e+00  4.1396764592098646e-16 -3.2949181654708792e-01 0.0000000000000000e+00  3.4851252293860628e-16 -3.2949181654708770e-01 0.0000000000000000e+00  2.9916658861989436e-16 -3.2949181654708765e-01 0.0000000000000000e+00  2.2746074026634840e-16 -3.2949181654708792e-01 0.0000000000000000e+00  1.2484316721991846e-16 -3.2949181654708820e-01 0.0000000000000000e+00  -5.1909830532312257e-33 -3.2949181654708781e-01 0.0000000000000000e+00  7.1938854015696955e-33 -3.6620906602238529e-01 0.0000000000000000e+00  1.9465868492601163e-16 -3.6620906602238568e-01 0.0000000000000000e+00  3.4246061526570057e-16 -3.6620906602238490e-01 0.0000000000000000e+00  3.8217918377281640e-16 -3.6620906602238451e-01 0.0000000000000000e+00  3.7359339847167277e-16 -3.6620906602238429e-01 0.0000000000000000e+00  3.8390920916667589e-16 -3.6620906602238401e-01 0.0000000000000000e+00  3.8502393953833145e-16 -3.6620906602238334e-01 0.0000000000000000e+00  3.0686729783036217e-16 -3.6620906602238362e-01 0.0000000000000000e+00  2.3847456030221328e-16 -3.6620906602238329e-01 0.0000000000000000e+00  1.1835664078962931e-16 -3.6620906602238362e-01 0.0000000000000000e+00  1.8313530274753604e-32 -3.6620906602238362e-01 0.0000000000000000e+00  1.8055593228630350e-33 -4.0295849548417223e-01 0.0000000000000000e+00  2.5286738039488689e-16 -4.0295849548417156e-01 0.0000000000000000e+00  2.7621126526476013e-16 -4.0295849548417184e-01 0.0000000000000000e+00  4.1067481433618779e-16 -4.0295849548417084e-01 0.0000000000000000e+00  4.1856297421363382e-16 -4.0295849548417051e-01 0.0000000000000000e+00  4.2953821101670376e-16 -4.0295849548417023e-01 0.0000000000000000e+00  3.4444209971217601e-16 -4.0295849548416940e-01 0.0000000000000000e+00  3.1978840850629159e-16 -4.0295849548416973e-01 0.0000000000000000e+00  2.6981745445176394e-16 -4.0295849548416973e-01 0.0000000000000000e+00  1.0902652058918047e-16 -4.0295849548417018e-01 0.0000000000000000e+00  -3.6111186457260693e-33 -4.0295849548417001e-01 0.0000000000000000e+00  -5.5002666371921031e-33 -4.3974253054493068e-01 0.0000000000000000e+00  1.3088781350653119e-16 -4.3974253054493084e-01 0.0000000000000000e+00  3.3926026582019729e-16 -4.3974253054493051e-01 0.0000000000000000e+00  4.1056357852876609e-16 -4.3974253054492957e-01 0.0000000000000000e+00  5.8468163008871901e-16 -4.3974253054492929e-01 0.0000000000000000e+00  5.9282008021373192e-16 -4.3974253054492907e-01 0.0000000000000000e+00  5.3206990460666488e-16 -4.3974253054492862e-01 0.0000000000000000e+00  3.3404985195698991e-16 -4.3974253054492890e-01 0.0000000000000000e+00  2.1579788671666086e-16 -4.3974253054492901e-01 0.0000000000000000e+00  1.7057215381493522e-16 -4.3974253054492873e-01 0.0000000000000000e+00  8.9985771833090123e-33 -4.3974253054492929e-01 0.0000000000000000e+00  1.2638915260041230e-32 -4.7656338346211952e-01 0.0000000000000000e+00  9.2177221544815780e-17 -4.7656338346211879e-01 0.0000000000000000e+00  3.0492628863792691e-16 -4.7656338346211874e-01 0.0000000000000000e+00  5.3403662283874438e-16 -4.7656338346211807e-01 0.0000000000000000e+00  6.5378844732542883e-16 -4.7656338346211796e-01 0.0000000000000000e+00  6.7233041122763988e-16 -4.7656338346211707e-01 0.0000000000000000e+00  5.5143194843826200e-16 -4.7656338346211696e-01 0.0000000000000000e+00  4.7185624546552469e-16 -4.7656338346211691e-01 0.0000000000000000e+00  3.1836919595692834e-16 -4.7656338346211774e-01 0.0000000000000000e+00  1.7330691414195004e-16 -4.7656338346211752e-01 0.0000000000000000e+00  -2.4868758485996298e-32 -4.7656338346211696e-01 0.0000000000000000e+00  4.7352008939665297e-32 -5.1342303949886481e-01 0.0000000000000000e+00  1.8962686296050811e-16 -5.1342303949886536e-01 0.0000000000000000e+00  4.2202217234763093e-16 -5.1342303949886514e-01 0.0000000000000000e+00  5.7015275869936036e-16 -5.1342303949886436e-01 0.0000000000000000e+00  5.8240532645678587e-16 -5.1342303949886392e-01 0.0000000000000000e+00  5.6360780742728014e-16 -5.1342303949886292e-01 0.0000000000000000e+00  6.7108443799541287e-16 -5.1342303949886270e-01 0.0000000000000000e+00  6.5910348056436743e-16 -5.1342303949886303e-01 0.0000000000000000e+00  4.3032852943139675e-16 -5.1342303949886303e-01 0.0000000000000000e+00  1.9020355398360803e-16 -5.1342303949886292e-01 0.0000000000000000e+00  2.1150837782109836e-32 -5.1342303949886314e-01 0.0000000000000000e+00  -7.2222372914521290e-33 -5.5032324468416183e-01 0.0000000000000000e+00  3.1307730716854687e-16 -5.5032324468416216e-01 0.0000000000000000e+00  4.9851501157961929e-16 -5.5032324468416116e-01 0.0000000000000000e+00  6.6214126928798175e-16 -5.5032324468416138e-01 0.0000000000000000e+00  6.7108443799541287e-16 -5.5032324468416027e-01 0.0000000000000000e+00  6.5311532774205477e-16 -5.5032324468416038e-01 0.0000000000000000e+00  7.4062038816296908e-16 -5.5032324468416027e-01 0.0000000000000000e+00  6.2597775534460213e-16 -5.5032324468415972e-01 0.0000000000000000e+00  4.3585896488361830e-16 -5.5032324468416016e-01 0.0000000000000000e+00  1.6886163284227333e-16 -5.5032324468415961e-01 0.0000000000000000e+00  7.2222372914521262e-33 -5.5032324468415983e-01 0.0000000000000000e+00  7.9048509773919511e-32 -5.8726549504801839e-01 0.0000000000000000e+00  3.7656766228634970e-16 -5.8726549504801695e-01 0.0000000000000000e+00  4.6928703692367372e-16 -5.8726549504801839e-01 0.0000000000000000e+00  7.0748878242023522e-16 -5.8726549504801673e-01 0.0000000000000000e+00  7.7756488077674357e-16 -5.8726549504801628e-01 0.0000000000000000e+00  8.0044966508663772e-16 -5.8726549504801651e-01 0.0000000000000000e+00  6.3206649520755845e-16 -5.8726549504801639e-01 0.0000000000000000e+00  4.3601689101875869e-16 -5.8726549504801573e-01 0.0000000000000000e+00  2.9971722269786463e-16 -5.8726549504801506e-01 0.0000000000000000e+00  9.1874989059954189e-17 -5.8726549504801517e-01 0.0000000000000000e+00  -1.7192815141421762e-33 -5.8726549504801584e-01 0.0000000000000000e+00  1.2638915260041233e-32 -6.2425102739793403e-01 0.0000000000000000e+00  1.6805046804930296e-16 -6.2425102739793359e-01 0.0000000000000000e+00  5.0928950013330707e-16 -6.2425102739793326e-01 0.0000000000000000e+00  6.7887185645087868e-16 -6.2425102739793303e-01 0.0000000000000000e+00  8.7463506213938520e-16 -6.2425102739793281e-01 0.0000000000000000e+00  8.4802175197954202e-16 -6.2425102739793203e-01 0.0000000000000000e+00  5.8953607063387284e-16 -6.2425102739793159e-01 0.0000000000000000e+00  3.8262291059305090e-16 -6.2425102739793148e-01 0.0000000000000000e+00  1.9624530976395156e-16 -6.2425102739793115e-01 0.0000000000000000e+00  8.2374176125139042e-17 -6.2425102739793137e-01 0.0000000000000000e+00  -1.2078893220920184e-33 -6.2425102739793215e-01 0.0000000000000000e+00  4.5477525444612643e-32 -6.6128081169357389e-01 0.0000000000000000e+00  1.3828260657236897e-16 -6.6128081169357422e-01 0.0000000000000000e+00  3.0440943579173394e-16 -6.6128081169357378e-01 0.0000000000000000e+00  5.8996725519013767e-16 -6.6128081169357411e-01 0.0000000000000000e+00  6.8981557679260007e-16 -6.6128081169357333e-01 0.0000000000000000e+00  6.3454665770507035e-16 -6.6128081169357267e-01 0.0000000000000000e+00  4.3220151314562879e-16 -6.6128081169357156e-01 0.0000000000000000e+00  2.6759802752399464e-16 -6.6128081169357200e-01 0.0000000000000000e+00  2.2343075603674509e-16 -6.6128081169357178e-01 0.0000000000000000e+00  1.1226451317575031e-16 -6.6128081169357156e-01 0.0000000000000000e+00  7.9638062990565896e-33 -6.6128081169357256e-01 0.0000000000000000e+00  -3.0694508488671593e-32 -6.9835554506664255e-01 0.0000000000000000e+00  1.6643324643484321e-16 -6.9835554506664321e-01 0.0000000000000000e+00  1.4249947710470552e-16 -6.9835554506664244e-01 0.0000000000000000e+00  1.5765666733174668e-16 -6.9835554506664299e-01 0.0000000000000000e+00  2.3444520149489395e-16 -6.9835554506664244e-01 0.0000000000000000e+00  1.7469758279438842e-16 -6.9835554506664077e-01 0.0000000000000000e+00  2.4041427031278958e-16 -6.9835554506664110e-01 0.0000000000000000e+00  1.9053308487476725e-16 -6.9835554506664044e-01 0.0000000000000000e+00  1.7987830296784260e-16 -6.9835554506664010e-01 0.0000000000000000e+00  1.4824573505009602e-16 -6.9835554506664044e-01 0.0000000000000000e+00  -1.0381966106462451e-32 -6.9835554506664055e-01 0.0000000000000000e+00  -6.7708474607363624e-33 -7.3547564752283434e-01 0.0000000000000000e+00  7.1088108443643915e-17 -7.3547564752283368e-01 0.0000000000000000e+00  -7.9955434393695143e-18 -7.3547564752283390e-01 0.0000000000000000e+00  -9.5158292530941283e-17 -7.3547564752283434e-01 0.0000000000000000e+00  -4.0782125370403407e-16 -7.3547564752283290e-01 0.0000000000000000e+00  -3.1266296117309271e-16 -7.3547564752283257e-01 0.0000000000000000e+00  -1.0543798170066292e-16 -7.3547564752283179e-01 0.0000000000000000e+00  6.7970208950672308e-17 -7.3547564752283201e-01 0.0000000000000000e+00  1.0195531342600851e-16 -7.3547564752283134e-01 0.0000000000000000e+00  1.4217621688728793e-16 -7.3547564752283223e-01 0.0000000000000000e+00  -2.8888949165808516e-32 -7.3547564752283190e-01 0.0000000000000000e+00  2.2260726172999391e-17 -1.8281624100030945e-02 0.0000000000000000e+00  4.9549797428127615e-17 -1.8281624100030935e-02 0.0000000000000000e+00  6.0535967344103834e-17 -1.8281624100030928e-02 0.0000000000000000e+00  7.6101411526394969e-17 -1.8281624100030921e-02 0.0000000000000000e+00  8.0210156730937602e-17 -1.8281624100030914e-02 0.0000000000000000e+00  7.6291323116945014e-17 -1.8281624100030890e-02 0.0000000000000000e+00  4.8220593088382878e-17 -1.8281624100030886e-02 0.0000000000000000e+00  2.9511284080250641e-17 -1.8281624100030893e-02 0.0000000000000000e+00  1.5544971749540496e-17 -1.8281624100030886e-02 0.0000000000000000e+00  -4.4370112427640956e-19 -1.8281624100030897e-02 0.0000000000000000e+00  3.5773924250097153e-17 -5.4846659041028763e-02 0.0000000000000000e+00  1.1159673980287697e-16 -5.4846659041028693e-02 0.0000000000000000e+00  1.8529270005005996e-16 -5.4846659041028631e-02 0.0000000000000000e+00  1.9792629323529138e-16 -5.4846659041028624e-02 0.0000000000000000e+00  2.2108788074154880e-16 -5.4846659041028596e-02 0.0000000000000000e+00  1.9670749634610843e-16 -5.4846659041028506e-02 0.0000000000000000e+00  1.3744503954446741e-16 -5.4846659041028492e-02 0.0000000000000000e+00  8.2118355704003820e-17 -5.4846659041028527e-02 0.0000000000000000e+00  4.2794683735735838e-17 -5.4846659041028527e-02 0.0000000000000000e+00  1.3806613839162810e-17 -5.4846659041028492e-02 0.0000000000000000e+00  4.9737659656351443e-17 -9.1417043188982430e-02 0.0000000000000000e+00  1.3801143216574877e-16 -9.1417043188982347e-02 0.0000000000000000e+00  2.3372147392678004e-16 -9.1417043188982278e-02 0.0000000000000000e+00  2.9550887067461294e-16 -9.1417043188982264e-02 0.0000000000000000e+00  3.0741743417396274e-16 -9.1417043188982125e-02 0.0000000000000000e+00  2.6252724657332623e-16 -9.1417043188982014e-02 0.0000000000000000e+00  1.8791441738487983e-16 -9.1417043188981931e-02 0.0000000000000000e+00  1.3686392617333956e-16 -9.1417043188981972e-02 0.0000000000000000e+00  7.0227949617422068e-17 -9.1417043188982000e-02 0.0000000000000000e+00  2.7461945878272965e-17 -9.1417043188981945e-02 0.0000000000000000e+00  5.4973202778072729e-17 -1.2799630603027207e-01 0.0000000000000000e+00  1.5581431595118681e-16 -1.2799630603027204e-01 0.0000000000000000e+00  2.5688306143303761e-16 -1.2799630603027196e-01 0.0000000000000000e+00  3.0741743417396303e-16 -1.2799630603027187e-01 0.0000000000000000e+00  3.2005102735919450e-16 -1.2799630603027159e-01 0.0000000000000000e+00  2.8024366445574659e-16 -1.2799630603027140e-01 0.0000000000000000e+00  2.1023617409411211e-16 -1.2799630603027137e-01 0.0000000000000000e+00  1.8108150232164952e-16 -1.2799630603027140e-01 0.0000000000000000e+00  8.9326630516916298e-17 -1.2799630603027137e-01 0.0000000000000000e+00  3.3480109728852492e-17 -1.2799630603027140e-01 0.0000000000000000e+00  6.2826517460654491e-17 -1.6458792231118083e-01 0.0000000000000000e+00  2.0001155260043657e-16 -1.6458792231118086e-01 0.0000000000000000e+00  2.3582707279098526e-16 -1.6458792231118063e-01 0.0000000000000000e+00  3.1086082255616107e-16 -1.6458792231118041e-01 0.0000000000000000e+00  2.9478384098873147e-16 -1.6458792231118033e-01 0.0000000000000000e+00  3.2678021602139399e-16 -1.6458792231118000e-01 0.0000000000000000e+00  2.5644801791644038e-16 -1.6458792231117994e-01 0.0000000000000000e+00  1.9371509550688059e-16 -1.6458792231117991e-01 0.0000000000000000e+00  9.4698853604820861e-17 -1.6458792231117980e