<?xml version="1.0"?>
<VTKFile type="UnstructuredGrid"  version="0.1"  >
<UnstructuredGrid>
<Piece  NumberOfPoints="431" NumberOfCells="800">
<Points>
<DataArray  type="Float64"  NumberOfComponents="3"  format="ascii">-0.75 -3 0  -0.6 -3 0  -0.45 -3 0  -0.3 -3 0  -0.15 -3 0  0 -3 0  0.15 -3 0  0.3 -3 0  0.45 -3 0  0.6000000000000001 -3 0  0.75 -3 0  -0.75 -2.85 0  -0.6 -2.85 0  -0.45 -2.85 0  -0.3 -2.85 0  -0.15 -2.85 0  0 -2.85 0  0.15 -2.85 0  0.3 -2.85 0  0.45 -2.85 0  0.6000000000000001 -2.85 0  0.75 -2.85 0  -0.75 -2.7 0  -0.6 -2.7 0  -0.45 -2.7 0  -0.3 -2.7 0  -0.15 -2.7 0  0 -2.7 0  0.15 -2.7 0  0.3 -2.7 0  0.45 -2.7 0  0.6000000000000001 -2.7 0  0.75 -2.7 0  -0.75 -2.55 0  -0.6 -2.55 0  -0.45 -2.55 0  -0.3 -2.55 0  -0.15 -2.55 0  0 -2.55 0  0.15 -2.55 0  0.3 -2.55 0  0.45 -2.55 0  0.6000000000000001 -2.55 0  0.75 -2.55 0  -0.75 -2.4 0  -0.6 -2.4 0  -0.45 -2.4 0  -0.3 -2.4 0  -0.15 -2.4 0  0 -2.4 0  0.15 -2.4 0  0.3 -2.4 0  0.45 -2.4 0  0.6000000000000001 -2.4 0  0.75 -2.4 0  -0.75 -2.25 0  -0.6 -2.25 0  -0.45 -2.25 0  -0.3 -2.25 0  -0.15 -2.25 0  0 -2.25 0  0.15 -2.25 0  0.3 -2.25 0  0.45 -2.25 0  0.6000000000000001 -2.25 0  0.75 -2.25 0  -0.75 -2.1 0  -0.6 -2.1 0  -0.45 -2.1 0  -0.3 -2.1 0  -0.15 -2.1 0  0 -2.1 0  0.15 -2.1 0  0.3 -2.1 0  0.45 -2.1 0  0.6000000000000001 -2.1 0  0.75 -2.1 0  -0.75 -1.95 0  -0.6 -1.95 0  -0.45 -1.95 0  -0.3 -1.95 0  -0.15 -1.95 0  0 -1.95 0  0.15 -1.95 0  0.3 -1.95 0  0.45 -1.95 0  0.6000000000000001 -1.95 0  0.75 -1.95 0  -0.75 -1.8 0  -0.6 -1.8 0  -0.45 -1.8 0  -0.3 -1.8 0  -0.15 -1.8 0  0 -1.8 0  0.15 -1.8 0  0.3 -1.8 0  0.45 -1.8 0  0.6000000000000001 -1.8 0  0.75 -1.8 0  -0.75 -1.65 0  -0.6 -1.65 0  -0.45 -1.65 0  -0.3 -1.65 0  -0.15 -1.65 0  0 -1.65 0  0.15 -1.65 0  0.3 -1.65 0  0.45 -1.65 0  0.6000000000000001 -1.65 0  0.75 -1.65 0  -0.75 -1.5 0  -0.6 -1.5 0  -0.45 -1.5 0  -0.3 -1.5 0  -0.15 -1.5 0  0 -1.5 0  0.15 -1.5 0  0.3 -1.5 0  0.45 -1.5 0  0.6000000000000001 -1.5 0  0.75 -1.5 0  -0.75 -1.35 0  -0.6 -1.35 0  -0.45 -1.35 0  -0.3 -1.35 0  -0.15 -1.35 0  0 -1.35 0  0.15 -1.35 0  0.3 -1.35 0  0.45 -1.35 0  0.6000000000000001 -1.35 0  0.75 -1.35 0  -0.75 -1.2 0  -0.6 -1.2 0  -0.45 -1.2 0  -0.3 -1.2 0  -0.15 -1.2 0  0 -1.2 0  0.15 -1.2 0  0.3 -1.2 0  0.45 -1.2 0  0.6000000000000001 -1.2 0  0.75 -1.2 0  -0.75 -1.05 0  -0.6 -1.05 0  -0.45 -1.05 0  -0.3 -1.05 0  -0.15 -1.05 0  0 -1.05 0  0.15 -1.05 0  0.3 -1.05 0  0.45 -1.05 0  0.6000000000000001 -1.05 0  0.75 -1.05 0  -0.75 -0.8999999999999999 0  -0.6 -0.8999999999999999 0  -0.45 -0.8999999999999999 0  -0.3 -0.8999999999999999 0  -0.15 -0.8999999999999999 0  0 -0.8999999999999999 0  0.15 -0.8999999999999999 0  0.3 -0.8999999999999999 0  0.45 -0.8999999999999999 0  0.6000000000000001 -0.8999999999999999 0  0.75 -0.8999999999999999 0  -0.75 -0.75 0  -0.6 -0.75 0  -0.45 -0.75 0  -0.3 -0.75 0  -0.15 -0.75 0  0 -0.75 0  0.15 -0.75 0  0.3 -0.75 0  0.45 -0.75 0  0.6000000000000001 -0.75 0  0.75 -0.75 0  -0.75 -0.6000000000000001 0  -0.6 -0.6000000000000001 0  -0.45 -0.6000000000000001 0  -0.3 -0.6000000000000001 0  -0.15 -0.6000000000000001 0  0 -0.6000000000000001 0  0.15 -0.6000000000000001 0  0.3 -0.6000000000000001 0  0.45 -0.6000000000000001 0  0.6000000000000001 -0.6000000000000001 0  0.75 -0.6000000000000001 0  -0.75 -0.4500000000000002 0  -0.6 -0.4500000000000002 0  -0.45 -0.4500000000000002 0  -0.3 -0.4500000000000002 0  -0.15 -0.4500000000000002 0  0 -0.4500000000000002 0  0.15 -0.4500000000000002 0  0.3 -0.4500000000000002 0  0.45 -0.4500000000000002 0  0.6000000000000001 -0.4500000000000002 0  0.75 -0.4500000000000002 0  -0.75 -0.2999999999999998 0  -0.6 -0.2999999999999998 0  -0.45 -0.2999999999999998 0  -0.3 -0.2999999999999998 0  -0.15 -0.2999999999999998 0  0 -0.2999999999999998 0  0.15 -0.2999999999999998 0  0.3 -0.2999999999999998 0  0.45 -0.2999999999999998 0  0.6000000000000001 -0.2999999999999998 0  0.75 -0.2999999999999998 0  -0.75 -0.1499999999999999 0  -0.6 -0.1499999999999999 0  -0.45 -0.1499999999999999 0  -0.3 -0.1499999999999999 0  -0.15 -0.1499999999999999 0  0 -0.1499999999999999 0  0.15 -0.1499999999999999 0  0.3 -0.1499999999999999 0  0.45 -0.1499999999999999 0  0.6000000000000001 -0.1499999999999999 0  0.75 -0.1499999999999999 0  -0.75 0 0  -0.6 0 0  -0.45 0 0  -0.3 0 0  -0.15 0 0  0 0 0  0.15 0 0  0.3 0 0  0.45 0 0  0.6000000000000001 0 0  0.75 0 0  -0.675 -2.925 0  -0.525 -2.925 0  -0.375 -2.925 0  -0.225 -2.925 0  -0.07499999999999996 -2.925 0  0.07499999999999996 -2.925 0  0.225 -2.925 0  0.375 -2.925 0  0.5249999999999999 -2.925 0  0.675 -2.925 0  -0.675 -2.775 0  -0.525 -2.775 0  -0.375 -2.775 0  -0.225 -2.775 0  -0.07499999999999996 -2.775 0  0.07499999999999996 -2.775 0  0.225 -2.775 0  0.375 -2.775 0  0.5249999999999999 -2.775 0  0.675 -2.775 0  -0.675 -2.625 0  -0.525 -2.625 0  -0.375 -2.625 0  -0.225 -2.625 0  -0.07499999999999996 -2.625 0  0.07499999999999996 -2.625 0  0.225 -2.625 0  0.375 -2.625 0  0.5249999999999999 -2.625 0  0.675 -2.625 0  -0.675 -2.475 0  -0.525 -2.475 0  -0.375 -2.475 0  -0.225 -2.475 0  -0.07499999999999996 -2.475 0  0.07499999999999996 -2.475 0  0.225 -2.475 0  0.375 -2.475 0  0.5249999999999999 -2.475 0  0.675 -2.475 0  -0.675 -2.325 0  -0.525 -2.325 0  -0.375 -2.325 0  -0.225 -2.325 0  -0.07499999999999996 -2.325 0  0.07499999999999996 -2.325 0  0.225 -2.325 0  0.375 -2.325 0  0.5249999999999999 -2.325 0  0.675 -2.325 0  -0.675 -2.175 0  -0.525 -2.175 0  -0.375 -2.175 0  -0.225 -2.175 0  -0.07499999999999996 -2.175 0  0.07499999999999996 -2.175 0  0.225 -2.175 0  0.375 -2.175 0  0.5249999999999999 -2.175 0  0.675 -2.175 0  -0.675 -2.025 0  -0.525 -2.025 0  -0.375 -2.025 0  -0.225 -2.025 0  -0.07499999999999996 -2.025 0  0.07499999999999996 -2.025 0  0.225 -2.025 0  0.375 -2.025 0  0.5249999999999999 -2.025 0  0.675 -2.025 0  -0.675 -1.875 0  -0.525 -1.875 0  -0.375 -1.875 0  -0.225 -1.875 0  -0.07499999999999996 -1.875 0  0.07499999999999996 -1.875 0  0.225 -1.875 0  0.375 -1.875 0  0.5249999999999999 -1.875 0  0.675 -1.875 0  -0.675 -1.725 0  -0.525 -1.725 0  -0.375 -1.725 0  -0.225 -1.725 0  -0.07499999999999996 -1.725 0  0.07499999999999996 -1.725 0  0.225 -1.725 0  0.375 -1.725 0  0.5249999999999999 -1.725 0  0.675 -1.725 0  -0.675 -1.575 0  -0.525 -1.575 0  -0.375 -1.575 0  -0.225 -1.575 0  -0.07499999999999996 -1.575 0  0.07499999999999996 -1.575 0  0.225 -1.575 0  0.375 -1.575 0  0.5249999999999999 -1.575 0  0.675 -1.575 0  -0.675 -1.425 0  -0.525 -1.425 0  -0.375 -1.425 0  -0.225 -1.425 0  -0.07499999999999996 -1.425 0  0.07499999999999996 -1.425 0  0.225 -1.425 0  0.375 -1.425 0  0.5249999999999999 -1.425 0  0.675 -1.425 0  -0.675 -1.275 0  -0.525 -1.275 0  -0.375 -1.275 0  -0.225 -1.275 0  -0.07499999999999996 -1.275 0  0.07499999999999996 -1.275 0  0.225 -1.275 0  0.375 -1.275 0  0.5249999999999999 -1.275 0  0.675 -1.275 0  -0.675 -1.125 0  -0.525 -1.125 0  -0.375 -1.125 0  -0.225 -1.125 0  -0.07499999999999996 -1.125 0  0.07499999999999996 -1.125 0  0.225 -1.125 0  0.375 -1.125 0  0.5249999999999999 -1.125 0  0.675 -1.125 0  -0.675 -0.9750000000000001 0  -0.525 -0.9750000000000001 0  -0.375 -0.9750000000000001 0  -0.225 -0.9750000000000001 0  -0.07499999999999996 -0.9750000000000001 0  0.07499999999999996 -0.9750000000000001 0  0.225 -0.9750000000000001 0  0.375 -0.9750000000000001 0  0.5249999999999999 -0.9750000000000001 0  0.675 -0.9750000000000001 0  -0.675 -0.8250000000000002 0  -0.525 -0.8250000000000002 0  -0.375 -0.8250000000000002 0  -0.225 -0.8250000000000002 0  -0.07499999999999996 -0.8250000000000002 0  0.07499999999999996 -0.8250000000000002 0  0.225 -0.8250000000000002 0  0.375 -0.8250000000000002 0  0.5249999999999999 -0.8250000000000002 0  0.675 -0.8250000000000002 0  -0.675 -0.6749999999999998 0  -0.525 -0.6749999999999998 0  -0.375 -0.6749999999999998 0  -0.225 -0.6749999999999998 0  -0.07499999999999996 -0.6749999999999998 0  0.07499999999999996 -0.6749999999999998 0  0.225 -0.6749999999999998 0  0.375 -0.6749999999999998 0  0.5249999999999999 -0.6749999999999998 0  0.675 -0.6749999999999998 0  -0.675 -0.5249999999999999 0  -0.525 -0.5249999999999999 0  -0.375 -0.5249999999999999 0  -0.225 -0.5249999999999999 0  -0.07499999999999996 -0.5249999999999999 0  0.07499999999999996 -0.5249999999999999 0  0.225 -0.5249999999999999 0  0.375 -0.5249999999999999 0  0.5249999999999999 -0.5249999999999999 0  0.675 -0.5249999999999999 0  -0.675 -0.375 0  -0.525 -0.375 0  -0.375 -0.375 0  -0.225 -0.375 0  -0.07499999999999996 -0.375 0  0.07499999999999996 -0.375 0  0.225 -0.375 0  0.375 -0.375 0  0.5249999999999999 -0.375 0  0.675 -0.375 0  -0.675 -0.2250000000000001 0  -0.525 -0.2250000000000001 0  -0.375 -0.2250000000000001 0  -0.225 -0.2250000000000001 0  -0.07499999999999996 -0.2250000000000001 0  0.07499999999999996 -0.2250000000000001 0  0.225 -0.2250000000000001 0  0.375 -0.2250000000000001 0  0.5249999999999999 -0.2250000000000001 0  0.675 -0.2250000000000001 0  -0.675 -0.07500000000000018 0  -0.525 -0.07500000000000018 0  -0.375 -0.07500000000000018 0  -0.225 -0.07500000000000018 0  -0.07499999999999996 -0.07500000000000018 0  0.07499999999999996 -0.07500000000000018 0  0.225 -0.07500000000000018 0  0.375 -0.07500000000000018 0  0.5249999999999999 -0.07500000000000018 0  0.675 -0.07500000000000018 0  </DataArray>
</Points>
<Cells>
[...]
<PointData  Vectors="displacement"> 
<DataArray  type="Float64"  Name="displacement"  NumberOfComponents="3" format="ascii">-3.8621315151445299e-29 -1.1102230246251554e-14 0.0000000000000000e+00  -2.6295363507367034e-29 -3.7007434154171848e-15 0.0000000000000000e+00  -1.1319332259811904e-28 -7.9508159315603576e-17 0.0000000000000000e+00  -4.2729965699471432e-29 -6.9388939039072213e-15 0.0000000000000000e+00  1.3175167619865783e-28 4.1915777597582155e-15 0.0000000000000000e+00  -3.2869204384208791e-28 -1.4802973661668739e-14 0.0000000000000000e+00  5.3322580393601206e-29 5.4788349782934089e-15 0.0000000000000000e+00  9.2033772275784613e-29 -2.3129646346357407e-15 0.0000000000000000e+00  -3.1679219716587283e-28 4.0476881106125466e-16 0.0000000000000000e+00  1.4462449929051859e-28 -2.7755575615628866e-15 0.0000000000000000e+00  -2.1036290805893641e-28 -9.2518585385429675e-15 0.0000000000000000e+00  1.3147681753683541e-28 -4.9619295558265343e+01 0.0000000000000000e+00  6.5362634257217046e-13 -4.9619295558264369e+01 0.0000000000000000e+00  -4.9786535530615736e-13 -4.9619295558264518e+01 0.0000000000000000e+00  9.7822381776289608e-13 -4.9619295558265037e+01 0.0000000000000000e+00  -4.0450802588392976e-13 -4.9619295558263524e+01 0.0000000000000000e+00  -1.8279237947525822e-12 -4.9619295558265115e+01 0.0000000000000000e+00  -6.5580559586256152e-13 -4.9619295558264191e+01 0.0000000000000000e+00  1.9376648205789482e-13 -4.9619295558263310e+01 0.0000000000000000e+00  -1.1846428429585932e-12 -4.9619295558264533e+01 0.0000000000000000e+00  -5.5787984350062923e-13 -4.9619295558264241e+01 0.0000000000000000e+00  2.0964743439930254e-28 -4.9619295558263794e+01 0.0000000000000000e+00  7.2794003096187065e-29 -9.9238591126267181e+01 0.0000000000000000e+00  9.1275315139462058e-13 -9.9238591126265547e+01 0.0000000000000000e+00  -2.1339930666644902e-13 -9.9238591126267210e+01 0.0000000000000000e+00  2.3151379995063676e-13 -9.9238591126265618e+01 0.0000000000000000e+00  -1.1959857732673862e-12 -9.9238591126267167e+01 0.0000000000000000e+00  -8.7719001955637511e-13 -9.9238591126266996e+01 0.0000000000000000e+00  -5.9918807757207933e-13 -9.9238591126267707e+01 0.0000000000000000e+00  -2.1176496082954427e-12 -9.9238591126266343e+01 0.0000000000000000e+00  -2.3173843084349786e-13 -9.9238591126264481e+01 0.0000000000000000e+00  -1.6081616732474432e-12 -9.9238591126267153e+01 0.0000000000000000e+00  -2.4323211244314543e-28 -9.9238591126265689e+01 0.0000000000000000e+00  -3.9443045261050590e-29 -1.4885788672792836e+02 0.0000000000000000e+00  5.4241387043309083e-13 -1.4885788672793015e+02 0.0000000000000000e+00  -1.0334040126580175e-12 -1.4885788672792614e+02 0.0000000000000000e+00  6.1436736018028964e-13 -1.4885788672792853e+02 0.0000000000000000e+00  -8.4163723876718956e-13 -1.4885788672792896e+02 0.0000000000000000e+00  -4.8241579073043612e-13 -1.4885788672792887e+02 0.0000000000000000e+00  -1.7525684739453859e-12 -1.4885788672792495e+02 0.0000000000000000e+00  -3.6613182774123238e-14 -1.4885788672792739e+02 0.0000000000000000e+00  -1.9025569863647655e-12 -1.4885788672792856e+02 0.0000000000000000e+00  -1.3108225097940082e-13 -1.4885788672792575e+02 0.0000000000000000e+00  9.2033772275784759e-29 -1.4885788672792776e+02 0.0000000000000000e+00  9.3112469163209681e-29 -1.9847718243621205e+02 0.0000000000000000e+00  8.8069363987869511e-13 -1.9847718243621250e+02 0.0000000000000000e+00  6.3012627444590948e-12 -1.9847718243621037e+02 0.0000000000000000e+00  -3.8769553172667474e-13 -1.9847718243620955e+02 0.0000000000000000e+00  -1.2638671647110662e-12 -1.9847718243621455e+02 0.0000000000000000e+00  -2.2217329912091665e-12 -1.9847718243621168e+02 0.0000000000000000e+00  -1.4798416142759121e-12 -1.9847718243621233e+02 0.0000000000000000e+00  -3.3191151592144848e-12 -1.9847718243621071e+02 0.0000000000000000e+00  -8.7355738780449988e-13 -1.9847718243620818e+02 0.0000000000000000e+00  9.1641528415796410e-13 -1.9847718243620696e+02 0.0000000000000000e+00  8.5834457708472288e-28 -1.9847718243620815e+02 0.0000000000000000e+00  6.2451488329996716e-29 -2.4809647847941838e+02 0.0000000000000000e+00  2.6788285700741219e-12 -2.4809647847941619e+02 0.0000000000000000e+00  -1.6496484286365946e-12 -2.4809647847941454e+02 0.0000000000000000e+00  6.1544900418368425e-13 -2.4809647847941955e+02 0.0000000000000000e+00  -2.9835552740720289e-12 -2.4809647847941210e+02 0.0000000000000000e+00  -1.4110987129154521e-13 -2.4809647847941235e+02 0.0000000000000000e+00  -1.0791966238944117e-12 -2.4809647847941341e+02 0.0000000000000000e+00  -1.5497686910119765e-12 -2.4809647847941301e+02 0.0000000000000000e+00  -2.3807861246869289e-12 -2.4809647847941517e+02 0.0000000000000000e+00  -1.8607297757472892e-12 -2.4809647847941289e+02 0.0000000000000000e+00  1.3163386121747881e-28 -2.4809647847941758e+02 0.0000000000000000e+00  1.7308229797448460e-28 -2.9771577557381801e+02 0.0000000000000000e+00  3.0972633753426922e-13 -2.9771577557382392e+02 0.0000000000000000e+00  1.7368039155829876e-12 -2.9771577557382426e+02 0.0000000000000000e+00  -1.1572174749299677e-12 -2.9771577557382091e+02 0.0000000000000000e+00  -1.6575307078177903e-12 -2.9771577557382125e+02 0.0000000000000000e+00  -3.7858654986569117e-12 -2.9771577557382147e+02 0.0000000000000000e+00  -1.8606222553054002e-12 -2.9771577557381869e+02 0.0000000000000000e+00  -1.4397834874125648e-12 -2.9771577557381511e+02 0.0000000000000000e+00  2.1515996308984263e-12 -2.9771577557381187e+02 0.0000000000000000e+00  -4.0433491352233029e-12 -2.9771577557381346e+02 0.0000000000000000e+00  3.9818693311155870e-28 -2.9771577557380823e+02 0.0000000000000000e+00  -7.8886090522101203e-29 -3.4733507596720341e+02 0.0000000000000000e+00  5.8259575883536940e-13 -3.4733507596720619e+02 0.0000000000000000e+00  -6.3139169173407721e-14 -3.4733507596721120e+02 0.0000000000000000e+00  -2.9488723988345048e-12 -3.4733507596720830e+02 0.0000000000000000e+00  -1.7151839498288439e-12 -3.4733507596721267e+02 0.0000000000000000e+00  1.0224471157312084e-13 -3.4733507596720926e+02 0.0000000000000000e+00  1.7631498104959982e-12 -3.4733507596720654e+02 0.0000000000000000e+00  -2.9244503268292359e-12 -3.4733507596720483e+02 0.0000000000000000e+00  2.0899300229006925e-12 -3.4733507596720040e+02 0.0000000000000000e+00  2.4408174783601380e-12 -3.4733507596720108e+02 0.0000000000000000e+00  3.1554436208840499e-28 -3.4733507596720034e+02 0.0000000000000000e+00  4.1951242426013808e-28 -3.9695438671379026e+02 0.0000000000000000e+00  -1.6087510025032504e-12 -3.9695438671378918e+02 0.0000000000000000e+00  4.8644922946826303e-13 -3.9695438671379759e+02 0.0000000000000000e+00  1.6773490097590895e-12 -3.9695438671379827e+02 0.0000000000000000e+00  2.2382857774896813e-13 -3.9695438671379856e+02 0.0000000000000000e+00  -5.0806919522240927e-13 -3.9695438671379515e+02 0.0000000000000000e+00  2.0168080808473849e-13 -3.9695438671379537e+02 0.0000000000000000e+00  8.1236589928945807e-12 -3.9695438671378673e+02 0.0000000000000000e+00  9.2380312003648956e-13 -3.9695438671378719e+02 0.0000000000000000e+00  1.6971334199399583e-12 -3.9695438671378832e+02 0.0000000000000000e+00  -1.8028905342258130e-28 -3.9695438671378247e+02 0.0000000000000000e+00  1.5777218104420231e-27 -4.4657372995176280e+02 0.0000000000000000e+00  -7.3218349998864476e-13 -4.4657372995175439e+02 0.0000000000000000e+00  -9.0301642379578768e-12 -4.4657372995175012e+02 0.0000000000000000e+00  -6.3143364932559693e-13 -4.4657372995175962e+02 0.0000000000000000e+00  1.6575307078177965e-13 -4.4657372995175416e+02 0.0000000000000000e+00  4.1410125738237849e-12 -4.4657372995175541e+02 0.0000000000000000e+00  9.7156410167514177e-12 -4.4657372995174853e+02 0.0000000000000000e+00  6.8120908763685530e-12 -4.4657372995175405e+02 0.0000000000000000e+00  2.1913431619097946e-12 -4.4657372995175200e+02 0.0000000000000000e+00  4.9574376998525058e-13 -4.4657372995174717e+02 0.0000000000000000e+00  3.1523621329730276e-28 -4.4657372995176178e+02 0.0000000000000000e+00  -9.3665699872612392e-28 -4.9619317515721491e+02 0.0000000000000000e+00  -4.8207664991590052e-12 -4.9619317515721997e+02 0.0000000000000000e+00  -4.0357269407737698e-13 -4.9619317515721866e+02 0.0000000000000000e+00  -3.0366112583090561e-12 -4.9619317515721838e+02 0.0000000000000000e+00  1.5133976027901568e-12 -4.9619317515721337e+02 0.0000000000000000e+00  1.4830700400770395e-12 -4.9619317515720951e+02 0.0000000000000000e+00  8.1083328164186446e-13 -4.9619317515721241e+02 0.0000000000000000e+00  5.5987676785435616e-12 -4.9619317515721440e+02 0.0000000000000000e+00  3.6668034200340382e-12 -4.9619317515721110e+02 0.0000000000000000e+00  2.4677543038562812e-12 -4.9619317515721491e+02 0.0000000000000000e+00  6.2357576317470547e-28 -4.9619317515720240e+02 0.0000000000000000e+00  3.9771737304892658e-28 -5.4581294036659381e+02 0.0000000000000000e+00  -7.1803010780094404e-13 -5.4581294036658915e+02 0.0000000000000000e+00  1.2465150952717605e-12 -5.4581294036658028e+02 0.0000000000000000e+00  1.4916593640201679e-12 -5.4581294036657459e+02 0.0000000000000000e+00  -4.4248863243483643e-12 -5.4581294036658301e+02 0.0000000000000000e+00  -1.5194512403445986e-13 -5.4581294036657528e+02 0.0000000000000000e+00  -2.6989060911737414e-12 -5.4581294036657653e+02 0.0000000000000000e+00  1.4441904436684906e-12 -5.4581294036658176e+02 0.0000000000000000e+00  6.1977235161882586e-12 -5.4581294036658585e+02 0.0000000000000000e+00  7.8386300958834563e-13 -5.4581294036657744e+02 0.0000000000000000e+00  1.0518145402946827e-28 -5.4581294036658460e+02 0.0000000000000000e+00  -6.1528927763094795e-28 -5.9543370984219962e+02 0.0000000000000000e+00  -2.9920246317345491e-13 -5.9543370984220587e+02 0.0000000000000000e+00  2.1612083474963861e-12 -5.9543370984220769e+02 0.0000000000000000e+00  -7.5512234555883799e-12 -5.9543370984220974e+02 0.0000000000000000e+00  2.7970808251915837e-12 -5.9543370984220724e+02 0.0000000000000000e+00  -4.5762260846273713e-13 -5.9543370984220849e+02 0.0000000000000000e+00  6.6078341393879833e-12 -5.9543370984220792e+02 0.0000000000000000e+00  -9.0000426283166719e-12 -5.9543370984220599e+02 0.0000000000000000e+00  1.4206119164286182e-12 -5.9543370984219621e+02 0.0000000000000000e+00  6.8935679813981755e-12 -5.9543370984220735e+02 0.0000000000000000e+00  1.5280291494388451e-27 -5.9543370984219825e+02 0.0000000000000000e+00  1.1569959943241509e-27 -6.4505763100013996e+02 0.0000000000000000e+00  2.8507075258029988e-12 -6.4505763100012382e+02 0.0000000000000000e+00  -7.6458108057627712e-12 -6.4505763100013712e+02 0.0000000000000000e+00  1.4861804654763323e-14 -6.4505763100014087e+02 0.0000000000000000e+00  -4.1366201142930932e-12 -6.4505763100012962e+02 0.0000000000000000e+00  -3.9757960867352760e-13 -6.4505763100013542e+02 0.0000000000000000e+00  -6.5102558857227821e-12 -6.4505763100012939e+02 0.0000000000000000e+00  3.3500249540036127e-12 -6.4505763100012791e+02 0.0000000000000000e+00  2.7049399996056582e-12 -6.4505763100012973e+02 0.0000000000000000e+00  -3.2215094439459957e-12 -6.4505763100012757e+02 0.0000000000000000e+00  -7.7684310236803617e-28 -6.4505763100012234e+02 0.0000000000000000e+00  -2.7036945037088562e-28 -6.9469144306242947e+02 0.0000000000000000e+00  -5.5153339490358834e-12 -6.9469144306243504e+02 0.0000000000000000e+00  -2.7241156850222829e-12 -6.9469144306242492e+02 0.0000000000000000e+00  -3.4360215671432352e-12 -6.9469144306241844e+02 0.0000000000000000e+00  -6.5076096919976764e-12 -6.9469144306243447e+02 0.0000000000000000e+00  -1.2596816456425784e-12 -6.9469144306243243e+02 0.0000000000000000e+00  1.2755779794945595e-12 -6.9469144306243015e+02 0.0000000000000000e+00  2.6494391072986718e-13 -6.9469144306242185e+02 0.0000000000000000e+00  -9.4333200134445321e-12 -6.9469144306241878e+02 0.0000000000000000e+00  9.0015202595189779e-12 -6.9469144306241571e+02 0.0000000000000000e+00  -9.0719004100416465e-28 -6.9469144306241003e+02 0.0000000000000000e+00  -4.4044733874839793e-28 -7.4435629568646107e+02 0.0000000000000000e+00  1.4096261478762101e-12 -7.4435629568644458e+02 0.0000000000000000e+00  -1.8257279032755178e-12 -7.4435629568645004e+02 0.0000000000000000e+00  -1.1213001955586494e-11 -7.4435629568645152e+02 0.0000000000000000e+00  -5.8229774431164183e-12 -7.4435629568643435e+02 0.0000000000000000e+00  -1.1988688777010031e-12 -7.4435629568643049e+02 0.0000000000000000e+00  -2.5804126356411456e-12 -7.4435629568643287e+02 0.0000000000000000e+00  -3.5939298880764134e-12 -7.4435629568644367e+02 0.0000000000000000e+00  8.1002805025530382e-12 -7.4435629568644083e+02 0.0000000000000000e+00  4.9144898985189845e-13 -7.4435629568643822e+02 0.0000000000000000e+00  -2.0247429900672635e-27 -7.4435629568645584e+02 0.0000000000000000e+00  1.1119820925549145e-27 -7.9411856270622820e+02 0.0000000000000000e+00  -2.6401950660175087e-13 -7.9411856270624105e+02 0.0000000000000000e+00  -1.6870306587213156e-11 -7.9411856270623571e+02 0.0000000000000000e+00  3.7276424287771876e-12 -7.9411856270623321e+02 0.0000000000000000e+00  -2.5729528804053401e-12 -7.9411856270623105e+02 0.0000000000000000e+00  -1.1944665116203178e-11 -7.9411856270622854e+02 0.0000000000000000e+00  -3.1490188840170421e-12 -7.9411856270622866e+02 0.0000000000000000e+00  1.6161607598694539e-12 -7.9411856270621047e+02 0.0000000000000000e+00  -9.1434438501905333e-13 -7.9411856270622877e+02 0.0000000000000000e+00  -1.9204823051995847e-12 -7.9411856270620433e+02 0.0000000000000000e+00  8.9060634403448349e-28 -7.9411856270623002e+02 0.0000000000000000e+00  0.0000000000000000e+00 -8.4418654469921921e+02 0.0000000000000000e+00  2.4977749454782953e-12 -8.4418654469921273e+02 0.0000000000000000e+00  -5.8226853198291129e-12 -8.4418654469921125e+02 0.0000000000000000e+00  -4.2010295956023158e-12 -8.4418654469922103e+02 0.0000000000000000e+00  -8.0702794125657337e-12 -8.4418654469920659e+02 0.0000000000000000e+00  -4.5051476135767233e-12 -8.4418654469921216e+02 0.0000000000000000e+00  -5.5213572171198928e-12 -8.4418654469920716e+02 0.0000000000000000e+00  8.0498479912919027e-13 -8.4418654469920932e+02 0.0000000000000000e+00  4.5749874407560363e-12 -8.4418654469919682e+02 0.0000000000000000e+00  2.3828055135435642e-13 -8.4418654469921137e+02 0.0000000000000000e+00  5.9382656386741974e-27 -8.4418654469920239e+02 0.0000000000000000e+00  1.2818989709841442e-28 -8.9521395003133409e+02 0.0000000000000000e+00  -1.5748577859177584e-11 -8.9521395003134251e+02 0.0000000000000000e+00  -7.0336955253485262e-12 -8.9521395003134444e+02 0.0000000000000000e+00  -1.5256489167175037e-11 -8.9521395003132636e+02 0.0000000000000000e+00  -7.9849740185309120e-12 -8.9521395003134160e+02 0.0000000000000000e+00  -1.0299211186130858e-11 -8.9521395003133262e+02 0.0000000000000000e+00  -6.7111977028491455e-14 -8.9521395003132466e+02 0.0000000000000000e+00  5.1194277242002707e-12 -8.9521395003132716e+02 0.0000000000000000e+00  -1.0521266251064052e-11 -8.9521395003132977e+02 0.0000000000000000e+00  -1.5208038833849669e-12 -8.9521395003134955e+02 0.0000000000000000e+00  1.2347228584416308e-27 -8.9521395003132000e+02 0.0000000000000000e+00  -1.2621774483536198e-27 -9.4925230747358364e+02 0.0000000000000000e+00  -1.3771446049709140e-11 -9.4925230747358034e+02 0.0000000000000000e+00  3.2459910198096882e-12 -9.4925230747357966e+02 0.0000000000000000e+00  -2.6000572458552921e-11 -9.4925230747357273e+02 0.0000000000000000e+00  -1.7092579820902646e-11 -9.4925230747356238e+02 0.0000000000000000e+00  -1.5458677891860701e-11 -9.4925230747355329e+02 0.0000000000000000e+00  -1.0197417180705122e-12 -9.4925230747356045e+02 0.0000000000000000e+00  -9.2332524111319223e-12 -9.4925230747356989e+02 0.0000000000000000e+00  9.2245187217685503e-13 -9.4925230747357875e+02 0.0000000000000000e+00  2.0904106353000156e-12 -9.4925230747357000e+02 0.0000000000000000e+00  -3.5190591943843623e-28 -9.4925230747358739e+02 0.0000000000000000e+00  5.2590727014734064e-28 -1.0127399166064781e+03 0.0000000000000000e+00  -3.5544028788680277e-13 -1.0127399166064941e+03 0.0000000000000000e+00  -2.9247304243420737e-11 -1.0127399166064874e+03 0.0000000000000000e+00  -2.0957466754951801e-11 -1.0127399166064691e+03 0.0000000000000000e+00  -2.5403848215124011e-11 -1.0127399166064553e+03 0.0000000000000000e+00  -1.5633137363153237e-11 -1.0127399166064524e+03 0.0000000000000000e+00  -1.2987161024460372e-11 -1.0127399166064432e+03 0.0000000000000000e+00  -3.7950007367074874e-12 -1.0127399166064603e+03 0.0000000000000000e+00  -1.6234956509832583e-11 -1.0127399166064561e+03 0.0000000000000000e+00  -9.3895476050097208e-12 -1.0127399166064632e+03 0.0000000000000000e+00  8.4145163223574581e-28 -1.0127399166064457e+03 0.0000000000000000e+00  5.5032619544654472e-15 -2.4809647770011136e+01 0.0000000000000000e+00  1.6087729007841007e-12 -2.4809647770011455e+01 0.0000000000000000e+00  7.5039284740150099e-13 -2.4809647770013978e+01 0.0000000000000000e+00  -1.5764555617678589e-12 -2.4809647770011786e+01 0.0000000000000000e+00  7.2832246953675144e-13 -2.4809647770011274e+01 0.0000000000000000e+00  -3.1048292289017990e-12 -2.4809647770014980e+01 0.0000000000000000e+00  1.5685732839590210e-13 -2.4809647770012660e+01 0.0000000000000000e+00  5.5806526886582221e-13 -2.4809647770009299e+01 0.0000000000000000e+00  2.9304083389222218e-13 -2.4809647770013267e+01 0.0000000000000000e+00  1.3226172897231892e-12 -2.4809647770011487e+01 0.0000000000000000e+00  6.2281865333181433e-13 -7.4428943301620606e+01 0.0000000000000000e+00  5.2639926979197700e-13 -7.4428943301620706e+01 0.0000000000000000e+00  -7.2818565654556800e-13 -7.4428943301621203e+01 0.0000000000000000e+00  2.2218435845803027e-12 -7.4428943301620379e+01 0.0000000000000000e+00  -4.1344275981578167e-12 -7.4428943301621203e+01 0.0000000000000000e+00  -2.4082766592982940e-12 -7.4428943301621445e+01 0.0000000000000000e+00  2.4916232103486907e-12 -7.4428943301618446e+01 0.0000000000000000e+00  -2.1384970335299048e-12 -7.4428943301620251e+01 0.0000000000000000e+00  2.9171292867638717e-13 -7.4428943301619171e+01 0.0000000000000000e+00  -1.3252454559170863e-12 -7.4428943301621871e+01 0.0000000000000000e+00  2.2414645365511190e-12 -1.2404823879571087e+02 0.0000000000000000e+00  -1.5927408015420490e-12 -1.2404823879571072e+02 0.0000000000000000e+00  1.8643307471799159e-12 -1.2404823879570912e+02 0.0000000000000000e+00  -3.2894082393090595e-13 -1.2404823879570992e+02 0.0000000000000000e+00  -1.3159981744799405e-12 -1.2404823879570982e+02 0.0000000000000000e+00  -2.6714762941942795e-12 -1.2404823879570800e+02 0.0000000000000000e+00  1.4914645977439326e-12 -1.2404823879571076e+02 0.0000000000000000e+00  -4.1234609467038158e-13 -1.2404823879570557e+02 0.0000000000000000e+00  -3.4917818229534426e-12 -1.2404823879570870e+02 0.0000000000000000e+00  1.4970365335359654e-12 -1.2404823879570806e+02 0.0000000000000000e+00  1.4724949510189841e-13 -1.7366753416852023e+02 0.0000000000000000e+00  6.4001377885541199e-12 -1.7366753416851319e+02 0.0000000000000000e+00  2.8118494328054758e-12 -1.7366753416850929e+02 0.0000000000000000e+00  8.8171877690156131e-13 -1.7366753416850926e+02 0.0000000000000000e+00  -3.8076213848286322e-12 -1.7366753416851111e+02 0.0000000000000000e+00  -3.2022622245678581e-12 -1.7366753416851151e+02 0.0000000000000000e+00  1.3159981744799751e-14 -1.7366753416850847e+02 0.0000000000000000e+00  -1.6055177728655296e-12 -1.7366753416851716e+02 0.0000000000000000e+00  -1.1756250358687492e-12 -1.7366753416851097e+02 0.0000000000000000e+00  -1.4997633760378550e-12 -1.7366753416851353e+02 0.0000000000000000e+00  5.6227492388910141e-12 -2.2328682915955989e+02 0.0000000000000000e+00  7.4704829704644697e-12 -2.2328682915956000e+02 0.0000000000000000e+00  2.2328102360343020e-12 -2.2328682915956091e+02 0.0000000000000000e+00  -3.8207813665734317e-12 -2.2328682915956935e+02 0.0000000000000000e+00  -1.4256646890199368e-12 -2.2328682915956901e+02 0.0000000000000000e+00  2.8951959838558758e-13 -2.2328682915956097e+02 0.0000000000000000e+00  -4.8911265484837848e-12 -2.2328682915956497e+02 0.00000000000