<?xml version="1.0"?>
<VTKFile type="UnstructuredGrid"  version="0.1"  >
<UnstructuredGrid>
<Piece  NumberOfPoints="1876" NumberOfCells="3600">
<Points>
<DataArray  type="Float64"  NumberOfComponents="3"  format="ascii">-0.75 -3 0  -0.65 -3 0  -0.55 -3 0  -0.45 -3 0  -0.35 -3 0  -0.25 -3 0  -0.15 -3 0  -0.05000000000000004 -3 0  0.05000000000000004 -3 0  0.15 -3 0  0.25 -3 0  0.3500000000000001 -3 0  0.45 -3 0  0.55 -3 0  0.6499999999999999 -3 0  0.75 -3 0  -0.75 -2.95 0  -0.65 -2.95 0  -0.55 -2.95 0  -0.45 -2.95 0  -0.35 -2.95 0  -0.25 -2.95 0  -0.15 -2.95 0  -0.05000000000000004 -2.95 0  0.05000000000000004 -2.95 0  0.15 -2.95 0  0.25 -2.95 0  0.3500000000000001 -2.95 0  0.45 -2.95 0  0.55 -2.95 0  0.6499999999999999 -2.95 0  0.75 -2.95 0  -0.75 -2.9 0  -0.65 -2.9 0  -0.55 -2.9 0  -0.45 -2.9 0  -0.35 -2.9 0  -0.25 -2.9 0  -0.15 -2.9 0  -0.05000000000000004 -2.9 0  0.05000000000000004 -2.9 0  0.15 -2.9 0  0.25 -2.9 0  0.3500000000000001 -2.9 0  0.45 -2.9 0  0.55 -2.9 0  0.6499999999999999 -2.9 0  0.75 -2.9 0  -0.75 -2.85 0  -0.65 -2.85 0  -0.55 -2.85 0  -0.45 -2.85 0  -0.35 -2.85 0  -0.25 -2.85 0  -0.15 -2.85 0  -0.05000000000000004 -2.85 0  0.05000000000000004 -2.85 0  0.15 -2.85 0  0.25 -2.85 0  0.3500000000000001 -2.85 0  0.45 -2.85 0  0.55 -2.85 0  0.6499999999999999 -2.85 0  0.75 -2.85 0  -0.75 -2.8 0  -0.65 -2.8 0  -0.55 -2.8 0  -0.45 -2.8 0  -0.35 -2.8 0  -0.25 -2.8 0  -0.15 -2.8 0  -0.05000000000000004 -2.8 0  0.05000000000000004 -2.8 0  0.15 -2.8 0  0.25 -2.8 0  0.3500000000000001 -2.8 0  0.45 -2.8 0  0.55 -2.8 0  0.6499999999999999 -2.8 0  0.75 -2.8 0  -0.75 -2.75 0  -0.65 -2.75 0  -0.55 -2.75 0  -0.45 -2.75 0  -0.35 -2.75 0  -0.25 -2.75 0  -0.15 -2.75 0  -0.05000000000000004 -2.75 0  0.05000000000000004 -2.75 0  0.15 -2.75 0  0.25 -2.75 0  0.3500000000000001 -2.75 0  0.45 -2.75 0  0.55 -2.75 0  0.6499999999999999 -2.75 0  0.75 -2.75 0  -0.75 -2.7 0  -0.65 -2.7 0  -0.55 -2.7 0  -0.45 -2.7 0  -0.35 -2.7 0  -0.25 -2.7 0  -0.15 -2.7 0  -0.05000000000000004 -2.7 0  0.05000000000000004 -2.7 0  0.15 -2.7 0  0.25 -2.7 0  0.3500000000000001 -2.7 0  0.45 -2.7 0  0.55 -2.7 0  0.6499999999999999 -2.7 0  0.75 -2.7 0  -0.75 -2.65 0  -0.65 -2.65 0  -0.55 -2.65 0  -0.45 -2.65 0  -0.35 -2.65 0  -0.25 -2.65 0  -0.15 -2.65 0  -0.05000000000000004 -2.65 0  0.05000000000000004 -2.65 0  0.15 -2.65 0  0.25 -2.65 0  0.3500000000000001 -2.65 0  0.45 -2.65 0  0.55 -2.65 0  0.6499999999999999 -2.65 0  0.75 -2.65 0  -0.75 -2.6 0  -0.65 -2.6 0  -0.55 -2.6 0  -0.45 -2.6 0  -0.35 -2.6 0  -0.25 -2.6 0  -0.15 -2.6 0  -0.05000000000000004 -2.6 0  0.05000000000000004 -2.6 0  0.15 -2.6 0  0.25 -2.6 0  0.3500000000000001 -2.6 0  0.45 -2.6 0  0.55 -2.6 0  0.6499999999999999 -2.6 0  0.75 -2.6 0  -0.75 -2.55 0  -0.65 -2.55 0  -0.55 -2.55 0  -0.45 -2.55 0  -0.35 -2.55 0  -0.25 -2.55 0  -0.15 -2.55 0  -0.05000000000000004 -2.55 0  0.05000000000000004 -2.55 0  0.15 -2.55 0  0.25 -2.55 0  0.3500000000000001 -2.55 0  0.45 -2.55 0  0.55 -2.55 0  0.6499999999999999 -2.55 0  0.75 -2.55 0  -0.75 -2.5 0  -0.65 -2.5 0  -0.55 -2.5 0  -0.45 -2.5 0  -0.35 -2.5 0  -0.25 -2.5 0  -0.15 -2.5 0  -0.05000000000000004 -2.5 0  0.05000000000000004 -2.5 0  0.15 -2.5 0  0.25 -2.5 0  0.3500000000000001 -2.5 0  0.45 -2.5 0  0.55 -2.5 0  0.6499999999999999 -2.5 0  0.75 -2.5 0  -0.75 -2.45 0  -0.65 -2.45 0  -0.55 -2.45 0  -0.45 -2.45 0  -0.35 -2.45 0  -0.25 -2.45 0  -0.15 -2.45 0  -0.05000000000000004 -2.45 0  0.05000000000000004 -2.45 0  0.15 -2.45 0  0.25 -2.45 0  0.3500000000000001 -2.45 0  0.45 -2.45 0  0.55 -2.45 0  0.6499999999999999 -2.45 0  0.75 -2.45 0  -0.75 -2.4 0  -0.65 -2.4 0  -0.55 -2.4 0  -0.45 -2.4 0  -0.35 -2.4 0  -0.25 -2.4 0  -0.15 -2.4 0  -0.05000000000000004 -2.4 0  0.05000000000000004 -2.4 0  0.15 -2.4 0  0.25 -2.4 0  0.3500000000000001 -2.4 0  0.45 -2.4 0  0.55 -2.4 0  0.6499999999999999 -2.4 0  0.75 -2.4 0  -0.75 -2.35 0  -0.65 -2.35 0  -0.55 -2.35 0  -0.45 -2.35 0  -0.35 -2.35 0  -0.25 -2.35 0  -0.15 -2.35 0  -0.05000000000000004 -2.35 0  0.05000000000000004 -2.35 0  0.15 -2.35 0  0.25 -2.35 0  0.3500000000000001 -2.35 0  0.45 -2.35 0  0.55 -2.35 0  0.6499999999999999 -2.35 0  0.75 -2.35 0  -0.75 -2.3 0  -0.65 -2.3 0  -0.55 -2.3 0  -0.45 -2.3 0  -0.35 -2.3 0  -0.25 -2.3 0  -0.15 -2.3 0  -0.05000000000000004 -2.3 0  0.05000000000000004 -2.3 0  0.15 -2.3 0  0.25 -2.3 0  0.3500000000000001 -2.3 0  0.45 -2.3 0  0.55 -2.3 0  0.6499999999999999 -2.3 0  0.75 -2.3 0  -0.75 -2.25 0  -0.65 -2.25 0  -0.55 -2.25 0  -0.45 -2.25 0  -0.35 -2.25 0  -0.25 -2.25 0  -0.15 -2.25 0  -0.05000000000000004 -2.25 0  0.05000000000000004 -2.25 0  0.15 -2.25 0  0.25 -2.25 0  0.3500000000000001 -2.25 0  0.45 -2.25 0  0.55 -2.25 0  0.6499999999999999 -2.25 0  0.75 -2.25 0  -0.75 -2.2 0  -0.65 -2.2 0  -0.55 -2.2 0  -0.45 -2.2 0  -0.35 -2.2 0  -0.25 -2.2 0  -0.15 -2.2 0  -0.05000000000000004 -2.2 0  0.05000000000000004 -2.2 0  0.15 -2.2 0  0.25 -2.2 0  0.3500000000000001 -2.2 0  0.45 -2.2 0  0.55 -2.2 0  0.6499999999999999 -2.2 0  0.75 -2.2 0  -0.75 -2.15 0  -0.65 -2.15 0  -0.55 -2.15 0  -0.45 -2.15 0  -0.35 -2.15 0  -0.25 -2.15 0  -0.15 -2.15 0  -0.05000000000000004 -2.15 0  0.05000000000000004 -2.15 0  0.15 -2.15 0  0.25 -2.15 0  0.3500000000000001 -2.15 0  0.45 -2.15 0  0.55 -2.15 0  0.6499999999999999 -2.15 0  0.75 -2.15 0  -0.75 -2.1 0  -0.65 -2.1 0  -0.55 -2.1 0  -0.45 -2.1 0  -0.35 -2.1 0  -0.25 -2.1 0  -0.15 -2.1 0  -0.05000000000000004 -2.1 0  0.05000000000000004 -2.1 0  0.15 -2.1 0  0.25 -2.1 0  0.3500000000000001 -2.1 0  0.45 -2.1 0  0.55 -2.1 0  0.6499999999999999 -2.1 0  0.75 -2.1 0  -0.75 -2.05 0  -0.65 -2.05 0  -0.55 -2.05 0  -0.45 -2.05 0  -0.35 -2.05 0  -0.25 -2.05 0  -0.15 -2.05 0  -0.05000000000000004 -2.05 0  0.05000000000000004 -2.05 0  0.15 -2.05 0  0.25 -2.05 0  0.3500000000000001 -2.05 0  0.45 -2.05 0  0.55 -2.05 0  0.6499999999999999 -2.05 0  0.75 -2.05 0  -0.75 -2 0  -0.65 -2 0  -0.55 -2 0  -0.45 -2 0  -0.35 -2 0  -0.25 -2 0  -0.15 -2 0  -0.05000000000000004 -2 0  0.05000000000000004 -2 0  0.15 -2 0  0.25 -2 0  0.3500000000000001 -2 0  0.45 -2 0  0.55 -2 0  0.6499999999999999 -2 0  0.75 -2 0  -0.75 -1.95 0  -0.65 -1.95 0  -0.55 -1.95 0  -0.45 -1.95 0  -0.35 -1.95 0  -0.25 -1.95 0  -0.15 -1.95 0  -0.05000000000000004 -1.95 0  0.05000000000000004 -1.95 0  0.15 -1.95 0  0.25 -1.95 0  0.3500000000000001 -1.95 0  0.45 -1.95 0  0.55 -1.95 0  0.6499999999999999 -1.95 0  0.75 -1.95 0  -0.75 -1.9 0  -0.65 -1.9 0  -0.55 -1.9 0  -0.45 -1.9 0  -0.35 -1.9 0  -0.25 -1.9 0  -0.15 -1.9 0  -0.05000000000000004 -1.9 0  0.05000000000000004 -1.9 0  0.15 -1.9 0  0.25 -1.9 0  0.3500000000000001 -1.9 0  0.45 -1.9 0  0.55 -1.9 0  0.6499999999999999 -1.9 0  0.75 -1.9 0  -0.75 -1.85 0  -0.65 -1.85 0  -0.55 -1.85 0  -0.45 -1.85 0  -0.35 -1.85 0  -0.25 -1.85 0  -0.15 -1.85 0  -0.05000000000000004 -1.85 0  0.05000000000000004 -1.85 0  0.15 -1.85 0  0.25 -1.85 0  0.3500000000000001 -1.85 0  0.45 -1.85 0  0.55 -1.85 0  0.6499999999999999 -1.85 0  0.75 -1.85 0  -0.75 -1.8 0  -0.65 -1.8 0  -0.55 -1.8 0  -0.45 -1.8 0  -0.35 -1.8 0  -0.25 -1.8 0  -0.15 -1.8 0  -0.05000000000000004 -1.8 0  0.05000000000000004 -1.8 0  0.15 -1.8 0  0.25 -1.8 0  0.3500000000000001 -1.8 0  0.45 -1.8 0  0.55 -1.8 0  0.6499999999999999 -1.8 0  0.75 -1.8 0  -0.75 -1.75 0  -0.65 -1.75 0  -0.55 -1.75 0  -0.45 -1.75 0  -0.35 -1.75 0  -0.25 -1.75 0  -0.15 -1.75 0  -0.05000000000000004 -1.75 0  0.05000000000000004 -1.75 0  0.15 -1.75 0  0.25 -1.75 0  0.3500000000000001 -1.75 0  0.45 -1.75 0  0.55 -1.75 0  0.6499999999999999 -1.75 0  0.75 -1.75 0  -0.75 -1.7 0  -0.65 -1.7 0  -0.55 -1.7 0  -0.45 -1.7 0  -0.35 -1.7 0  -0.25 -1.7 0  -0.15 -1.7 0  -0.05000000000000004 -1.7 0  0.05000000000000004 -1.7 0  0.15 -1.7 0  0.25 -1.7 0  0.3500000000000001 -1.7 0  0.45 -1.7 0  0.55 -1.7 0  0.6499999999999999 -1.7 0  0.75 -1.7 0  -0.75 -1.65 0  -0.65 -1.65 0  -0.55 -1.65 0  -0.45 -1.65 0  -0.35 -1.65 0  -0.25 -1.65 0  -0.15 -1.65 0  -0.05000000000000004 -1.65 0  0.05000000000000004 -1.65 0  0.15 -1.65 0  0.25 -1.65 0  0.3500000000000001 -1.65 0  0.45 -1.65 0  0.55 -1.65 0  0.6499999999999999 -1.65 0  0.75 -1.65 0  -0.75 -1.6 0  -0.65 -1.6 0  -0.55 -1.6 0  -0.45 -1.6 0  -0.35 -1.6 0  -0.25 -1.6 0  -0.15 -1.6 0  -0.05000000000000004 -1.6 0  0.05000000000000004 -1.6 0  0.15 -1.6 0  0.25 -1.6 0  0.3500000000000001 -1.6 0  0.45 -1.6 0  0.55 -1.6 0  0.6499999999999999 -1.6 0  0.75 -1.6 0  -0.75 -1.55 0  -0.65 -1.55 0  -0.55 -1.55 0  -0.45 -1.55 0  -0.35 -1.55 0  -0.25 -1.55 0  -0.15 -1.55 0  -0.05000000000000004 -1.55 0  0.05000000000000004 -1.55 0  0.15 -1.55 0  0.25 -1.55 0  0.3500000000000001 -1.55 0  0.45 -1.55 0  0.55 -1.55 0  0.6499999999999999 -1.55 0  0.75 -1.55 0  -0.75 -1.5 0  -0.65 -1.5 0  -0.55 -1.5 0  -0.45 -1.5 0  -0.35 -1.5 0  -0.25 -1.5 0  -0.15 -1.5 0  -0.05000000000000004 -1.5 0  0.05000000000000004 -1.5 0  0.15 -1.5 0  0.25 -1.5 0  0.3500000000000001 -1.5 0  0.45 -1.5 0  0.55 -1.5 0  0.6499999999999999 -1.5 0  0.75 -1.5 0  -0.75 -1.45 0  -0.65 -1.45 0  -0.55 -1.45 0  -0.45 -1.45 0  -0.35 -1.45 0  -0.25 -1.45 0  -0.15 -1.45 0  -0.05000000000000004 -1.45 0  0.05000000000000004 -1.45 0  0.15 -1.45 0  0.25 -1.45 0  0.3500000000000001 -1.45 0  0.45 -1.45 0  0.55 -1.45 0  0.6499999999999999 -1.45 0  0.75 -1.45 0  -0.75 -1.4 0  -0.65 -1.4 0  -0.55 -1.4 0  -0.45 -1.4 0  -0.35 -1.4 0  -0.25 -1.4 0  -0.15 -1.4 0  -0.05000000000000004 -1.4 0  0.05000000000000004 -1.4 0  0.15 -1.4 0  0.25 -1.4 0  0.3500000000000001 -1.4 0  0.45 -1.4 0  0.55 -1.4 0  0.6499999999999999 -1.4 0  0.75 -1.4 0  -0.75 -1.35 0  -0.65 -1.35 0  -0.55 -1.35 0  -0.45 -1.35 0  -0.35 -1.35 0  -0.25 -1.35 0  -0.15 -1.35 0  -0.05000000000000004 -1.35 0  0.05000000000000004 -1.35 0  0.15 -1.35 0  0.25 -1.35 0  0.3500000000000001 -1.35 0  0.45 -1.35 0  0.55 -1.35 0  0.6499999999999999 -1.35 0  0.75 -1.35 0  -0.75 -1.3 0  -0.65 -1.3 0  -0.55 -1.3 0  -0.45 -1.3 0  -0.35 -1.3 0  -0.25 -1.3 0  -0.15 -1.3 0  -0.05000000000000004 -1.3 0  0.05000000000000004 -1.3 0  0.15 -1.3 0  0.25 -1.3 0  0.3500000000000001 -1.3 0  0.45 -1.3 0  0.55 -1.3 0  0.6499999999999999 -1.
[...]
<PointData  Vectors="displacement"> 
<DataArray  type="Float64"  Name="displacement"  NumberOfComponents="3" format="ascii">6.9333477997940605e-31 -4.5536491244391314e-16 0.0000000000000000e+00  -1.0629736468121109e-30 7.1150767569361487e-17 0.0000000000000000e+00  9.2444637330587636e-31 -5.0415401020576124e-16 0.0000000000000000e+00  1.4444474582904318e-30 2.6884825745851586e-16 0.0000000000000000e+00  -4.1600086798764428e-30 -3.5778671692021760e-16 0.0000000000000000e+00  1.1129086840565792e-29 -2.2723183981669038e-16 0.0000000000000000e+00  -3.6977854932235062e-30 -9.7578195523695744e-17 0.0000000000000000e+00  6.9316900136837965e-30 8.7419582621666510e-17 0.0000000000000000e+00  -1.3866695599588144e-30 -1.4636729328554357e-16 0.0000000000000000e+00  5.0376599409627927e-30 2.1158264800840512e-16 0.0000000000000000e+00  9.2444637330587573e-30 4.8789097761847829e-17 0.0000000000000000e+00  -9.0782517705883755e-30 3.1665528503811034e-17 0.0000000000000000e+00  4.8533434598558498e-30 1.6263032587282619e-17 0.0000000000000000e+00  -4.5414181993575653e-31 -1.1282478857427313e-16 0.0000000000000000e+00  -1.3866695599588156e-30 6.5052130349130537e-17 0.0000000000000000e+00  0.0000000000000000e+00 -1.3010426069826085e-16 0.0000000000000000e+00  -4.6222318665293494e-31 -1.4912280701752554e+00 0.0000000000000000e+00  6.8694621055109214e-15 -1.4912280701752578e+00 0.0000000000000000e+00  1.5444146355344708e-14 -1.4912280701752567e+00 0.0000000000000000e+00  2.4463149687082338e-14 -1.4912280701752556e+00 0.0000000000000000e+00  3.1835831969903126e-14 -1.4912280701752536e+00 0.0000000000000000e+00  4.2602160195008011e-14 -1.4912280701752516e+00 0.0000000000000000e+00  5.0673549734871964e-14 -1.4912280701752416e+00 0.0000000000000000e+00  5.3770933471470839e-14 -1.4912280701752338e+00 0.0000000000000000e+00  5.3126644347491463e-14 -1.4912280701752234e+00 0.0000000000000000e+00  4.8377277544498980e-14 -1.4912280701752165e+00 0.0000000000000000e+00  4.3110840813286550e-14 -1.4912280701752108e+00 0.0000000000000000e+00  3.7421062610194157e-14 -1.4912280701752036e+00 0.0000000000000000e+00  3.0133848293983836e-14 -1.4912280701752019e+00 0.0000000000000000e+00  2.2349730849322836e-14 -1.4912280701751981e+00 0.0000000000000000e+00  1.1758426523304271e-14 -1.4912280701751930e+00 0.0000000000000000e+00  -1.3577417635464530e-30 -1.4912280701751921e+00 0.0000000000000000e+00  1.4155585091246194e-30 -2.9824561403505285e+00 0.0000000000000000e+00  1.3134695511452852e-14 -2.9824561403505281e+00 0.0000000000000000e+00  2.9447279296643496e-14 -2.9824561403505321e+00 0.0000000000000000e+00  4.5192864265745797e-14 -2.9824561403505223e+00 0.0000000000000000e+00  6.1642593500370291e-14 -2.9824561403505241e+00 0.0000000000000000e+00  7.8067327695958142e-14 -2.9824561403505201e+00 0.0000000000000000e+00  9.1777124707936690e-14 -2.9824561403504970e+00 0.0000000000000000e+00  9.8311110227984741e-14 -2.9824561403504806e+00 0.0000000000000000e+00  9.7058209188385972e-14 -2.9824561403504584e+00 0.0000000000000000e+00  8.9777522975807638e-14 -2.9824561403504428e+00 0.0000000000000000e+00  7.9336593426782125e-14 -2.9824561403504357e+00 0.0000000000000000e+00  6.9001159204106837e-14 -2.9824561403504211e+00 0.0000000000000000e+00  5.7031783080623186e-14 -2.9824561403504144e+00 0.0000000000000000e+00  4.0344968226243847e-14 -2.9824561403504051e+00 0.0000000000000000e+00  2.0800727740922366e-14 -2.9824561403503966e+00 0.0000000000000000e+00  1.1225420247285603e-30 -2.9824561403503931e+00 0.0000000000000000e+00  1.1555579666323424e-30 -4.4736842105257875e+00 0.0000000000000000e+00  1.9807269385791301e-14 -4.4736842105257910e+00 0.0000000000000000e+00  4.0582620713523027e-14 -4.4736842105257937e+00 0.0000000000000000e+00  6.3604339674840954e-14 -4.4736842105257875e+00 0.0000000000000000e+00  8.6719994170397145e-14 -4.4736842105257839e+00 0.0000000000000000e+00  1.0823405190334379e-13 -4.4736842105257750e+00 0.0000000000000000e+00  1.2583031589275725e-13 -4.4736842105257413e+00 0.0000000000000000e+00  1.3510317466044861e-13 -4.4736842105257146e+00 0.0000000000000000e+00  1.3360727859270694e-13 -4.4736842105256800e+00 0.0000000000000000e+00  1.2450153968497098e-13 -4.4736842105256560e+00 0.0000000000000000e+00  1.1056226518877898e-13 -4.4736842105256418e+00 0.0000000000000000e+00  9.6355820482652517e-14 -4.4736842105256311e+00 0.0000000000000000e+00  7.8835385640156421e-14 -4.4736842105256089e+00 0.0000000000000000e+00  5.4826883989568593e-14 -4.4736842105255965e+00 0.0000000000000000e+00  2.7869805260336862e-14 -4.4736842105255850e+00 0.0000000000000000e+00  -2.7733391199176207e-30 -4.4736842105255787e+00 0.0000000000000000e+00  1.8793341481415319e-30 -5.9649122807010686e+00 0.0000000000000000e+00  2.4797921079722458e-14 -5.9649122807010659e+00 0.0000000000000000e+00  5.1611679743041972e-14 -5.9649122807010704e+00 0.0000000000000000e+00  7.9041270814405403e-14 -5.9649122807010651e+00 0.0000000000000000e+00  1.0678579237437154e-13 -5.9649122807010562e+00 0.0000000000000000e+00  1.3215994782925382e-13 -5.9649122807010437e+00 0.0000000000000000e+00  1.5352637799009422e-13 -5.9649122807010038e+00 0.0000000000000000e+00  1.6531117590705860e-13 -5.9649122807009647e+00 0.0000000000000000e+00  1.6259611367131338e-13 -5.9649122807009132e+00 0.0000000000000000e+00  1.5311377905115035e-13 -5.9649122807008803e+00 0.0000000000000000e+00  1.3976260185116194e-13 -5.9649122807008625e+00 0.0000000000000000e+00  1.1898024420537060e-13 -5.9649122807008439e+00 0.0000000000000000e+00  9.5033470649558691e-14 -5.9649122807008172e+00 0.0000000000000000e+00  6.6949181366720480e-14 -5.9649122807007977e+00 0.0000000000000000e+00  3.4151854049510405e-14 -5.9649122807007871e+00 0.0000000000000000e+00  1.7457179281624235e-30 -5.9649122807007782e+00 0.0000000000000000e+00  -1.8488927466117517e-30 -7.4561403508763293e+00 0.0000000000000000e+00  2.9420922025627996e-14 -7.4561403508763382e+00 0.0000000000000000e+00  6.0195376509288523e-14 -7.4561403508763346e+00 0.0000000000000000e+00  9.1756082244872071e-14 -7.4561403508763267e+00 0.0000000000000000e+00  1.2217010715658938e-13 -7.4561403508763187e+00 0.0000000000000000e+00  1.5346104251773629e-13 -7.4561403508762965e+00 0.0000000000000000e+00  1.7846191919952021e-13 -7.4561403508762529e+00 0.0000000000000000e+00  1.8917539948017434e-13 -7.4561403508762014e+00 0.0000000000000000e+00  1.8700255479308265e-13 -7.4561403508761366e+00 0.0000000000000000e+00  1.7677385353568045e-13 -7.4561403508761019e+00 0.0000000000000000e+00  1.6113394809860659e-13 -7.4561403508760655e+00 0.0000000000000000e+00  1.3771204356297829e-13 -7.4561403508760362e+00 0.0000000000000000e+00  1.0780881750367781e-13 -7.4561403508760167e+00 0.0000000000000000e+00  7.6412657143415147e-14 -7.4561403508759803e+00 0.0000000000000000e+00  3.9999852058853133e-14 -7.4561403508759705e+00 0.0000000000000000e+00  1.4444474582904307e-30 -7.4561403508759643e+00 0.0000000000000000e+00  5.9056318967797152e-30 -8.9473684210515962e+00 0.0000000000000000e+00  3.1071178942426409e-14 -8.9473684210515962e+00 0.0000000000000000e+00  6.6399556805525198e-14 -8.9473684210516069e+00 0.0000000000000000e+00  1.0252725798594556e-13 -8.9473684210515856e+00 0.0000000000000000e+00  1.3551649008914492e-13 -8.9473684210515732e+00 0.0000000000000000e+00  1.7186941543719264e-13 -8.9473684210515572e+00 0.0000000000000000e+00  1.9858750170369006e-13 -8.9473684210515039e+00 0.0000000000000000e+00  2.0707807096604459e-13 -8.9473684210514257e+00 0.0000000000000000e+00  2.0414287325008654e-13 -8.9473684210513600e+00 0.0000000000000000e+00  1.9611308828249968e-13 -8.9473684210513138e+00 0.0000000000000000e+00  1.7788013351701574e-13 -8.9473684210512694e+00 0.0000000000000000e+00  1.5060167415447121e-13 -8.9473684210512303e+00 0.0000000000000000e+00  1.1949746345371309e-13 -8.9473684210512090e+00 0.0000000000000000e+00  8.4235642992849990e-14 -8.9473684210511735e+00 0.0000000000000000e+00  4.5433635378129927e-14 -8.9473684210511575e+00 0.0000000000000000e+00  1.1885739085361197e-30 -8.9473684210511362e+00 0.0000000000000000e+00  9.2444637330587391e-31 -1.0438596491226878e+01 0.0000000000000000e+00  3.2341703129526127e-14 -1.0438596491226868e+01 0.0000000000000000e+00  7.2796683333630671e-14 -1.0438596491226900e+01 0.0000000000000000e+00  1.1100221218108990e-13 -1.0438596491226873e+01 0.0000000000000000e+00  1.4819860894832654e-13 -1.0438596491226857e+01 0.0000000000000000e+00  1.8545980440515738e-13 -1.0438596491226830e+01 0.0000000000000000e+00  2.1120267073783441e-13 -1.0438596491226765e+01 0.0000000000000000e+00  2.2113776463723475e-13 -1.0438596491226672e+01 0.0000000000000000e+00  2.1944487279790911e-13 -1.0438596491226594e+01 0.0000000000000000e+00  2.0989924043784762e-13 -1.0438596491226527e+01 0.0000000000000000e+00  1.9013875994049089e-13 -1.0438596491226495e+01 0.0000000000000000e+00  1.6215840514409067e-13 -1.0438596491226438e+01 0.0000000000000000e+00  1.2958876017843049e-13 -1.0438596491226413e+01 0.0000000000000000e+00  9.1935923960964183e-14 -1.0438596491226376e+01 0.0000000000000000e+00  4.6963338949315953e-14 -1.0438596491226356e+01 0.0000000000000000e+00  -3.6977854932234949e-30 -1.0438596491226340e+01 0.0000000000000000e+00  -1.3952863319138071e-30 -1.1929824561402130e+01 0.0000000000000000e+00  3.8287033030602020e-14 -1.1929824561402159e+01 0.0000000000000000e+00  7.7601379461647350e-14 -1.1929824561402166e+01 0.0000000000000000e+00  1.1731676839564853e-13 -1.1929824561402134e+01 0.0000000000000000e+00  1.5809366211031885e-13 -1.1929824561402130e+01 0.0000000000000000e+00  1.9581331924009444e-13 -1.1929824561402109e+01 0.0000000000000000e+00  2.2066488874918988e-13 -1.1929824561402000e+01 0.0000000000000000e+00  2.3116249617460034e-13 -1.1929824561401912e+01 0.0000000000000000e+00  2.2892965855348093e-13 -1.1929824561401814e+01 0.0000000000000000e+00  2.1678672428070065e-13 -1.1929824561401762e+01 0.0000000000000000e+00  1.9916576559429143e-13 -1.1929824561401695e+01 0.0000000000000000e+00  1.7058821946889476e-13 -1.1929824561401636e+01 0.0000000000000000e+00  1.3731775426863100e-13 -1.1929824561401611e+01 0.0000000000000000e+00  9.6001598177927335e-14 -1.1929824561401567e+01 0.0000000000000000e+00  4.8149080427714157e-14 -1.1929824561401537e+01 0.0000000000000000e+00  -7.9242705024372679e-30 -1.1929824561401515e+01 0.0000000000000000e+00  3.2355623065705443e-30 -1.3421052631577425e+01 0.0000000000000000e+00  3.9903043844598813e-14 -1.3421052631577423e+01 0.0000000000000000e+00  8.2558692117123238e-14 -1.3421052631577441e+01 0.0000000000000000e+00  1.2527037322934792e-13 -1.3421052631577423e+01 0.0000000000000000e+00  1.6634125828858003e-13 -1.3421052631577409e+01 0.0000000000000000e+00  1.9978236472162899e-13 -1.3421052631577368e+01 0.0000000000000000e+00  2.2458730892956008e-13 -1.3421052631577268e+01 0.0000000000000000e+00  2.3949700798714353e-13 -1.3421052631577158e+01 0.0000000000000000e+00  2.3371840036905213e-13 -1.3421052631577050e+01 0.0000000000000000e+00  2.2223075913272568e-13 -1.3421052631576977e+01 0.0000000000000000e+00  2.0839383620541486e-13 -1.3421052631576917e+01 0.0000000000000000e+00  1.7875335965001286e-13 -1.3421052631576876e+01 0.0000000000000000e+00  1.4058448846538809e-13 -1.3421052631576828e+01 0.0000000000000000e+00  9.8406027432869217e-14 -1.3421052631576758e+01 0.0000000000000000e+00  4.8361459881206734e-14 -1.3421052631576742e+01 0.0000000000000000e+00  -5.5404560024182749e-30 -1.3421052631576703e+01 0.0000000000000000e+00  -1.6716537592692622e-30 -1.4912280701752694e+01 0.0000000000000000e+00  4.2288520138664471e-14 -1.4912280701752696e+01 0.0000000000000000e+00  8.8150503510467019e-14 -1.4912280701752712e+01 0.0000000000000000e+00  1.3076801166983794e-13 -1.4912280701752683e+01 0.0000000000000000e+00  1.6894352253184810e-13 -1.4912280701752666e+01 0.0000000000000000e+00  2.0262323284116180e-13 -1.4912280701752623e+01 0.0000000000000000e+00  2.2590645237539450e-13 -1.4912280701752515e+01 0.0000000000000000e+00  2.4216059407767827e-13 -1.4912280701752403e+01 0.0000000000000000e+00  2.4124555352215182e-13 -1.4912280701752278e+01 0.0000000000000000e+00  2.2732978199983627e-13 -1.4912280701752211e+01 0.0000000000000000e+00  2.1224759849083796e-13 -1.4912280701752120e+01 0.0000000000000000e+00  1.8232190335224413e-13 -1.4912280701752048e+01 0.0000000000000000e+00  1.4186594314153269e-13 -1.4912280701752016e+01 0.0000000000000000e+00  9.8004248112643851e-14 -1.4912280701751932e+01 0.0000000000000000e+00  4.8892857338152242e-14 -1.4912280701751918e+01 0.0000000000000000e+00  8.5841448949831359e-31 -1.4912280701751900e+01 0.0000000000000000e+00  4.6222318665293492e-30 -1.6403508771927960e+01 0.0000000000000000e+00  4.4794110162045967e-14 -1.6403508771927974e+01 0.0000000000000000e+00  8.9570316279738922e-14 -1.6403508771927996e+01 0.0000000000000000e+00  1.3342954353033812e-13 -1.6403508771927950e+01 0.0000000000000000e+00  1.6953513701446434e-13 -1.6403508771927935e+01 0.0000000000000000e+00  2.0572385554434331e-13 -1.6403508771927868e+01 0.0000000000000000e+00  2.2837773577591053e-13 -1.6403508771927779e+01 0.0000000000000000e+00  2.4321432132446339e-13 -1.6403508771927640e+01 0.0000000000000000e+00  2.4384750450154500e-13 -1.6403508771927505e+01 0.0000000000000000e+00  2.3105854961069979e-13 -1.6403508771927420e+01 0.0000000000000000e+00  2.0947843354986796e-13 -1.6403508771927346e+01 0.0000000000000000e+00  1.8288752325425314e-13 -1.6403508771927243e+01 0.0000000000000000e+00  1.4569306221459705e-13 -1.6403508771927203e+01 0.0000000000000000e+00  9.9023061568234056e-14 -1.6403508771927140e+01 0.0000000000000000e+00  5.2744935751941343e-14 -1.6403508771927118e+01 0.0000000000000000e+00  9.2444637330586953e-31 -1.6403508771927079e+01 0.0000000000000000e+00  1.9591292798562801e-30 -1.7894736842103232e+01 0.0000000000000000e+00  4.5809159024159840e-14 -1.7894736842103253e+01 0.0000000000000000e+00  9.2105291037619584e-14 -1.7894736842103271e+01 0.0000000000000000e+00  1.3162337259290182e-13 -1.7894736842103221e+01 0.0000000000000000e+00  1.6911929073250625e-13 -1.7894736842103200e+01 0.0000000000000000e+00  2.0330505069934757e-13 -1.7894736842103146e+01 0.0000000000000000e+00  2.3138091678877445e-13 -1.7894736842103022e+01 0.0000000000000000e+00  2.4241455753197473e-13 -1.7894736842102887e+01 0.0000000000000000e+00  2.4353158207112542e-13 -1.7894736842102752e+01 0.0000000000000000e+00  2.3274615517407162e-13 -1.7894736842102656e+01 0.0000000000000000e+00  2.0603438104695443e-13 -1.7894736842102567e+01 0.0000000000000000e+00  1.8171858964865849e-13 -1.7894736842102478e+01 0.0000000000000000e+00  1.4968802174726091e-13 -1.7894736842102414e+01 0.0000000000000000e+00  1.0205408944139433e-13 -1.7894736842102343e+01 0.0000000000000000e+00  5.2754729540452806e-14 -1.7894736842102319e+01 0.0000000000000000e+00  -1.0621011330683786e-29 -1.7894736842102287e+01 0.0000000000000000e+00  -7.8577941730999279e-30 -1.9385964912278506e+01 0.0000000000000000e+00  5.2058439400931510e-14 -1.9385964912278517e+01 0.0000000000000000e+00  9.4425263732365018e-14 -1.9385964912278521e+01 0.0000000000000000e+00  1.3401958213604701e-13 -1.9385964912278492e+01 0.0000000000000000e+00  1.6777742307280599e-13 -1.9385964912278471e+01 0.0000000000000000e+00  2.0234211383053522e-13 -1.9385964912278414e+01 0.0000000000000000e+00  2.3098924589690990e-13 -1.9385964912278272e+01 0.0000000000000000e+00  2.4013411671945902e-13 -1.9385964912278130e+01 0.0000000000000000e+00  2.3993869938986195e-13 -1.9385964912277984e+01 0.0000000000000000e+00  2.2815594805204115e-13 -1.9385964912277863e+01 0.0000000000000000e+00  2.0492148089898900e-13 -1.9385964912277799e+01 0.0000000000000000e+00  1.7830168505659273e-13 -1.9385964912277700e+01 0.0000000000000000e+00  1.4842225397699959e-13 -1.9385964912277618e+01 0.0000000000000000e+00  1.0402341165493780e-13 -1.9385964912277540e+01 0.0000000000000000e+00  5.0310464239909843e-14 -1.9385964912277515e+01 0.0000000000000000e+00  6.3294171404684769e-30 -1.9385964912277466e+01 0.0000000000000000e+00  2.1385887449439234e-29 -2.0877192982453792e+01 0.0000000000000000e+00  5.3708890681866290e-14 -2.0877192982453778e+01 0.0000000000000000e+00  9.9896649710796719e-14 -2.0877192982453817e+01 0.0000000000000000e+00  1.3583680413932707e-13 -2.0877192982453767e+01 0.0000000000000000e+00  1.6898889862220075e-13 -2.0877192982453725e+01 0.0000000000000000e+00  1.9821837995331143e-13 -2.0877192982453700e+01 0.0000000000000000e+00  2.2482460843278217e-13 -2.0877192982453536e+01 0.0000000000000000e+00  2.3915710832031853e-13 -2.0877192982453366e+01 0.0000000000000000e+00  2.3618870400892385e-13 -2.0877192982453192e+01 0.0000000000000000e+00  2.2151467254953719e-13 -2.0877192982453128e+01 0.0000000000000000e+00  2.0834025311110521e-13 -2.0877192982453021e+01 0.0000000000000000e+00  1.7950700725506650e-13 -2.0877192982452915e+01 0.0000000000000000e+00  1.4214998464489057e-13 -2.0877192982452847e+01 0.0000000000000000e+00  1.0482205198851054e-13 -2.0877192982452755e+01 0.0000000000000000e+00  5.0268341286559339e-14 -2.0877192982452687e+01 0.0000000000000000e+00  -2.3111159332646739e-30 -2.0877192982452701e+01 0.0000000000000000e+00  -8.7822405464058207e-30 -2.2368421052629074e+01 0.0000000000000000e+00  5.7658737876013473e-14 -2.2368421052629060e+01 0.0000000000000000e+00  1.0657443558721619e-13 -2.2368421052629085e+01 0.0000000000000000e+00  1.4321464852366114e-13 -2.2368421052629031e+01 0.0000000000000000e+00  1.7003686138652882e-13 -2.2368421052628985e+01 0.0000000000000000e+00  1.9877355853317723e-13 -2.2368421052628953e+01 0.0000000000000000e+00  2.2278248977953017e-13 -2.2368421052628793e+01 0.0000000000000000e+00  2.3052883716978415e-13 -2.2368421052628641e+01 0.0000000000000000e+00  2.3032519179195458e-13 -2.2368421052628452e+01 0.0000000000000000e+00  2.2171052816578484e-13 -2.2368421052628353e+01 0.0000000000000000e+00  2.0471176798211939e-13 -2.2368421052628221e+01 0.0000000000000000e+00  1.7781825121571919e-13 -2.2368421052628115e+01 0.0000000000000000e+00  1.3956199677826105e-13 -2.2368421052628044e+01 0.0000000000000000e+00  9.8038736900557164e-14 -2.2368421052627930e+01 0.0000000000000000e+00  5.1963555151048723e-14 -2.2368421052627902e+01 0.0000000000000000e+00  6.4711246131411293e-30 -2.2368421052627887e+01 0.0000000000000000e+00  -1.8561031734268759e-29 -2.3859649122804349e+01 0.0000000000000000e+00  5.7716037727862248e-14 -2.3859649122804374e+01 0.0000000000000000e+00  1.1306690434517412e-13 -2.3859649122804317e+01 0.0000000000000000e+00  1.5209787764411657e-13 -2.3859649122804296e+01 0.0000000000000000e+00  1.7155034504422374e-13 -2.3859649122804257e+01 0.0000000000000000e+00  2.0015718379355801e-13 -2.3859649122804214e+01 0.0000000000000000e+00  2.2184926248875404e-13 -2.3859649122804051e+01 0.0000000000000000e+00  2.2003347540068708e-13 -2.3859649122803855e+01 0.0000000000000000e+00  2.2006056893237578e-13 -2.3859649122803710e+01 0.0000000000000000e+00  2.2416302285403909e-13 -2.3859649122803567e+01 0.0000000000000000e+00  2.0436843332877116e-13 -2.3859649122803475e+01 0.0000000000000000e+00  1.7540373460537232e-13 -2.3859649122803365e+01 0.0000000000000000e+00  1.3768863866292652e-13 -2.3859649122803276e+01 0.0000000000000000e+00  9.5852988223218210e-14 -2.3859649122803145e+01 0.0000000000000000e+00  5.3800332129852524e-14 -2.3859649122803127e+01 0.0000000000000000e+00  -1.3022430902455992e-30 -2.3859649122803081e+01 0.0000000000000000e+00  4.6222318665293696e-30 -2.5350877192979652e+01 0.0000000000000000e+00  5.6718671265173640e-14 -2.5350877192979613e+01 0.0000000000000000e+00  1.1651114391989560e-13 -2.5350877192979635e+01 0.0000000000000000e+00  1.5855730133558356e-13 -2.5350877192979539e+01 0.0000000000000000e+00  1.8055915811107182e-13 -2.5350877192979514e+01 0.0000000000000000e+00  1.9839756147560668e-13 -2.5350877192979485e+01 0.0000000000000000e+00  2.1279641599312532e-13 -2.5350877192979297e+01 0.0000000000000000e+00  2.1348857505286796e-13 -2.5350877192979105e+01 0.0000