<?xml version="1.0"?>
<VTKFile type="UnstructuredGrid"  version="0.1"  >
<UnstructuredGrid>
<Piece  NumberOfPoints="1876" NumberOfCells="3600">
<Points>
<DataArray  type="Float64"  NumberOfComponents="3"  format="ascii">-0.75 -3 0  -0.65 -3 0  -0.55 -3 0  -0.45 -3 0  -0.35 -3 0  -0.25 -3 0  -0.15 -3 0  -0.05000000000000004 -3 0  0.05000000000000004 -3 0  0.15 -3 0  0.25 -3 0  0.3500000000000001 -3 0  0.45 -3 0  0.55 -3 0  0.6499999999999999 -3 0  0.75 -3 0  -0.75 -2.95 0  -0.65 -2.95 0  -0.55 -2.95 0  -0.45 -2.95 0  -0.35 -2.95 0  -0.25 -2.95 0  -0.15 -2.95 0  -0.05000000000000004 -2.95 0  0.05000000000000004 -2.95 0  0.15 -2.95 0  0.25 -2.95 0  0.3500000000000001 -2.95 0  0.45 -2.95 0  0.55 -2.95 0  0.6499999999999999 -2.95 0  0.75 -2.95 0  -0.75 -2.9 0  -0.65 -2.9 0  -0.55 -2.9 0  -0.45 -2.9 0  -0.35 -2.9 0  -0.25 -2.9 0  -0.15 -2.9 0  -0.05000000000000004 -2.9 0  0.05000000000000004 -2.9 0  0.15 -2.9 0  0.25 -2.9 0  0.3500000000000001 -2.9 0  0.45 -2.9 0  0.55 -2.9 0  0.6499999999999999 -2.9 0  0.75 -2.9 0  -0.75 -2.85 0  -0.65 -2.85 0  -0.55 -2.85 0  -0.45 -2.85 0  -0.35 -2.85 0  -0.25 -2.85 0  -0.15 -2.85 0  -0.05000000000000004 -2.85 0  0.05000000000000004 -2.85 0  0.15 -2.85 0  0.25 -2.85 0  0.3500000000000001 -2.85 0  0.45 -2.85 0  0.55 -2.85 0  0.6499999999999999 -2.85 0  0.75 -2.85 0  -0.75 -2.8 0  -0.65 -2.8 0  -0.55 -2.8 0  -0.45 -2.8 0  -0.35 -2.8 0  -0.25 -2.8 0  -0.15 -2.8 0  -0.05000000000000004 -2.8 0  0.05000000000000004 -2.8 0  0.15 -2.8 0  0.25 -2.8 0  0.3500000000000001 -2.8 0  0.45 -2.8 0  0.55 -2.8 0  0.6499999999999999 -2.8 0  0.75 -2.8 0  -0.75 -2.75 0  -0.65 -2.75 0  -0.55 -2.75 0  -0.45 -2.75 0  -0.35 -2.75 0  -0.25 -2.75 0  -0.15 -2.75 0  -0.05000000000000004 -2.75 0  0.05000000000000004 -2.75 0  0.15 -2.75 0  0.25 -2.75 0  0.3500000000000001 -2.75 0  0.45 -2.75 0  0.55 -2.75 0  0.6499999999999999 -2.75 0  0.75 -2.75 0  -0.75 -2.7 0  -0.65 -2.7 0  -0.55 -2.7 0  -0.45 -2.7 0  -0.35 -2.7 0  -0.25 -2.7 0  -0.15 -2.7 0  -0.05000000000000004 -2.7 0  0.05000000000000004 -2.7 0  0.15 -2.7 0  0.25 -2.7 0  0.3500000000000001 -2.7 0  0.45 -2.7 0  0.55 -2.7 0  0.6499999999999999 -2.7 0  0.75 -2.7 0  -0.75 -2.65 0  -0.65 -2.65 0  -0.55 -2.65 0  -0.45 -2.65 0  -0.35 -2.65 0  -0.25 -2.65 0  -0.15 -2.65 0  -0.05000000000000004 -2.65 0  0.05000000000000004 -2.65 0  0.15 -2.65 0  0.25 -2.65 0  0.3500000000000001 -2.65 0  0.45 -2.65 0  0.55 -2.65 0  0.6499999999999999 -2.65 0  0.75 -2.65 0  -0.75 -2.6 0  -0.65 -2.6 0  -0.55 -2.6 0  -0.45 -2.6 0  -0.35 -2.6 0  -0.25 -2.6 0  -0.15 -2.6 0  -0.05000000000000004 -2.6 0  0.05000000000000004 -2.6 0  0.15 -2.6 0  0.25 -2.6 0  0.3500000000000001 -2.6 0  0.45 -2.6 0  0.55 -2.6 0  0.6499999999999999 -2.6 0  0.75 -2.6 0  -0.75 -2.55 0  -0.65 -2.55 0  -0.55 -2.55 0  -0.45 -2.55 0  -0.35 -2.55 0  -0.25 -2.55 0  -0.15 -2.55 0  -0.05000000000000004 -2.55 0  0.05000000000000004 -2.55 0  0.15 -2.55 0  0.25 -2.55 0  0.3500000000000001 -2.55 0  0.45 -2.55 0  0.55 -2.55 0  0.6499999999999999 -2.55 0  0.75 -2.55 0  -0.75 -2.5 0  -0.65 -2.5 0  -0.55 -2.5 0  -0.45 -2.5 0  -0.35 -2.5 0  -0.25 -2.5 0  -0.15 -2.5 0  -0.05000000000000004 -2.5 0  0.05000000000000004 -2.5 0  0.15 -2.5 0  0.25 -2.5 0  0.3500000000000001 -2.5 0  0.45 -2.5 0  0.55 -2.5 0  0.6499999999999999 -2.5 0  0.75 -2.5 0  -0.75 -2.45 0  -0.65 -2.45 0  -0.55 -2.45 0  -0.45 -2.45 0  -0.35 -2.45 0  -0.25 -2.45 0  -0.15 -2.45 0  -0.05000000000000004 -2.45 0  0.05000000000000004 -2.45 0  0.15 -2.45 0  0.25 -2.45 0  0.3500000000000001 -2.45 0  0.45 -2.45 0  0.55 -2.45 0  0.6499999999999999 -2.45 0  0.75 -2.45 0  -0.75 -2.4 0  -0.65 -2.4 0  -0.55 -2.4 0  -0.45 -2.4 0  -0.35 -2.4 0  -0.25 -2.4 0  -0.15 -2.4 0  -0.05000000000000004 -2.4 0  0.05000000000000004 -2.4 0  0.15 -2.4 0  0.25 -2.4 0  0.3500000000000001 -2.4 0  0.45 -2.4 0  0.55 -2.4 0  0.6499999999999999 -2.4 0  0.75 -2.4 0  -0.75 -2.35 0  -0.65 -2.35 0  -0.55 -2.35 0  -0.45 -2.35 0  -0.35 -2.35 0  -0.25 -2.35 0  -0.15 -2.35 0  -0.05000000000000004 -2.35 0  0.05000000000000004 -2.35 0  0.15 -2.35 0  0.25 -2.35 0  0.3500000000000001 -2.35 0  0.45 -2.35 0  0.55 -2.35 0  0.6499999999999999 -2.35 0  0.75 -2.35 0  -0.75 -2.3 0  -0.65 -2.3 0  -0.55 -2.3 0  -0.45 -2.3 0  -0.35 -2.3 0  -0.25 -2.3 0  -0.15 -2.3 0  -0.05000000000000004 -2.3 0  0.05000000000000004 -2.3 0  0.15 -2.3 0  0.25 -2.3 0  0.3500000000000001 -2.3 0  0.45 -2.3 0  0.55 -2.3 0  0.6499999999999999 -2.3 0  0.75 -2.3 0  -0.75 -2.25 0  -0.65 -2.25 0  -0.55 -2.25 0  -0.45 -2.25 0  -0.35 -2.25 0  -0.25 -2.25 0  -0.15 -2.25 0  -0.05000000000000004 -2.25 0  0.05000000000000004 -2.25 0  0.15 -2.25 0  0.25 -2.25 0  0.3500000000000001 -2.25 0  0.45 -2.25 0  0.55 -2.25 0  0.6499999999999999 -2.25 0  0.75 -2.25 0  -0.75 -2.2 0  -0.65 -2.2 0  -0.55 -2.2 0  -0.45 -2.2 0  -0.35 -2.2 0  -0.25 -2.2 0  -0.15 -2.2 0  -0.05000000000000004 -2.2 0  0.05000000000000004 -2.2 0  0.15 -2.2 0  0.25 -2.2 0  0.3500000000000001 -2.2 0  0.45 -2.2 0  0.55 -2.2 0  0.6499999999999999 -2.2 0  0.75 -2.2 0  -0.75 -2.15 0  -0.65 -2.15 0  -0.55 -2.15 0  -0.45 -2.15 0  -0.35 -2.15 0  -0.25 -2.15 0  -0.15 -2.15 0  -0.05000000000000004 -2.15 0  0.05000000000000004 -2.15 0  0.15 -2.15 0  0.25 -2.15 0  0.3500000000000001 -2.15 0  0.45 -2.15 0  0.55 -2.15 0  0.6499999999999999 -2.15 0  0.75 -2.15 0  -0.75 -2.1 0  -0.65 -2.1 0  -0.55 -2.1 0  -0.45 -2.1 0  -0.35 -2.1 0  -0.25 -2.1 0  -0.15 -2.1 0  -0.05000000000000004 -2.1 0  0.05000000000000004 -2.1 0  0.15 -2.1 0  0.25 -2.1 0  0.3500000000000001 -2.1 0  0.45 -2.1 0  0.55 -2.1 0  0.6499999999999999 -2.1 0  0.75 -2.1 0  -0.75 -2.05 0  -0.65 -2.05 0  -0.55 -2.05 0  -0.45 -2.05 0  -0.35 -2.05 0  -0.25 -2.05 0  -0.15 -2.05 0  -0.05000000000000004 -2.05 0  0.05000000000000004 -2.05 0  0.15 -2.05 0  0.25 -2.05 0  0.3500000000000001 -2.05 0  0.45 -2.05 0  0.55 -2.05 0  0.6499999999999999 -2.05 0  0.75 -2.05 0  -0.75 -2 0  -0.65 -2 0  -0.55 -2 0  -0.45 -2 0  -0.35 -2 0  -0.25 -2 0  -0.15 -2 0  -0.05000000000000004 -2 0  0.05000000000000004 -2 0  0.15 -2 0  0.25 -2 0  0.3500000000000001 -2 0  0.45 -2 0  0.55 -2 0  0.6499999999999999 -2 0  0.75 -2 0  -0.75 -1.95 0  -0.65 -1.95 0  -0.55 -1.95 0  -0.45 -1.95 0  -0.35 -1.95 0  -0.25 -1.95 0  -0.15 -1.95 0  -0.05000000000000004 -1.95 0  0.05000000000000004 -1.95 0  0.15 -1.95 0  0.25 -1.95 0  0.3500000000000001 -1.95 0  0.45 -1.95 0  0.55 -1.95 0  0.6499999999999999 -1.95 0  0.75 -1.95 0  -0.75 -1.9 0  -0.65 -1.9 0  -0.55 -1.9 0  -0.45 -1.9 0  -0.35 -1.9 0  -0.25 -1.9 0  -0.15 -1.9 0  -0.05000000000000004 -1.9 0  0.05000000000000004 -1.9 0  0.15 -1.9 0  0.25 -1.9 0  0.3500000000000001 -1.9 0  0.45 -1.9 0  0.55 -1.9 0  0.6499999999999999 -1.9 0  0.75 -1.9 0  -0.75 -1.85 0  -0.65 -1.85 0  -0.55 -1.85 0  -0.45 -1.85 0  -0.35 -1.85 0  -0.25 -1.85 0  -0.15 -1.85 0  -0.05000000000000004 -1.85 0  0.05000000000000004 -1.85 0  0.15 -1.85 0  0.25 -1.85 0  0.3500000000000001 -1.85 0  0.45 -1.85 0  0.55 -1.85 0  0.6499999999999999 -1.85 0  0.75 -1.85 0  -0.75 -1.8 0  -0.65 -1.8 0  -0.55 -1.8 0  -0.45 -1.8 0  -0.35 -1.8 0  -0.25 -1.8 0  -0.15 -1.8 0  -0.05000000000000004 -1.8 0  0.05000000000000004 -1.8 0  0.15 -1.8 0  0.25 -1.8 0  0.3500000000000001 -1.8 0  0.45 -1.8 0  0.55 -1.8 0  0.6499999999999999 -1.8 0  0.75 -1.8 0  -0.75 -1.75 0  -0.65 -1.75 0  -0.55 -1.75 0  -0.45 -1.75 0  -0.35 -1.75 0  -0.25 -1.75 0  -0.15 -1.75 0  -0.05000000000000004 -1.75 0  0.05000000000000004 -1.75 0  0.15 -1.75 0  0.25 -1.75 0  0.3500000000000001 -1.75 0  0.45 -1.75 0  0.55 -1.75 0  0.6499999999999999 -1.75 0  0.75 -1.75 0  -0.75 -1.7 0  -0.65 -1.7 0  -0.55 -1.7 0  -0.45 -1.7 0  -0.35 -1.7 0  -0.25 -1.7 0  -0.15 -1.7 0  -0.05000000000000004 -1.7 0  0.05000000000000004 -1.7 0  0.15 -1.7 0  0.25 -1.7 0  0.3500000000000001 -1.7 0  0.45 -1.7 0  0.55 -1.7 0  0.6499999999999999 -1.7 0  0.75 -1.7 0  -0.75 -1.65 0  -0.65 -1.65 0  -0.55 -1.65 0  -0.45 -1.65 0  -0.35 -1.65 0  -0.25 -1.65 0  -0.15 -1.65 0  -0.05000000000000004 -1.65 0  0.05000000000000004 -1.65 0  0.15 -1.65 0  0.25 -1.65 0  0.3500000000000001 -1.65 0  0.45 -1.65 0  0.55 -1.65 0  0.6499999999999999 -1.65 0  0.75 -1.65 0  -0.75 -1.6 0  -0.65 -1.6 0  -0.55 -1.6 0  -0.45 -1.6 0  -0.35 -1.6 0  -0.25 -1.6 0  -0.15 -1.6 0  -0.05000000000000004 -1.6 0  0.05000000000000004 -1.6 0  0.15 -1.6 0  0.25 -1.6 0  0.3500000000000001 -1.6 0  0.45 -1.6 0  0.55 -1.6 0  0.6499999999999999 -1.6 0  0.75 -1.6 0  -0.75 -1.55 0  -0.65 -1.55 0  -0.55 -1.55 0  -0.45 -1.55 0  -0.35 -1.55 0  -0.25 -1.55 0  -0.15 -1.55 0  -0.05000000000000004 -1.55 0  0.05000000000000004 -1.55 0  0.15 -1.55 0  0.25 -1.55 0  0.3500000000000001 -1.55 0  0.45 -1.55 0  0.55 -1.55 0  0.6499999999999999 -1.55 0  0.75 -1.55 0  -0.75 -1.5 0  -0.65 -1.5 0  -0.55 -1.5 0  -0.45 -1.5 0  -0.35 -1.5 0  -0.25 -1.5 0  -0.15 -1.5 0  -0.05000000000000004 -1.5 0  0.05000000000000004 -1.5 0  0.15 -1.5 0  0.25 -1.5 0  0.3500000000000001 -1.5 0  0.45 -1.5 0  0.55 -1.5 0  0.6499999999999999 -1.5 0  0.75 -1.5 0  -0.75 -1.45 0  -0.65 -1.45 0  -0.55 -1.45 0  -0.45 -1.45 0  -0.35 -1.45 0  -0.25 -1.45 0  -0.15 -1.45 0  -0.05000000000000004 -1.45 0  0.05000000000000004 -1.45 0  0.15 -1.45 0  0.25 -1.45 0  0.3500000000000001 -1.45 0  0.45 -1.45 0  0.55 -1.45 0  0.6499999999999999 -1.45 0  0.75 -1.45 0  -0.75 -1.4 0  -0.65 -1.4 0  -0.55 -1.4 0  -0.45 -1.4 0  -0.35 -1.4 0  -0.25 -1.4 0  -0.15 -1.4 0  -0.05000000000000004 -1.4 0  0.05000000000000004 -1.4 0  0.15 -1.4 0  0.25 -1.4 0  0.3500000000000001 -1.4 0  0.45 -1.4 0  0.55 -1.4 0  0.6499999999999999 -1.4 0  0.75 -1.4 0  -0.75 -1.35 0  -0.65 -1.35 0  -0.55 -1.35 0  -0.45 -1.35 0  -0.35 -1.35 0  -0.25 -1.35 0  -0.15 -1.35 0  -0.05000000000000004 -1.35 0  0.05000000000000004 -1.35 0  0.15 -1.35 0  0.25 -1.35 0  0.3500000000000001 -1.35 0  0.45 -1.35 0  0.55 -1.35 0  0.6499999999999999 -1.35 0  0.75 -1.35 0  -0.75 -1.3 0  -0.65 -1.3 0  -0.55 -1.3 0  -0.45 -1.3 0  -0.35 -1.3 0  -0.25 -1.3 0  -0.15 -1.3 0  -0.05000000000000004 -1.3 0  0.05000000000000004 -1.3 0  0.15 -1.3 0  0.25 -1.3 0  0.3500000000000001 -1.3 0  0.45 -1.3 0  0.55 -1.3 0  0.6499999999999999 -1.
[...]
<PointData  Vectors="displacement"> 
<DataArray  type="Float64"  Name="displacement"  NumberOfComponents="3" format="ascii">8.6666847497425666e-31 -3.2526065174565227e-16 0.0000000000000000e+00  -7.0325394587380435e-31 -1.3620289791849199e-16 0.0000000000000000e+00  3.0044507132440981e-30 -3.9031278209478293e-16 0.0000000000000000e+00  4.5066760698661473e-30 -1.0799670077492366e-16 0.0000000000000000e+00  2.7733391199176287e-30 -2.1141942363467405e-16 0.0000000000000000e+00  7.4313069519691509e-30 -2.1217379254352006e-16 0.0000000000000000e+00  2.7733391199176294e-30 -1.4636729328554362e-16 0.0000000000000000e+00  6.9327773112950652e-30 -1.4634756831612179e-16 0.0000000000000000e+00  2.7733391199176287e-30 1.3010426069826095e-16 0.0000000000000000e+00  5.0683516046339510e-30 -4.8232311725399012e-17 0.0000000000000000e+00  -4.6222318665293787e-30 -1.4636729328554349e-16 0.0000000000000000e+00  -3.1240690183837769e-30 1.0801649107107908e-16 0.0000000000000000e+00  -4.1600086798764428e-30 1.1384122811097834e-16 0.0000000000000000e+00  4.1741081987907296e-30 9.4528876913580189e-17 0.0000000000000000e+00  -3.2355623065705695e-30 -6.5052130349130537e-17 0.0000000000000000e+00  1.3866695599588133e-30 6.5052130349130426e-17 0.0000000000000000e+00  -1.1555579666323373e-30 -1.4912280701752549e+00 0.0000000000000000e+00  6.8588550768178618e-15 -1.4912280701752576e+00 0.0000000000000000e+00  1.5237240010102864e-14 -1.4912280701752578e+00 0.0000000000000000e+00  2.4433973381480500e-14 -1.4912280701752563e+00 0.0000000000000000e+00  3.1975562183438292e-14 -1.4912280701752552e+00 0.0000000000000000e+00  4.2842317183850878e-14 -1.4912280701752518e+00 0.0000000000000000e+00  5.1399629412219081e-14 -1.4912280701752429e+00 0.0000000000000000e+00  5.4255621608809184e-14 -1.4912280701752338e+00 0.0000000000000000e+00  5.4566217333626462e-14 -1.4912280701752245e+00 0.0000000000000000e+00  4.9016705250211523e-14 -1.4912280701752167e+00 0.0000000000000000e+00  4.3184945103163416e-14 -1.4912280701752119e+00 0.0000000000000000e+00  3.7795374545449751e-14 -1.4912280701752052e+00 0.0000000000000000e+00  3.0221919086314413e-14 -1.4912280701752014e+00 0.0000000000000000e+00  2.0971029470817806e-14 -1.4912280701751990e+00 0.0000000000000000e+00  1.1235276190699642e-14 -1.4912280701751952e+00 0.0000000000000000e+00  -2.3688450661621150e-30 -1.4912280701751941e+00 0.0000000000000000e+00  1.6466701024510881e-30 -2.9824561403505299e+00 0.0000000000000000e+00  1.3270870488480166e-14 -2.9824561403505312e+00 0.0000000000000000e+00  2.8856832336848976e-14 -2.9824561403505316e+00 0.0000000000000000e+00  4.5553748446698104e-14 -2.9824561403505263e+00 0.0000000000000000e+00  6.2015907211374051e-14 -2.9824561403505272e+00 0.0000000000000000e+00  7.8600343348522997e-14 -2.9824561403505201e+00 0.0000000000000000e+00  9.3549581987944832e-14 -2.9824561403505014e+00 0.0000000000000000e+00  1.0009911877241523e-13 -2.9824561403504828e+00 0.0000000000000000e+00  9.9216273734447111e-14 -2.9824561403504597e+00 0.0000000000000000e+00  9.1106938029905526e-14 -2.9824561403504450e+00 0.0000000000000000e+00  8.0117727181459051e-14 -2.9824561403504357e+00 0.0000000000000000e+00  7.0206956922010431e-14 -2.9824561403504224e+00 0.0000000000000000e+00  5.6965375567154327e-14 -2.9824561403504144e+00 0.0000000000000000e+00  3.8827460759916078e-14 -2.9824561403504082e+00 0.0000000000000000e+00  1.9551941303865056e-14 -2.9824561403503993e+00 0.0000000000000000e+00  1.5847652113814971e-30 -2.9824561403503971e+00 0.0000000000000000e+00  -2.7733391199176217e-30 -4.4736842105257910e+00 0.0000000000000000e+00  2.0401487467365052e-14 -4.4736842105257928e+00 0.0000000000000000e+00  4.0583516999420781e-14 -4.4736842105257963e+00 0.0000000000000000e+00  6.4020274522207696e-14 -4.4736842105257892e+00 0.0000000000000000e+00  8.8311309158299155e-14 -4.4736842105257866e+00 0.0000000000000000e+00  1.0902158720486086e-13 -4.4736842105257812e+00 0.0000000000000000e+00  1.2763458675375763e-13 -4.4736842105257484e+00 0.0000000000000000e+00  1.3788081583204767e-13 -4.4736842105257217e+00 0.0000000000000000e+00  1.3685166297057774e-13 -4.4736842105256835e+00 0.0000000000000000e+00  1.2603812263858571e-13 -4.4736842105256631e+00 0.0000000000000000e+00  1.1216568735502473e-13 -4.4736842105256427e+00 0.0000000000000000e+00  9.7390707140094156e-14 -4.4736842105256311e+00 0.0000000000000000e+00  7.9282354582048810e-14 -4.4736842105256125e+00 0.0000000000000000e+00  5.3055099587751277e-14 -4.4736842105255983e+00 0.0000000000000000e+00  2.6001422677577827e-14 -4.4736842105255903e+00 0.0000000000000000e+00  -2.7733391199176207e-30 -4.4736842105255850e+00 0.0000000000000000e+00  2.7855169747851624e-30 -5.9649122807010713e+00 0.0000000000000000e+00  2.6069182846094681e-14 -5.9649122807010730e+00 0.0000000000000000e+00  5.1915243932546005e-14 -5.9649122807010757e+00 0.0000000000000000e+00  7.9828730548546485e-14 -5.9649122807010686e+00 0.0000000000000000e+00  1.0901631856760282e-13 -5.9649122807010624e+00 0.0000000000000000e+00  1.3385405990317893e-13 -5.9649122807010500e+00 0.0000000000000000e+00  1.5595129325060800e-13 -5.9649122807010118e+00 0.0000000000000000e+00  1.6967911661987215e-13 -5.9649122807009727e+00 0.0000000000000000e+00  1.6599869982410836e-13 -5.9649122807009185e+00 0.0000000000000000e+00  1.5492910121481377e-13 -5.9649122807008865e+00 0.0000000000000000e+00  1.4284908641960776e-13 -5.9649122807008670e+00 0.0000000000000000e+00  1.2039521091515533e-13 -5.9649122807008492e+00 0.0000000000000000e+00  9.5067499060921703e-14 -5.9649122807008217e+00 0.0000000000000000e+00  6.5409207794517145e-14 -5.9649122807008039e+00 0.0000000000000000e+00  3.1764017837528831e-14 -5.9649122807007906e+00 0.0000000000000000e+00  -4.7517485058140043e-30 -5.9649122807007791e+00 0.0000000000000000e+00  1.8488927466117517e-30 -7.4561403508763417e+00 0.0000000000000000e+00  3.0148311904971869e-14 -7.4561403508763462e+00 0.0000000000000000e+00  6.0890787935318508e-14 -7.4561403508763417e+00 0.0000000000000000e+00  9.3626401246753734e-14 -7.4561403508763311e+00 0.0000000000000000e+00  1.2487347805398815e-13 -7.4561403508763231e+00 0.0000000000000000e+00  1.5556716598873363e-13 -7.4561403508763080e+00 0.0000000000000000e+00  1.8162020120761927e-13 -7.4561403508762645e+00 0.0000000000000000e+00  1.9422292888433247e-13 -7.4561403508762094e+00 0.0000000000000000e+00  1.9061144556399752e-13 -7.4561403508761392e+00 0.0000000000000000e+00  1.7978201918913107e-13 -7.4561403508761064e+00 0.0000000000000000e+00  1.6389005716810023e-13 -7.4561403508760726e+00 0.0000000000000000e+00  1.3873116564566404e-13 -7.4561403508760380e+00 0.0000000000000000e+00  1.0809412308341220e-13 -7.4561403508760113e+00 0.0000000000000000e+00  7.4813988338141617e-14 -7.4561403508759891e+00 0.0000000000000000e+00  3.8079475394183823e-14 -7.4561403508759740e+00 0.0000000000000000e+00  1.8132329499852064e-30 -7.4561403508759732e+00 0.0000000000000000e+00  2.3625038443052217e-30 -8.9473684210515980e+00 0.0000000000000000e+00  3.1434392810484728e-14 -8.9473684210516087e+00 0.0000000000000000e+00  6.7528729345829564e-14 -8.9473684210516105e+00 0.0000000000000000e+00  1.0528672243463167e-13 -8.9473684210515909e+00 0.0000000000000000e+00  1.3964531873058672e-13 -8.9473684210515874e+00 0.0000000000000000e+00  1.7458909015613515e-13 -8.9473684210515643e+00 0.0000000000000000e+00  2.0131900265649190e-13 -8.9473684210515163e+00 0.0000000000000000e+00  2.1284309905385848e-13 -8.9473684210514381e+00 0.0000000000000000e+00  2.0836110199972484e-13 -8.9473684210513618e+00 0.0000000000000000e+00  2.0071744955392169e-13 -8.9473684210513138e+00 0.0000000000000000e+00  1.8053979867866398e-13 -8.9473684210512765e+00 0.0000000000000000e+00  1.5316091829042948e-13 -8.9473684210512321e+00 0.0000000000000000e+00  1.2038883729566162e-13 -8.9473684210512072e+00 0.0000000000000000e+00  8.3195739726367185e-14 -8.9473684210511770e+00 0.0000000000000000e+00  4.3932331161680840e-14 -8.9473684210511610e+00 0.0000000000000000e+00  8.9803361978284516e-30 -8.9473684210511433e+00 0.0000000000000000e+00  6.9333477997940547e-30 -1.0438596491226887e+01 0.0000000000000000e+00  3.3266310156587269e-14 -1.0438596491226891e+01 0.0000000000000000e+00  7.5796978848390158e-14 -1.0438596491226910e+01 0.0000000000000000e+00  1.1705465217953097e-13 -1.0438596491226876e+01 0.0000000000000000e+00  1.5328829086504797e-13 -1.0438596491226862e+01 0.0000000000000000e+00  1.8917864596181162e-13 -1.0438596491226845e+01 0.0000000000000000e+00  2.1452434976070170e-13 -1.0438596491226768e+01 0.0000000000000000e+00  2.2589943521711889e-13 -1.0438596491226686e+01 0.0000000000000000e+00  2.2515638506229801e-13 -1.0438596491226605e+01 0.0000000000000000e+00  2.1385242235871149e-13 -1.0438596491226537e+01 0.0000000000000000e+00  1.9338443346641524e-13 -1.0438596491226498e+01 0.0000000000000000e+00  1.6623071201750573e-13 -1.0438596491226443e+01 0.0000000000000000e+00  1.3246439025626224e-13 -1.0438596491226418e+01 0.0000000000000000e+00  9.0853166826520175e-14 -1.0438596491226376e+01 0.0000000000000000e+00  4.4463956309329919e-14 -1.0438596491226356e+01 0.0000000000000000e+00  -9.2444637330587377e-30 -1.0438596491226345e+01 0.0000000000000000e+00  -9.2545819105852935e-30 -1.1929824561402150e+01 0.0000000000000000e+00  4.0423150098766793e-14 -1.1929824561402159e+01 0.0000000000000000e+00  8.0769660451676527e-14 -1.1929824561402175e+01 0.0000000000000000e+00  1.2531680037692338e-13 -1.1929824561402144e+01 0.0000000000000000e+00  1.6632675759254446e-13 -1.1929824561402135e+01 0.0000000000000000e+00  1.9989240642974045e-13 -1.1929824561402121e+01 0.0000000000000000e+00  2.2461499168497247e-13 -1.1929824561402011e+01 0.0000000000000000e+00  2.3724685302667428e-13 -1.1929824561401929e+01 0.0000000000000000e+00  2.3614224030168474e-13 -1.1929824561401826e+01 0.0000000000000000e+00  2.2072700585584962e-13 -1.1929824561401761e+01 0.0000000000000000e+00  2.0331491634240334e-13 -1.1929824561401704e+01 0.0000000000000000e+00  1.7450306239842288e-13 -1.1929824561401661e+01 0.0000000000000000e+00  1.4159877011777605e-13 -1.1929824561401604e+01 0.0000000000000000e+00  9.6267913753298178e-14 -1.1929824561401569e+01 0.0000000000000000e+00  4.4091736716479820e-14 -1.1929824561401539e+01 0.0000000000000000e+00  2.3054388691863929e-30 -1.1929824561401524e+01 0.0000000000000000e+00  9.7066869197116337e-30 -1.3421052631577433e+01 0.0000000000000000e+00  4.1799083983682415e-14 -1.3421052631577430e+01 0.0000000000000000e+00  8.5768645508180492e-14 -1.3421052631577462e+01 0.0000000000000000e+00  1.3320834649630683e-13 -1.3421052631577425e+01 0.0000000000000000e+00  1.7448978955612094e-13 -1.3421052631577419e+01 0.0000000000000000e+00  2.0563175278845028e-13 -1.3421052631577377e+01 0.0000000000000000e+00  2.3054199168946693e-13 -1.3421052631577277e+01 0.0000000000000000e+00  2.4668036304916268e-13 -1.3421052631577171e+01 0.0000000000000000e+00  2.4145315590552704e-13 -1.3421052631577044e+01 0.0000000000000000e+00  2.2576375413621937e-13 -1.3421052631576989e+01 0.0000000000000000e+00  2.1257721604303925e-13 -1.3421052631576918e+01 0.0000000000000000e+00  1.8219849598687958e-13 -1.3421052631576881e+01 0.0000000000000000e+00  1.4470026807620147e-13 -1.3421052631576835e+01 0.0000000000000000e+00  9.7595605142836126e-14 -1.3421052631576758e+01 0.0000000000000000e+00  4.5324603149205512e-14 -1.3421052631576753e+01 0.0000000000000000e+00  -6.3916457160450035e-30 -1.3421052631576721e+01 0.0000000000000000e+00  -1.9629264401517597e-30 -1.4912280701752707e+01 0.0000000000000000e+00  4.2981774567167186e-14 -1.4912280701752710e+01 0.0000000000000000e+00  9.1724063456319929e-14 -1.4912280701752728e+01 0.0000000000000000e+00  1.3848575210281062e-13 -1.4912280701752696e+01 0.0000000000000000e+00  1.7811638965850800e-13 -1.4912280701752675e+01 0.0000000000000000e+00  2.0946428928151190e-13 -1.4912280701752636e+01 0.0000000000000000e+00  2.3307962226562972e-13 -1.4912280701752536e+01 0.0000000000000000e+00  2.5129847215957686e-13 -1.4912280701752405e+01 0.0000000000000000e+00  2.4862009952523964e-13 -1.4912280701752282e+01 0.0000000000000000e+00  2.3198071605460668e-13 -1.4912280701752218e+01 0.0000000000000000e+00  2.1461945037922110e-13 -1.4912280701752136e+01 0.0000000000000000e+00  1.8506959369456934e-13 -1.4912280701752046e+01 0.0000000000000000e+00  1.4470113356829928e-13 -1.4912280701752019e+01 0.0000000000000000e+00  9.8172099987772858e-14 -1.4912280701751932e+01 0.0000000000000000e+00  4.7876776789577305e-14 -1.4912280701751927e+01 0.0000000000000000e+00  4.5561999827218159e-30 -1.4912280701751907e+01 0.0000000000000000e+00  7.3955709864469591e-30 -1.6403508771927960e+01 0.0000000000000000e+00  4.2439841611808727e-14 -1.6403508771927985e+01 0.0000000000000000e+00  9.4122506989266939e-14 -1.6403508771928006e+01 0.0000000000000000e+00  1.4141159680453383e-13 -1.6403508771927960e+01 0.0000000000000000e+00  1.7909444524271195e-13 -1.6403508771927942e+01 0.0000000000000000e+00  2.1315550678529905e-13 -1.6403508771927878e+01 0.0000000000000000e+00  2.3629237950702852e-13 -1.6403508771927783e+01 0.0000000000000000e+00  2.5272228241129904e-13 -1.6403508771927655e+01 0.0000000000000000e+00  2.5300029508206381e-13 -1.6403508771927505e+01 0.0000000000000000e+00  2.3722953201570608e-13 -1.6403508771927438e+01 0.0000000000000000e+00  2.0997893268373162e-13 -1.6403508771927335e+01 0.0000000000000000e+00  1.8505303752314083e-13 -1.6403508771927257e+01 0.0000000000000000e+00  1.4604622018887430e-13 -1.6403508771927214e+01 0.0000000000000000e+00  1.0040111610298083e-13 -1.6403508771927140e+01 0.0000000000000000e+00  5.1576274106807723e-14 -1.6403508771927118e+01 0.0000000000000000e+00  9.2444637330586953e-31 -1.6403508771927090e+01 0.0000000000000000e+00  -1.8059276222090454e-30 -1.7894736842103249e+01 0.0000000000000000e+00  4.3968577264286684e-14 -1.7894736842103260e+01 0.0000000000000000e+00  9.6762153151317096e-14 -1.7894736842103281e+01 0.0000000000000000e+00  1.3984999511635687e-13 -1.7894736842103235e+01 0.0000000000000000e+00  1.8049166699602028e-13 -1.7894736842103217e+01 0.0000000000000000e+00  2.1254680435195057e-13 -1.7894736842103164e+01 0.0000000000000000e+00  2.3930088765990936e-13 -1.7894736842103036e+01 0.0000000000000000e+00  2.5476783211131185e-13 -1.7894736842102908e+01 0.0000000000000000e+00  2.5030601595564287e-13 -1.7894736842102752e+01 0.0000000000000000e+00  2.3914792992148090e-13 -1.7894736842102663e+01 0.0000000000000000e+00  2.0829165390390203e-13 -1.7894736842102578e+01 0.0000000000000000e+00  1.8598564669558085e-13 -1.7894736842102485e+01 0.0000000000000000e+00  1.5157879196972621e-13 -1.7894736842102414e+01 0.0000000000000000e+00  1.0149387028483018e-13 -1.7894736842102354e+01 0.0000000000000000e+00  5.1506716146107305e-14 -1.7894736842102322e+01 0.0000000000000000e+00  3.3142535620201318e-30 -1.7894736842102290e+01 0.0000000000000000e+00  -2.3111159332646848e-30 -1.9385964912278510e+01 0.0000000000000000e+00  5.1953844018595084e-14 -1.9385964912278524e+01 0.0000000000000000e+00  9.7529403005153940e-14 -1.9385964912278549e+01 0.0000000000000000e+00  1.4306747963198121e-13 -1.9385964912278514e+01 0.0000000000000000e+00  1.7987573216976567e-13 -1.9385964912278482e+01 0.0000000000000000e+00  2.1168798953561457e-13 -1.9385964912278428e+01 0.0000000000000000e+00  2.3911813736777346e-13 -1.9385964912278290e+01 0.0000000000000000e+00  2.5223882522039620e-13 -1.9385964912278133e+01 0.0000000000000000e+00  2.5013589032748603e-13 -1.9385964912277995e+01 0.0000000000000000e+00  2.3593296726457661e-13 -1.9385964912277860e+01 0.0000000000000000e+00  2.1009143589266073e-13 -1.9385964912277778e+01 0.0000000000000000e+00  1.8281911209095531e-13 -1.9385964912277700e+01 0.0000000000000000e+00  1.5046611022499832e-13 -1.9385964912277618e+01 0.0000000000000000e+00  1.0218621388042958e-13 -1.9385964912277540e+01 0.0000000000000000e+00  4.6150937668893728e-14 -1.9385964912277529e+01 0.0000000000000000e+00  -7.5728021894351716e-30 -1.9385964912277476e+01 0.0000000000000000e+00  8.3352341341242240e-30 -2.0877192982453796e+01 0.0000000000000000e+00  5.4520379421033757e-14 -2.0877192982453785e+01 0.0000000000000000e+00  1.0367707163759094e-13 -2.0877192982453845e+01 0.0000000000000000e+00  1.4196422519561175e-13 -2.0877192982453789e+01 0.0000000000000000e+00  1.8022063025196479e-13 -2.0877192982453767e+01 0.0000000000000000e+00  2.0878449005789864e-13 -2.0877192982453707e+01 0.0000000000000000e+00  2.3418758830086538e-13 -2.0877192982453561e+01 0.0000000000000000e+00  2.5109863043526297e-13 -2.0877192982453387e+01 0.0000000000000000e+00  2.4893570845533171e-13 -2.0877192982453206e+01 0.0000000000000000e+00  2.2995876515399885e-13 -2.0877192982453128e+01 0.0000000000000000e+00  2.1450715533686474e-13 -2.0877192982453018e+01 0.0000000000000000e+00  1.8310960910426126e-13 -2.0877192982452915e+01 0.0000000000000000e+00  1.4417026778790474e-13 -2.0877192982452847e+01 0.0000000000000000e+00  1.0118591075140964e-13 -2.0877192982452758e+01 0.0000000000000000e+00  4.7275592142608911e-14 -2.0877192982452712e+01 0.0000000000000000e+00  -1.7828608628041770e-30 -2.0877192982452684e+01 0.0000000000000000e+00  1.8488927466117517e-30 -2.2368421052629092e+01 0.0000000000000000e+00  6.0874744806531870e-14 -2.2368421052629088e+01 0.0000000000000000e+00  1.1591816965318109e-13 -2.2368421052629106e+01 0.0000000000000000e+00  1.5150603183040519e-13 -2.2368421052629042e+01 0.0000000000000000e+00  1.8074797263694919e-13 -2.2368421052628985e+01 0.0000000000000000e+00  2.0625835791639599e-13 -2.2368421052628985e+01 0.0000000000000000e+00  2.3356845985765661e-13 -2.2368421052628833e+01 0.0000000000000000e+00  2.4515221051394979e-13 -2.2368421052628648e+01 0.0000000000000000e+00  2.4516736524939144e-13 -2.2368421052628459e+01 0.0000000000000000e+00  2.2967985714391320e-13 -2.2368421052628346e+01 0.0000000000000000e+00  2.1320298139572949e-13 -2.2368421052628221e+01 0.0000000000000000e+00  1.8246918527048972e-13 -2.2368421052628104e+01 0.0000000000000000e+00  1.4225069760376243e-13 -2.2368421052628047e+01 0.0000000000000000e+00  9.4495168096922657e-14 -2.2368421052627944e+01 0.0000000000000000e+00  4.7969875275593612e-14 -2.2368421052627902e+01 0.0000000000000000e+00  -9.2444637330587566e-31 -2.2368421052627902e+01 0.0000000000000000e+00  -1.1152312155425550e-29 -2.3859649122804374e+01 0.0000000000000000e+00  5.9212962224907290e-14 -2.3859649122804353e+01 0.0000000000000000e+00  1.2198681582749224e-13 -2.3859649122804338e+01 0.0000000000000000e+00  1.6140662800846201e-13 -2.3859649122804296e+01 0.0000000000000000e+00  1.8137985328249225e-13 -2.3859649122804264e+01 0.0000000000000000e+00  2.0536241754131444e-13 -2.3859649122804218e+01 0.0000000000000000e+00  2.3453044702953754e-13 -2.3859649122804065e+01 0.0000000000000000e+00  2.3980609716263427e-13 -2.3859649122803866e+01 0.0000000000000000e+00  2.3675017008258784e-13 -2.3859649122803720e+01 0.0000000000000000e+00  2.3625539377723205e-13 -2.3859649122803567e+01 0.0000000000000000e+00  2.1112250928456407e-13 -2.3859649122803482e+01 0.0000000000000000e+00  1.7999086880446563e-13 -2.3859649122803351e+01 0.0000000000000000e+00  1.3992909337782653e-13 -2.3859649122803280e+01 0.0000000000000000e+00  9.4459409427355230e-14 -2.3859649122803177e+01 0.0000000000000000e+00  5.0897952390939307e-14 -2.3859649122803123e+01 0.0000000000000000e+00  1.1941611932426321e-29 -2.3859649122803091e+01 0.0000000000000000e+00  -2.7733391199176217e-30 -2.5350877192979684e+01 0.0000000000000000e+00  6.0178728087676138e-14 -2.5350877192979663e+01 0.0000000000000000e+00  1.2621897550941275e-13 -2.5350877192979667e+01 0.0000000000000000e+00  1.6679653550912170e-13 -2.5350877192979556e+01 0.0000000000000000e+00  1.9017372226809218e-13 -2.5350877192979517e+01 0.0000000000000000e+00  2.0929345924630860e-13 -2.5350877192979482e+01 0.0000000000000000e+00  2.2311879446480052e-13 -2.5350877192979301e+01 0.0000000000000000e+00  2.3343230452763242e-13 -2.5350877192979127e+01 0.00