<?xml version="1.0"?>
<VTKFile type="UnstructuredGrid"  version="0.1"  >
<UnstructuredGrid>
<Piece  NumberOfPoints="431" NumberOfCells="800">
<Points>
<DataArray  type="Float64"  NumberOfComponents="3"  format="ascii">-0.75 -3 0  -0.6 -3 0  -0.45 -3 0  -0.3 -3 0  -0.15 -3 0  0 -3 0  0.15 -3 0  0.3 -3 0  0.45 -3 0  0.6000000000000001 -3 0  0.75 -3 0  -0.75 -2.85 0  -0.6 -2.85 0  -0.45 -2.85 0  -0.3 -2.85 0  -0.15 -2.85 0  0 -2.85 0  0.15 -2.85 0  0.3 -2.85 0  0.45 -2.85 0  0.6000000000000001 -2.85 0  0.75 -2.85 0  -0.75 -2.7 0  -0.6 -2.7 0  -0.45 -2.7 0  -0.3 -2.7 0  -0.15 -2.7 0  0 -2.7 0  0.15 -2.7 0  0.3 -2.7 0  0.45 -2.7 0  0.6000000000000001 -2.7 0  0.75 -2.7 0  -0.75 -2.55 0  -0.6 -2.55 0  -0.45 -2.55 0  -0.3 -2.55 0  -0.15 -2.55 0  0 -2.55 0  0.15 -2.55 0  0.3 -2.55 0  0.45 -2.55 0  0.6000000000000001 -2.55 0  0.75 -2.55 0  -0.75 -2.4 0  -0.6 -2.4 0  -0.45 -2.4 0  -0.3 -2.4 0  -0.15 -2.4 0  0 -2.4 0  0.15 -2.4 0  0.3 -2.4 0  0.45 -2.4 0  0.6000000000000001 -2.4 0  0.75 -2.4 0  -0.75 -2.25 0  -0.6 -2.25 0  -0.45 -2.25 0  -0.3 -2.25 0  -0.15 -2.25 0  0 -2.25 0  0.15 -2.25 0  0.3 -2.25 0  0.45 -2.25 0  0.6000000000000001 -2.25 0  0.75 -2.25 0  -0.75 -2.1 0  -0.6 -2.1 0  -0.45 -2.1 0  -0.3 -2.1 0  -0.15 -2.1 0  0 -2.1 0  0.15 -2.1 0  0.3 -2.1 0  0.45 -2.1 0  0.6000000000000001 -2.1 0  0.75 -2.1 0  -0.75 -1.95 0  -0.6 -1.95 0  -0.45 -1.95 0  -0.3 -1.95 0  -0.15 -1.95 0  0 -1.95 0  0.15 -1.95 0  0.3 -1.95 0  0.45 -1.95 0  0.6000000000000001 -1.95 0  0.75 -1.95 0  -0.75 -1.8 0  -0.6 -1.8 0  -0.45 -1.8 0  -0.3 -1.8 0  -0.15 -1.8 0  0 -1.8 0  0.15 -1.8 0  0.3 -1.8 0  0.45 -1.8 0  0.6000000000000001 -1.8 0  0.75 -1.8 0  -0.75 -1.65 0  -0.6 -1.65 0  -0.45 -1.65 0  -0.3 -1.65 0  -0.15 -1.65 0  0 -1.65 0  0.15 -1.65 0  0.3 -1.65 0  0.45 -1.65 0  0.6000000000000001 -1.65 0  0.75 -1.65 0  -0.75 -1.5 0  -0.6 -1.5 0  -0.45 -1.5 0  -0.3 -1.5 0  -0.15 -1.5 0  0 -1.5 0  0.15 -1.5 0  0.3 -1.5 0  0.45 -1.5 0  0.6000000000000001 -1.5 0  0.75 -1.5 0  -0.75 -1.35 0  -0.6 -1.35 0  -0.45 -1.35 0  -0.3 -1.35 0  -0.15 -1.35 0  0 -1.35 0  0.15 -1.35 0  0.3 -1.35 0  0.45 -1.35 0  0.6000000000000001 -1.35 0  0.75 -1.35 0  -0.75 -1.2 0  -0.6 -1.2 0  -0.45 -1.2 0  -0.3 -1.2 0  -0.15 -1.2 0  0 -1.2 0  0.15 -1.2 0  0.3 -1.2 0  0.45 -1.2 0  0.6000000000000001 -1.2 0  0.75 -1.2 0  -0.75 -1.05 0  -0.6 -1.05 0  -0.45 -1.05 0  -0.3 -1.05 0  -0.15 -1.05 0  0 -1.05 0  0.15 -1.05 0  0.3 -1.05 0  0.45 -1.05 0  0.6000000000000001 -1.05 0  0.75 -1.05 0  -0.75 -0.8999999999999999 0  -0.6 -0.8999999999999999 0  -0.45 -0.8999999999999999 0  -0.3 -0.8999999999999999 0  -0.15 -0.8999999999999999 0  0 -0.8999999999999999 0  0.15 -0.8999999999999999 0  0.3 -0.8999999999999999 0  0.45 -0.8999999999999999 0  0.6000000000000001 -0.8999999999999999 0  0.75 -0.8999999999999999 0  -0.75 -0.75 0  -0.6 -0.75 0  -0.45 -0.75 0  -0.3 -0.75 0  -0.15 -0.75 0  0 -0.75 0  0.15 -0.75 0  0.3 -0.75 0  0.45 -0.75 0  0.6000000000000001 -0.75 0  0.75 -0.75 0  -0.75 -0.6000000000000001 0  -0.6 -0.6000000000000001 0  -0.45 -0.6000000000000001 0  -0.3 -0.6000000000000001 0  -0.15 -0.6000000000000001 0  0 -0.6000000000000001 0  0.15 -0.6000000000000001 0  0.3 -0.6000000000000001 0  0.45 -0.6000000000000001 0  0.6000000000000001 -0.6000000000000001 0  0.75 -0.6000000000000001 0  -0.75 -0.4500000000000002 0  -0.6 -0.4500000000000002 0  -0.45 -0.4500000000000002 0  -0.3 -0.4500000000000002 0  -0.15 -0.4500000000000002 0  0 -0.4500000000000002 0  0.15 -0.4500000000000002 0  0.3 -0.4500000000000002 0  0.45 -0.4500000000000002 0  0.6000000000000001 -0.4500000000000002 0  0.75 -0.4500000000000002 0  -0.75 -0.2999999999999998 0  -0.6 -0.2999999999999998 0  -0.45 -0.2999999999999998 0  -0.3 -0.2999999999999998 0  -0.15 -0.2999999999999998 0  0 -0.2999999999999998 0  0.15 -0.2999999999999998 0  0.3 -0.2999999999999998 0  0.45 -0.2999999999999998 0  0.6000000000000001 -0.2999999999999998 0  0.75 -0.2999999999999998 0  -0.75 -0.1499999999999999 0  -0.6 -0.1499999999999999 0  -0.45 -0.1499999999999999 0  -0.3 -0.1499999999999999 0  -0.15 -0.1499999999999999 0  0 -0.1499999999999999 0  0.15 -0.1499999999999999 0  0.3 -0.1499999999999999 0  0.45 -0.1499999999999999 0  0.6000000000000001 -0.1499999999999999 0  0.75 -0.1499999999999999 0  -0.75 0 0  -0.6 0 0  -0.45 0 0  -0.3 0 0  -0.15 0 0  0 0 0  0.15 0 0  0.3 0 0  0.45 0 0  0.6000000000000001 0 0  0.75 0 0  -0.675 -2.925 0  -0.525 -2.925 0  -0.375 -2.925 0  -0.225 -2.925 0  -0.07499999999999996 -2.925 0  0.07499999999999996 -2.925 0  0.225 -2.925 0  0.375 -2.925 0  0.5249999999999999 -2.925 0  0.675 -2.925 0  -0.675 -2.775 0  -0.525 -2.775 0  -0.375 -2.775 0  -0.225 -2.775 0  -0.07499999999999996 -2.775 0  0.07499999999999996 -2.775 0  0.225 -2.775 0  0.375 -2.775 0  0.5249999999999999 -2.775 0  0.675 -2.775 0  -0.675 -2.625 0  -0.525 -2.625 0  -0.375 -2.625 0  -0.225 -2.625 0  -0.07499999999999996 -2.625 0  0.07499999999999996 -2.625 0  0.225 -2.625 0  0.375 -2.625 0  0.5249999999999999 -2.625 0  0.675 -2.625 0  -0.675 -2.475 0  -0.525 -2.475 0  -0.375 -2.475 0  -0.225 -2.475 0  -0.07499999999999996 -2.475 0  0.07499999999999996 -2.475 0  0.225 -2.475 0  0.375 -2.475 0  0.5249999999999999 -2.475 0  0.675 -2.475 0  -0.675 -2.325 0  -0.525 -2.325 0  -0.375 -2.325 0  -0.225 -2.325 0  -0.07499999999999996 -2.325 0  0.07499999999999996 -2.325 0  0.225 -2.325 0  0.375 -2.325 0  0.5249999999999999 -2.325 0  0.675 -2.325 0  -0.675 -2.175 0  -0.525 -2.175 0  -0.375 -2.175 0  -0.225 -2.175 0  -0.07499999999999996 -2.175 0  0.07499999999999996 -2.175 0  0.225 -2.175 0  0.375 -2.175 0  0.5249999999999999 -2.175 0  0.675 -2.175 0  -0.675 -2.025 0  -0.525 -2.025 0  -0.375 -2.025 0  -0.225 -2.025 0  -0.07499999999999996 -2.025 0  0.07499999999999996 -2.025 0  0.225 -2.025 0  0.375 -2.025 0  0.5249999999999999 -2.025 0  0.675 -2.025 0  -0.675 -1.875 0  -0.525 -1.875 0  -0.375 -1.875 0  -0.225 -1.875 0  -0.07499999999999996 -1.875 0  0.07499999999999996 -1.875 0  0.225 -1.875 0  0.375 -1.875 0  0.5249999999999999 -1.875 0  0.675 -1.875 0  -0.675 -1.725 0  -0.525 -1.725 0  -0.375 -1.725 0  -0.225 -1.725 0  -0.07499999999999996 -1.725 0  0.07499999999999996 -1.725 0  0.225 -1.725 0  0.375 -1.725 0  0.5249999999999999 -1.725 0  0.675 -1.725 0  -0.675 -1.575 0  -0.525 -1.575 0  -0.375 -1.575 0  -0.225 -1.575 0  -0.07499999999999996 -1.575 0  0.07499999999999996 -1.575 0  0.225 -1.575 0  0.375 -1.575 0  0.5249999999999999 -1.575 0  0.675 -1.575 0  -0.675 -1.425 0  -0.525 -1.425 0  -0.375 -1.425 0  -0.225 -1.425 0  -0.07499999999999996 -1.425 0  0.07499999999999996 -1.425 0  0.225 -1.425 0  0.375 -1.425 0  0.5249999999999999 -1.425 0  0.675 -1.425 0  -0.675 -1.275 0  -0.525 -1.275 0  -0.375 -1.275 0  -0.225 -1.275 0  -0.07499999999999996 -1.275 0  0.07499999999999996 -1.275 0  0.225 -1.275 0  0.375 -1.275 0  0.5249999999999999 -1.275 0  0.675 -1.275 0  -0.675 -1.125 0  -0.525 -1.125 0  -0.375 -1.125 0  -0.225 -1.125 0  -0.07499999999999996 -1.125 0  0.07499999999999996 -1.125 0  0.225 -1.125 0  0.375 -1.125 0  0.5249999999999999 -1.125 0  0.675 -1.125 0  -0.675 -0.9750000000000001 0  -0.525 -0.9750000000000001 0  -0.375 -0.9750000000000001 0  -0.225 -0.9750000000000001 0  -0.07499999999999996 -0.9750000000000001 0  0.07499999999999996 -0.9750000000000001 0  0.225 -0.9750000000000001 0  0.375 -0.9750000000000001 0  0.5249999999999999 -0.9750000000000001 0  0.675 -0.9750000000000001 0  -0.675 -0.8250000000000002 0  -0.525 -0.8250000000000002 0  -0.375 -0.8250000000000002 0  -0.225 -0.8250000000000002 0  -0.07499999999999996 -0.8250000000000002 0  0.07499999999999996 -0.8250000000000002 0  0.225 -0.8250000000000002 0  0.375 -0.8250000000000002 0  0.5249999999999999 -0.8250000000000002 0  0.675 -0.8250000000000002 0  -0.675 -0.6749999999999998 0  -0.525 -0.6749999999999998 0  -0.375 -0.6749999999999998 0  -0.225 -0.6749999999999998 0  -0.07499999999999996 -0.6749999999999998 0  0.07499999999999996 -0.6749999999999998 0  0.225 -0.6749999999999998 0  0.375 -0.6749999999999998 0  0.5249999999999999 -0.6749999999999998 0  0.675 -0.6749999999999998 0  -0.675 -0.5249999999999999 0  -0.525 -0.5249999999999999 0  -0.375 -0.5249999999999999 0  -0.225 -0.5249999999999999 0  -0.07499999999999996 -0.5249999999999999 0  0.07499999999999996 -0.5249999999999999 0  0.225 -0.5249999999999999 0  0.375 -0.5249999999999999 0  0.5249999999999999 -0.5249999999999999 0  0.675 -0.5249999999999999 0  -0.675 -0.375 0  -0.525 -0.375 0  -0.375 -0.375 0  -0.225 -0.375 0  -0.07499999999999996 -0.375 0  0.07499999999999996 -0.375 0  0.225 -0.375 0  0.375 -0.375 0  0.5249999999999999 -0.375 0  0.675 -0.375 0  -0.675 -0.2250000000000001 0  -0.525 -0.2250000000000001 0  -0.375 -0.2250000000000001 0  -0.225 -0.2250000000000001 0  -0.07499999999999996 -0.2250000000000001 0  0.07499999999999996 -0.2250000000000001 0  0.225 -0.2250000000000001 0  0.375 -0.2250000000000001 0  0.5249999999999999 -0.2250000000000001 0  0.675 -0.2250000000000001 0  -0.675 -0.07500000000000018 0  -0.525 -0.07500000000000018 0  -0.375 -0.07500000000000018 0  -0.225 -0.07500000000000018 0  -0.07499999999999996 -0.07500000000000018 0  0.07499999999999996 -0.07500000000000018 0  0.225 -0.07500000000000018 0  0.375 -0.07500000000000018 0  0.5249999999999999 -0.07500000000000018 0  0.675 -0.07500000000000018 0  </DataArray>
</Points>
<Cells>
[...]
<PointData  Vectors="displacement"> 
<DataArray  type="Float64"  Name="displacement"  NumberOfComponents="3" format="ascii">-1.9721522630525259e-28 -7.4014868308343696e-15 0.0000000000000000e+00  1.9721522630525275e-28 -3.2381504884900365e-15 0.0000000000000000e+00  -6.1629758220391491e-29 -5.6486933186494726e-15 0.0000000000000000e+00  1.0518145402946814e-28 -5.0885221961986289e-15 0.0000000000000000e+00  -1.1189427954147184e-28 -3.2090754276531504e-15 0.0000000000000000e+00  -8.6774699574311209e-28 -9.2518585385429628e-15 0.0000000000000000e+00  -1.3022881493287222e-27 5.6405618023558297e-15 0.0000000000000000e+00  4.7331654313260663e-28 -7.4014868308343696e-15 0.0000000000000000e+00  -5.2489080890035407e-28 -4.1633363423443339e-15 0.0000000000000000e+00  1.8406754455156911e-28 -5.5511151231257732e-15 0.0000000000000000e+00  0.0000000000000000e+00 -7.4014868308343743e-15 0.0000000000000000e+00  6.3108872417680989e-28 -4.9619295558271169e+01 0.0000000000000000e+00  2.0967633247039206e-12 -4.9619295558267524e+01 0.0000000000000000e+00  -1.0787082698300068e-12 -4.9619295558268242e+01 0.0000000000000000e+00  3.5727519515578784e-12 -4.9619295558270053e+01 0.0000000000000000e+00  -1.6781785316528565e-12 -4.9619295558265073e+01 0.0000000000000000e+00  -5.5933343336688189e-12 -4.9619295558270018e+01 0.0000000000000000e+00  -2.0499228834007286e-12 -4.9619295558268448e+01 0.0000000000000000e+00  -6.7786249435088325e-14 -4.9619295558264163e+01 0.0000000000000000e+00  -4.0202236370245687e-12 -4.9619295558268831e+01 0.0000000000000000e+00  -1.5628548807287116e-12 -4.9619295558267474e+01 0.0000000000000000e+00  -1.7077456504061078e-28 -4.9619295558266138e+01 0.0000000000000000e+00  3.3509517728278448e-28 -9.9238591126277612e+01 0.0000000000000000e+00  3.3040155397590397e-12 -9.9238591126272155e+01 0.0000000000000000e+00  1.9556177570701735e-13 -9.9238591126277427e+01 0.0000000000000000e+00  9.5443140485486317e-13 -9.9238591126272993e+01 0.0000000000000000e+00  -3.3361788246705399e-12 -9.9238591126276660e+01 0.0000000000000000e+00  -3.6484435595446915e-12 -9.9238591126277086e+01 0.0000000000000000e+00  -2.8408811855431538e-12 -9.9238591126279147e+01 0.0000000000000000e+00  -7.3696353646896055e-12 -9.9238591126276887e+01 0.0000000000000000e+00  -1.0022098615990650e-12 -9.9238591126268929e+01 0.0000000000000000e+00  -5.2488020839237161e-12 -9.9238591126278280e+01 0.0000000000000000e+00  -3.3620500484419332e-28 -9.9238591126273690e+01 0.0000000000000000e+00  -3.1554436208840472e-28 -1.4885788672794217e+02 0.0000000000000000e+00  1.6319394305649019e-12 -1.4885788672794806e+02 0.0000000000000000e+00  -3.4134094768643300e-12 -1.4885788672793581e+02 0.0000000000000000e+00  2.3435142045586840e-12 -1.4885788672794271e+02 0.0000000000000000e+00  -3.2820482654665237e-12 -1.4885788672794538e+02 0.0000000000000000e+00  -1.3999506936214383e-12 -1.4885788672794408e+02 0.0000000000000000e+00  -6.3603236752975554e-12 -1.4885788672793350e+02 0.0000000000000000e+00  -1.8010919499078755e-12 -1.4885788672794135e+02 0.0000000000000000e+00  -6.8319091783098405e-12 -1.4885788672794428e+02 0.0000000000000000e+00  -4.2710495104127716e-13 -1.4885788672793512e+02 0.0000000000000000e+00  2.8924899858103781e-28 -1.4885788672794203e+02 0.0000000000000000e+00  -1.3035745682849356e-27 -1.9847718243623189e+02 0.0000000000000000e+00  3.1173160315192346e-12 -1.9847718243623336e+02 0.0000000000000000e+00  1.9726253958121822e-11 -1.9847718243622728e+02 0.0000000000000000e+00  -1.4905389931646811e-12 -1.9847718243622506e+02 0.0000000000000000e+00  -3.9706418355347097e-12 -1.9847718243624189e+02 0.0000000000000000e+00  -8.4343202338533986e-12 -1.9847718243623228e+02 0.0000000000000000e+00  -5.8792794372678357e-12 -1.9847718243623459e+02 0.0000000000000000e+00  -1.1318502488248175e-11 -1.9847718243622933e+02 0.0000000000000000e+00  -3.9093787253122366e-12 -1.9847718243622293e+02 0.0000000000000000e+00  2.3421867610676906e-12 -1.9847718243621711e+02 0.0000000000000000e+00  -7.0144223290525229e-28 -1.9847718243622259e+02 0.0000000000000000e+00  3.2869204384208800e-28 -2.4809647847943990e+02 0.0000000000000000e+00  7.6048626319057608e-12 -2.4809647847943330e+02 0.0000000000000000e+00  -4.4215082046992849e-12 -2.4809647847942648e+02 0.0000000000000000e+00  1.0120519151239233e-12 -2.4809647847944242e+02 0.0000000000000000e+00  -9.9668042126609079e-12 -2.4809647847941923e+02 0.0000000000000000e+00  -8.6210293105804685e-13 -2.4809647847942313e+02 0.0000000000000000e+00  -5.3896772961270933e-12 -2.4809647847942554e+02 0.0000000000000000e+00  -5.9142992776300288e-12 -2.4809647847942711e+02 0.0000000000000000e+00  -8.4083650145495993e-12 -2.4809647847943307e+02 0.0000000000000000e+00  -5.0916463879391250e-12 -2.4809647847942645e+02 0.0000000000000000e+00  5.4025701914358605e-27 -2.4809647847943884e+02 0.0000000000000000e+00  4.6999329218028083e-28 -2.9771577557383773e+02 0.0000000000000000e+00  3.0970601384688402e-13 -2.9771577557385666e+02 0.0000000000000000e+00  3.8627672147405844e-12 -2.9771577557385734e+02 0.0000000000000000e+00  -1.8669014465086961e-12 -2.9771577557384836e+02 0.0000000000000000e+00  -5.0590719864699494e-12 -2.9771577557384967e+02 0.0000000000000000e+00  -1.1583016231118439e-11 -2.9771577557385268e+02 0.0000000000000000e+00  -7.6174275803008860e-12 -2.9771577557384649e+02 0.0000000000000000e+00  -6.0555424871884725e-12 -2.9771577557383409e+02 0.0000000000000000e+00  3.8793740579911021e-12 -2.9771577557382597e+02 0.0000000000000000e+00  -1.3266806914922988e-11 -2.9771577557383006e+02 0.0000000000000000e+00  1.1532395138230991e-27 -2.9771577557381625e+02 0.0000000000000000e+00  7.3627017820627789e-28 -3.4733507596722592e+02 0.0000000000000000e+00  2.7007197454936651e-12 -3.4733507596723132e+02 0.0000000000000000e+00  -1.6563832498934895e-13 -3.4733507596724655e+02 0.0000000000000000e+00  -1.2049820703471429e-11 -3.4733507596723712e+02 0.0000000000000000e+00  -5.8950439956302292e-12 -3.4733507596725389e+02 0.0000000000000000e+00  -9.0681113039235507e-13 -3.4733507596724354e+02 0.0000000000000000e+00  3.8938687126843748e-12 -3.4733507596723928e+02 0.0000000000000000e+00  -9.6244238290002455e-12 -3.4733507596723177e+02 0.0000000000000000e+00  5.7725308563567412e-12 -3.4733507596721768e+02 0.0000000000000000e+00  4.6342471943419186e-12 -3.4733507596721984e+02 0.0000000000000000e+00  1.5251310834272909e-27 -3.4733507596721660e+02 0.0000000000000000e+00  -6.4471068475131347e-28 -3.9695438671381396e+02 0.0000000000000000e+00  -6.5209282155097301e-12 -3.9695438671381447e+02 0.0000000000000000e+00  1.2035114269807405e-12 -3.9695438671383982e+02 0.0000000000000000e+00  6.3202366554617466e-12 -3.9695438671384090e+02 0.0000000000000000e+00  -2.8885738099385800e-13 -3.9695438671384181e+02 0.0000000000000000e+00  -4.3888530480914511e-12 -3.9695438671383391e+02 0.0000000000000000e+00  -2.3616753747421336e-12 -3.9695438671383488e+02 0.0000000000000000e+00  2.2510623262074954e-11 -3.9695438671380793e+02 0.0000000000000000e+00  1.0796470398476198e-12 -3.9695438671381129e+02 0.0000000000000000e+00  4.5700885109616774e-12 -3.9695438671381504e+02 0.0000000000000000e+00  5.3018833728086533e-28 -3.9695438671379526e+02 0.0000000000000000e+00  5.6797985175912828e-27 -4.4657372995180549e+02 0.0000000000000000e+00  -3.1625855628566267e-12 -4.4657372995178031e+02 0.0000000000000000e+00  -2.7136660349077793e-11 -4.4657372995176638e+02 0.0000000000000000e+00  -2.9228885650367015e-12 -4.4657372995179560e+02 0.0000000000000000e+00  -2.7385289955250457e-12 -4.4657372995177894e+02 0.0000000000000000e+00  1.4338621311128154e-11 -4.4657372995178599e+02 0.0000000000000000e+00  2.8390590211821144e-11 -4.4657372995176877e+02 0.0000000000000000e+00  1.9112049726664270e-11 -4.4657372995178122e+02 0.0000000000000000e+00  5.7556746244154310e-12 -4.4657372995177633e+02 0.0000000000000000e+00  5.9805132879342769e-13 -4.4657372995175837e+02 0.0000000000000000e+00  1.4126054165432247e-27 -4.4657372995180384e+02 0.0000000000000000e+00  -3.0398357959844739e-27 -4.9619317515725186e+02 0.0000000000000000e+00  -1.5595812470642329e-11 -4.9619317515727050e+02 0.0000000000000000e+00  -9.5127849318238598e-13 -4.9619317515726624e+02 0.0000000000000000e+00  -8.3970455007662216e-12 -4.9619317515726374e+02 0.0000000000000000e+00  6.1256569636744477e-12 -4.9619317515724970e+02 0.0000000000000000e+00  2.0224600002446615e-12 -4.9619317515724219e+02 0.0000000000000000e+00  8.4742148037619232e-13 -4.9619317515724805e+02 0.0000000000000000e+00  1.6246379277164677e-11 -4.9619317515726107e+02 0.0000000000000000e+00  1.1569795168898891e-11 -4.9619317515724447e+02 0.0000000000000000e+00  7.3846862506328048e-12 -4.9619317515725766e+02 0.0000000000000000e+00  1.9834217045556896e-27 -4.9619317515721639e+02 0.0000000000000000e+00  3.0239668033472104e-28 -5.4581294036664679e+02 0.0000000000000000e+00  -2.8608001011816499e-12 -5.4581294036663587e+02 0.0000000000000000e+00  4.9755879084582023e-12 -5.4581294036660449e+02 0.0000000000000000e+00  6.0421408413313742e-12 -5.4581294036659006e+02 0.0000000000000000e+00  -1.3548511872597603e-11 -5.4581294036661780e+02 0.0000000000000000e+00  -2.5755270425572651e-12 -5.4581294036659745e+02 0.0000000000000000e+00  -1.1077971474580942e-11 -5.4581294036659858e+02 0.0000000000000000e+00  5.1313885575240110e-12 -5.4581294036661507e+02 0.0000000000000000e+00  1.9861541872807964e-11 -5.4581294036662894e+02 0.0000000000000000e+00  4.9762232147766585e-12 -5.4581294036660279e+02 0.0000000000000000e+00  1.6829032644714923e-27 -5.4581294036662450e+02 0.0000000000000000e+00  2.0227159488007967e-27 -5.9543370984223429e+02 0.0000000000000000e+00  -2.0437938591403047e-13 -5.9543370984225555e+02 0.0000000000000000e+00  6.9148983176890350e-12 -5.9543370984225771e+02 0.0000000000000000e+00  -2.4536634259165233e-11 -5.9543370984226851e+02 0.0000000000000000e+00  1.1265851651910871e-11 -5.9543370984226522e+02 0.0000000000000000e+00  -3.5672943494339487e-13 -5.9543370984226635e+02 0.0000000000000000e+00  2.2342272112036409e-11 -5.9543370984226749e+02 0.0000000000000000e+00  -2.7717163893429365e-11 -5.9543370984225817e+02 0.0000000000000000e+00  5.1446510175801052e-12 -5.9543370984223111e+02 0.0000000000000000e+00  2.2170908000746363e-11 -5.9543370984226476e+02 0.0000000000000000e+00  1.7608649086202887e-27 -5.9543370984224225e+02 0.0000000000000000e+00  2.3139919886483018e-27 -6.4505763100021125e+02 0.0000000000000000e+00  9.7616011796141877e-12 -6.4505763100015872e+02 0.0000000000000000e+00  -2.2913109955814897e-11 -6.4505763100020590e+02 0.0000000000000000e+00  4.6353547787112354e-12 -6.4505763100021295e+02 0.0000000000000000e+00  -1.0168590559699573e-11 -6.4505763100018169e+02 0.0000000000000000e+00  4.8178556998658067e-13 -6.4505763100020010e+02 0.0000000000000000e+00  -1.8212991333057316e-11 -6.4505763100018282e+02 0.0000000000000000e+00  1.4994347082406040e-11 -6.4505763100018032e+02 0.0000000000000000e+00  1.5691803354425735e-11 -6.4505763100018521e+02 0.0000000000000000e+00  -7.7753744694215384e-12 -6.4505763100017714e+02 0.0000000000000000e+00  -1.0914630180831354e-27 -6.4505763100015929e+02 0.0000000000000000e+00  -8.7799405167945538e-27 -6.9469144306249268e+02 0.0000000000000000e+00  -1.3398939161666570e-11 -6.9469144306251155e+02 0.0000000000000000e+00  -7.1345886988678861e-12 -6.9469144306247870e+02 0.0000000000000000e+00  -8.7140319748594699e-12 -6.9469144306246164e+02 0.0000000000000000e+00  -1.7782872248737559e-11 -6.9469144306251223e+02 0.0000000000000000e+00  -5.6385969676843352e-12 -6.9469144306250564e+02 0.0000000000000000e+00  5.7581175458539748e-12 -6.9469144306250064e+02 0.0000000000000000e+00  5.9361453424067070e-12 -6.9469144306248052e+02 0.0000000000000000e+00  -2.8949535946904560e-11 -6.9469144306246642e+02 0.0000000000000000e+00  2.7762863619322543e-11 -6.9469144306245892e+02 0.0000000000000000e+00  5.3717671165049808e-28 -6.9469144306243754e+02 0.0000000000000000e+00  -1.4199496293978202e-27 -7.4435629568653428e+02 0.0000000000000000e+00  2.5898285660923328e-12 -7.4435629568648665e+02 0.0000000000000000e+00  -1.4717163091456986e-12 -7.4435629568649972e+02 0.0000000000000000e+00  -3.1023810460661861e-11 -7.4435629568650825e+02 0.0000000000000000e+00  -1.2885499589470490e-11 -7.4435629568646073e+02 0.0000000000000000e+00  2.4769058247271033e-13 -7.4435629568645550e+02 0.0000000000000000e+00  -6.0672877051624031e-12 -7.4435629568645345e+02 0.0000000000000000e+00  -1.0093248158503784e-11 -7.4435629568648039e+02 0.0000000000000000e+00  2.6462838083073631e-11 -7.4435629568647789e+02 0.0000000000000000e+00  -4.2562617544800407e-13 -7.4435629568646914e+02 0.0000000000000000e+00  -7.5204739631069783e-27 -7.4435629568652269e+02 0.0000000000000000e+00  -4.5753869552161172e-27 -7.9411856270629698e+02 0.0000000000000000e+00  2.5195004344281268e-12 -7.9411856270633166e+02 0.0000000000000000e+00  -5.3686061605688145e-11 -7.9411856270631336e+02 0.0000000000000000e+00  1.2017097631678984e-11 -7.9411856270631017e+02 0.0000000000000000e+00  -9.4994598326434997e-12 -7.9411856270630426e+02 0.0000000000000000e+00  -3.1559364971152768e-11 -7.9411856270629573e+02 0.0000000000000000e+00  -9.0925992455654220e-13 -7.9411856270630585e+02 0.0000000000000000e+00  8.0427919486044460e-12 -7.9411856270624992e+02 0.0000000000000000e+00  4.4591179367924475e-13 -7.9411856270629801e+02 0.0000000000000000e+00  -4.6711219347709012e-12 -7.9411856270621604e+02 0.0000000000000000e+00  2.3575386116954740e-27 -7.9411856270629380e+02 0.0000000000000000e+00  -4.2072581611787290e-28 -8.4418654469930539e+02 0.0000000000000000e+00  9.7330448861910952e-12 -8.4418654469928924e+02 0.0000000000000000e+00  -1.6715721615298509e-11 -8.4418654469928106e+02 0.0000000000000000e+00  -1.0474422991930084e-11 -8.4418654469930652e+02 0.0000000000000000e+00  -2.5065903911233915e-11 -8.4418654469926059e+02 0.0000000000000000e+00  -4.4579197020516845e-12 -8.4418654469928720e+02 0.0000000000000000e+00  -1.0296379508684682e-11 -8.4418654469927412e+02 0.0000000000000000e+00  9.0203676909755182e-12 -8.4418654469927401e+02 0.0000000000000000e+00  2.2359436145329809e-11 -8.4418654469923183e+02 0.0000000000000000e+00  1.1973697154868365e-12 -8.4418654469927594e+02 0.0000000000000000e+00  2.3354279901647376e-27 -8.4418654469924320e+02 0.0000000000000000e+00  -2.9187853493177440e-27 -8.9521395003139901e+02 0.0000000000000000e+00  -4.7017847603192595e-11 -8.9521395003142891e+02 0.0000000000000000e+00  -2.0120981461857689e-11 -8.9521395003143709e+02 0.0000000000000000e+00  -4.5931392036704639e-11 -8.9521395003137798e+02 0.0000000000000000e+00  -1.9187269190850540e-11 -8.9521395003142891e+02 0.0000000000000000e+00  -2.7337996280163236e-11 -8.9521395003139992e+02 0.0000000000000000e+00  8.8569793039480976e-12 -8.9521395003138025e+02 0.0000000000000000e+00  2.1902826972761809e-11 -8.9521395003138241e+02 0.0000000000000000e+00  -2.4157609234537838e-11 -8.9521395003139151e+02 0.0000000000000000e+00  -1.4030330414624153e-12 -8.9521395003143903e+02 0.0000000000000000e+00  -7.7765015872568398e-28 -8.9521395003135160e+02 0.0000000000000000e+00  -5.0487097934144791e-27 -9.4925230747366891e+02 0.0000000000000000e+00  -4.2042277645900822e-11 -9.4925230747365811e+02 0.0000000000000000e+00  1.3141261779492781e-11 -9.4925230747365447e+02 0.0000000000000000e+00  -7.6025809932923323e-11 -9.4925230747363105e+02 0.0000000000000000e+00  -5.0322876761463956e-11 -9.4925230747360342e+02 0.0000000000000000e+00  -3.9509117862104794e-11 -9.4925230747357728e+02 0.0000000000000000e+00  2.9871586016977155e-12 -9.4925230747359876e+02 0.0000000000000000e+00  -2.1328336917373386e-11 -9.4925230747362355e+02 0.0000000000000000e+00  8.1867603655696026e-12 -9.4925230747364378e+02 0.0000000000000000e+00  4.6858418274377433e-12 -9.4925230747361604e+02 0.0000000000000000e+00  -3.1020311637597121e-27 -9.4925230747367073e+02 0.0000000000000000e+00  1.2621774483536171e-27 -1.0127399166065632e+03 0.0000000000000000e+00  2.2511218232830801e-12 -1.0127399166066164e+03 0.0000000000000000e+00  -8.5266046461386468e-11 -1.0127399166065896e+03 0.0000000000000000e+00  -5.4036279146551381e-11 -1.0127399166065397e+03 0.0000000000000000e+00  -6.5392960455653638e-11 -1.0127399166065011e+03 0.0000000000000000e+00  -4.6672844881298044e-11 -1.0127399166064954e+03 0.0000000000000000e+00  -3.3110013693239279e-11 -1.0127399166064680e+03 0.0000000000000000e+00  -1.1498285814203286e-11 -1.0127399166065119e+03 0.0000000000000000e+00  -4.5971902581047964e-11 -1.0127399166065003e+03 0.0000000000000000e+00  -4.4400415961859850e-11 -1.0127399166065148e+03 0.0000000000000000e+00  0.0000000000000000e+00 -1.0127399166064444e+03 0.0000000000000000e+00  1.3207828690717012e-13 -2.4809647770009530e+01 0.0000000000000000e+00  5.5845938275626426e-12 -2.4809647770010912e+01 0.0000000000000000e+00  3.4343084413112820e-12 -2.4809647770018547e+01 0.0000000000000000e+00  -5.5964172442759006e-12 -2.4809647770010258e+01 0.0000000000000000e+00  2.5743519323669163e-12 -2.4809647770009182e+01 0.0000000000000000e+00  -7.4842227794929141e-12 -2.4809647770023158e+01 0.0000000000000000e+00  -6.7078184153222422e-13 -2.4809647770014521e+01 0.0000000000000000e+00  -4.6111325181709871e-13 -2.4809647770002240e+01 0.0000000000000000e+00  7.8248549558601770e-13 -2.4809647770016625e+01 0.0000000000000000e+00  4.5695418428577871e-12 -2.4809647770010077e+01 0.0000000000000000e+00  2.0441956688572332e-12 -7.4428943301627129e+01 0.0000000000000000e+00  2.3666033837730957e-12 -7.4428943301627413e+01 0.0000000000000000e+00  -5.4394591211837629e-13 -7.4428943301629602e+01 0.0000000000000000e+00  7.3520431347612741e-12 -7.4428943301626759e+01 0.0000000000000000e+00  -1.2903362100775830e-11 -7.4428943301627982e+01 0.0000000000000000e+00  -8.7338412179652152e-12 -7.4428943301630085e+01 0.0000000000000000e+00  8.2469218934076363e-12 -7.4428943301622979e+01 0.0000000000000000e+00  -9.2975271027007853e-12 -7.4428943301628237e+01 0.0000000000000000e+00  9.0145874951876038e-13 -7.4428943301623136e+01 0.0000000000000000e+00  -3.6457884250229303e-12 -7.4428943301631946e+01 0.0000000000000000e+00  7.5124510926987011e-12 -1.2404823879572606e+02 0.0000000000000000e+00  -5.2201006685513185e-12 -1.2404823879572618e+02 0.0000000000000000e+00  6.6764974051949008e-12 -1.2404823879572264e+02 0.0000000000000000e+00  -3.8357343739388502e-13 -1.2404823879572477e+02 0.0000000000000000e+00  -4.3252473334574032e-12 -1.2404823879572520e+02 0.0000000000000000e+00  -8.3346551050396245e-12 -1.2404823879571762e+02 0.0000000000000000e+00  9.8261197027835665e-13 -1.2404823879572731e+02 0.0000000000000000e+00  -1.6888643239159233e-12 -1.2404823879571293e+02 0.0000000000000000e+00  -1.1111411253192301e-11 -1.2404823879572113e+02 0.0000000000000000e+00  4.6029101431852648e-12 -1.2404823879571974e+02 0.0000000000000000e+00  1.6906423511699498e-13 -1.7366753416855153e+02 0.0000000000000000e+00  1.9915439040463124e-11 -1.7366753416853024e+02 0.0000000000000000e+00  9.0277474769324017e-12 -1.7366753416851611e+02 0.0000000000000000e+00  2.1757836484735043e-12 -1.7366753416851833e+02 0.0000000000000000e+00  -1.0532372056421137e-11 -1.7366753416852225e+02 0.0000000000000000e+00  -1.1506210705536292e-11 -1.7366753416852538e+02 0.0000000000000000e+00  -2.8776493415294746e-12 -1.7366753416851682e+02 0.0000000000000000e+00  -5.8561918764357466e-12 -1.7366753416854155e+02 0.0000000000000000e+00  -5.0271130265133820e-12 -1.7366753416852350e+02 0.0000000000000000e+00  -4.7610670082947171e-12 -1.7366753416853251e+02 0.0000000000000000e+00  1.7102756171835323e-11 -2.2328682915957174e+02 0.0000000000000000e+00  2.3929233472626954e-11 -2.2328682915957108e+02 0.0000000000000000e+00  6.8388038467141011e-12 -2.2328682915957705e+02 0.0000000000000000e+00  -1.2177369774521065e-11 -2.2328682915960121e+02 0.0000000000000000e+00  -3.0487291042118659e-12 -2.2328682915960209e+02 0.0000000000000000e+00  -2.4784632286038924e-12 -2.2328682915957634e+02 0.0000000000000000e+00  -1.6879869917996064e-11 -2.2328682915958788e+02 0.0000