<?xml version="1.0"?>
<VTKFile type="UnstructuredGrid"  version="0.1"  >
<UnstructuredGrid>
<Piece  NumberOfPoints="1411" NumberOfCells="2700">
<Points>
<DataArray  type="Float64"  NumberOfComponents="3"  format="ascii">-0.75 -4.5 0  -0.65 -4.5 0  -0.55 -4.5 0  -0.45 -4.5 0  -0.35 -4.5 0  -0.25 -4.5 0  -0.15 -4.5 0  -0.05000000000000004 -4.5 0  0.05000000000000004 -4.5 0  0.15 -4.5 0  0.25 -4.5 0  0.3500000000000001 -4.5 0  0.45 -4.5 0  0.55 -4.5 0  0.6499999999999999 -4.5 0  0.75 -4.5 0  -0.75 -4.4 0  -0.65 -4.4 0  -0.55 -4.4 0  -0.45 -4.4 0  -0.35 -4.4 0  -0.25 -4.4 0  -0.15 -4.4 0  -0.05000000000000004 -4.4 0  0.05000000000000004 -4.4 0  0.15 -4.4 0  0.25 -4.4 0  0.3500000000000001 -4.4 0  0.45 -4.4 0  0.55 -4.4 0  0.6499999999999999 -4.4 0  0.75 -4.4 0  -0.75 -4.3 0  -0.65 -4.3 0  -0.55 -4.3 0  -0.45 -4.3 0  -0.35 -4.3 0  -0.25 -4.3 0  -0.15 -4.3 0  -0.05000000000000004 -4.3 0  0.05000000000000004 -4.3 0  0.15 -4.3 0  0.25 -4.3 0  0.3500000000000001 -4.3 0  0.45 -4.3 0  0.55 -4.3 0  0.6499999999999999 -4.3 0  0.75 -4.3 0  -0.75 -4.2 0  -0.65 -4.2 0  -0.55 -4.2 0  -0.45 -4.2 0  -0.35 -4.2 0  -0.25 -4.2 0  -0.15 -4.2 0  -0.05000000000000004 -4.2 0  0.05000000000000004 -4.2 0  0.15 -4.2 0  0.25 -4.2 0  0.3500000000000001 -4.2 0  0.45 -4.2 0  0.55 -4.2 0  0.6499999999999999 -4.2 0  0.75 -4.2 0  -0.75 -4.1 0  -0.65 -4.1 0  -0.55 -4.1 0  -0.45 -4.1 0  -0.35 -4.1 0  -0.25 -4.1 0  -0.15 -4.1 0  -0.05000000000000004 -4.1 0  0.05000000000000004 -4.1 0  0.15 -4.1 0  0.25 -4.1 0  0.3500000000000001 -4.1 0  0.45 -4.1 0  0.55 -4.1 0  0.6499999999999999 -4.1 0  0.75 -4.1 0  -0.75 -4 0  -0.65 -4 0  -0.55 -4 0  -0.45 -4 0  -0.35 -4 0  -0.25 -4 0  -0.15 -4 0  -0.05000000000000004 -4 0  0.05000000000000004 -4 0  0.15 -4 0  0.25 -4 0  0.3500000000000001 -4 0  0.45 -4 0  0.55 -4 0  0.6499999999999999 -4 0  0.75 -4 0  -0.75 -3.9 0  -0.65 -3.9 0  -0.55 -3.9 0  -0.45 -3.9 0  -0.35 -3.9 0  -0.25 -3.9 0  -0.15 -3.9 0  -0.05000000000000004 -3.9 0  0.05000000000000004 -3.9 0  0.15 -3.9 0  0.25 -3.9 0  0.3500000000000001 -3.9 0  0.45 -3.9 0  0.55 -3.9 0  0.6499999999999999 -3.9 0  0.75 -3.9 0  -0.75 -3.8 0  -0.65 -3.8 0  -0.55 -3.8 0  -0.45 -3.8 0  -0.35 -3.8 0  -0.25 -3.8 0  -0.15 -3.8 0  -0.05000000000000004 -3.8 0  0.05000000000000004 -3.8 0  0.15 -3.8 0  0.25 -3.8 0  0.3500000000000001 -3.8 0  0.45 -3.8 0  0.55 -3.8 0  0.6499999999999999 -3.8 0  0.75 -3.8 0  -0.75 -3.7 0  -0.65 -3.7 0  -0.55 -3.7 0  -0.45 -3.7 0  -0.35 -3.7 0  -0.25 -3.7 0  -0.15 -3.7 0  -0.05000000000000004 -3.7 0  0.05000000000000004 -3.7 0  0.15 -3.7 0  0.25 -3.7 0  0.3500000000000001 -3.7 0  0.45 -3.7 0  0.55 -3.7 0  0.6499999999999999 -3.7 0  0.75 -3.7 0  -0.75 -3.6 0  -0.65 -3.6 0  -0.55 -3.6 0  -0.45 -3.6 0  -0.35 -3.6 0  -0.25 -3.6 0  -0.15 -3.6 0  -0.05000000000000004 -3.6 0  0.05000000000000004 -3.6 0  0.15 -3.6 0  0.25 -3.6 0  0.3500000000000001 -3.6 0  0.45 -3.6 0  0.55 -3.6 0  0.6499999999999999 -3.6 0  0.75 -3.6 0  -0.75 -3.5 0  -0.65 -3.5 0  -0.55 -3.5 0  -0.45 -3.5 0  -0.35 -3.5 0  -0.25 -3.5 0  -0.15 -3.5 0  -0.05000000000000004 -3.5 0  0.05000000000000004 -3.5 0  0.15 -3.5 0  0.25 -3.5 0  0.3500000000000001 -3.5 0  0.45 -3.5 0  0.55 -3.5 0  0.6499999999999999 -3.5 0  0.75 -3.5 0  -0.75 -3.4 0  -0.65 -3.4 0  -0.55 -3.4 0  -0.45 -3.4 0  -0.35 -3.4 0  -0.25 -3.4 0  -0.15 -3.4 0  -0.05000000000000004 -3.4 0  0.05000000000000004 -3.4 0  0.15 -3.4 0  0.25 -3.4 0  0.3500000000000001 -3.4 0  0.45 -3.4 0  0.55 -3.4 0  0.6499999999999999 -3.4 0  0.75 -3.4 0  -0.75 -3.3 0  -0.65 -3.3 0  -0.55 -3.3 0  -0.45 -3.3 0  -0.35 -3.3 0  -0.25 -3.3 0  -0.15 -3.3 0  -0.05000000000000004 -3.3 0  0.05000000000000004 -3.3 0  0.15 -3.3 0  0.25 -3.3 0  0.3500000000000001 -3.3 0  0.45 -3.3 0  0.55 -3.3 0  0.6499999999999999 -3.3 0  0.75 -3.3 0  -0.75 -3.2 0  -0.65 -3.2 0  -0.55 -3.2 0  -0.45 -3.2 0  -0.35 -3.2 0  -0.25 -3.2 0  -0.15 -3.2 0  -0.05000000000000004 -3.2 0  0.05000000000000004 -3.2 0  0.15 -3.2 0  0.25 -3.2 0  0.3500000000000001 -3.2 0  0.45 -3.2 0  0.55 -3.2 0  0.6499999999999999 -3.2 0  0.75 -3.2 0  -0.75 -3.1 0  -0.65 -3.1 0  -0.55 -3.1 0  -0.45 -3.1 0  -0.35 -3.1 0  -0.25 -3.1 0  -0.15 -3.1 0  -0.05000000000000004 -3.1 0  0.05000000000000004 -3.1 0  0.15 -3.1 0  0.25 -3.1 0  0.3500000000000001 -3.1 0  0.45 -3.1 0  0.55 -3.1 0  0.6499999999999999 -3.1 0  0.75 -3.1 0  -0.75 -3 0  -0.65 -3 0  -0.55 -3 0  -0.45 -3 0  -0.35 -3 0  -0.25 -3 0  -0.15 -3 0  -0.05000000000000004 -3 0  0.05000000000000004 -3 0  0.15 -3 0  0.25 -3 0  0.3500000000000001 -3 0  0.45 -3 0  0.55 -3 0  0.6499999999999999 -3 0  0.75 -3 0  -0.75 -2.9 0  -0.65 -2.9 0  -0.55 -2.9 0  -0.45 -2.9 0  -0.35 -2.9 0  -0.25 -2.9 0  -0.15 -2.9 0  -0.05000000000000004 -2.9 0  0.05000000000000004 -2.9 0  0.15 -2.9 0  0.25 -2.9 0  0.3500000000000001 -2.9 0  0.45 -2.9 0  0.55 -2.9 0  0.6499999999999999 -2.9 0  0.75 -2.9 0  -0.75 -2.8 0  -0.65 -2.8 0  -0.55 -2.8 0  -0.45 -2.8 0  -0.35 -2.8 0  -0.25 -2.8 0  -0.15 -2.8 0  -0.05000000000000004 -2.8 0  0.05000000000000004 -2.8 0  0.15 -2.8 0  0.25 -2.8 0  0.3500000000000001 -2.8 0  0.45 -2.8 0  0.55 -2.8 0  0.6499999999999999 -2.8 0  0.75 -2.8 0  -0.75 -2.7 0  -0.65 -2.7 0  -0.55 -2.7 0  -0.45 -2.7 0  -0.35 -2.7 0  -0.25 -2.7 0  -0.15 -2.7 0  -0.05000000000000004 -2.7 0  0.05000000000000004 -2.7 0  0.15 -2.7 0  0.25 -2.7 0  0.3500000000000001 -2.7 0  0.45 -2.7 0  0.55 -2.7 0  0.6499999999999999 -2.7 0  0.75 -2.7 0  -0.75 -2.6 0  -0.65 -2.6 0  -0.55 -2.6 0  -0.45 -2.6 0  -0.35 -2.6 0  -0.25 -2.6 0  -0.15 -2.6 0  -0.05000000000000004 -2.6 0  0.05000000000000004 -2.6 0  0.15 -2.6 0  0.25 -2.6 0  0.3500000000000001 -2.6 0  0.45 -2.6 0  0.55 -2.6 0  0.6499999999999999 -2.6 0  0.75 -2.6 0  -0.75 -2.5 0  -0.65 -2.5 0  -0.55 -2.5 0  -0.45 -2.5 0  -0.35 -2.5 0  -0.25 -2.5 0  -0.15 -2.5 0  -0.05000000000000004 -2.5 0  0.05000000000000004 -2.5 0  0.15 -2.5 0  0.25 -2.5 0  0.3500000000000001 -2.5 0  0.45 -2.5 0  0.55 -2.5 0  0.6499999999999999 -2.5 0  0.75 -2.5 0  -0.75 -2.4 0  -0.65 -2.4 0  -0.55 -2.4 0  -0.45 -2.4 0  -0.35 -2.4 0  -0.25 -2.4 0  -0.15 -2.4 0  -0.05000000000000004 -2.4 0  0.05000000000000004 -2.4 0  0.15 -2.4 0  0.25 -2.4 0  0.3500000000000001 -2.4 0  0.45 -2.4 0  0.55 -2.4 0  0.6499999999999999 -2.4 0  0.75 -2.4 0  -0.75 -2.3 0  -0.65 -2.3 0  -0.55 -2.3 0  -0.45 -2.3 0  -0.35 -2.3 0  -0.25 -2.3 0  -0.15 -2.3 0  -0.05000000000000004 -2.3 0  0.05000000000000004 -2.3 0  0.15 -2.3 0  0.25 -2.3 0  0.3500000000000001 -2.3 0  0.45 -2.3 0  0.55 -2.3 0  0.6499999999999999 -2.3 0  0.75 -2.3 0  -0.75 -2.2 0  -0.65 -2.2 0  -0.55 -2.2 0  -0.45 -2.2 0  -0.35 -2.2 0  -0.25 -2.2 0  -0.15 -2.2 0  -0.05000000000000004 -2.2 0  0.05000000000000004 -2.2 0  0.15 -2.2 0  0.25 -2.2 0  0.3500000000000001 -2.2 0  0.45 -2.2 0  0.55 -2.2 0  0.6499999999999999 -2.2 0  0.75 -2.2 0  -0.75 -2.1 0  -0.65 -2.1 0  -0.55 -2.1 0  -0.45 -2.1 0  -0.35 -2.1 0  -0.25 -2.1 0  -0.15 -2.1 0  -0.05000000000000004 -2.1 0  0.05000000000000004 -2.1 0  0.15 -2.1 0  0.25 -2.1 0  0.3500000000000001 -2.1 0  0.45 -2.1 0  0.55 -2.1 0  0.6499999999999999 -2.1 0  0.75 -2.1 0  -0.75 -2 0  -0.65 -2 0  -0.55 -2 0  -0.45 -2 0  -0.35 -2 0  -0.25 -2 0  -0.15 -2 0  -0.05000000000000004 -2 0  0.05000000000000004 -2 0  0.15 -2 0  0.25 -2 0  0.3500000000000001 -2 0  0.45 -2 0  0.55 -2 0  0.6499999999999999 -2 0  0.75 -2 0  -0.75 -1.9 0  -0.65 -1.9 0  -0.55 -1.9 0  -0.45 -1.9 0  -0.35 -1.9 0  -0.25 -1.9 0  -0.15 -1.9 0  -0.05000000000000004 -1.9 0  0.05000000000000004 -1.9 0  0.15 -1.9 0  0.25 -1.9 0  0.3500000000000001 -1.9 0  0.45 -1.9 0  0.55 -1.9 0  0.6499999999999999 -1.9 0  0.75 -1.9 0  -0.75 -1.8 0  -0.65 -1.8 0  -0.55 -1.8 0  -0.45 -1.8 0  -0.35 -1.8 0  -0.25 -1.8 0  -0.15 -1.8 0  -0.05000000000000004 -1.8 0  0.05000000000000004 -1.8 0  0.15 -1.8 0  0.25 -1.8 0  0.3500000000000001 -1.8 0  0.45 -1.8 0  0.55 -1.8 0  0.6499999999999999 -1.8 0  0.75 -1.8 0  -0.75 -1.7 0  -0.65 -1.7 0  -0.55 -1.7 0  -0.45 -1.7 0  -0.35 -1.7 0  -0.25 -1.7 0  -0.15 -1.7 0  -0.05000000000000004 -1.7 0  0.05000000000000004 -1.7 0  0.15 -1.7 0  0.25 -1.7 0  0.3500000000000001 -1.7 0  0.45 -1.7 0  0.55 -1.7 0  0.6499999999999999 -1.7 0  0.75 -1.7 0  -0.75 -1.6 0  -0.65 -1.6 0  -0.55 -1.6 0  -0.45 -1.6 0  -0.35 -1.6 0  -0.25 -1.6 0  -0.15 -1.6 0  -0.05000000000000004 -1.6 0  0.05000000000000004 -1.6 0  0.15 -1.6 0  0.25 -1.6 0  0.3500000000000001 -1.6 0  0.45 -1.6 0  0.55 -1.6 0  0.6499999999999999 -1.6 0  0.75 -1.6 0  -0.75 -1.5 0  -0.65 -1.5 0  -0.55 -1.5 0  -0.45 -1.5 0  -0.35 -1.5 0  -0.25 -1.5 0  -0.15 -1.5 0  -0.05000000000000004 -1.5 0  0.05000000000000004 -1.5 0  0.15 -1.5 0  0.25 -1.5 0  0.3500000000000001 -1.5 0  0.45 -1.5 0  0.55 -1.5 0  0.6499999999999999 -1.5 0  0.75 -1.5 0  -0.75 -1.4 0  -0.65 -1.4 0  -0.55 -1.4 0  -0.45 -1.4 0  -0.35 -1.4 0  -0.25 -1.4 0  -0.15 -1.4 0  -0.05000000000000004 -1.4 0  0.05000000000000004 -1.4 0  0.15 -1.4 0  0.25 -1.4 0  0.3500000000000001 -1.4 0  0.45 -1.4 0  0.55 -1.4 0  0.6499999999999999 -1.4 0  0.75 -1.4 0  -0.75 -1.3 0  -0.65 -1.3 0  -0.55 -1.3 0  -0.45 -1.3 0  -0.35 -1.3 0  -0.25 -1.3 0  -0.15 -1.3 0  -0.05000000000000004 -1.3 0  0.05000000000000004 -1.3 0  0.15 -1.3 0  0.25 -1.3 0  0.3500000000000001 -1.3 0  0.45 -1.3 0  0.55 -1.3 0  0.6499999999999999 -1.3 0  0.75 -1.3 0  -0.75 -1.2 0  -0.65 -1.2 0  -0.55 -1.2 0  -0.45 -1.2 0  -0.35 -1.2 0  -0.25 -1.2 0  -0.15 -1.2 0  -0.05000000000000004 -1.2 0  0.05000000000000004 -1.2 0  0.15 -1.2 0  0.25 -1.2 0  0.3500000000000001 -1.2 0  0.45 -1.2 0  0.55 -1.2 0  0.6499999999999999 -1.2 0  0.75 -1.2 0  -0.75 -1.1 0  -0.65 -1.1 0  -0.55 -1.1 0  -0.45 -1.1 0  -0.35 -1.1 0  -0.25 -1.1 0  -0.15 -1.1 0  -0.05000000000000004 -1.1 0  0.05000000000000004 -1.1 0  0.15 -1.1 0  0.25 -1.1 0  0.3500000000000001 -1.1 0  0.45 -1.1 0  0.55 -1.1 0  0.6499999999999999 -1.1 0  0.75 -1.1 0  -0.75 -1 0  -0.65 -1 0  -0.55 -1 0  -0.45 -1 0  -0.35 -1 0  -0.25 -1 0  -0.15 -1 0  -0.05000000000000004 -1 0  0.05000000000000004 -1 0  0.15 -1 0  0.25 -1 0  0.3500000000000001 -1 0  0.45 -1 0  0.55 -1 0  0.6499999999999999 -1 0  0.75 -1 0  -0.75 -0.8999999999999999 0  -0.65 -0.899999
[...]
<PointData  Vectors="displacement"> 
<DataArray  type="Float64"  Name="displacement"  NumberOfComponents="3" format="ascii">-3.5264830524668024e-36 -7.9409338805090882e-21 0.0000000000000000e+00  8.8917262866387240e-38 2.9741887142916634e-21 0.0000000000000000e+00  -3.5264830524668743e-35 -6.4520087779136377e-21 0.0000000000000000e+00  1.7043089664333012e-35 -7.0181105096296177e-22 0.0000000000000000e+00  -1.3400635599374120e-34 1.4889251025954547e-21 0.0000000000000000e+00  -7.0920637115486033e-35 -2.0429149274684789e-21 0.0000000000000000e+00  7.0529661049337507e-35 7.9409338805090943e-21 0.0000000000000000e+00  -7.5849356832818143e-35 -1.1190202724193965e-20 0.0000000000000000e+00  4.2317796629602489e-35 7.4446255129772731e-21 0.0000000000000000e+00  -8.4718227454040461e-35 -1.2291786647554271e-23 0.0000000000000000e+00  -8.4635593259204925e-35 -9.9261673506363584e-22 0.0000000000000000e+00  -1.6031033798079408e-35 -2.3846066096255349e-21 0.0000000000000000e+00  -3.8791313577135611e-35 0.0000000000000000e+00 0.0000000000000000e+00  6.4799126089078781e-35 1.0732668447875564e-20 0.0000000000000000e+00  -2.1158898314801263e-35 -3.9704669402545494e-21 0.0000000000000000e+00  -1.0579449157400614e-35 5.9557004103818143e-21 0.0000000000000000e+00  4.2317796629602201e-35 -6.1543914238272086e-05 0.0000000000000000e+00  -1.7636618085945869e-19 -6.1543914238272195e-05 0.0000000000000000e+00  -3.4857689649660410e-19 -6.1543914238272168e-05 0.0000000000000000e+00  -5.0586605293413799e-19 -6.1543914238272195e-05 0.0000000000000000e+00  -6.0617728382718813e-19 -6.1543914238272181e-05 0.0000000000000000e+00  -7.4115894776164861e-19 -6.1543914238272140e-05 0.0000000000000000e+00  -8.4991135062164120e-19 -6.1543914238272181e-05 0.0000000000000000e+00  -8.7186085944085455e-19 -6.1543914238272127e-05 0.0000000000000000e+00  -8.6498469023089305e-19 -6.1543914238272168e-05 0.0000000000000000e+00  -8.2052404129613463e-19 -6.1543914238272181e-05 0.0000000000000000e+00  -7.6398683046780773e-19 -6.1543914238272195e-05 0.0000000000000000e+00  -6.7428383360829903e-19 -6.1543914238272357e-05 0.0000000000000000e+00  -5.8262747971942540e-19 -6.1543914238272466e-05 0.0000000000000000e+00  -4.3785369915935424e-19 -6.1543914238272683e-05 0.0000000000000000e+00  -2.3496171449367225e-19 -6.1543914238272764e-05 0.0000000000000000e+00  1.0393982729541722e-35 -6.1543914238272750e-05 0.0000000000000000e+00  -5.6423728839469843e-35 -1.2311945485378860e-04 0.0000000000000000e+00  -3.3591804301436755e-19 -1.2311945485378860e-04 0.0000000000000000e+00  -6.1608521440146751e-19 -1.2311945485378881e-04 0.0000000000000000e+00  -8.5817701041000278e-19 -1.2311945485378879e-04 0.0000000000000000e+00  -1.1587042445701646e-18 -1.2311945485378876e-04 0.0000000000000000e+00  -1.3591821809395167e-18 -1.2311945485378873e-04 0.0000000000000000e+00  -1.5693179918402388e-18 -1.2311945485378862e-04 0.0000000000000000e+00  -1.7102276415200423e-18 -1.2311945485378879e-04 0.0000000000000000e+00  -1.6768158919727387e-18 -1.2311945485378884e-04 0.0000000000000000e+00  -1.6433513592507964e-18 -1.2311945485378895e-04 0.0000000000000000e+00  -1.3964843676010031e-18 -1.2311945485378898e-04 0.0000000000000000e+00  -1.1959393580551217e-18 -1.2311945485378928e-04 0.0000000000000000e+00  -1.0216075892673005e-18 -1.2311945485378971e-04 0.0000000000000000e+00  -7.3643085258132961e-19 -1.2311945485378984e-04 0.0000000000000000e+00  -3.8365376491640896e-19 -1.2311945485379017e-04 0.0000000000000000e+00  -4.5982032926306226e-35 -1.2311945485379014e-04 0.0000000000000000e+00  3.1848550067591379e-35 -1.8475816972466326e-04 0.0000000000000000e+00  -4.5948394814621543e-19 -1.8475816972466359e-04 0.0000000000000000e+00  -8.3711755414701058e-19 -1.8475816972466359e-04 0.0000000000000000e+00  -1.2393093531730346e-18 -1.8475816972466353e-04 0.0000000000000000e+00  -1.6333712155582634e-18 -1.8475816972466361e-04 0.0000000000000000e+00  -1.9913641373465033e-18 -1.8475816972466361e-04 0.0000000000000000e+00  -2.1412870998039081e-18 -1.8475816972466364e-04 0.0000000000000000e+00  -2.2606319364943112e-18 -1.8475816972466388e-04 0.0000000000000000e+00  -2.3324658724572529e-18 -1.8475816972466380e-04 0.0000000000000000e+00  -2.1805003059771156e-18 -1.8475816972466397e-04 0.0000000000000000e+00  -1.9253292548044911e-18 -1.8475816972466402e-04 0.0000000000000000e+00  -1.6898559770900761e-18 -1.8475816972466445e-04 0.0000000000000000e+00  -1.3523049342842366e-18 -1.8475816972466508e-04 0.0000000000000000e+00  -9.0702607301874734e-19 -1.8475816972466578e-04 0.0000000000000000e+00  -4.8194573005464889e-19 -1.8475816972466589e-04 0.0000000000000000e+00  5.5919945546260267e-35 -1.8475816972466594e-04 0.0000000000000000e+00  1.4105932209867399e-35 -2.4649144992558160e-04 0.0000000000000000e+00  -5.0541181131726392e-19 -2.4649144992558165e-04 0.0000000000000000e+00  -1.0642415615187473e-18 -2.4649144992558198e-04 0.0000000000000000e+00  -1.5681583625954151e-18 -2.4649144992558170e-04 0.0000000000000000e+00  -2.0260941664961928e-18 -2.4649144992558181e-04 0.0000000000000000e+00  -2.3003016094712698e-18 -2.4649144992558203e-04 0.0000000000000000e+00  -2.6334238859568665e-18 -2.4649144992558198e-04 0.0000000000000000e+00  -2.8549014014548445e-18 -2.4649144992558192e-04 0.0000000000000000e+00  -2.7535636871355186e-18 -2.4649144992558257e-04 0.0000000000000000e+00  -2.6429591205886165e-18 -2.4649144992558219e-04 0.0000000000000000e+00  -2.3944102613708373e-18 -2.4649144992558290e-04 0.0000000000000000e+00  -1.9934381578196121e-18 -2.4649144992558333e-04 0.0000000000000000e+00  -1.5159614108077418e-18 -2.4649144992558414e-04 0.0000000000000000e+00  -1.0497517772460955e-18 -2.4649144992558458e-04 0.0000000000000000e+00  -5.4314962996850094e-19 -2.4649144992558523e-04 0.0000000000000000e+00  7.0529661049336970e-36 -2.4649144992558528e-04 0.0000000000000000e+00  -5.5565491502398426e-35 -3.0835045181266718e-04 0.0000000000000000e+00  -6.1202480841466003e-19 -3.0835045181266718e-04 0.0000000000000000e+00  -1.2622568383479031e-18 -3.0835045181266724e-04 0.0000000000000000e+00  -1.8918305842072562e-18 -3.0835045181266762e-04 0.0000000000000000e+00  -2.3543612641752943e-18 -3.0835045181266767e-04 0.0000000000000000e+00  -2.7430360197066091e-18 -3.0835045181266827e-04 0.0000000000000000e+00  -2.9658337998632720e-18 -3.0835045181266762e-04 0.0000000000000000e+00  -3.1275034105682867e-18 -3.0835045181266772e-04 0.0000000000000000e+00  -3.2303302879857676e-18 -3.0835045181266805e-04 0.0000000000000000e+00  -3.0964721570979914e-18 -3.0835045181266886e-04 0.0000000000000000e+00  -2.7601452954724427e-18 -3.0835045181266902e-04 0.0000000000000000e+00  -2.3240979297843271e-18 -3.0835045181266984e-04 0.0000000000000000e+00  -1.7706512156198525e-18 -3.0835045181267087e-04 0.0000000000000000e+00  -1.2008700062412463e-18 -3.0835045181267146e-04 0.0000000000000000e+00  -5.5714437420292992e-19 -3.0835045181267195e-04 0.0000000000000000e+00  7.3903386506102959e-35 -3.0835045181267201e-04 0.0000000000000000e+00  -4.2317796629602297e-35 -3.7036601969091059e-04 0.0000000000000000e+00  -8.0293099668323516e-19 -3.7036601969091048e-04 0.0000000000000000e+00  -1.5468637160083470e-18 -3.7036601969091064e-04 0.0000000000000000e+00  -2.1086999916915546e-18 -3.7036601969091102e-04 0.0000000000000000e+00  -2.5732100895983540e-18 -3.7036601969091129e-04 0.0000000000000000e+00  -2.9795046420951082e-18 -3.7036601969091173e-04 0.0000000000000000e+00  -3.2304201919447484e-18 -3.7036601969091129e-04 0.0000000000000000e+00  -3.4355512709872149e-18 -3.7036601969091140e-04 0.0000000000000000e+00  -3.5965486079312136e-18 -3.7036601969091162e-04 0.0000000000000000e+00  -3.4989333895095568e-18 -3.7036601969091238e-04 0.0000000000000000e+00  -3.0677581100936730e-18 -3.7036601969091276e-04 0.0000000000000000e+00  -2.6356222593136131e-18 -3.7036601969091400e-04 0.0000000000000000e+00  -2.0543020739241702e-18 -3.7036601969091493e-04 0.0000000000000000e+00  -1.3702665572281417e-18 -3.7036601969091601e-04 0.0000000000000000e+00  -6.1064706750268112e-19 -3.7036601969091644e-04 0.0000000000000000e+00  -4.7232156394718048e-35 -3.7036601969091617e-04 0.0000000000000000e+00  1.6649804339186636e-34 -4.3256860925607423e-04 0.0000000000000000e+00  -9.1958600206648489e-19 -4.3256860925607439e-04 0.0000000000000000e+00  -1.7179867681921715e-18 -4.3256860925607493e-04 0.0000000000000000e+00  -2.3224596841727786e-18 -4.3256860925607461e-04 0.0000000000000000e+00  -2.7785063130648841e-18 -4.3256860925607564e-04 0.0000000000000000e+00  -3.1467217393555537e-18 -4.3256860925607591e-04 0.0000000000000000e+00  -3.4159634475036671e-18 -4.3256860925607537e-04 0.0000000000000000e+00  -3.6551292774908302e-18 -4.3256860925607586e-04 0.0000000000000000e+00  -3.7340670351142958e-18 -4.3256860925607596e-04 0.0000000000000000e+00  -3.5975428339582734e-18 -4.3256860925607662e-04 0.0000000000000000e+00  -3.2325482583070195e-18 -4.3256860925607743e-04 0.0000000000000000e+00  -2.7316348539843059e-18 -4.3256860925607873e-04 0.0000000000000000e+00  -2.1058017230018510e-18 -4.3256860925608041e-04 0.0000000000000000e+00  -1.3567772756250275e-18 -4.3256860925608106e-04 0.0000000000000000e+00  -6.6239675225950745e-19 -4.3256860925608149e-04 0.0000000000000000e+00  -7.4559927395013625e-35 -4.3256860925608171e-04 0.0000000000000000e+00  -7.0529661049337240e-35 -4.9498821200110669e-04 0.0000000000000000e+00  -8.0401206379292935e-19 -4.9498821200110669e-04 0.0000000000000000e+00  -1.6611432606715299e-18 -4.9498821200110669e-04 0.0000000000000000e+00  -2.5243872603386996e-18 -4.9498821200110756e-04 0.0000000000000000e+00  -3.0497721251039071e-18 -4.9498821200110799e-04 0.0000000000000000e+00  -3.3631049802723869e-18 -4.9498821200110821e-04 0.0000000000000000e+00  -3.6378214436961325e-18 -4.9498821200110810e-04 0.0000000000000000e+00  -3.7983560660618080e-18 -4.9498821200110767e-04 0.0000000000000000e+00  -3.7559253257443570e-18 -4.9498821200110853e-04 0.0000000000000000e+00  -3.6154891133359742e-18 -4.9498821200110897e-04 0.0000000000000000e+00  -3.4904283261750229e-18 -4.9498821200111016e-04 0.0000000000000000e+00  -2.9049945931935105e-18 -4.9498821200111168e-04 0.0000000000000000e+00  -2.1753785021987376e-18 -4.9498821200111330e-04 0.0000000000000000e+00  -1.3917867489151786e-18 -4.9498821200111461e-04 0.0000000000000000e+00  -7.0464556534497793e-19 -4.9498821200111461e-04 0.0000000000000000e+00  5.6423728839469779e-35 -4.9498821200111461e-04 0.0000000000000000e+00  7.0665754086545133e-35 -5.5765428077466793e-04 0.0000000000000000e+00  -8.2701183638245096e-19 -5.5765428077466717e-04 0.0000000000000000e+00  -1.7283587736495431e-18 -5.5765428077466782e-04 0.0000000000000000e+00  -2.5677375322273342e-18 -5.5765428077466826e-04 0.0000000000000000e+00  -3.1065234055305848e-18 -5.5765428077466956e-04 0.0000000000000000e+00  -3.6551756590561000e-18 -5.5765428077466934e-04 0.0000000000000000e+00  -3.8728813958118394e-18 -5.5765428077466880e-04 0.0000000000000000e+00  -3.8966544032624410e-18 -5.5765428077467010e-04 0.0000000000000000e+00  -3.8350143366649312e-18 -5.5765428077466956e-04 0.0000000000000000e+00  -3.9578935672275264e-18 -5.5765428077466967e-04 0.0000000000000000e+00  -3.6261191965178034e-18 -5.5765428077467194e-04 0.0000000000000000e+00  -2.9453011449281992e-18 -5.5765428077467346e-04 0.0000000000000000e+00  -2.2870063379333220e-18 -5.5765428077467530e-04 0.0000000000000000e+00  -1.5881929417516965e-18 -5.5765428077467628e-04 0.0000000000000000e+00  -8.5694666143298701e-19 -5.5765428077467650e-04 0.0000000000000000e+00  8.2083624181439556e-35 -5.5765428077467671e-04 0.0000000000000000e+00  -7.0529661049337304e-35 -6.2059565667654402e-04 0.0000000000000000e+00  -1.0400199410694830e-18 -6.2059565667654500e-04 0.0000000000000000e+00  -1.8736385785804438e-18 -6.2059565667654381e-04 0.0000000000000000e+00  -2.4739118291435793e-18 -6.2059565667654576e-04 0.0000000000000000e+00  -3.2582106534615985e-18 -6.2059565667654652e-04 0.0000000000000000e+00  -3.6290016060438734e-18 -6.2059565667654673e-04 0.0000000000000000e+00  -3.7847897272208988e-18 -6.2059565667654695e-04 0.0000000000000000e+00  -3.9321353780030597e-18 -6.2059565667654684e-04 0.0000000000000000e+00  -4.0582660808457819e-18 -6.2059565667654684e-04 0.0000000000000000e+00  -3.9802736332750033e-18 -6.2059565667654760e-04 0.0000000000000000e+00  -3.7487578697467472e-18 -6.2059565667654977e-04 0.0000000000000000e+00  -3.1770621679284643e-18 -6.2059565667655085e-04 0.0000000000000000e+00  -2.4754697686534013e-18 -6.2059565667655281e-04 0.0000000000000000e+00  -1.8348130072119280e-18 -6.2059565667655487e-04 0.0000000000000000e+00  -1.0339286640559391e-18 -6.2059565667655400e-04 0.0000000000000000e+00  -1.6175548384943394e-34 -6.2059565667655476e-04 0.0000000000000000e+00  2.6402049218348812e-35 -6.8384049747139330e-04 0.0000000000000000e+00  -1.0130580981433320e-18 -6.8384049747139298e-04 0.0000000000000000e+00  -1.9184572654759918e-18 -6.8384049747139308e-04 0.0000000000000000e+00  -2.6033284037209685e-18 -6.8384049747139471e-04 0.0000000000000000e+00  -3.1635056423966932e-18 -6.8384049747139590e-04 0.0000000000000000e+00  -3.6029795009462163e-18 -6.8384049747139612e-04 0.0000000000000000e+00  -3.8498519978634112e-18 -6.8384049747139601e-04 0.0000000000000000e+00  -4.0098322110735717e-18 -6.8384049747139580e-04 0.0000000000000000e+00  -4.1301087403728556e-18 -6.8384049747139580e-04 0.0000000000000000e+00  -3.9321353780030667e-18 -6.8384049747139731e-04 0.0000000000000000e+00  -3.5907945009119954e-18 -6.8384049747139840e-04 0.0000000000000000e+00  -3.2494954537752156e-18 -6.8384049747140111e-04 0.0000000000000000e+00  -2.6052838277736708e-18 -6.8384049747140241e-04 0.0000000000000000e+00  -1.8948003703767367e-18 -6.8384049747140404e-04 0.0000000000000000e+00  -9.0260124789909266e-19 -6.8384049747140425e-04 0.0000000000000000e+00  8.0101543620318600e-35 -6.8384049747140501e-04 0.0000000000000000e+00  -3.5264830524668620e-35 -7.4741620769849077e-04 0.0000000000000000e+00  -1.0406717697433660e-18 -7.4741620769849056e-04 0.0000000000000000e+00  -1.8466859873055269e-18 -7.4741620769849121e-04 0.0000000000000000e+00  -2.3735243720906602e-18 -7.4741620769849251e-04 0.0000000000000000e+00  -2.9798481896795741e-18 -7.4741620769849381e-04 0.0000000000000000e+00  -3.5200043504116883e-18 -7.4741620769849402e-04 0.0000000000000000e+00  -3.9093693171383826e-18 -7.4741620769849392e-04 0.0000000000000000e+00  -4.1297670775476610e-18 -7.4741620769849478e-04 0.0000000000000000e+00  -4.1496314887568939e-18 -7.4741620769849402e-04 0.0000000000000000e+00  -4.0439722574475575e-18 -7.4741620769849478e-04 0.0000000000000000e+00  -3.6060502878742887e-18 -7.4741620769849641e-04 0.0000000000000000e+00  -3.2396201267224617e-18 -7.4741620769849923e-04 0.0000000000000000e+00  -2.4054182160453635e-18 -7.4741620769850042e-04 0.0000000000000000e+00  -1.4458367197468367e-18 -7.4741620769850237e-04 0.0000000000000000e+00  -6.8607512437989954e-19 -7.4741620769850346e-04 0.0000000000000000e+00  6.3476694944403504e-35 -7.4741620769850302e-04 0.0000000000000000e+00  4.8056105589242539e-35 -8.1134937065096625e-04 0.0000000000000000e+00  -8.2158583757812903e-19 -8.1134937065096657e-04 0.0000000000000000e+00  -1.6403941154183396e-18 -8.1134937065096798e-04 0.0000000000000000e+00  -2.4605086194925907e-18 -8.1134937065096874e-04 0.0000000000000000e+00  -3.1195059523430141e-18 -8.1134937065096982e-04 0.0000000000000000e+00  -3.5639199517124083e-18 -8.1134937065097112e-04 0.0000000000000000e+00  -3.9304463164145860e-18 -8.1134937065097004e-04 0.0000000000000000e+00  -4.2635708284147009e-18 -8.1134937065096961e-04 0.0000000000000000e+00  -4.3295587004235690e-18 -8.1134937065097047e-04 0.0000000000000000e+00  -4.1485659139587740e-18 -8.1134937065097167e-04 0.0000000000000000e+00  -3.8667582796629566e-18 -8.1134937065097264e-04 0.0000000000000000e+00  -3.1622399926997973e-18 -8.1134937065097524e-04 0.0000000000000000e+00  -2.2323277268105705e-18 -8.1134937065097806e-04 0.0000000000000000e+00  -1.2773000431203893e-18 -8.1134937065097926e-04 0.0000000000000000e+00  -6.5152133570781844e-19 -8.1134937065098056e-04 0.0000000000000000e+00  -1.0974299463265800e-35 -8.1134937065097969e-04 0.0000000000000000e+00  1.6927118651840919e-34 -8.7566568239335208e-04 0.0000000000000000e+00  -7.2454625098910960e-19 -8.7566568239335295e-04 0.0000000000000000e+00  -1.5689698334740043e-18 -8.7566568239335306e-04 0.0000000000000000e+00  -2.3816717044187758e-18 -8.7566568239335425e-04 0.0000000000000000e+00  -2.8654900035641588e-18 -8.7566568239335685e-04 0.0000000000000000e+00  -3.6151471853092378e-18 -8.7566568239335772e-04 0.0000000000000000e+00  -4.1703990905476736e-18 -8.7566568239335642e-04 0.0000000000000000e+00  -4.4185851154879833e-18 -8.7566568239335642e-04 0.0000000000000000e+00  -4.3303033954763759e-18 -8.7566568239335685e-04 0.0000000000000000e+00  -4.4655309939575297e-18 -8.7566568239335653e-04 0.0000000000000000e+00  -4.2221954133564212e-18 -8.7566568239335946e-04 0.0000000000000000e+00  -3.2826907826220768e-18 -8.7566568239336206e-04 0.0000000000000000e+00  -2.2160488040979497e-18 -8.7566568239336466e-04 0.0000000000000000e+00  -1.4466812505410766e-18 -8.7566568239336607e-04 0.0000000000000000e+00  -7.1691982338066513e-19 -8.7566568239336607e-04 0.0000000000000000e+00  1.5364019248572105e-34 -8.7566568239336639e-04 0.0000000000000000e+00  -2.5504348618694409e-34 -9.4038988798121950e-04 0.0000000000000000e+00  -8.4948451983750429e-19 -9.4038988798122037e-04 0.0000000000000000e+00  -1.5488364871605275e-18 -9.4038988798122156e-04 0.0000000000000000e+00  -2.3106362530533438e-18 -9.4038988798122232e-04 0.0000000000000000e+00  -2.9930171348030151e-18 -9.4038988798122503e-04 0.0000000000000000e+00  -3.6466695712890313e-18 -9.4038988798122460e-04 0.0000000000000000e+00  -4.0754176677683643e-18 -9.4038988798122438e-04 0.0000000000000000e+00  -4.3510226519484031e-18 -9.4038988798122373e-04 0.0000000000000000e+00  -4.5418446527855530e-18 -9.4038988798122514e-04 0.0000000000000000e+00  -4.4443514097142745e-18 -9.4038988798122417e-04 0.0000000000000000e+00  -4.1166375679232546e-18 -9.4038988798122774e-04 0.0000000000000000e+00  -3.4642125348168877e-18 -9.4038988798123165e-04 0.0000000000000000e+00  -2.6498427125559559e-18 -9.4038988798123392e-04 0.0000000000000000e+00  -1.8236071214194122e-18 -9.4038988798123436e-04 0.0000000000000000e+00  -9.2135398754409073e-19 -9.4038988798123533e-04 0.0000000000000000e+00  -1.4408202185793187e-34 -9.4038988798123555e-04 0.0000000000000000e+00  2.2569491535787890e-34 -1.0055457200412305e-03 0.0000000000000000e+00  -8.5405857884470651e-19 -1.0055457200412305e-03 0.0000000000000000e+00  -1.6630402973465024e-18 -1.0055457200412307e-03 0.0000000000000000e+00  -2.2866144118882406e-18 -1.0055457200412331e-03 0.0000000000000000e+00  -2.9824630029054734e-18 -1.0055457200412339e-03 0.0000000000000000e+00  -3.5303002826113687e-18 -1.0055457200412344e-03 0.0000000000000000e+00  -3.8849079577467310e-18 -1.0055457200412346e-03 0.0000000000000000e+00  -4.3313098568029370e-18 -1.0055457200412337e-03 0.0000000000000000e+00  -4.7388961687376495e-18 -1.0055457200412339e-03 0.0000000000000000e+00  -4.5527203580426178e-18 -1.0055457200412359e-03 0.0000000000000000e+00  -3.9339975278435156e-18 -1.0055457200412378e-03 0.0000000000000000e+00  -3.4760887491109553e-18 -1.0055457200412417e-03 0.0000000000000000e+00  -2.8437774362547992e-18 -1.0055457200412439e-03 0.0000000000000000e+00  -1.9322864572317494e-18 -1.0055457200412465e-03 0.0000000000000000e+00  -8.8946173957046396e-19 -1.0055457200412461e-03 0.0000000000000000e+00  4.2317796629602286e-35 -1.0055457200412474e-03 0.0000000000000000e+00  -1.0569460140631956e-34 -1.0711558398640380e-03 0.0000000000000000e+00  -8.9796516969519069e-19 -1.0711558398640378e-03 0.0000000000000000e+00  -1.5212146839146209e-18 -1.0711558398640397e-03 0.0000000000000000e+00  -1.9950246177293532e-18 -1.0711558398640404e-03 0.0000000000000000e+00  -2.6978183727920439e-18 -1.07115583