<?xml version="1.0"?>
<VTKFile type="UnstructuredGrid"  version="0.1"  >
<UnstructuredGrid>
<Piece  NumberOfPoints="1876" NumberOfCells="3600">
<Points>
<DataArray  type="Float64"  NumberOfComponents="3"  format="ascii">-0.75 -3 0  -0.65 -3 0  -0.55 -3 0  -0.45 -3 0  -0.35 -3 0  -0.25 -3 0  -0.15 -3 0  -0.05000000000000004 -3 0  0.05000000000000004 -3 0  0.15 -3 0  0.25 -3 0  0.3500000000000001 -3 0  0.45 -3 0  0.55 -3 0  0.6499999999999999 -3 0  0.75 -3 0  -0.75 -2.95 0  -0.65 -2.95 0  -0.55 -2.95 0  -0.45 -2.95 0  -0.35 -2.95 0  -0.25 -2.95 0  -0.15 -2.95 0  -0.05000000000000004 -2.95 0  0.05000000000000004 -2.95 0  0.15 -2.95 0  0.25 -2.95 0  0.3500000000000001 -2.95 0  0.45 -2.95 0  0.55 -2.95 0  0.6499999999999999 -2.95 0  0.75 -2.95 0  -0.75 -2.9 0  -0.65 -2.9 0  -0.55 -2.9 0  -0.45 -2.9 0  -0.35 -2.9 0  -0.25 -2.9 0  -0.15 -2.9 0  -0.05000000000000004 -2.9 0  0.05000000000000004 -2.9 0  0.15 -2.9 0  0.25 -2.9 0  0.3500000000000001 -2.9 0  0.45 -2.9 0  0.55 -2.9 0  0.6499999999999999 -2.9 0  0.75 -2.9 0  -0.75 -2.85 0  -0.65 -2.85 0  -0.55 -2.85 0  -0.45 -2.85 0  -0.35 -2.85 0  -0.25 -2.85 0  -0.15 -2.85 0  -0.05000000000000004 -2.85 0  0.05000000000000004 -2.85 0  0.15 -2.85 0  0.25 -2.85 0  0.3500000000000001 -2.85 0  0.45 -2.85 0  0.55 -2.85 0  0.6499999999999999 -2.85 0  0.75 -2.85 0  -0.75 -2.8 0  -0.65 -2.8 0  -0.55 -2.8 0  -0.45 -2.8 0  -0.35 -2.8 0  -0.25 -2.8 0  -0.15 -2.8 0  -0.05000000000000004 -2.8 0  0.05000000000000004 -2.8 0  0.15 -2.8 0  0.25 -2.8 0  0.3500000000000001 -2.8 0  0.45 -2.8 0  0.55 -2.8 0  0.6499999999999999 -2.8 0  0.75 -2.8 0  -0.75 -2.75 0  -0.65 -2.75 0  -0.55 -2.75 0  -0.45 -2.75 0  -0.35 -2.75 0  -0.25 -2.75 0  -0.15 -2.75 0  -0.05000000000000004 -2.75 0  0.05000000000000004 -2.75 0  0.15 -2.75 0  0.25 -2.75 0  0.3500000000000001 -2.75 0  0.45 -2.75 0  0.55 -2.75 0  0.6499999999999999 -2.75 0  0.75 -2.75 0  -0.75 -2.7 0  -0.65 -2.7 0  -0.55 -2.7 0  -0.45 -2.7 0  -0.35 -2.7 0  -0.25 -2.7 0  -0.15 -2.7 0  -0.05000000000000004 -2.7 0  0.05000000000000004 -2.7 0  0.15 -2.7 0  0.25 -2.7 0  0.3500000000000001 -2.7 0  0.45 -2.7 0  0.55 -2.7 0  0.6499999999999999 -2.7 0  0.75 -2.7 0  -0.75 -2.65 0  -0.65 -2.65 0  -0.55 -2.65 0  -0.45 -2.65 0  -0.35 -2.65 0  -0.25 -2.65 0  -0.15 -2.65 0  -0.05000000000000004 -2.65 0  0.05000000000000004 -2.65 0  0.15 -2.65 0  0.25 -2.65 0  0.3500000000000001 -2.65 0  0.45 -2.65 0  0.55 -2.65 0  0.6499999999999999 -2.65 0  0.75 -2.65 0  -0.75 -2.6 0  -0.65 -2.6 0  -0.55 -2.6 0  -0.45 -2.6 0  -0.35 -2.6 0  -0.25 -2.6 0  -0.15 -2.6 0  -0.05000000000000004 -2.6 0  0.05000000000000004 -2.6 0  0.15 -2.6 0  0.25 -2.6 0  0.3500000000000001 -2.6 0  0.45 -2.6 0  0.55 -2.6 0  0.6499999999999999 -2.6 0  0.75 -2.6 0  -0.75 -2.55 0  -0.65 -2.55 0  -0.55 -2.55 0  -0.45 -2.55 0  -0.35 -2.55 0  -0.25 -2.55 0  -0.15 -2.55 0  -0.05000000000000004 -2.55 0  0.05000000000000004 -2.55 0  0.15 -2.55 0  0.25 -2.55 0  0.3500000000000001 -2.55 0  0.45 -2.55 0  0.55 -2.55 0  0.6499999999999999 -2.55 0  0.75 -2.55 0  -0.75 -2.5 0  -0.65 -2.5 0  -0.55 -2.5 0  -0.45 -2.5 0  -0.35 -2.5 0  -0.25 -2.5 0  -0.15 -2.5 0  -0.05000000000000004 -2.5 0  0.05000000000000004 -2.5 0  0.15 -2.5 0  0.25 -2.5 0  0.3500000000000001 -2.5 0  0.45 -2.5 0  0.55 -2.5 0  0.6499999999999999 -2.5 0  0.75 -2.5 0  -0.75 -2.45 0  -0.65 -2.45 0  -0.55 -2.45 0  -0.45 -2.45 0  -0.35 -2.45 0  -0.25 -2.45 0  -0.15 -2.45 0  -0.05000000000000004 -2.45 0  0.05000000000000004 -2.45 0  0.15 -2.45 0  0.25 -2.45 0  0.3500000000000001 -2.45 0  0.45 -2.45 0  0.55 -2.45 0  0.6499999999999999 -2.45 0  0.75 -2.45 0  -0.75 -2.4 0  -0.65 -2.4 0  -0.55 -2.4 0  -0.45 -2.4 0  -0.35 -2.4 0  -0.25 -2.4 0  -0.15 -2.4 0  -0.05000000000000004 -2.4 0  0.05000000000000004 -2.4 0  0.15 -2.4 0  0.25 -2.4 0  0.3500000000000001 -2.4 0  0.45 -2.4 0  0.55 -2.4 0  0.6499999999999999 -2.4 0  0.75 -2.4 0  -0.75 -2.35 0  -0.65 -2.35 0  -0.55 -2.35 0  -0.45 -2.35 0  -0.35 -2.35 0  -0.25 -2.35 0  -0.15 -2.35 0  -0.05000000000000004 -2.35 0  0.05000000000000004 -2.35 0  0.15 -2.35 0  0.25 -2.35 0  0.3500000000000001 -2.35 0  0.45 -2.35 0  0.55 -2.35 0  0.6499999999999999 -2.35 0  0.75 -2.35 0  -0.75 -2.3 0  -0.65 -2.3 0  -0.55 -2.3 0  -0.45 -2.3 0  -0.35 -2.3 0  -0.25 -2.3 0  -0.15 -2.3 0  -0.05000000000000004 -2.3 0  0.05000000000000004 -2.3 0  0.15 -2.3 0  0.25 -2.3 0  0.3500000000000001 -2.3 0  0.45 -2.3 0  0.55 -2.3 0  0.6499999999999999 -2.3 0  0.75 -2.3 0  -0.75 -2.25 0  -0.65 -2.25 0  -0.55 -2.25 0  -0.45 -2.25 0  -0.35 -2.25 0  -0.25 -2.25 0  -0.15 -2.25 0  -0.05000000000000004 -2.25 0  0.05000000000000004 -2.25 0  0.15 -2.25 0  0.25 -2.25 0  0.3500000000000001 -2.25 0  0.45 -2.25 0  0.55 -2.25 0  0.6499999999999999 -2.25 0  0.75 -2.25 0  -0.75 -2.2 0  -0.65 -2.2 0  -0.55 -2.2 0  -0.45 -2.2 0  -0.35 -2.2 0  -0.25 -2.2 0  -0.15 -2.2 0  -0.05000000000000004 -2.2 0  0.05000000000000004 -2.2 0  0.15 -2.2 0  0.25 -2.2 0  0.3500000000000001 -2.2 0  0.45 -2.2 0  0.55 -2.2 0  0.6499999999999999 -2.2 0  0.75 -2.2 0  -0.75 -2.15 0  -0.65 -2.15 0  -0.55 -2.15 0  -0.45 -2.15 0  -0.35 -2.15 0  -0.25 -2.15 0  -0.15 -2.15 0  -0.05000000000000004 -2.15 0  0.05000000000000004 -2.15 0  0.15 -2.15 0  0.25 -2.15 0  0.3500000000000001 -2.15 0  0.45 -2.15 0  0.55 -2.15 0  0.6499999999999999 -2.15 0  0.75 -2.15 0  -0.75 -2.1 0  -0.65 -2.1 0  -0.55 -2.1 0  -0.45 -2.1 0  -0.35 -2.1 0  -0.25 -2.1 0  -0.15 -2.1 0  -0.05000000000000004 -2.1 0  0.05000000000000004 -2.1 0  0.15 -2.1 0  0.25 -2.1 0  0.3500000000000001 -2.1 0  0.45 -2.1 0  0.55 -2.1 0  0.6499999999999999 -2.1 0  0.75 -2.1 0  -0.75 -2.05 0  -0.65 -2.05 0  -0.55 -2.05 0  -0.45 -2.05 0  -0.35 -2.05 0  -0.25 -2.05 0  -0.15 -2.05 0  -0.05000000000000004 -2.05 0  0.05000000000000004 -2.05 0  0.15 -2.05 0  0.25 -2.05 0  0.3500000000000001 -2.05 0  0.45 -2.05 0  0.55 -2.05 0  0.6499999999999999 -2.05 0  0.75 -2.05 0  -0.75 -2 0  -0.65 -2 0  -0.55 -2 0  -0.45 -2 0  -0.35 -2 0  -0.25 -2 0  -0.15 -2 0  -0.05000000000000004 -2 0  0.05000000000000004 -2 0  0.15 -2 0  0.25 -2 0  0.3500000000000001 -2 0  0.45 -2 0  0.55 -2 0  0.6499999999999999 -2 0  0.75 -2 0  -0.75 -1.95 0  -0.65 -1.95 0  -0.55 -1.95 0  -0.45 -1.95 0  -0.35 -1.95 0  -0.25 -1.95 0  -0.15 -1.95 0  -0.05000000000000004 -1.95 0  0.05000000000000004 -1.95 0  0.15 -1.95 0  0.25 -1.95 0  0.3500000000000001 -1.95 0  0.45 -1.95 0  0.55 -1.95 0  0.6499999999999999 -1.95 0  0.75 -1.95 0  -0.75 -1.9 0  -0.65 -1.9 0  -0.55 -1.9 0  -0.45 -1.9 0  -0.35 -1.9 0  -0.25 -1.9 0  -0.15 -1.9 0  -0.05000000000000004 -1.9 0  0.05000000000000004 -1.9 0  0.15 -1.9 0  0.25 -1.9 0  0.3500000000000001 -1.9 0  0.45 -1.9 0  0.55 -1.9 0  0.6499999999999999 -1.9 0  0.75 -1.9 0  -0.75 -1.85 0  -0.65 -1.85 0  -0.55 -1.85 0  -0.45 -1.85 0  -0.35 -1.85 0  -0.25 -1.85 0  -0.15 -1.85 0  -0.05000000000000004 -1.85 0  0.05000000000000004 -1.85 0  0.15 -1.85 0  0.25 -1.85 0  0.3500000000000001 -1.85 0  0.45 -1.85 0  0.55 -1.85 0  0.6499999999999999 -1.85 0  0.75 -1.85 0  -0.75 -1.8 0  -0.65 -1.8 0  -0.55 -1.8 0  -0.45 -1.8 0  -0.35 -1.8 0  -0.25 -1.8 0  -0.15 -1.8 0  -0.05000000000000004 -1.8 0  0.05000000000000004 -1.8 0  0.15 -1.8 0  0.25 -1.8 0  0.3500000000000001 -1.8 0  0.45 -1.8 0  0.55 -1.8 0  0.6499999999999999 -1.8 0  0.75 -1.8 0  -0.75 -1.75 0  -0.65 -1.75 0  -0.55 -1.75 0  -0.45 -1.75 0  -0.35 -1.75 0  -0.25 -1.75 0  -0.15 -1.75 0  -0.05000000000000004 -1.75 0  0.05000000000000004 -1.75 0  0.15 -1.75 0  0.25 -1.75 0  0.3500000000000001 -1.75 0  0.45 -1.75 0  0.55 -1.75 0  0.6499999999999999 -1.75 0  0.75 -1.75 0  -0.75 -1.7 0  -0.65 -1.7 0  -0.55 -1.7 0  -0.45 -1.7 0  -0.35 -1.7 0  -0.25 -1.7 0  -0.15 -1.7 0  -0.05000000000000004 -1.7 0  0.05000000000000004 -1.7 0  0.15 -1.7 0  0.25 -1.7 0  0.3500000000000001 -1.7 0  0.45 -1.7 0  0.55 -1.7 0  0.6499999999999999 -1.7 0  0.75 -1.7 0  -0.75 -1.65 0  -0.65 -1.65 0  -0.55 -1.65 0  -0.45 -1.65 0  -0.35 -1.65 0  -0.25 -1.65 0  -0.15 -1.65 0  -0.05000000000000004 -1.65 0  0.05000000000000004 -1.65 0  0.15 -1.65 0  0.25 -1.65 0  0.3500000000000001 -1.65 0  0.45 -1.65 0  0.55 -1.65 0  0.6499999999999999 -1.65 0  0.75 -1.65 0  -0.75 -1.6 0  -0.65 -1.6 0  -0.55 -1.6 0  -0.45 -1.6 0  -0.35 -1.6 0  -0.25 -1.6 0  -0.15 -1.6 0  -0.05000000000000004 -1.6 0  0.05000000000000004 -1.6 0  0.15 -1.6 0  0.25 -1.6 0  0.3500000000000001 -1.6 0  0.45 -1.6 0  0.55 -1.6 0  0.6499999999999999 -1.6 0  0.75 -1.6 0  -0.75 -1.55 0  -0.65 -1.55 0  -0.55 -1.55 0  -0.45 -1.55 0  -0.35 -1.55 0  -0.25 -1.55 0  -0.15 -1.55 0  -0.05000000000000004 -1.55 0  0.05000000000000004 -1.55 0  0.15 -1.55 0  0.25 -1.55 0  0.3500000000000001 -1.55 0  0.45 -1.55 0  0.55 -1.55 0  0.6499999999999999 -1.55 0  0.75 -1.55 0  -0.75 -1.5 0  -0.65 -1.5 0  -0.55 -1.5 0  -0.45 -1.5 0  -0.35 -1.5 0  -0.25 -1.5 0  -0.15 -1.5 0  -0.05000000000000004 -1.5 0  0.05000000000000004 -1.5 0  0.15 -1.5 0  0.25 -1.5 0  0.3500000000000001 -1.5 0  0.45 -1.5 0  0.55 -1.5 0  0.6499999999999999 -1.5 0  0.75 -1.5 0  -0.75 -1.45 0  -0.65 -1.45 0  -0.55 -1.45 0  -0.45 -1.45 0  -0.35 -1.45 0  -0.25 -1.45 0  -0.15 -1.45 0  -0.05000000000000004 -1.45 0  0.05000000000000004 -1.45 0  0.15 -1.45 0  0.25 -1.45 0  0.3500000000000001 -1.45 0  0.45 -1.45 0  0.55 -1.45 0  0.6499999999999999 -1.45 0  0.75 -1.45 0  -0.75 -1.4 0  -0.65 -1.4 0  -0.55 -1.4 0  -0.45 -1.4 0  -0.35 -1.4 0  -0.25 -1.4 0  -0.15 -1.4 0  -0.05000000000000004 -1.4 0  0.05000000000000004 -1.4 0  0.15 -1.4 0  0.25 -1.4 0  0.3500000000000001 -1.4 0  0.45 -1.4 0  0.55 -1.4 0  0.6499999999999999 -1.4 0  0.75 -1.4 0  -0.75 -1.35 0  -0.65 -1.35 0  -0.55 -1.35 0  -0.45 -1.35 0  -0.35 -1.35 0  -0.25 -1.35 0  -0.15 -1.35 0  -0.05000000000000004 -1.35 0  0.05000000000000004 -1.35 0  0.15 -1.35 0  0.25 -1.35 0  0.3500000000000001 -1.35 0  0.45 -1.35 0  0.55 -1.35 0  0.6499999999999999 -1.35 0  0.75 -1.35 0  -0.75 -1.3 0  -0.65 -1.3 0  -0.55 -1.3 0  -0.45 -1.3 0  -0.35 -1.3 0  -0.25 -1.3 0  -0.15 -1.3 0  -0.05000000000000004 -1.3 0  0.05000000000000004 -1.3 0  0.15 -1.3 0  0.25 -1.3 0  0.3500000000000001 -1.3 0  0.45 -1.3 0  0.55 -1.3 0  0.6499999999999999 -1.
[...]
<PointData  Vectors="displacement"> 
<DataArray  type="Float64"  Name="displacement"  NumberOfComponents="3" format="ascii">1.7333369499484976e-31 -1.9515639104739134e-16 0.0000000000000000e+00  1.2615426383097586e-30 -4.3706900078322055e-16 0.0000000000000000e+00  -4.6222318665293818e-31 2.1141942363467408e-16 0.0000000000000000e+00  2.6577833232543946e-30 -2.6122496093322711e-16 0.0000000000000000e+00  5.5466782398352575e-30 -9.7578195523695720e-17 0.0000000000000000e+00  9.2209301206909202e-30 -1.4612628882819389e-16 0.0000000000000000e+00  9.2444637330587654e-31 -2.1141942363467413e-16 0.0000000000000000e+00  -4.5655207993615459e-30 4.6754864725844816e-17 0.0000000000000000e+00  5.5466782398352575e-30 4.8789097761847860e-17 0.0000000000000000e+00  -4.6523458141122315e-30 1.6224813645119483e-17 0.0000000000000000e+00  2.7733391199176270e-30 -3.2526065174565219e-17 0.0000000000000000e+00  -5.8421058310726227e-30 -7.4144747796497220e-18 0.0000000000000000e+00  -1.8488927466117524e-30 2.1141942363467405e-16 0.0000000000000000e+00  3.7077598284412292e-30 -3.9234566116819305e-16 0.0000000000000000e+00  -2.3111159332646928e-30 3.2526065174565271e-16 0.0000000000000000e+00  -4.6222318665293774e-31 -2.6020852139652171e-16 0.0000000000000000e+00  -1.1555579666323373e-30 -1.4912280701752538e+00 0.0000000000000000e+00  7.2070380920818828e-15 -1.4912280701752567e+00 0.0000000000000000e+00  1.5179595275385263e-14 -1.4912280701752596e+00 0.0000000000000000e+00  2.4944867454705841e-14 -1.4912280701752563e+00 0.0000000000000000e+00  3.2809265451474683e-14 -1.4912280701752543e+00 0.0000000000000000e+00  4.3498922772083729e-14 -1.4912280701752521e+00 0.0000000000000000e+00  5.2148900271619899e-14 -1.4912280701752434e+00 0.0000000000000000e+00  5.4631069947459774e-14 -1.4912280701752354e+00 0.0000000000000000e+00  5.6239360070759741e-14 -1.4912280701752250e+00 0.0000000000000000e+00  4.9854183977006933e-14 -1.4912280701752161e+00 0.0000000000000000e+00  4.3063309716107608e-14 -1.4912280701752116e+00 0.0000000000000000e+00  3.7954749076890760e-14 -1.4912280701752070e+00 0.0000000000000000e+00  3.0032942516255927e-14 -1.4912280701752012e+00 0.0000000000000000e+00  2.0053135147664122e-14 -1.4912280701751970e+00 0.0000000000000000e+00  1.0861597381696324e-14 -1.4912280701751954e+00 0.0000000000000000e+00  -1.6757773731424594e-30 -1.4912280701751945e+00 0.0000000000000000e+00  1.5888922041194706e-30 -2.9824561403505330e+00 0.0000000000000000e+00  1.3852709026687785e-14 -2.9824561403505334e+00 0.0000000000000000e+00  2.9345436878771551e-14 -2.9824561403505321e+00 0.0000000000000000e+00  4.6360146110144252e-14 -2.9824561403505285e+00 0.0000000000000000e+00  6.3887093385547834e-14 -2.9824561403505276e+00 0.0000000000000000e+00  7.9411065442974331e-14 -2.9824561403505201e+00 0.0000000000000000e+00  9.4844872505223994e-14 -2.9824561403505037e+00 0.0000000000000000e+00  1.0176278427690754e-13 -2.9824561403504841e+00 0.0000000000000000e+00  1.0137414602959658e-13 -2.9824561403504624e+00 0.0000000000000000e+00  9.2363874490309371e-14 -2.9824561403504455e+00 0.0000000000000000e+00  8.0600081932601873e-14 -2.9824561403504362e+00 0.0000000000000000e+00  7.0699119255848448e-14 -2.9824561403504215e+00 0.0000000000000000e+00  5.6086850829686145e-14 -2.9824561403504104e+00 0.0000000000000000e+00  3.7007642487826390e-14 -2.9824561403504046e+00 0.0000000000000000e+00  1.8876869329681361e-14 -2.9824561403503980e+00 0.0000000000000000e+00  1.2215898504399036e-30 -2.9824561403503984e+00 0.0000000000000000e+00  6.9333477997940543e-31 -4.4736842105257946e+00 0.0000000000000000e+00  2.1094741895867744e-14 -4.4736842105257946e+00 0.0000000000000000e+00  4.1151968469553543e-14 -4.4736842105258008e+00 0.0000000000000000e+00  6.5374730257548795e-14 -4.4736842105257910e+00 0.0000000000000000e+00  9.0833472889363573e-14 -4.4736842105257901e+00 0.0000000000000000e+00  1.1069497131498685e-13 -4.4736842105257821e+00 0.0000000000000000e+00  1.2965169748753941e-13 -4.4736842105257484e+00 0.0000000000000000e+00  1.4013245850935699e-13 -4.4736842105257253e+00 0.0000000000000000e+00  1.3879164157670464e-13 -4.4736842105256880e+00 0.0000000000000000e+00  1.2787708526580502e-13 -4.4736842105256640e+00 0.0000000000000000e+00  1.1426193614485308e-13 -4.4736842105256445e+00 0.0000000000000000e+00  9.7449151417237342e-14 -4.4736842105256285e+00 0.0000000000000000e+00  7.8908397091631729e-14 -4.4736842105256089e+00 0.0000000000000000e+00  5.0889585318863501e-14 -4.4736842105255974e+00 0.0000000000000000e+00  2.4225462627513002e-14 -4.4736842105255885e+00 0.0000000000000000e+00  -4.1600086798764308e-30 -4.4736842105255832e+00 0.0000000000000000e+00  7.8490605651541825e-33 -5.9649122807010695e+00 0.0000000000000000e+00  2.6484830989406620e-14 -5.9649122807010748e+00 0.0000000000000000e+00  5.2545442420952797e-14 -5.9649122807010801e+00 0.0000000000000000e+00  8.1994244817434336e-14 -5.9649122807010739e+00 0.0000000000000000e+00  1.1162576907732666e-13 -5.9649122807010633e+00 0.0000000000000000e+00  1.3598428853927557e-13 -5.9649122807010526e+00 0.0000000000000000e+00  1.5903675365282458e-13 -5.9649122807010126e+00 0.0000000000000000e+00  1.7281049946891724e-13 -5.9649122807009700e+00 0.0000000000000000e+00  1.6811133327424436e-13 -5.9649122807009229e+00 0.0000000000000000e+00  1.5633569548564660e-13 -5.9649122807008883e+00 0.0000000000000000e+00  1.4511126396243596e-13 -5.9649122807008634e+00 0.0000000000000000e+00  1.2082585295726372e-13 -5.9649122807008483e+00 0.0000000000000000e+00  9.4704529339716046e-14 -5.9649122807008217e+00 0.0000000000000000e+00  6.3033112279501325e-14 -5.9649122807008013e+00 0.0000000000000000e+00  3.0236939674904629e-14 -5.9649122807007968e+00 0.0000000000000000e+00  5.7984247968515464e-31 -5.9649122807007826e+00 0.0000000000000000e+00  -1.8488927466117517e-30 -7.4561403508763435e+00 0.0000000000000000e+00  2.9715329529278689e-14 -7.4561403508763489e+00 0.0000000000000000e+00  6.2717571534628692e-14 -7.4561403508763506e+00 0.0000000000000000e+00  9.6677828743993701e-14 -7.4561403508763373e+00 0.0000000000000000e+00  1.2808269953094201e-13 -7.4561403508763267e+00 0.0000000000000000e+00  1.5762413559318383e-13 -7.4561403508763098e+00 0.0000000000000000e+00  1.8438012326847923e-13 -7.4561403508762707e+00 0.0000000000000000e+00  1.9877325506768282e-13 -7.4561403508762218e+00 0.0000000000000000e+00  1.9468243804151172e-13 -7.4561403508761463e+00 0.0000000000000000e+00  1.8289444753225869e-13 -7.4561403508761082e+00 0.0000000000000000e+00  1.6605557143698802e-13 -7.4561403508760771e+00 0.0000000000000000e+00  1.3897335373162208e-13 -7.4561403508760353e+00 0.0000000000000000e+00  1.0798214024836641e-13 -7.4561403508760167e+00 0.0000000000000000e+00  7.3003239017977277e-14 -7.4561403508759865e+00 0.0000000000000000e+00  3.6714630738069126e-14 -7.4561403508759767e+00 0.0000000000000000e+00  -8.1177947155922201e-30 -7.4561403508759767e+00 0.0000000000000000e+00  1.5227177496399235e-30 -8.9473684210516033e+00 0.0000000000000000e+00  3.2179087626705032e-14 -8.9473684210516122e+00 0.0000000000000000e+00  7.0575329191133906e-14 -8.9473684210516158e+00 0.0000000000000000e+00  1.0843903209580261e-13 -8.9473684210516033e+00 0.0000000000000000e+00  1.4424874277881446e-13 -8.9473684210515891e+00 0.0000000000000000e+00  1.7665710091275528e-13 -8.9473684210515767e+00 0.0000000000000000e+00  2.0493639581020221e-13 -8.9473684210515163e+00 0.0000000000000000e+00  2.1827947420819775e-13 -8.9473684210514417e+00 0.0000000000000000e+00  2.1254492741414713e-13 -8.9473684210513653e+00 0.0000000000000000e+00  2.0451736091688502e-13 -8.9473684210513138e+00 0.0000000000000000e+00  1.8255325283245862e-13 -8.9473684210512801e+00 0.0000000000000000e+00  1.5394837802457042e-13 -8.9473684210512374e+00 0.0000000000000000e+00  1.2031498792562400e-13 -8.9473684210512054e+00 0.0000000000000000e+00  8.1457407297488416e-14 -8.9473684210511770e+00 0.0000000000000000e+00  4.2920313295976278e-14 -8.9473684210511628e+00 0.0000000000000000e+00  6.9003318578902425e-30 -8.9473684210511415e+00 0.0000000000000000e+00  9.2444637330587391e-31 -1.0438596491226894e+01 0.0000000000000000e+00  3.4217528304454696e-14 -1.0438596491226891e+01 0.0000000000000000e+00  7.8313624231987332e-14 -1.0438596491226916e+01 0.0000000000000000e+00  1.2037697712728249e-13 -1.0438596491226880e+01 0.0000000000000000e+00  1.5782909994462803e-13 -1.0438596491226875e+01 0.0000000000000000e+00  1.9184025169254458e-13 -1.0438596491226848e+01 0.0000000000000000e+00  2.1864558970559171e-13 -1.0438596491226770e+01 0.0000000000000000e+00  2.3130706886016525e-13 -1.0438596491226692e+01 0.0000000000000000e+00  2.3023804455406526e-13 -1.0438596491226610e+01 0.0000000000000000e+00  2.1797415404657927e-13 -1.0438596491226539e+01 0.0000000000000000e+00  1.9247564264971752e-13 -1.0438596491226495e+01 0.0000000000000000e+00  1.6763928638447783e-13 -1.0438596491226447e+01 0.0000000000000000e+00  1.3387232098768758e-13 -1.0438596491226418e+01 0.0000000000000000e+00  8.9179814891470631e-14 -1.0438596491226370e+01 0.0000000000000000e+00  4.4061091825672515e-14 -1.0438596491226356e+01 0.0000000000000000e+00  -6.0089014264881794e-30 -1.0438596491226342e+01 0.0000000000000000e+00  -1.3833880389227839e-30 -1.1929824561402166e+01 0.0000000000000000e+00  4.2502288665954376e-14 -1.1929824561402162e+01 0.0000000000000000e+00  8.2340501023351416e-14 -1.1929824561402189e+01 0.0000000000000000e+00  1.2984658611427754e-13 -1.1929824561402144e+01 0.0000000000000000e+00  1.7126010039860806e-13 -1.1929824561402146e+01 0.0000000000000000e+00  2.0241340152631843e-13 -1.1929824561402125e+01 0.0000000000000000e+00  2.2770840557534236e-13 -1.1929824561402025e+01 0.0000000000000000e+00  2.4256835826129926e-13 -1.1929824561401928e+01 0.0000000000000000e+00  2.4094791195261036e-13 -1.1929824561401828e+01 0.0000000000000000e+00  2.2328581371770978e-13 -1.1929824561401761e+01 0.0000000000000000e+00  2.0446968262911648e-13 -1.1929824561401704e+01 0.0000000000000000e+00  1.7618341601727161e-13 -1.1929824561401661e+01 0.0000000000000000e+00  1.4527986076217796e-13 -1.1929824561401601e+01 0.0000000000000000e+00  9.6356925925394676e-14 -1.1929824561401567e+01 0.0000000000000000e+00  4.1172284268743209e-14 -1.1929824561401539e+01 0.0000000000000000e+00  1.2371975615769714e-29 -1.1929824561401533e+01 0.0000000000000000e+00  3.6977854932234795e-30 -1.3421052631577437e+01 0.0000000000000000e+00  4.4026783638288508e-14 -1.3421052631577444e+01 0.0000000000000000e+00  8.8634895854952914e-14 -1.3421052631577462e+01 0.0000000000000000e+00  1.3892621852428784e-13 -1.3421052631577439e+01 0.0000000000000000e+00  1.7965708168362866e-13 -1.3421052631577425e+01 0.0000000000000000e+00  2.0830136328446124e-13 -1.3421052631577396e+01 0.0000000000000000e+00  2.3341351849957614e-13 -1.3421052631577286e+01 0.0000000000000000e+00  2.5243718576424744e-13 -1.3421052631577174e+01 0.0000000000000000e+00  2.4557323166621955e-13 -1.3421052631577064e+01 0.0000000000000000e+00  2.2712960073807619e-13 -1.3421052631576989e+01 0.0000000000000000e+00  2.1511185206230560e-13 -1.3421052631576915e+01 0.0000000000000000e+00  1.8406871285546479e-13 -1.3421052631576876e+01 0.0000000000000000e+00  1.4907193365042833e-13 -1.3421052631576837e+01 0.0000000000000000e+00  9.7461520528394521e-14 -1.3421052631576769e+01 0.0000000000000000e+00  4.3025102968948805e-14 -1.3421052631576758e+01 0.0000000000000000e+00  -4.9584186791069811e-30 -1.3421052631576712e+01 0.0000000000000000e+00  6.3661508098921770e-31 -1.4912280701752714e+01 0.0000000000000000e+00  4.4368283424172577e-14 -1.4912280701752717e+01 0.0000000000000000e+00  9.6588588273939608e-14 -1.4912280701752739e+01 0.0000000000000000e+00  1.4410131845616442e-13 -1.4912280701752692e+01 0.0000000000000000e+00  1.8350000505811251e-13 -1.4912280701752701e+01 0.0000000000000000e+00  2.1330315548544933e-13 -1.4912280701752627e+01 0.0000000000000000e+00  2.3698145064313433e-13 -1.4912280701752557e+01 0.0000000000000000e+00  2.5717346776885831e-13 -1.4912280701752413e+01 0.0000000000000000e+00  2.5297664113412041e-13 -1.4912280701752282e+01 0.0000000000000000e+00  2.3358024363958047e-13 -1.4912280701752231e+01 0.0000000000000000e+00  2.1739315413014241e-13 -1.4912280701752129e+01 0.0000000000000000e+00  1.8715216257937314e-13 -1.4912280701752040e+01 0.0000000000000000e+00  1.5007771115418317e-13 -1.4912280701752023e+01 0.0000000000000000e+00  9.7750977728974278e-14 -1.4912280701751936e+01 0.0000000000000000e+00  4.8108268783212364e-14 -1.4912280701751934e+01 0.0000000000000000e+00  4.2260405636840062e-30 -1.4912280701751911e+01 0.0000000000000000e+00  4.6222318665293492e-30 -1.6403508771927957e+01 0.0000000000000000e+00  4.2217575050437939e-14 -1.6403508771927996e+01 0.0000000000000000e+00  9.8237161485180070e-14 -1.6403508771928021e+01 0.0000000000000000e+00  1.4686640830341670e-13 -1.6403508771927982e+01 0.0000000000000000e+00  1.8635633139294266e-13 -1.6403508771927960e+01 0.0000000000000000e+00  2.1655142688878215e-13 -1.6403508771927893e+01 0.0000000000000000e+00  2.4229953319701198e-13 -1.6403508771927800e+01 0.0000000000000000e+00  2.6037848271706831e-13 -1.6403508771927648e+01 0.0000000000000000e+00  2.5674495519940131e-13 -1.6403508771927509e+01 0.0000000000000000e+00  2.4054693143473463e-13 -1.6403508771927431e+01 0.0000000000000000e+00  2.0950933841588216e-13 -1.6403508771927346e+01 0.0000000000000000e+00  1.8963014722783563e-13 -1.6403508771927243e+01 0.0000000000000000e+00  1.4968934984077219e-13 -1.6403508771927214e+01 0.0000000000000000e+00  1.0335409010600975e-13 -1.6403508771927140e+01 0.0000000000000000e+00  5.1922807360692816e-14 -1.6403508771927111e+01 0.0000000000000000e+00  5.5466782398352168e-30 -1.6403508771927097e+01 0.0000000000000000e+00  6.5009949061938875e-30 -1.7894736842103249e+01 0.0000000000000000e+00  4.2868740428890735e-14 -1.7894736842103267e+01 0.0000000000000000e+00  9.9293385621346445e-14 -1.7894736842103285e+01 0.0000000000000000e+00  1.4692233358161556e-13 -1.7894736842103249e+01 0.0000000000000000e+00  1.8899850734527069e-13 -1.7894736842103232e+01 0.0000000000000000e+00  2.1703004754902928e-13 -1.7894736842103164e+01 0.0000000000000000e+00  2.4438568777676206e-13 -1.7894736842103040e+01 0.0000000000000000e+00  2.6454955849634488e-13 -1.7894736842102905e+01 0.0000000000000000e+00  2.5554243625263616e-13 -1.7894736842102763e+01 0.0000000000000000e+00  2.4126759009499842e-13 -1.7894736842102670e+01 0.0000000000000000e+00  2.0849445484225414e-13 -1.7894736842102571e+01 0.0000000000000000e+00  1.9107544151893266e-13 -1.7894736842102475e+01 0.0000000000000000e+00  1.5476740063960006e-13 -1.7894736842102411e+01 0.0000000000000000e+00  1.0279372676126104e-13 -1.7894736842102343e+01 0.0000000000000000e+00  5.1295650536009345e-14 -1.7894736842102329e+01 0.0000000000000000e+00  -2.6432249206612571e-30 -1.7894736842102294e+01 0.0000000000000000e+00  -5.5466782398352435e-30 -1.9385964912278514e+01 0.0000000000000000e+00  5.1191863613352026e-14 -1.9385964912278538e+01 0.0000000000000000e+00  9.9636552360119857e-14 -1.9385964912278556e+01 0.0000000000000000e+00  1.4830189857227477e-13 -1.9385964912278510e+01 0.0000000000000000e+00  1.8849959486284489e-13 -1.9385964912278492e+01 0.0000000000000000e+00  2.1609997678403937e-13 -1.9385964912278446e+01 0.0000000000000000e+00  2.4530643100156410e-13 -1.9385964912278279e+01 0.0000000000000000e+00  2.6163501114462052e-13 -1.9385964912278155e+01 0.0000000000000000e+00  2.5843358748104113e-13 -1.9385964912278002e+01 0.0000000000000000e+00  2.3823741814519857e-13 -1.9385964912277863e+01 0.0000000000000000e+00  2.1405551681747977e-13 -1.9385964912277764e+01 0.0000000000000000e+00  1.8857567972168420e-13 -1.9385964912277704e+01 0.0000000000000000e+00  1.5614556684044102e-13 -1.9385964912277608e+01 0.0000000000000000e+00  1.0400106248645779e-13 -1.9385964912277547e+01 0.0000000000000000e+00  4.4170210730314561e-14 -1.9385964912277533e+01 0.0000000000000000e+00  -1.8215987895891030e-30 -1.9385964912277466e+01 0.0000000000000000e+00  5.7948368522373114e-30 -2.0877192982453820e+01 0.0000000000000000e+00  5.4306590510011821e-14 -2.0877192982453813e+01 0.0000000000000000e+00  1.0511972247865386e-13 -2.0877192982453828e+01 0.0000000000000000e+00  1.4855920046904298e-13 -2.0877192982453806e+01 0.0000000000000000e+00  1.8798447970632026e-13 -2.0877192982453764e+01 0.0000000000000000e+00  2.1519490445614082e-13 -2.0877192982453725e+01 0.0000000000000000e+00  2.3996415144337917e-13 -2.0877192982453558e+01 0.0000000000000000e+00  2.6262100166786412e-13 -2.0877192982453391e+01 0.0000000000000000e+00  2.5932033369931632e-13 -2.0877192982453213e+01 0.0000000000000000e+00  2.3544844187359453e-13 -2.0877192982453124e+01 0.0000000000000000e+00  2.1861919851299257e-13 -2.0877192982453018e+01 0.0000000000000000e+00  1.8785546704666162e-13 -2.0877192982452915e+01 0.0000000000000000e+00  1.5030778215161806e-13 -2.0877192982452847e+01 0.0000000000000000e+00  1.0292431043206543e-13 -2.0877192982452744e+01 0.0000000000000000e+00  4.5563430239216533e-14 -2.0877192982452712e+01 0.0000000000000000e+00  -2.8723869456289519e-30 -2.0877192982452701e+01 0.0000000000000000e+00  1.0168910106364635e-29 -2.2368421052629092e+01 0.0000000000000000e+00  5.9459212842765446e-14 -2.2368421052629106e+01 0.0000000000000000e+00  1.1737148094270069e-13 -2.2368421052629106e+01 0.0000000000000000e+00  1.5682781799375212e-13 -2.2368421052629056e+01 0.0000000000000000e+00  1.8690923945277443e-13 -2.2368421052629014e+01 0.0000000000000000e+00  2.1071647850053962e-13 -2.2368421052628982e+01 0.0000000000000000e+00  2.3971476391978491e-13 -2.2368421052628829e+01 0.0000000000000000e+00  2.5744396480155738e-13 -2.2368421052628655e+01 0.0000000000000000e+00  2.5799100103365918e-13 -2.2368421052628463e+01 0.0000000000000000e+00  2.3868380843447992e-13 -2.2368421052628346e+01 0.0000000000000000e+00  2.1863348590743717e-13 -2.2368421052628257e+01 0.0000000000000000e+00  1.8766149789248217e-13 -2.2368421052628111e+01 0.0000000000000000e+00  1.4551021027585631e-13 -2.2368421052628047e+01 0.0000000000000000e+00  9.5085762897528383e-14 -2.2368421052627951e+01 0.0000000000000000e+00  4.8570820375996142e-14 -2.2368421052627902e+01 0.0000000000000000e+00  1.3866695599588135e-30 -2.2368421052627916e+01 0.0000000000000000e+00  -6.5300941354110927e-30 -2.3859649122804385e+01 0.0000000000000000e+00  5.9384175863433550e-14 -2.3859649122804353e+01 0.0000000000000000e+00  1.2755516436760883e-13 -2.3859649122804345e+01 0.0000000000000000e+00  1.6723830514693876e-13 -2.3859649122804317e+01 0.0000000000000000e+00  1.8808420895186756e-13 -2.3859649122804271e+01 0.0000000000000000e+00  2.0907199456540894e-13 -2.3859649122804221e+01 0.0000000000000000e+00  2.4207029660399068e-13 -2.3859649122804072e+01 0.0000000000000000e+00  2.5278687871761533e-13 -2.3859649122803880e+01 0.0000000000000000e+00  2.4883602319484477e-13 -2.3859649122803713e+01 0.0000000000000000e+00  2.4751128324950179e-13 -2.3859649122803571e+01 0.0000000000000000e+00  2.1495130909440632e-13 -2.3859649122803486e+01 0.0000000000000000e+00  1.8628463966226357e-13 -2.3859649122803347e+01 0.0000000000000000e+00  1.4113979972889941e-13 -2.3859649122803265e+01 0.0000000000000000e+00  9.5976317183045213e-14 -2.3859649122803184e+01 0.0000000000000000e+00  4.9653764000430282e-14 -2.3859649122803127e+01 0.0000000000000000e+00  5.4612962412841540e-30 -2.3859649122803098e+01 0.0000000000000000e+00  4.6222318665293696e-30 -2.5350877192979684e+01 0.0000000000000000e+00  6.1559225248974863e-14 -2.5350877192979645e+01 0.0000000000000000e+00  1.3412600149297191e-13 -2.5350877192979681e+01 0.0000000000000000e+00  1.7373989979324740e-13 -2.5350877192979560e+01 0.0000000000000000e+00  1.9910541733263859e-13 -2.5350877192979535e+01 0.0000000000000000e+00  2.1530919230896293e-13 -2.5350877192979492e+01 0.0000000000000000e+00  2.3260033993547214e-13 -2.5350877192979301e+01 0.0000000000000000e+00  2.4432231167163555e-13 -2.5350877192979130e+01 0.0000